                         Program Version 3.0.3 - RELEASE   -
|  1> ! RI-MP2 RIJK def2-TZVP def2-TZVP/C def2-TZVP/JK TIGHTSCF
|  2> % maxcore 2000
|  3> % mp2 density relaxed end
|  4> *xyz 0 1
|  5>  C        0.0899799792     1.5656286323    -0.2001942458
|  6>  C        0.0811358810     0.0363301194    -0.1951595312
|  7>  C       -1.3167594586    -0.5586748390     0.0666009211
|  8>  C       -2.2797205499    -0.1938112212    -0.9745245615
|  9>  N       -3.0185957290     0.1014260294    -1.8127689639
| 10>  C       -1.2709068412    -2.0977799042     0.2454614320
| 11>  O       -0.2253796512    -2.7005602110     0.2697740287
| 12>  C       -2.5516090732    -2.7444612590     0.4262303016
| 13>  C       -3.6259015438    -3.2623307080     0.5862682347
| 14>  H        1.1023416207     1.9383712280    -0.3783496610
| 15>  H       -0.5592510816     1.9686472959    -0.9833383228
| 16>  H       -0.2498755094     1.9702755865     0.7595612783
| 17>  H        0.4534664512    -0.3547535039    -1.1468305809
| 18>  H        0.7473090362    -0.3540997201     0.5786174507
| 19>  H       -1.7111535295    -0.1639696770     1.0155717172
| 20>  H       -4.5721399409    -3.7289790380     0.7206849327
| 21> *
| 22>
| 23>                          ****END OF INPUT****

CARTESIAN COORDINATES (ANGSTROEM)
---------------------------------
  C      0.089980    1.565629   -0.200194
  C      0.081136    0.036330   -0.195160
  C     -1.316759   -0.558675    0.066601
  C     -2.279721   -0.193811   -0.974525
  N     -3.018596    0.101426   -1.812769
  C     -1.270907   -2.097780    0.245461
  O     -0.225380   -2.700560    0.269774
  C     -2.551609   -2.744461    0.426230
  C     -3.625902   -3.262331    0.586268
  H      1.102342    1.938371   -0.378350
  H     -0.559251    1.968647   -0.983338
  H     -0.249876    1.970276    0.759561
  H      0.453466   -0.354754   -1.146831
  H      0.747309   -0.354100    0.578617
  H     -1.711154   -0.163970    1.015572
  H     -4.572140   -3.728979    0.720685

 Total Charge           Charge          ....    0
 Multiplicity           Mult            ....    1
 Number of Electrons    NEL             ....   64
 Basis Dimension        Dim             ....  321

ORBITAL ENERGIES
----------------

  NO   OCC          E(Eh)            E(eV)
   0   2.0000     -20.589790      -560.2767
   1   2.0000     -15.583280      -424.0426
   2   2.0000     -11.390083      -309.9399
   3   2.0000     -11.311367      -307.7979
   4   2.0000     -11.286158      -307.1120
   5   2.0000     -11.280400      -306.9553
   6   2.0000     -11.267347      -306.6001
   7   2.0000     -11.256276      -306.2988
   8   2.0000     -11.234511      -305.7066
   9   2.0000      -1.433402       -39.0048
  10   2.0000      -1.233242       -33.5582
  11   2.0000      -1.127466       -30.6799
  12   2.0000      -1.077843       -29.3296
  13   2.0000      -1.009712       -27.4757
  14   2.0000      -0.904087       -24.6015
  15   2.0000      -0.850069       -23.1315
  16   2.0000      -0.764903       -20.8141
  17   2.0000      -0.734130       -19.9767
  18   2.0000      -0.709418       -19.3042
  19   2.0000      -0.681595       -18.5471
  20   2.0000      -0.624758       -17.0005
  21   2.0000      -0.606377       -16.5003
  22   2.0000      -0.576945       -15.6995
  23   2.0000      -0.557708       -15.1760
  24   2.0000      -0.543551       -14.7908
  25   2.0000      -0.525949       -14.3118
  26   2.0000      -0.510496       -13.8913
  27   2.0000      -0.500151       -13.6098
  28   2.0000      -0.467598       -12.7240
  29   2.0000      -0.452020       -12.3001
  30   2.0000      -0.437136       -11.8951
  31   2.0000      -0.433142       -11.7864
  32   0.0000       0.061372         1.6700
  33   0.0000       0.115399         3.1402
  34   0.0000       0.143599         3.9075
  35   0.0000       0.147911         4.0249
  36   0.0000       0.153063         4.1651

MULLIKEN ATOMIC CHARGES
-----------------------
   0 C :   -0.405203
   1 C :   -0.203339
   2 C :    0.026217
   3 C :   -0.208126
   4 N :   -0.052153
   5 C :    0.016211
   6 O :   -0.242077
   7 C :    0.062762
   8 C :   -0.059576
   9 H :    0.145593
  10 H :    0.154173
  11 H :    0.125437
  12 H :    0.134547
  13 H :    0.143310
  14 H :    0.152195
  15 H :    0.210028
Sum of atomic charges:   -0.0000000

LOEWDIN ATOMIC CHARGES
----------------------
   0 C :   -0.308287
   1 C :   -0.245759
   2 C :   -0.207256
   3 C :   -0.166066
   4 N :    0.073818
   5 C :   -0.287154
   6 O :    0.205359
   7 C :   -0.056976
   8 C :   -0.015108
   9 H :    0.127142
  10 H :    0.129479
  11 H :    0.123356
  12 H :    0.149277
  13 H :    0.148616
  14 H :    0.193470
  15 H :    0.136088

  Mayer bond orders larger than 0.1
B(  0-C ,  1-C ) :   0.9138 B(  0-C ,  9-H ) :   0.9400 B(  0-C , 10-H ) :   0.9336
B(  0-C , 11-H ) :   0.9341 B(  1-C ,  2-C ) :   0.9089 B(  1-C , 12-H ) :   0.9197
B(  1-C , 13-H ) :   0.9302 B(  2-C ,  3-C ) :   0.8979 B(  2-C ,  5-C ) :   0.9265
B(  2-C ,  7-C ) :  -0.1139 B(  2-C , 14-H ) :   0.8895 B(  3-C ,  4-N ) :   2.8538
B(  5-C ,  6-O ) :   2.0072 B(  5-C ,  7-C ) :   1.0554 B(  5-C ,  8-C ) :  -0.1140
B(  7-C ,  8-C ) :   2.6090 B(  8-C , 15-H ) :   0.8822

MP2 TOTAL ENERGY:     -400.036982663 Eh
FINAL SINGLE POINT ENERGY      -400.036982662959

DIPOLE MOMENT
-------------
                                X             Y             Z
Electronic contribution:     -5.30120      -7.99873      -0.64720
Nuclear contribution   :      5.34700       8.09836       1.66959
                        -----------------------------------------
Total Dipole Moment    :      0.04580       0.09963       1.02239
                        -----------------------------------------
Magnitude (a.u.)       :      1.02826
Magnitude (Debye)      :      2.61362

                             ****ORCA TERMINATED NORMALLY****
TOTAL RUN TIME: 0 days 0 hours 15 minutes 34 seconds 76 msec
