                         Program Version 3.0.3 - RELEASE   -
|  1> ! RI-MP2 RIJK def2-TZVP def2-TZVP/C def2-TZVP/JK TIGHTSCF
|  2> % maxcore 2000
|  3> % mp2 density relaxed end
|  4> *xyz 0 1
|  5>  O        0.1250475673     1.3652399792     0.2844470656
|  6>  C        0.0673558602    -0.0412533429     0.1349315314
|  7>  C       -1.3498425552    -0.5381488533    -0.0402629592
|  8>  C       -2.3472338985    -0.3775622486     1.1343078959
|  9>  C       -2.5773710775    -1.9232013350     1.1441692957
| 10>  C       -1.6808022144    -2.0613256182    -0.1168730105
| 11>  N       -2.4189004125    -2.2210652306    -1.3780823792
| 12>  C       -2.4493751457    -1.0722557056    -1.9136899705
| 13>  O       -1.8632052620    -0.0106063878    -1.2991191804
| 14>  H       -0.2851421074     1.7452477750    -0.5005718179
| 15>  H        0.6770325166    -0.3876988492    -0.7146921312
| 16>  H        0.4935764070    -0.4701400530     1.0481048478
| 17>  H       -1.9082978171     0.0444662676     2.0404504930
| 18>  H       -3.2244270874     0.2140211664     0.8662794061
| 19>  H       -2.1692520532    -2.4243702082     2.0251098210
| 20>  H       -3.6058144752    -2.2558871475     0.9940559678
| 21>  H       -0.8642446725    -2.7866619328    -0.0602309019
| 22>  H       -2.9155554424    -0.8350548353    -2.8639265634
| 23> *
| 24>
| 25>                          ****END OF INPUT****

CARTESIAN COORDINATES (ANGSTROEM)
---------------------------------
  O      0.125048    1.365240    0.284447
  C      0.067356   -0.041253    0.134932
  C     -1.349843   -0.538149   -0.040263
  C     -2.347234   -0.377562    1.134308
  C     -2.577371   -1.923201    1.144169
  C     -1.680802   -2.061326   -0.116873
  N     -2.418900   -2.221065   -1.378082
  C     -2.449375   -1.072256   -1.913690
  O     -1.863205   -0.010606   -1.299119
  H     -0.285142    1.745248   -0.500572
  H      0.677033   -0.387699   -0.714692
  H      0.493576   -0.470140    1.048105
  H     -1.908298    0.044466    2.040450
  H     -3.224427    0.214021    0.866279
  H     -2.169252   -2.424370    2.025110
  H     -3.605814   -2.255887    0.994056
  H     -0.864245   -2.786662   -0.060231
  H     -2.915555   -0.835055   -2.863927

 Total Charge           Charge          ....    0
 Multiplicity           Mult            ....    1
 Number of Electrons    NEL             ....   68
 Basis Dimension        Dim             ....  333

ORBITAL ENERGIES
----------------

  NO   OCC          E(Eh)            E(eV)
   0   2.0000     -20.600684      -560.5731
   1   2.0000     -20.562814      -559.5426
   2   2.0000     -15.554386      -423.2564
   3   2.0000     -11.337572      -308.5110
   4   2.0000     -11.297976      -307.4336
   5   2.0000     -11.286700      -307.1267
   6   2.0000     -11.268271      -306.6252
   7   2.0000     -11.232440      -305.6502
   8   2.0000     -11.231834      -305.6337
   9   2.0000      -1.443665       -39.2841
  10   2.0000      -1.367552       -37.2130
  11   2.0000      -1.222211       -33.2581
  12   2.0000      -1.127037       -30.6682
  13   2.0000      -0.982206       -26.7272
  14   2.0000      -0.920513       -25.0484
  15   2.0000      -0.879897       -23.9432
  16   2.0000      -0.801781       -21.8176
  17   2.0000      -0.767038       -20.8722
  18   2.0000      -0.726103       -19.7583
  19   2.0000      -0.691419       -18.8145
  20   2.0000      -0.662079       -18.0161
  21   2.0000      -0.632443       -17.2097
  22   2.0000      -0.622782       -16.9468
  23   2.0000      -0.605698       -16.4819
  24   2.0000      -0.597769       -16.2661
  25   2.0000      -0.559103       -15.2140
  26   2.0000      -0.516109       -14.0440
  27   2.0000      -0.510593       -13.8939
  28   2.0000      -0.498784       -13.5726
  29   2.0000      -0.493680       -13.4337
  30   2.0000      -0.479169       -13.0389
  31   2.0000      -0.453247       -12.3335
  32   2.0000      -0.418057       -11.3759
  33   2.0000      -0.380486       -10.3535
  34   0.0000       0.135209         3.6792
  35   0.0000       0.149321         4.0632
  36   0.0000       0.163119         4.4387
  37   0.0000       0.167530         4.5587
  38   0.0000       0.174014         4.7352

MULLIKEN ATOMIC CHARGES
-----------------------
   0 O :   -0.469783
   1 C :   -0.028948
   2 C :    0.165356
   3 C :   -0.261965
   4 C :   -0.229593
   5 C :   -0.009830
   6 N :   -0.272842
   7 C :    0.088463
   8 O :   -0.300137
   9 H :    0.326468
  10 H :    0.110654
  11 H :    0.110374
  12 H :    0.134803
  13 H :    0.122761
  14 H :    0.120846
  15 H :    0.126287
  16 H :    0.120562
  17 H :    0.146524
Sum of atomic charges:    0.0000000

LOEWDIN ATOMIC CHARGES
----------------------
   0 O :   -0.036562
   1 C :   -0.312821
   2 C :   -0.281399
   3 C :   -0.191745
   4 C :   -0.209695
   5 C :   -0.214743
   6 N :    0.087945
   7 C :   -0.339564
   8 O :    0.235980
   9 H :    0.179563
  10 H :    0.126768
  11 H :    0.137885
  12 H :    0.137961
  13 H :    0.139236
  14 H :    0.132451
  15 H :    0.134581
  16 H :    0.140080
  17 H :    0.134079

  Mayer bond orders larger than 0.1
B(  0-O ,  1-C ) :   0.9185 B(  0-O ,  9-H ) :   0.8377 B(  1-C ,  2-C ) :   0.9614
B(  1-C , 10-H ) :   0.9205 B(  1-C , 11-H ) :   0.9202 B(  2-C ,  3-C ) :   0.9004
B(  2-C ,  5-C ) :   0.8697 B(  2-C ,  8-O ) :   0.8044 B(  3-C ,  4-C ) :   0.9616
B(  3-C , 12-H ) :   0.9140 B(  3-C , 13-H ) :   0.9003 B(  4-C ,  5-C ) :   0.9258
B(  4-C , 14-H ) :   0.9200 B(  4-C , 15-H ) :   0.9239 B(  5-C ,  6-N ) :   0.9185
B(  5-C , 16-H ) :   0.9368 B(  6-N ,  7-C ) :   1.8252 B(  7-C ,  8-O ) :   1.0656
B(  7-C , 17-H ) :   0.9221

MP2 TOTAL ENERGY:     -438.367637010 Eh
FINAL SINGLE POINT ENERGY      -438.367637009763

DIPOLE MOMENT
-------------
                                X             Y             Z
Electronic contribution:     -0.35001       0.82328      -4.47977
Nuclear contribution   :      0.33362      -0.77866       4.54160
                        -----------------------------------------
Total Dipole Moment    :     -0.01639       0.04462       0.06183
                        -----------------------------------------
Magnitude (a.u.)       :      0.07799
Magnitude (Debye)      :      0.19824

                             ****ORCA TERMINATED NORMALLY****
TOTAL RUN TIME: 0 days 0 hours 17 minutes 19 seconds 951 msec
