                         Program Version 3.0.3 - RELEASE   -
|  1> ! RI-MP2 RIJK def2-TZVP def2-TZVP/C def2-TZVP/JK TIGHTSCF
|  2> % maxcore 2000
|  3> % mp2 density relaxed end
|  4> *xyz 0 1
|  5>  C       -0.0475635240     1.4944745202     0.0136132613
|  6>  C        0.0080787374    -0.0214603769     0.0314333316
|  7>  C        0.7996295286    -0.6826107484    -1.1294563463
|  8>  O        1.0629935894    -2.0266020815    -0.6837033552
|  9>  C        0.4868889185    -2.1250204258     0.6371208493
| 10>  C        0.7134779718    -0.7256926444     1.2169551047
| 11>  C       -1.0290645110    -2.1505043632     0.4004648414
| 12>  O       -1.8019495068    -1.2889808877     1.2506460147
| 13>  C       -1.3351509364    -0.7737391924    -0.0017488902
| 14>  H        0.9578382494     1.9278712210     0.0464093437
| 15>  H       -0.5398857724     1.8641597371    -0.8932154987
| 16>  H       -0.6075471944     1.8756207792     0.8733588168
| 17>  H        0.2324164518    -0.7081920795    -2.0686998699
| 18>  H        1.7502923779    -0.1647800796    -1.3125172333
| 19>  H        0.9342639343    -2.9802340202     1.1421467407
| 20>  H        1.7759837824    -0.4807541525     1.2789188793
| 21>  H        0.2228461210    -0.5552246349     2.1733054180
| 22>  H       -1.5317714572    -3.0280923979     0.0080462477
| 23>  H       -2.1021705402    -0.5108412228    -0.7255933956
| 24> *
| 25>
| 26>                          ****END OF INPUT****

CARTESIAN COORDINATES (ANGSTROEM)
---------------------------------
  C     -0.047564    1.494475    0.013613
  C      0.008079   -0.021460    0.031433
  C      0.799630   -0.682611   -1.129456
  O      1.062994   -2.026602   -0.683703
  C      0.486889   -2.125020    0.637121
  C      0.713478   -0.725693    1.216955
  C     -1.029065   -2.150504    0.400465
  O     -1.801950   -1.288981    1.250646
  C     -1.335151   -0.773739   -0.001749
  H      0.957838    1.927871    0.046409
  H     -0.539886    1.864160   -0.893215
  H     -0.607547    1.875621    0.873359
  H      0.232416   -0.708192   -2.068700
  H      1.750292   -0.164780   -1.312517
  H      0.934264   -2.980234    1.142147
  H      1.775984   -0.480754    1.278919
  H      0.222846   -0.555225    2.173305
  H     -1.531771   -3.028092    0.008046
  H     -2.102171   -0.510841   -0.725593

 Total Charge           Charge          ....    0
 Multiplicity           Mult            ....    1
 Number of Electrons    NEL             ....   68
 Basis Dimension        Dim             ....  339

ORBITAL ENERGIES
----------------

  NO   OCC          E(Eh)            E(eV)
   0   2.0000     -20.571225      -559.7715
   1   2.0000     -20.555382      -559.3404
   2   2.0000     -11.288249      -307.1689
   3   2.0000     -11.285634      -307.0977
   4   2.0000     -11.282814      -307.0210
   5   2.0000     -11.279011      -306.9175
   6   2.0000     -11.250938      -306.1536
   7   2.0000     -11.227407      -305.5133
   8   2.0000     -11.224972      -305.4470
   9   2.0000      -1.421204       -38.6729
  10   2.0000      -1.373096       -37.3639
  11   2.0000      -1.109129       -30.1809
  12   2.0000      -1.024410       -27.8756
  13   2.0000      -0.942922       -25.6582
  14   2.0000      -0.934162       -25.4198
  15   2.0000      -0.865309       -23.5462
  16   2.0000      -0.783705       -21.3257
  17   2.0000      -0.751828       -20.4583
  18   2.0000      -0.715698       -19.4751
  19   2.0000      -0.687422       -18.7057
  20   2.0000      -0.651730       -17.7345
  21   2.0000      -0.614746       -16.7281
  22   2.0000      -0.596285       -16.2257
  23   2.0000      -0.572429       -15.5766
  24   2.0000      -0.564786       -15.3686
  25   2.0000      -0.546074       -14.8594
  26   2.0000      -0.531339       -14.4585
  27   2.0000      -0.528299       -14.3757
  28   2.0000      -0.508246       -13.8301
  29   2.0000      -0.492668       -13.4062
  30   2.0000      -0.455853       -12.4044
  31   2.0000      -0.443491       -12.0680
  32   2.0000      -0.416921       -11.3450
  33   2.0000      -0.407315       -11.0836
  34   0.0000       0.132037         3.5929
  35   0.0000       0.161963         4.4072
  36   0.0000       0.166461         4.5296
  37   0.0000       0.181106         4.9281
  38   0.0000       0.192603         5.2410

MULLIKEN ATOMIC CHARGES
-----------------------
   0 C :   -0.405763
   1 C :    0.151805
   2 C :   -0.081126
   3 O :   -0.332074
   4 C :    0.124518
   5 C :   -0.319464
   6 C :   -0.036324
   7 O :   -0.325858
   8 C :   -0.063267
   9 H :    0.136178
  10 H :    0.134329
  11 H :    0.148014
  12 H :    0.104263
  13 H :    0.103954
  14 H :    0.133366
  15 H :    0.127784
  16 H :    0.143737
  17 H :    0.129276
  18 H :    0.126653
Sum of atomic charges:   -0.0000000

LOEWDIN ATOMIC CHARGES
----------------------
   0 C :   -0.266817
   1 C :   -0.278777
   2 C :   -0.239808
   3 O :    0.156909
   4 C :   -0.266209
   5 C :   -0.184139
   6 C :   -0.229212
   7 O :    0.172842
   8 C :   -0.216276
   9 H :    0.129409
  10 H :    0.128819
  11 H :    0.133101
  12 H :    0.126840
  13 H :    0.125286
  14 H :    0.139190
  15 H :    0.144397
  16 H :    0.148036
  17 H :    0.136858
  18 H :    0.139551

  Mayer bond orders larger than 0.1
B(  0-C ,  1-C ) :   0.8663 B(  0-C ,  9-H ) :   0.9393 B(  0-C , 10-H ) :   0.9384
B(  0-C , 11-H ) :   0.9389 B(  1-C ,  2-C ) :   0.9308 B(  1-C ,  5-C ) :   0.9168
B(  1-C ,  8-C ) :   0.8344 B(  2-C ,  3-O ) :   0.9455 B(  2-C , 12-H ) :   0.9146
B(  2-C , 13-H ) :   0.9174 B(  3-O ,  4-C ) :   0.9101 B(  4-C ,  5-C ) :   0.9689
B(  4-C ,  6-C ) :   0.8661 B(  4-C , 14-H ) :   0.9139 B(  5-C , 15-H ) :   0.9245
B(  5-C , 16-H ) :   0.8942 B(  6-C ,  7-O ) :   0.9367 B(  6-C ,  8-C ) :   0.9797
B(  6-C , 17-H ) :   0.9326 B(  7-O ,  8-C ) :   0.9637 B(  8-C , 18-H ) :   0.9297

MP2 TOTAL ENERGY:     -422.313698579 Eh
FINAL SINGLE POINT ENERGY      -422.313698578708

DIPOLE MOMENT
-------------
                                X             Y             Z
Electronic contribution:     -2.05199      -5.52548       1.03044
Nuclear contribution   :      2.17539       5.99240      -1.26459
                        -----------------------------------------
Total Dipole Moment    :      0.12340       0.46692      -0.23415
                        -----------------------------------------
Magnitude (a.u.)       :      0.53672
Magnitude (Debye)      :      1.36423

                             ****ORCA TERMINATED NORMALLY****
TOTAL RUN TIME: 0 days 0 hours 19 minutes 55 seconds 499 msec
