                         Program Version 3.0.3 - RELEASE   -
|  1> ! RI-MP2 RIJK def2-TZVP def2-TZVP/C def2-TZVP/JK TIGHTSCF
|  2> % maxcore 2000
|  3> % mp2 density relaxed end
|  4> *xyz 0 1
|  5>  C       -0.4007278474     1.5164820228     0.0905837241
|  6>  C       -0.0020113265     0.0456681913     0.0245285391
|  7>  C       -1.1899908560    -0.8358614310    -0.3729614182
|  8>  C        1.2917857637    -0.2864286118    -0.7976942383
|  9>  C        1.8223375511    -1.1584900060     0.3794337881
| 10>  C        0.7349345663    -0.5344838149     1.2525522421
| 11>  C        0.8456652962     0.0115913505     2.6062028611
| 12>  O        0.0965772628    -1.1837385017     2.3380909564
| 13>  H        0.4427477277     2.1474347405     0.3895014418
| 14>  H       -0.7529191799     1.8679237978    -0.8861227438
| 15>  H       -1.2135890201     1.6758386382     0.8085859392
| 16>  H       -1.5940674627    -0.5225156364    -1.3419066581
| 17>  H       -0.9021583856    -1.8890349202    -0.4517461589
| 18>  H       -1.9886769167    -0.7691989389     0.3722603910
| 19>  H        1.1342961396    -0.7976130199    -1.7499768967
| 20>  H        1.9089086404     0.5985590792    -0.9726277978
| 21>  H        1.6554553727    -2.2284368799     0.2271148915
| 22>  H        2.8591761580    -1.0079187955     0.6886715100
| 23>  H        1.7654695076    -0.1323935004     3.1729414495
| 24>  H        0.2520843186     0.8760348562     2.9011669478
| 25> *
| 26>
| 27>                          ****END OF INPUT****

CARTESIAN COORDINATES (ANGSTROEM)
---------------------------------
  C     -0.400728    1.516482    0.090584
  C     -0.002011    0.045668    0.024529
  C     -1.189991   -0.835861   -0.372961
  C      1.291786   -0.286429   -0.797694
  C      1.822338   -1.158490    0.379434
  C      0.734935   -0.534484    1.252552
  C      0.845665    0.011591    2.606203
  O      0.096577   -1.183739    2.338091
  H      0.442748    2.147435    0.389501
  H     -0.752919    1.867924   -0.886123
  H     -1.213589    1.675839    0.808586
  H     -1.594067   -0.522516   -1.341907
  H     -0.902158   -1.889035   -0.451746
  H     -1.988677   -0.769199    0.372260
  H      1.134296   -0.797613   -1.749977
  H      1.908909    0.598559   -0.972628
  H      1.655455   -2.228437    0.227115
  H      2.859176   -1.007919    0.688672
  H      1.765470   -0.132394    3.172941
  H      0.252084    0.876035    2.901167

 Total Charge           Charge          ....    0
 Multiplicity           Mult            ....    1
 Number of Electrons    NEL             ....   62
 Basis Dimension        Dim             ....  320

ORBITAL ENERGIES
----------------

  NO   OCC          E(Eh)            E(eV)
   0   2.0000     -20.561417      -559.5046
   1   2.0000     -11.282703      -307.0180
   2   2.0000     -11.277046      -306.8640
   3   2.0000     -11.238132      -305.8051
   4   2.0000     -11.225188      -305.4529
   5   2.0000     -11.224035      -305.4215
   6   2.0000     -11.216728      -305.2227
   7   2.0000     -11.212355      -305.1037
   8   2.0000      -1.406568       -38.2747
   9   2.0000      -1.137240       -30.9459
  10   2.0000      -1.006857       -27.3980
  11   2.0000      -0.937053       -25.4985
  12   2.0000      -0.909412       -24.7463
  13   2.0000      -0.861107       -23.4319
  14   2.0000      -0.831877       -22.6365
  15   2.0000      -0.717932       -19.5359
  16   2.0000      -0.670792       -18.2532
  17   2.0000      -0.651059       -17.7162
  18   2.0000      -0.634739       -17.2721
  19   2.0000      -0.594959       -16.1897
  20   2.0000      -0.571308       -15.5461
  21   2.0000      -0.567053       -15.4303
  22   2.0000      -0.545793       -14.8518
  23   2.0000      -0.538788       -14.6612
  24   2.0000      -0.508197       -13.8287
  25   2.0000      -0.490583       -13.3494
  26   2.0000      -0.484829       -13.1929
  27   2.0000      -0.458896       -12.4872
  28   2.0000      -0.437639       -11.9088
  29   2.0000      -0.416327       -11.3288
  30   2.0000      -0.411184       -11.1889
  31   0.0000       0.133285         3.6269
  32   0.0000       0.160635         4.3711
  33   0.0000       0.164355         4.4723
  34   0.0000       0.173576         4.7232
  35   0.0000       0.188482         5.1289

MULLIKEN ATOMIC CHARGES
-----------------------
   0 C :   -0.449315
   1 C :    0.227752
   2 C :   -0.430782
   3 C :   -0.278339
   4 C :   -0.211808
   5 C :    0.059681
   6 C :   -0.092192
   7 O :   -0.338889
   8 H :    0.130438
   9 H :    0.134913
  10 H :    0.136482
  11 H :    0.131864
  12 H :    0.133191
  13 H :    0.136589
  14 H :    0.117927
  15 H :    0.116670
  16 H :    0.126211
  17 H :    0.120730
  18 H :    0.112117
  19 H :    0.116758
Sum of atomic charges:   -0.0000000

LOEWDIN ATOMIC CHARGES
----------------------
   0 C :   -0.273241
   1 C :   -0.267755
   2 C :   -0.262029
   3 C :   -0.188161
   4 C :   -0.196213
   5 C :   -0.286062
   6 C :   -0.236746
   7 O :    0.169136
   8 H :    0.125000
   9 H :    0.127581
  10 H :    0.127749
  11 H :    0.125680
  12 H :    0.129980
  13 H :    0.129893
  14 H :    0.128828
  15 H :    0.134186
  16 H :    0.141424
  17 H :    0.129889
  18 H :    0.120077
  19 H :    0.120785

  Mayer bond orders larger than 0.1
B(  0-C ,  1-C ) :   0.8866 B(  0-C ,  8-H ) :   0.9366 B(  0-C ,  9-H ) :   0.9384
B(  0-C , 10-H ) :   0.9381 B(  1-C ,  2-C ) :   0.9031 B(  1-C ,  3-C ) :   0.9060
B(  1-C ,  5-C ) :   0.8684 B(  2-C , 11-H ) :   0.9382 B(  2-C , 12-H ) :   0.9280
B(  2-C , 13-H ) :   0.9340 B(  3-C ,  4-C ) :   0.9595 B(  3-C , 14-H ) :   0.9293
B(  3-C , 15-H ) :   0.9148 B(  4-C ,  5-C ) :   0.9017 B(  4-C , 16-H ) :   0.9106
B(  4-C , 17-H ) :   0.9197 B(  5-C ,  6-C ) :   0.9883 B(  5-C ,  7-O ) :   0.8715
B(  6-C ,  7-O ) :   0.9129 B(  6-C , 18-H ) :   0.9166 B(  6-C , 19-H ) :   0.9041

MP2 TOTAL ENERGY:     -348.374161384 Eh
FINAL SINGLE POINT ENERGY      -348.374161384309

DIPOLE MOMENT
-------------
                                X             Y             Z
Electronic contribution:      1.26961      -2.70771       4.59088
Nuclear contribution   :     -0.91325       3.23262      -4.92363
                        -----------------------------------------
Total Dipole Moment    :      0.35636       0.52491      -0.33275
                        -----------------------------------------
Magnitude (a.u.)       :      0.71641
Magnitude (Debye)      :      1.82098

                             ****ORCA TERMINATED NORMALLY****
TOTAL RUN TIME: 0 days 0 hours 15 minutes 7 seconds 428 msec
