                         Program Version 3.0.3 - RELEASE   -
|  1> ! RI-MP2 RIJK def2-TZVP def2-TZVP/C def2-TZVP/JK TIGHTSCF
|  2> % maxcore 2000
|  3> % mp2 density relaxed end
|  4> *xyz 0 1
|  5>  C       -1.0185643175     1.3370618179    -0.5460481040
|  6>  N       -1.3092177396    -0.0590746651    -0.2940830948
|  7>  C       -0.4789243233    -0.8616010817     0.4151574648
|  8>  O        0.5754555874    -0.4940085992     0.9044344926
|  9>  C       -0.9325902078    -2.3355965504     0.5759407263
| 10>  C       -0.8558841043    -2.7297862462     2.0669566881
| 11>  C       -2.2342851817    -2.6463273683    -0.0103260465
| 12>  C       -3.3143845114    -2.9080493279    -0.4785950281
| 13>  C       -4.6149509295    -3.2469497639    -1.0409916659
| 14>  H       -0.9528564431     1.5422654701    -1.6204662487
| 15>  H       -1.7859944519     1.9886502782    -0.1130450617
| 16>  H       -0.0577362647     1.5603956204    -0.0806020971
| 17>  H       -2.1609142090    -0.4683307071    -0.6457938132
| 18>  H       -0.1632870311    -2.9099489864     0.0417071946
| 19>  H       -1.0056796340    -3.8055208743     2.1846959721
| 20>  H        0.1237005907    -2.4502384570     2.4578949894
| 21>  H       -1.6272229473    -2.2103546121     2.6426197677
| 22>  H       -4.8598805583    -4.2988607521    -0.8575385465
| 23>  H       -5.4130121142    -2.6406427659    -0.5986295220
| 24>  H       -4.6369646794    -3.0873456792    -2.1246331371
| 25> *
| 26>
| 27>                          ****END OF INPUT****

CARTESIAN COORDINATES (ANGSTROEM)
---------------------------------
  C     -1.018564    1.337062   -0.546048
  N     -1.309218   -0.059075   -0.294083
  C     -0.478924   -0.861601    0.415157
  O      0.575456   -0.494009    0.904434
  C     -0.932590   -2.335597    0.575941
  C     -0.855884   -2.729786    2.066957
  C     -2.234285   -2.646327   -0.010326
  C     -3.314385   -2.908049   -0.478595
  C     -4.614951   -3.246950   -1.040992
  H     -0.952856    1.542265   -1.620466
  H     -1.785994    1.988650   -0.113045
  H     -0.057736    1.560396   -0.080602
  H     -2.160914   -0.468331   -0.645794
  H     -0.163287   -2.909949    0.041707
  H     -1.005680   -3.805521    2.184696
  H      0.123701   -2.450238    2.457895
  H     -1.627223   -2.210355    2.642620
  H     -4.859881   -4.298861   -0.857539
  H     -5.413012   -2.640643   -0.598630
  H     -4.636965   -3.087346   -2.124633

 Total Charge           Charge          ....    0
 Multiplicity           Mult            ....    1
 Number of Electrons    NEL             ....   68
 Basis Dimension        Dim             ....  345

ORBITAL ENERGIES
----------------

  NO   OCC          E(Eh)            E(eV)
   0   2.0000     -20.508351      -558.0606
   1   2.0000     -15.579837      -423.9489
   2   2.0000     -11.346200      -308.7458
   3   2.0000     -11.267758      -306.6113
   4   2.0000     -11.257370      -306.3286
   5   2.0000     -11.255875      -306.2879
   6   2.0000     -11.238154      -305.8057
   7   2.0000     -11.230944      -305.6095
   8   2.0000     -11.222923      -305.3913
   9   2.0000      -1.376276       -37.4504
  10   2.0000      -1.227995       -33.4155
  11   2.0000      -1.098880       -29.9020
  12   2.0000      -1.046978       -28.4897
  13   2.0000      -0.958763       -26.0893
  14   2.0000      -0.954553       -25.9747
  15   2.0000      -0.874299       -23.7909
  16   2.0000      -0.783278       -21.3141
  17   2.0000      -0.722385       -19.6571
  18   2.0000      -0.674018       -18.3410
  19   2.0000      -0.639581       -17.4039
  20   2.0000      -0.632489       -17.2109
  21   2.0000      -0.612451       -16.6656
  22   2.0000      -0.599361       -16.3095
  23   2.0000      -0.597136       -16.2489
  24   2.0000      -0.594836       -16.1863
  25   2.0000      -0.554296       -15.0832
  26   2.0000      -0.543294       -14.7838
  27   2.0000      -0.536391       -14.5960
  28   2.0000      -0.521501       -14.1908
  29   2.0000      -0.501905       -13.6575
  30   2.0000      -0.434605       -11.8262
  31   2.0000      -0.391848       -10.6627
  32   2.0000      -0.377128       -10.2622
  33   2.0000      -0.375214       -10.2101
  34   0.0000       0.119137         3.2419
  35   0.0000       0.146209         3.9785
  36   0.0000       0.155270         4.2251
  37   0.0000       0.171964         4.6794
  38   0.0000       0.182171         4.9571

MULLIKEN ATOMIC CHARGES
-----------------------
   0 C :   -0.291055
   1 N :   -0.297390
   2 C :    0.215328
   3 O :   -0.382850
   4 C :   -0.037228
   5 C :   -0.388603
   6 C :   -0.106521
   7 C :    0.033063
   8 C :   -0.488399
   9 H :    0.134815
  10 H :    0.134574
  11 H :    0.177133
  12 H :    0.250945
  13 H :    0.127253
  14 H :    0.134098
  15 H :    0.164634
  16 H :    0.125364
  17 H :    0.167056
  18 H :    0.163931
  19 H :    0.163854
Sum of atomic charges:   -0.0000000

LOEWDIN ATOMIC CHARGES
----------------------
   0 C :   -0.310849
   1 N :    0.095868
   2 C :   -0.432101
   3 O :    0.072816
   4 C :   -0.232625
   5 C :   -0.264101
   6 C :   -0.077569
   7 C :   -0.108389
   8 C :   -0.295062
   9 H :    0.115454
  10 H :    0.115434
  11 H :    0.134777
  12 H :    0.193269
  13 H :    0.182061
  14 H :    0.125026
  15 H :    0.133751
  16 H :    0.126866
  17 H :    0.143554
  18 H :    0.140896
  19 H :    0.140924

  Mayer bond orders larger than 0.1
B(  0-C ,  1-N ) :   0.8491 B(  0-C ,  9-H ) :   0.9352 B(  0-C , 10-H ) :   0.9358
B(  0-C , 11-H ) :   0.9252 B(  1-N ,  2-C ) :   1.2295 B(  1-N , 12-H ) :   0.8549
B(  2-C ,  3-O ) :   1.9150 B(  2-C ,  4-C ) :   0.8621 B(  4-C ,  5-C ) :   0.9079
B(  4-C ,  6-C ) :   1.0334 B(  4-C , 13-H ) :   0.9044 B(  5-C , 14-H ) :   0.9356
B(  5-C , 15-H ) :   0.9292 B(  5-C , 16-H ) :   0.9306 B(  6-C ,  7-C ) :   2.6787
B(  7-C ,  8-C ) :   0.8578 B(  8-C , 17-H ) :   0.9479 B(  8-C , 18-H ) :   0.9468
B(  8-C , 19-H ) :   0.9484

MP2 TOTAL ENERGY:     -402.461978285 Eh
FINAL SINGLE POINT ENERGY      -402.461978285219

DIPOLE MOMENT
-------------
                                X             Y             Z
Electronic contribution:      3.77170       0.21985       0.00035
Nuclear contribution   :     -5.16894      -0.34464      -0.71817
                        -----------------------------------------
Total Dipole Moment    :     -1.39724      -0.12479      -0.71782
                        -----------------------------------------
Magnitude (a.u.)       :      1.57579
Magnitude (Debye)      :      4.00534

                             ****ORCA TERMINATED NORMALLY****
TOTAL RUN TIME: 0 days 0 hours 17 minutes 1 seconds 178 msec
