                         Program Version 3.0.3 - RELEASE   -
|  1> ! RI-MP2 RIJK def2-TZVP def2-TZVP/C def2-TZVP/JK TIGHTSCF
|  2> % maxcore 2000
|  3> % mp2 density relaxed end
|  4> *xyz 0 1
|  5>  C        0.2188794925     1.6392811343     0.0025042092
|  6>  C        0.0307232059     0.1193776362    -0.0210615602
|  7>  C        0.5591951874    -0.5589405711     1.2482523508
|  8>  C        0.6172171115    -2.1036075379     1.2094043584
|  9>  C       -0.7649759691    -2.7181988914     0.9703932926
| 10>  O        1.4119633143    -2.5317807534     0.0917120763
| 11>  C        1.2505237302    -2.6104645039     2.5257843581
| 12>  C        1.4619776115    -4.1258752019     2.6224116957
| 13>  C        2.2969898840    -4.5265104166     3.8423782726
| 14>  H        1.2783747975     1.9069798244     0.0866150033
| 15>  H       -0.1693579008     2.1028706133    -0.9098704358
| 16>  H       -0.3021149374     2.0931765680     0.8533189965
| 17>  H       -1.0337635562    -0.1073762158    -0.1508159732
| 18>  H        0.5445705199    -0.3093663471    -0.8883891499
| 19>  H        1.5791470098    -0.1935420966     1.4439049414
| 20>  H       -0.0381939954    -0.2459763385     2.1149011175
| 21>  H       -1.1828662531    -2.3689458333     0.0238407608
| 22>  H       -0.6984963913    -3.8070632568     0.9201085268
| 23>  H       -1.4540621623    -2.4479237589     1.7765046218
| 24>  H        2.2953184708    -2.1634067927     0.2049394660
| 25>  H        2.2252951034    -2.1112877793     2.6386438018
| 26>  H        0.6414170855    -2.2640617746     3.3713017476
| 27>  H        0.4932367405    -4.6365633001     2.6685959425
| 28>  H        1.9486500497    -4.4719313489     1.7039821858
| 29>  H        2.4312625237    -5.6115704079     3.8942040698
| 30>  H        3.2926178619    -4.0694343759     3.8095777988
| 31>  H        1.8200422954    -4.2058750037     4.7756802454
| 32> *
| 33>
| 34>                          ****END OF INPUT****

CARTESIAN COORDINATES (ANGSTROEM)
---------------------------------
  C      0.218879    1.639281    0.002504
  C      0.030723    0.119378   -0.021062
  C      0.559195   -0.558941    1.248252
  C      0.617217   -2.103608    1.209404
  C     -0.764976   -2.718199    0.970393
  O      1.411963   -2.531781    0.091712
  C      1.250524   -2.610465    2.525784
  C      1.461978   -4.125875    2.622412
  C      2.296990   -4.526510    3.842378
  H      1.278375    1.906980    0.086615
  H     -0.169358    2.102871   -0.909870
  H     -0.302115    2.093177    0.853319
  H     -1.033764   -0.107376   -0.150816
  H      0.544571   -0.309366   -0.888389
  H      1.579147   -0.193542    1.443905
  H     -0.038194   -0.245976    2.114901
  H     -1.182866   -2.368946    0.023841
  H     -0.698496   -3.807063    0.920109
  H     -1.454062   -2.447924    1.776505
  H      2.295318   -2.163407    0.204939
  H      2.225295   -2.111288    2.638644
  H      0.641417   -2.264062    3.371302
  H      0.493237   -4.636563    2.668596
  H      1.948650   -4.471931    1.703982
  H      2.431263   -5.611570    3.894204
  H      3.292618   -4.069434    3.809578
  H      1.820042   -4.205875    4.775680

 Total Charge           Charge          ....    0
 Multiplicity           Mult            ....    1
 Number of Electrons    NEL             ....   74
 Basis Dimension        Dim             ....  387

ORBITAL ENERGIES
----------------

  NO   OCC          E(Eh)            E(eV)
   0   2.0000     -20.546577      -559.1008
   1   2.0000     -11.281315      -306.9802
   2   2.0000     -11.217492      -305.2435
   3   2.0000     -11.217475      -305.2430
   4   2.0000     -11.213945      -305.1470
   5   2.0000     -11.213942      -305.1469
   6   2.0000     -11.211038      -305.0679
   7   2.0000     -11.211036      -305.0678
   8   2.0000     -11.206927      -304.9560
   9   2.0000      -1.354390       -36.8548
  10   2.0000      -1.085172       -29.5290
  11   2.0000      -1.051458       -28.6116
  12   2.0000      -1.005045       -27.3487
  13   2.0000      -0.931197       -25.3392
  14   2.0000      -0.918695       -24.9990
  15   2.0000      -0.830857       -22.6088
  16   2.0000      -0.788642       -21.4600
  17   2.0000      -0.762846       -20.7581
  18   2.0000      -0.659230       -17.9386
  19   2.0000      -0.644183       -17.5291
  20   2.0000      -0.633689       -17.2435
  21   2.0000      -0.624440       -16.9919
  22   2.0000      -0.584777       -15.9126
  23   2.0000      -0.574886       -15.6434
  24   2.0000      -0.561615       -15.2823
  25   2.0000      -0.537729       -14.6323
  26   2.0000      -0.532916       -14.5014
  27   2.0000      -0.514801       -14.0084
  28   2.0000      -0.510872       -13.9015
  29   2.0000      -0.510399       -13.8887
  30   2.0000      -0.495991       -13.4966
  31   2.0000      -0.487817       -13.2742
  32   2.0000      -0.468718       -12.7545
  33   2.0000      -0.467051       -12.7091
  34   2.0000      -0.461904       -12.5690
  35   2.0000      -0.444023       -12.0825
  36   2.0000      -0.413805       -11.2602
  37   0.0000       0.124361         3.3840
  38   0.0000       0.146971         3.9993
  39   0.0000       0.157443         4.2842
  40   0.0000       0.165263         4.4970
  41   0.0000       0.171921         4.6782

MULLIKEN ATOMIC CHARGES
-----------------------
   0 C :   -0.386670
   1 C :   -0.197235
   2 C :   -0.290072
   3 C :    0.310738
   4 C :   -0.450126
   5 O :   -0.478759
   6 C :   -0.290036
   7 C :   -0.197206
   8 C :   -0.386670
   9 H :    0.119850
  10 H :    0.134520
  11 H :    0.119490
  12 H :    0.110283
  13 H :    0.122062
  14 H :    0.104485
  15 H :    0.111952
  16 H :    0.145485
  17 H :    0.145468
  18 H :    0.121961
  19 H :    0.307900
  20 H :    0.104487
  21 H :    0.111942
  22 H :    0.110251
  23 H :    0.122044
  24 H :    0.134519
  25 H :    0.119848
  26 H :    0.119489
Sum of atomic charges:   -0.0000000

LOEWDIN ATOMIC CHARGES
----------------------
   0 C :   -0.322381
   1 C :   -0.295408
   2 C :   -0.242787
   3 C :   -0.397700
   4 C :   -0.266839
   5 O :    0.003185
   6 C :   -0.242789
   7 C :   -0.295405
   8 C :   -0.322380
   9 H :    0.118728
  10 H :    0.120359
  11 H :    0.119366
  12 H :    0.134212
  13 H :    0.138239
  14 H :    0.138876
  15 H :    0.142650
  16 H :    0.128162
  17 H :    0.128149
  18 H :    0.128330
  19 H :    0.173008
  20 H :    0.138883
  21 H :    0.142654
  22 H :    0.134207
  23 H :    0.138234
  24 H :    0.120358
  25 H :    0.118727
  26 H :    0.119365

  Mayer bond orders larger than 0.1
B(  0-C ,  1-C ) :   0.9141 B(  0-C ,  9-H ) :   0.9425 B(  0-C , 10-H ) :   0.9453
B(  0-C , 11-H ) :   0.9373 B(  1-C ,  2-C ) :   0.9285 B(  1-C , 12-H ) :   0.9329
B(  1-C , 13-H ) :   0.9353 B(  2-C ,  3-C ) :   0.9277 B(  2-C , 14-H ) :   0.9214
B(  2-C , 15-H ) :   0.9214 B(  3-C ,  4-C ) :   0.8553 B(  3-C ,  5-O ) :   0.8749
B(  3-C ,  6-C ) :   0.9277 B(  4-C , 16-H ) :   0.9430 B(  4-C , 17-H ) :   0.9430
B(  4-C , 18-H ) :   0.9328 B(  5-O , 19-H ) :   0.8434 B(  6-C ,  7-C ) :   0.9285
B(  6-C , 20-H ) :   0.9214 B(  6-C , 21-H ) :   0.9214 B(  7-C ,  8-C ) :   0.9141
B(  7-C , 22-H ) :   0.9329 B(  7-C , 23-H ) :   0.9352 B(  8-C , 24-H ) :   0.9453
B(  8-C , 25-H ) :   0.9425 B(  8-C , 26-H ) :   0.9372

MP2 TOTAL ENERGY:     -390.037103299 Eh
FINAL SINGLE POINT ENERGY      -390.037103299183

DIPOLE MOMENT
-------------
                                X             Y             Z
Electronic contribution:      0.84884      -1.56179      -2.96718
Nuclear contribution   :     -0.71301       1.85181       3.35920
                        -----------------------------------------
Total Dipole Moment    :      0.13582       0.29001       0.39202
                        -----------------------------------------
Magnitude (a.u.)       :      0.50619
Magnitude (Debye)      :      1.28664

                             ****ORCA TERMINATED NORMALLY****
TOTAL RUN TIME: 0 days 0 hours 20 minutes 37 seconds 338 msec
