                         Program Version 3.0.3 - RELEASE   -
|  1> ! RI-MP2 RIJK def2-TZVP def2-TZVP/C def2-TZVP/JK TIGHTSCF
|  2> % maxcore 2000
|  3> % mp2 density relaxed end
|  4> *xyz 0 1
|  5>  C       -0.1028892443     1.5185975551     0.0063447696
|  6>  C        0.0831497027     0.0086252936     0.0103808578
|  7>  C        0.9925910258    -0.5804496635    -1.1181432483
|  8>  C        1.9684641066    -1.3368787902    -0.2065303771
|  9>  O        2.9514996627    -2.0426867003    -0.8910665449
| 10>  C        0.9956952039    -1.9317271125     0.8535289826
| 11>  N        0.7666344786    -0.4912467949     1.2605437801
| 12>  C        2.2233115475    -0.2747733422     0.8993682770
| 13>  H        0.8518313969     2.0536814781     0.0107314283
| 14>  H       -0.6488466950     1.8290570130    -0.8905527634
| 15>  H       -0.6727189697     1.8338681411     0.8852762537
| 16>  H       -0.9059234622    -0.4603363058    -0.0093569489
| 17>  H        0.4659746046    -1.2502303267    -1.8030877274
| 18>  H        1.5023474766     0.1857496715    -1.7099817460
| 19>  H        3.5219708060    -2.4740848545    -0.2463594156
| 20>  H        0.1031828349    -2.4719940124     0.5238778704
| 21>  H        1.4971147350    -2.4775366044     1.6581290880
| 22>  H        2.8617978792    -0.6278801833     1.7141584067
| 23>  H        2.5039817602     0.7426111084     0.6174043475
| 24> *
| 25>
| 26>                          ****END OF INPUT****

CARTESIAN COORDINATES (ANGSTROEM)
---------------------------------
  C     -0.102889    1.518598    0.006345
  C      0.083150    0.008625    0.010381
  C      0.992591   -0.580450   -1.118143
  C      1.968464   -1.336879   -0.206530
  O      2.951500   -2.042687   -0.891067
  C      0.995695   -1.931727    0.853529
  N      0.766634   -0.491247    1.260544
  C      2.223312   -0.274773    0.899368
  H      0.851831    2.053681    0.010731
  H     -0.648847    1.829057   -0.890553
  H     -0.672719    1.833868    0.885276
  H     -0.905923   -0.460336   -0.009357
  H      0.465975   -1.250230   -1.803088
  H      1.502347    0.185750   -1.709982
  H      3.521971   -2.474085   -0.246359
  H      0.103183   -2.471994    0.523878
  H      1.497115   -2.477537    1.658129
  H      2.861798   -0.627880    1.714158
  H      2.503982    0.742611    0.617404

 Total Charge           Charge          ....    0
 Multiplicity           Mult            ....    1
 Number of Electrons    NEL             ....   62
 Basis Dimension        Dim             ....  314

ORBITAL ENERGIES
----------------

  NO   OCC          E(Eh)            E(eV)
   0   2.0000     -20.568253      -559.6906
   1   2.0000     -15.556877      -423.3241
   2   2.0000     -11.292752      -307.2914
   3   2.0000     -11.255481      -306.2772
   4   2.0000     -11.252149      -306.1866
   5   2.0000     -11.251269      -306.1626
   6   2.0000     -11.220287      -305.3195
   7   2.0000     -11.213190      -305.1264
   8   2.0000      -1.380417       -37.5631
   9   2.0000      -1.269114       -34.5343
  10   2.0000      -1.033685       -28.1280
  11   2.0000      -0.992160       -26.9981
  12   2.0000      -0.924990       -25.1703
  13   2.0000      -0.901008       -24.5177
  14   2.0000      -0.775621       -21.1057
  15   2.0000      -0.757773       -20.6200
  16   2.0000      -0.712420       -19.3859
  17   2.0000      -0.663301       -18.0493
  18   2.0000      -0.631268       -17.1777
  19   2.0000      -0.605346       -16.4723
  20   2.0000      -0.599306       -16.3080
  21   2.0000      -0.569143       -15.4872
  22   2.0000      -0.544842       -14.8259
  23   2.0000      -0.527268       -14.3477
  24   2.0000      -0.514820       -14.0090
  25   2.0000      -0.495684       -13.4882
  26   2.0000      -0.483023       -13.1437
  27   2.0000      -0.466438       -12.6924
  28   2.0000      -0.457718       -12.4551
  29   2.0000      -0.416693       -11.3388
  30   2.0000      -0.372798       -10.1443
  31   0.0000       0.129520         3.5244
  32   0.0000       0.145571         3.9612
  33   0.0000       0.166990         4.5440
  34   0.0000       0.181203         4.9308
  35   0.0000       0.186674         5.0796

MULLIKEN ATOMIC CHARGES
-----------------------
   0 C :   -0.395678
   1 C :    0.012302
   2 C :   -0.270875
   3 C :    0.176314
   4 O :   -0.446345
   5 C :   -0.191415
   6 N :   -0.193741
   7 C :   -0.211395
   8 H :    0.114336
   9 H :    0.132228
  10 H :    0.140956
  11 H :    0.104057
  12 H :    0.123672
  13 H :    0.116163
  14 H :    0.322186
  15 H :    0.115212
  16 H :    0.116668
  17 H :    0.118180
  18 H :    0.117175
Sum of atomic charges:    0.0000000

LOEWDIN ATOMIC CHARGES
----------------------
   0 C :   -0.295982
   1 C :   -0.285329
   2 C :   -0.197440
   3 C :   -0.385451
   4 O :    0.023280
   5 C :   -0.222352
   6 N :    0.099090
   7 C :   -0.221947
   8 H :    0.120307
   9 H :    0.126767
  10 H :    0.128142
  11 H :    0.144346
  12 H :    0.136968
  13 H :    0.139167
  14 H :    0.180898
  15 H :    0.125492
  16 H :    0.129995
  17 H :    0.130807
  18 H :    0.123242

  Mayer bond orders larger than 0.1
B(  0-C ,  1-C ) :   0.9255 B(  0-C ,  8-H ) :   0.9247 B(  0-C ,  9-H ) :   0.9401
B(  0-C , 10-H ) :   0.9419 B(  1-C ,  2-C ) :   0.9194 B(  1-C ,  6-N ) :   0.8846
B(  1-C , 11-H ) :   0.9297 B(  2-C ,  3-C ) :   0.9193 B(  2-C , 12-H ) :   0.9251
B(  2-C , 13-H ) :   0.9230 B(  3-C ,  4-O ) :   1.0519 B(  3-C ,  5-C ) :   0.9255
B(  3-C ,  7-C ) :   0.9194 B(  4-O , 14-H ) :   0.8375 B(  5-C ,  6-N ) :   0.9335
B(  5-C , 15-H ) :   0.9208 B(  5-C , 16-H ) :   0.9138 B(  6-N ,  7-C ) :   0.9259
B(  7-C , 17-H ) :   0.9177 B(  7-C , 18-H ) :   0.9214

MP2 TOTAL ENERGY:     -364.423652157 Eh
FINAL SINGLE POINT ENERGY      -364.423652156814

DIPOLE MOMENT
-------------
                                X             Y             Z
Electronic contribution:      2.84849      -3.95603       0.19120
Nuclear contribution   :     -2.63439       3.79471      -0.17054
                        -----------------------------------------
Total Dipole Moment    :      0.21411      -0.16131       0.02066
                        -----------------------------------------
Magnitude (a.u.)       :      0.26887
Magnitude (Debye)      :      0.68341

                             ****ORCA TERMINATED NORMALLY****
TOTAL RUN TIME: 0 days 0 hours 14 minutes 14 seconds 973 msec
