                         Program Version 3.0.3 - RELEASE   -
|  1> ! RI-MP2 RIJK def2-TZVP def2-TZVP/C def2-TZVP/JK TIGHTSCF
|  2> % maxcore 2000
|  3> % mp2 density relaxed end
|  4> *xyz 0 1
|  5>  C       -0.0122626475     1.5326899457    -0.0579711759
|  6>  C       -0.0275871019     0.0772431552    -0.0355129410
|  7>  C       -0.0487734682    -1.1268468773    -0.0100734873
|  8>  C       -0.0660542405    -2.5763166276     0.0163255807
|  9>  C        0.3282515554    -3.3393219060     1.3495635403
| 10>  C       -1.0252178502    -4.0520013022     1.2907230281
| 11>  N       -2.0482649140    -2.9808202877     1.3695965218
| 12>  C       -1.4257555324    -3.3067257454     0.0685825531
| 13>  H        0.6735614819     1.9352150205     0.6961445214
| 14>  H        0.3083100024     1.9164262152    -1.0331854646
| 15>  H       -1.0066674202     1.9438631134     0.1491230843
| 16>  H        0.5296961573    -2.9776981219    -0.8101328234
| 17>  H        1.1881857983    -3.9957332612     1.2047552781
| 18>  H        0.4783708600    -2.7082542670     2.2269686092
| 19>  H       -1.2562166763    -5.0652333887     1.5946373537
| 20>  H       -2.9610883039    -3.4356756275     1.3794522368
| 21>  H       -2.0297485700    -3.6053259576    -0.7795480851
| 22> *
| 23>
| 24>                          ****END OF INPUT****

CARTESIAN COORDINATES (ANGSTROEM)
---------------------------------
  C     -0.012263    1.532690   -0.057971
  C     -0.027587    0.077243   -0.035513
  C     -0.048773   -1.126847   -0.010073
  C     -0.066054   -2.576317    0.016326
  C      0.328252   -3.339322    1.349564
  C     -1.025218   -4.052001    1.290723
  N     -2.048265   -2.980820    1.369597
  C     -1.425756   -3.306726    0.068583
  H      0.673561    1.935215    0.696145
  H      0.308310    1.916426   -1.033185
  H     -1.006667    1.943863    0.149123
  H      0.529696   -2.977698   -0.810133
  H      1.188186   -3.995733    1.204755
  H      0.478371   -2.708254    2.226969
  H     -1.256217   -5.065233    1.594637
  H     -2.961088   -3.435676    1.379452
  H     -2.029749   -3.605326   -0.779548

 Total Charge           Charge          ....    0
 Multiplicity           Mult            ....    1
 Number of Electrons    NEL             ....   58
 Basis Dimension        Dim             ....  302

ORBITAL ENERGIES
----------------

  NO   OCC          E(Eh)            E(eV)
   0   2.0000     -15.558765      -423.3755
   1   2.0000     -11.263748      -306.5022
   2   2.0000     -11.261205      -306.4330
   3   2.0000     -11.253900      -306.2342
   4   2.0000     -11.237986      -305.8011
   5   2.0000     -11.231043      -305.6122
   6   2.0000     -11.211914      -305.0917
   7   2.0000     -11.205760      -304.9242
   8   2.0000      -1.280574       -34.8462
   9   2.0000      -1.074244       -29.2317
  10   2.0000      -1.032853       -28.1054
  11   2.0000      -0.956091       -26.0166
  12   2.0000      -0.897380       -24.4190
  13   2.0000      -0.846190       -23.0260
  14   2.0000      -0.760891       -20.7049
  15   2.0000      -0.722519       -19.6608
  16   2.0000      -0.662925       -18.0391
  17   2.0000      -0.613955       -16.7066
  18   2.0000      -0.592040       -16.1102
  19   2.0000      -0.578178       -15.7330
  20   2.0000      -0.575512       -15.6605
  21   2.0000      -0.553322       -15.0567
  22   2.0000      -0.541168       -14.7259
  23   2.0000      -0.495512       -13.4836
  24   2.0000      -0.469800       -12.7839
  25   2.0000      -0.452796       -12.3212
  26   2.0000      -0.370950       -10.0941
  27   2.0000      -0.353877        -9.6295
  28   2.0000      -0.349398        -9.5076
  29   0.0000       0.139177         3.7872
  30   0.0000       0.148510         4.0412
  31   0.0000       0.162306         4.4166
  32   0.0000       0.166231         4.5234
  33   0.0000       0.190828         5.1927

MULLIKEN ATOMIC CHARGES
-----------------------
   0 C :   -0.491528
   1 C :   -0.005373
   2 C :   -0.031225
   3 C :   -0.083425
   4 C :   -0.177219
   5 C :   -0.088834
   6 N :   -0.392160
   7 C :   -0.059934
   8 H :    0.159813
   9 H :    0.158660
  10 H :    0.162947
  11 H :    0.122628
  12 H :    0.116575
  13 H :    0.120312
  14 H :    0.137934
  15 H :    0.214158
  16 H :    0.136671
Sum of atomic charges:   -0.0000000

LOEWDIN ATOMIC CHARGES
----------------------
   0 C :   -0.297453
   1 C :   -0.100400
   2 C :   -0.066031
   3 C :   -0.196690
   4 C :   -0.177168
   5 C :   -0.239959
   6 N :    0.004974
   7 C :   -0.209858
   8 H :    0.139881
   9 H :    0.138791
  10 H :    0.140598
  11 H :    0.166523
  12 H :    0.132991
  13 H :    0.136392
  14 H :    0.126923
  15 H :    0.171930
  16 H :    0.128557

  Mayer bond orders larger than 0.1
B(  0-C ,  1-C ) :   0.8589 B(  0-C ,  8-H ) :   0.9483 B(  0-C ,  9-H ) :   0.9527
B(  0-C , 10-H ) :   0.9464 B(  1-C ,  2-C ) :   2.6572 B(  2-C ,  3-C ) :   1.0782
B(  3-C ,  4-C ) :   0.9491 B(  3-C ,  7-C ) :   0.8889 B(  3-C , 11-H ) :   0.9271
B(  4-C ,  5-C ) :   0.9583 B(  4-C , 12-H ) :   0.9295 B(  4-C , 13-H ) :   0.9062
B(  5-C ,  6-N ) :   0.9145 B(  5-C ,  7-C ) :   0.8859 B(  5-C , 14-H ) :   0.9151
B(  6-N ,  7-C ) :   0.9683 B(  6-N , 15-H ) :   0.8683 B(  7-C , 16-H ) :   0.9177

MP2 TOTAL ENERGY:     -326.050512832 Eh
FINAL SINGLE POINT ENERGY      -326.050512832484

DIPOLE MOMENT
-------------
                                X             Y             Z
Electronic contribution:     -0.99555      -2.17894      -0.26371
Nuclear contribution   :      0.90800       1.65704      -0.01367
                        -----------------------------------------
Total Dipole Moment    :     -0.08755      -0.52191      -0.27738
                        -----------------------------------------
Magnitude (a.u.)       :      0.59749
Magnitude (Debye)      :      1.51869

                             ****ORCA TERMINATED NORMALLY****
TOTAL RUN TIME: 0 days 0 hours 11 minutes 48 seconds 542 msec
