                         Program Version 3.0.3 - RELEASE   -
|  1> ! RI-MP2 RIJK def2-TZVP def2-TZVP/C def2-TZVP/JK TIGHTSCF
|  2> % maxcore 2000
|  3> % mp2 density relaxed end
|  4> *xyz 0 1
|  5>  O        0.0900227926     1.3950858480    -0.0642897414
|  6>  C        0.0829637025    -0.0062077739     0.0772396334
|  7>  C       -1.3536129453    -0.5503963569     0.0581390343
|  8>  N       -2.0018994668    -0.1878321441    -1.2179162193
|  9>  C       -2.3763038384    -1.2874760431    -1.7455981694
| 10>  N       -2.1039995402    -2.4336159520    -1.0138620308
| 11>  C       -1.4290973447    -2.0710491789     0.1571953227
| 12>  N       -0.9609243199    -2.7840127001     1.0966063220
| 13>  H       -0.4694726503     1.5897092287    -0.8266841718
| 14>  H        0.6626268089    -0.5032438716    -0.7174691900
| 15>  H        0.5483990359    -0.2515463181     1.0355305077
| 16>  H       -1.9034274667    -0.0843886246     0.8837089958
| 17>  H       -2.8796836414    -1.3713047587    -2.7037773461
| 18>  H       -2.3085416060    -3.3765738112    -1.2998469680
| 19>  H       -1.1209213001    -3.7810744934     0.9444075108
| 20> *
| 21>
| 22>                          ****END OF INPUT****

CARTESIAN COORDINATES (ANGSTROEM)
---------------------------------
  O      0.090023    1.395086   -0.064290
  C      0.082964   -0.006208    0.077240
  C     -1.353613   -0.550396    0.058139
  N     -2.001899   -0.187832   -1.217916
  C     -2.376304   -1.287476   -1.745598
  N     -2.104000   -2.433616   -1.013862
  C     -1.429097   -2.071049    0.157195
  N     -0.960924   -2.784013    1.096606
  H     -0.469473    1.589709   -0.826684
  H      0.662627   -0.503244   -0.717469
  H      0.548399   -0.251546    1.035531
  H     -1.903427   -0.084389    0.883709
  H     -2.879684   -1.371305   -2.703777
  H     -2.308542   -3.376574   -1.299847
  H     -1.120921   -3.781074    0.944408

 Total Charge           Charge          ....    0
 Multiplicity           Mult            ....    1
 Number of Electrons    NEL             ....   60
 Basis Dimension        Dim             ....  290

ORBITAL ENERGIES
----------------

  NO   OCC          E(Eh)            E(eV)
   0   2.0000     -20.547971      -559.1387
   1   2.0000     -15.619989      -425.0415
   2   2.0000     -15.561839      -423.4592
   3   2.0000     -15.544446      -422.9859
   4   2.0000     -11.337672      -308.5137
   5   2.0000     -11.334951      -308.4397
   6   2.0000     -11.276498      -306.8491
   7   2.0000     -11.271885      -306.7236
   8   2.0000      -1.361730       -37.0545
   9   2.0000      -1.346730       -36.6464
  10   2.0000      -1.219008       -33.1709
  11   2.0000      -1.168606       -31.7994
  12   2.0000      -1.020310       -27.7640
  13   2.0000      -0.903063       -24.5736
  14   2.0000      -0.835430       -22.7332
  15   2.0000      -0.806319       -21.9410
  16   2.0000      -0.744926       -20.2705
  17   2.0000      -0.698639       -19.0109
  18   2.0000      -0.673439       -18.3252
  19   2.0000      -0.630930       -17.1685
  20   2.0000      -0.617985       -16.8162
  21   2.0000      -0.604373       -16.4458
  22   2.0000      -0.572424       -15.5764
  23   2.0000      -0.540005       -14.6943
  24   2.0000      -0.500746       -13.6260
  25   2.0000      -0.471103       -12.8194
  26   2.0000      -0.464053       -12.6275
  27   2.0000      -0.445511       -12.1230
  28   2.0000      -0.421983       -11.4828
  29   2.0000      -0.359877        -9.7928
  30   0.0000       0.111968         3.0468
  31   0.0000       0.123969         3.3734
  32   0.0000       0.158688         4.3181
  33   0.0000       0.173309         4.7160
  34   0.0000       0.184948         5.0327

MULLIKEN ATOMIC CHARGES
-----------------------
   0 O :   -0.473661
   1 C :   -0.009659
   2 C :    0.123375
   3 N :   -0.331149
   4 C :    0.070874
   5 N :   -0.305754
   6 C :    0.007417
   7 N :   -0.363303
   8 H :    0.330394
   9 H :    0.087633
  10 H :    0.128146
  11 H :    0.132628
  12 H :    0.151931
  13 H :    0.244479
  14 H :    0.206647
Sum of atomic charges:    0.0000000

LOEWDIN ATOMIC CHARGES
----------------------
   0 O :   -0.038226
   1 C :   -0.318625
   2 C :   -0.244324
   3 N :    0.074048
   4 C :   -0.289685
   5 N :    0.129299
   6 C :   -0.333907
   7 N :   -0.062474
   8 H :    0.178933
   9 H :    0.120073
  10 H :    0.136970
  11 H :    0.166568
  12 H :    0.135454
  13 H :    0.185642
  14 H :    0.160255

  Mayer bond orders larger than 0.1
B(  0-O ,  1-C ) :   0.9438 B(  0-O ,  8-H ) :   0.8284 B(  1-C ,  2-C ) :   0.9380
B(  1-C ,  9-H ) :   0.9048 B(  1-C , 10-H ) :   0.9271 B(  2-C ,  3-N ) :   0.8732
B(  2-C ,  6-C ) :   0.8704 B(  2-C , 11-H ) :   0.8987 B(  3-N ,  4-C ) :   1.8039
B(  4-C ,  5-N ) :   1.0458 B(  4-C , 12-H ) :   0.9159 B(  5-N ,  6-C ) :   1.0414
B(  5-N , 13-H ) :   0.8652 B(  6-C ,  7-N ) :   2.0660 B(  7-N , 14-H ) :   0.8516

MP2 TOTAL ENERGY:     -395.349513669 Eh
FINAL SINGLE POINT ENERGY      -395.349513669306

DIPOLE MOMENT
-------------
                                X             Y             Z
Electronic contribution:     -1.88105      -0.53057      -0.78787
Nuclear contribution   :      1.01589      -0.99164      -0.36203
                        -----------------------------------------
Total Dipole Moment    :     -0.86516      -1.52221      -1.14991
                        -----------------------------------------
Magnitude (a.u.)       :      2.09473
Magnitude (Debye)      :      5.32439

                             ****ORCA TERMINATED NORMALLY****
TOTAL RUN TIME: 0 days 0 hours 11 minutes 34 seconds 772 msec
