                         Program Version 3.0.3 - RELEASE   -
|  1> ! RI-MP2 RIJK def2-TZVP def2-TZVP/C def2-TZVP/JK TIGHTSCF
|  2> % maxcore 2000
|  3> % mp2 density relaxed end
|  4> *xyz 0 1
|  5>  C        0.0451717008     1.5895640206     0.0066381228
|  6>  C        0.0243813431     0.0672931730     0.1927523317
|  7>  C       -1.3786246467    -0.5204316847     0.0671349560
|  8>  C       -2.0455429464    -0.6551647465    -1.3333802739
|  9>  C       -1.2164044175    -1.9424031917    -1.5482251951
| 10>  C       -1.5146245125    -2.0833265352    -0.0204917310
| 11>  C       -3.0460340379    -2.2394149414    -0.0858389386
| 12>  C       -3.8367670919    -2.1076574112     1.2054473797
| 13>  O       -3.3545640203    -1.1562507352    -1.0091094515
| 14>  H        1.0537031409     1.9911669966     0.1455558790
| 15>  H       -0.2916380692     1.8741220562    -0.9957285764
| 16>  H       -0.6135416526     2.0854112209     0.7280482061
| 17>  H        0.7176506148    -0.3942446668    -0.5182071727
| 18>  H        0.4117579527    -0.1791818674     1.1902849799
| 19>  H       -2.0326344414    -0.0344497780     0.7984803511
| 20>  H       -2.1333655743     0.1524756258    -2.0593798741
| 21>  H       -1.6395340728    -2.6917575442    -2.2219628715
| 22>  H       -0.1664582356    -1.7712319026    -1.7810052433
| 23>  H       -0.9646197466    -2.7627599594     0.6315072359
| 24>  H       -3.3134138545    -3.1910531204    -0.5670496802
| 25>  H       -3.5515365030    -1.2204212497     1.7766763127
| 26>  H       -4.9049194069    -2.0340681817     0.9801476079
| 27>  H       -3.6828914821    -2.9909304170     1.8350005555
| 28> *
| 29>
| 30>                          ****END OF INPUT****

CARTESIAN COORDINATES (ANGSTROEM)
---------------------------------
  C      0.045172    1.589564    0.006638
  C      0.024381    0.067293    0.192752
  C     -1.378625   -0.520432    0.067135
  C     -2.045543   -0.655165   -1.333380
  C     -1.216404   -1.942403   -1.548225
  C     -1.514625   -2.083327   -0.020492
  C     -3.046034   -2.239415   -0.085839
  C     -3.836767   -2.107657    1.205447
  O     -3.354564   -1.156251   -1.009109
  H      1.053703    1.991167    0.145556
  H     -0.291638    1.874122   -0.995729
  H     -0.613542    2.085411    0.728048
  H      0.717651   -0.394245   -0.518207
  H      0.411758   -0.179182    1.190285
  H     -2.032634   -0.034450    0.798480
  H     -2.133366    0.152476   -2.059380
  H     -1.639534   -2.691758   -2.221963
  H     -0.166458   -1.771232   -1.781005
  H     -0.964620   -2.762760    0.631507
  H     -3.313414   -3.191053   -0.567050
  H     -3.551537   -1.220421    1.776676
  H     -4.904919   -2.034068    0.980148
  H     -3.682891   -2.990930    1.835001

 Total Charge           Charge          ....    0
 Multiplicity           Mult            ....    1
 Number of Electrons    NEL             ....   70
 Basis Dimension        Dim             ....  363

ORBITAL ENERGIES
----------------

  NO   OCC          E(Eh)            E(eV)
   0   2.0000     -20.540860      -558.9452
   1   2.0000     -11.277416      -306.8741
   2   2.0000     -11.274085      -306.7835
   3   2.0000     -11.235472      -305.7327
   4   2.0000     -11.227044      -305.5034
   5   2.0000     -11.224193      -305.4258
   6   2.0000     -11.222078      -305.3683
   7   2.0000     -11.215188      -305.1808
   8   2.0000     -11.211451      -305.0791
   9   2.0000      -1.372466       -37.3467
  10   2.0000      -1.125243       -30.6194
  11   2.0000      -1.033813       -28.1315
  12   2.0000      -1.019123       -27.7318
  13   2.0000      -0.909856       -24.7584
  14   2.0000      -0.894312       -24.3355
  15   2.0000      -0.837495       -22.7894
  16   2.0000      -0.760705       -20.6998
  17   2.0000      -0.743103       -20.2209
  18   2.0000      -0.689850       -18.7718
  19   2.0000      -0.660654       -17.9773
  20   2.0000      -0.629846       -17.1390
  21   2.0000      -0.596685       -16.2366
  22   2.0000      -0.577834       -15.7237
  23   2.0000      -0.560545       -15.2532
  24   2.0000      -0.553210       -15.0536
  25   2.0000      -0.528851       -14.3908
  26   2.0000      -0.515269       -14.0212
  27   2.0000      -0.510819       -13.9001
  28   2.0000      -0.501737       -13.6530
  29   2.0000      -0.493247       -13.4219
  30   2.0000      -0.477529       -12.9942
  31   2.0000      -0.464891       -12.6503
  32   2.0000      -0.434158       -11.8140
  33   2.0000      -0.423212       -11.5162
  34   2.0000      -0.385903       -10.5010
  35   0.0000       0.138276         3.7627
  36   0.0000       0.149281         4.0622
  37   0.0000       0.160182         4.3588
  38   0.0000       0.169230         4.6050
  39   0.0000       0.188026         5.1165

MULLIKEN ATOMIC CHARGES
-----------------------
   0 C :   -0.395939
   1 C :   -0.205698
   2 C :   -0.155443
   3 C :    0.075240
   4 C :   -0.272661
   5 C :   -0.054510
   6 C :    0.074520
   7 C :   -0.409952
   8 O :   -0.338533
   9 H :    0.134614
  10 H :    0.124231
  11 H :    0.127326
  12 H :    0.105873
  13 H :    0.110768
  14 H :    0.096879
  15 H :    0.126104
  16 H :    0.117233
  17 H :    0.125264
  18 H :    0.129524
  19 H :    0.092553
  20 H :    0.127171
  21 H :    0.143934
  22 H :    0.121502
Sum of atomic charges:    0.0000000

LOEWDIN ATOMIC CHARGES
----------------------
   0 C :   -0.315007
   1 C :   -0.272619
   2 C :   -0.190646
   3 C :   -0.253489
   4 C :   -0.201357
   5 C :   -0.176640
   6 C :   -0.293489
   7 C :   -0.294454
   8 O :    0.167118
   9 H :    0.120748
  10 H :    0.120499
  11 H :    0.121791
  12 H :    0.136112
  13 H :    0.139643
  14 H :    0.147057
  15 H :    0.129082
  16 H :    0.129973
  17 H :    0.133404
  18 H :    0.137042
  19 H :    0.138701
  20 H :    0.121362
  21 H :    0.129679
  22 H :    0.125492

  Mayer bond orders larger than 0.1
B(  0-C ,  1-C ) :   0.9196 B(  0-C ,  9-H ) :   0.9408 B(  0-C , 10-H ) :   0.9396
B(  0-C , 11-H ) :   0.9398 B(  1-C ,  2-C ) :   0.9050 B(  1-C , 12-H ) :   0.9250
B(  1-C , 13-H ) :   0.9295 B(  2-C ,  3-C ) :   0.9183 B(  2-C ,  5-C ) :   0.8777
B(  2-C , 14-H ) :   0.9226 B(  3-C ,  4-C ) :   0.9310 B(  3-C ,  8-O ) :   0.9302
B(  3-C , 15-H ) :   0.9090 B(  4-C ,  5-C ) :   0.9143 B(  4-C , 16-H ) :   0.9202
B(  4-C , 17-H ) :   0.9250 B(  5-C ,  6-C ) :   0.9115 B(  5-C , 18-H ) :   0.9045
B(  6-C ,  7-C ) :   0.9185 B(  6-C ,  8-O ) :   0.8802 B(  6-C , 19-H ) :   0.9157
B(  7-C , 20-H ) :   0.9386 B(  7-C , 21-H ) :   0.9383 B(  7-C , 22-H ) :   0.9345

MP2 TOTAL ENERGY:     -387.603028941 Eh
FINAL SINGLE POINT ENERGY      -387.603028940676

DIPOLE MOMENT
-------------
                                X             Y             Z
Electronic contribution:     -3.55802      -2.64826      -3.23930
Nuclear contribution   :      4.18329       2.48280       3.51646
                        -----------------------------------------
Total Dipole Moment    :      0.62528      -0.16546       0.27716
                        -----------------------------------------
Magnitude (a.u.)       :      0.70368
Magnitude (Debye)      :      1.78861

                             ****ORCA TERMINATED NORMALLY****
TOTAL RUN TIME: 0 days 0 hours 33 minutes 41 seconds 637 msec
