                         Program Version 3.0.3 - RELEASE   -
|  1> ! RI-MP2 RIJK def2-TZVP def2-TZVP/C def2-TZVP/JK TIGHTSCF
|  2> % maxcore 2000
|  3> % mp2 density relaxed end
|  4> *xyz 0 1
|  5>  C       -0.4471483005     1.4676115166     0.4135868976
|  6>  O       -0.6978446833     0.1049186039     0.6588641690
|  7>  C       -0.8380548873    -0.6506295264    -0.5282648078
|  8>  C       -1.0069955727    -2.0928286007    -0.1770226545
|  9>  C       -1.8134749775    -3.0743355733    -1.0087031265
| 10>  C       -2.1553676177    -2.8622861502     0.4325969194
| 11>  O       -1.3027786396    -3.6319842512     1.2774927777
| 12>  C       -0.1409889559    -2.8609864024     0.8316338171
| 13>  C        1.0237203790    -3.7179571383     0.3835108271
| 14>  H       -0.3461644514     1.9615713410     1.3828877191
| 15>  H        0.4813378775     1.6168265056    -0.1608021748
| 16>  H       -1.2714734866     1.9421320015    -0.1426238882
| 17>  H       -1.7055475137    -0.2980164675    -1.1124456684
| 18>  H        0.0518375672    -0.5111880502    -1.1693642588
| 19>  H       -2.4841195818    -2.6050594497    -1.7229615101
| 20>  H       -1.3943029983    -4.0232514708    -1.3295807633
| 21>  H       -3.1193156565    -2.5532018632     0.8196052426
| 22>  H        0.1608914812    -2.1869230302     1.6411250672
| 23>  H        0.7557272529    -4.3608028273    -0.4593171905
| 24>  H        1.8651309057    -3.0828407779     0.0852312606
| 25>  H        1.3593841594    -4.3571519093     1.2064109754
| 26> *
| 27>
| 28>                          ****END OF INPUT****

CARTESIAN COORDINATES (ANGSTROEM)
---------------------------------
  C     -0.447148    1.467612    0.413587
  O     -0.697845    0.104919    0.658864
  C     -0.838055   -0.650630   -0.528265
  C     -1.006996   -2.092829   -0.177023
  C     -1.813475   -3.074336   -1.008703
  C     -2.155368   -2.862286    0.432597
  O     -1.302779   -3.631984    1.277493
  C     -0.140989   -2.860986    0.831634
  C      1.023720   -3.717957    0.383511
  H     -0.346164    1.961571    1.382888
  H      0.481338    1.616827   -0.160802
  H     -1.271473    1.942132   -0.142624
  H     -1.705548   -0.298016   -1.112446
  H      0.051838   -0.511188   -1.169364
  H     -2.484120   -2.605059   -1.722962
  H     -1.394303   -4.023251   -1.329581
  H     -3.119316   -2.553202    0.819605
  H      0.160891   -2.186923    1.641125
  H      0.755727   -4.360803   -0.459317
  H      1.865131   -3.082841    0.085231
  H      1.359384   -4.357152    1.206411

 Total Charge           Charge          ....    0
 Multiplicity           Mult            ....    1
 Number of Electrons    NEL             ....   70
 Basis Dimension        Dim             ....  351

ORBITAL ENERGIES
----------------

  NO   OCC          E(Eh)            E(eV)
   0   2.0000     -20.560360      -559.4759
   1   2.0000     -20.544605      -559.0471
   2   2.0000     -11.286402      -307.1186
   3   2.0000     -11.281886      -306.9957
   4   2.0000     -11.280439      -306.9564
   5   2.0000     -11.275200      -306.8138
   6   2.0000     -11.238162      -305.8059
   7   2.0000     -11.232344      -305.6476
   8   2.0000     -11.213941      -305.1469
   9   2.0000      -1.386984       -37.7417
  10   2.0000      -1.378551       -37.5123
  11   2.0000      -1.122638       -30.5485
  12   2.0000      -1.017890       -27.6982
  13   2.0000      -0.982000       -26.7216
  14   2.0000      -0.894770       -24.3479
  15   2.0000      -0.864136       -23.5143
  16   2.0000      -0.813959       -22.1490
  17   2.0000      -0.726286       -19.7632
  18   2.0000      -0.696267       -18.9464
  19   2.0000      -0.679283       -18.4842
  20   2.0000      -0.656126       -17.8541
  21   2.0000      -0.639762       -17.4088
  22   2.0000      -0.609214       -16.5776
  23   2.0000      -0.590259       -16.0618
  24   2.0000      -0.588157       -16.0046
  25   2.0000      -0.558437       -15.1958
  26   2.0000      -0.549613       -14.9557
  27   2.0000      -0.533015       -14.5041
  28   2.0000      -0.507347       -13.8056
  29   2.0000      -0.496302       -13.5051
  30   2.0000      -0.485037       -13.1985
  31   2.0000      -0.454157       -12.3582
  32   2.0000      -0.430693       -11.7197
  33   2.0000      -0.399049       -10.8587
  34   2.0000      -0.369208       -10.0467
  35   0.0000       0.133896         3.6435
  36   0.0000       0.157620         4.2891
  37   0.0000       0.165978         4.5165
  38   0.0000       0.178077         4.8457
  39   0.0000       0.184924         5.0320

MULLIKEN ATOMIC CHARGES
-----------------------
   0 C :   -0.225548
   1 O :   -0.300467
   2 C :   -0.084607
   3 C :    0.027723
   4 C :   -0.270006
   5 C :    0.041594
   6 O :   -0.335507
   7 C :    0.090203
   8 C :   -0.396815
   9 H :    0.142270
  10 H :    0.111121
  11 H :    0.111024
  12 H :    0.093409
  13 H :    0.100869
  14 H :    0.128839
  15 H :    0.134087
  16 H :    0.129318
  17 H :    0.110951
  18 H :    0.122887
  19 H :    0.126445
  20 H :    0.142208
Sum of atomic charges:   -0.0000000

LOEWDIN ATOMIC CHARGES
----------------------
   0 C :   -0.362353
   1 O :    0.139294
   2 C :   -0.294562
   3 C :   -0.202428
   4 C :   -0.186851
   5 C :   -0.228741
   6 O :    0.162908
   7 C :   -0.246133
   8 C :   -0.292270
   9 H :    0.114351
  10 H :    0.100986
  11 H :    0.101603
  12 H :    0.128137
  13 H :    0.126888
  14 H :    0.142662
  15 H :    0.133627
  16 H :    0.131945
  17 H :    0.148022
  18 H :    0.123549
  19 H :    0.128902
  20 H :    0.130465

  Mayer bond orders larger than 0.1
B(  0-C ,  1-O ) :   0.9212 B(  0-C ,  9-H ) :   0.9395 B(  0-C , 10-H ) :   0.9375
B(  0-C , 11-H ) :   0.9361 B(  1-O ,  2-C ) :   0.9760 B(  2-C ,  3-C ) :   0.9448
B(  2-C , 12-H ) :   0.9063 B(  2-C , 13-H ) :   0.9183 B(  3-C ,  4-C ) :   0.8676
B(  3-C ,  5-C ) :   0.9173 B(  3-C ,  7-C ) :   0.9288 B(  4-C ,  5-C ) :   0.8720
B(  4-C , 14-H ) :   0.9207 B(  4-C , 15-H ) :   0.9015 B(  5-C ,  6-O ) :   0.9821
B(  5-C , 16-H ) :   0.9145 B(  6-O ,  7-C ) :   0.9163 B(  7-C ,  8-C ) :   0.9161
B(  7-C , 17-H ) :   0.9122 B(  8-C , 18-H ) :   0.9377 B(  8-C , 19-H ) :   0.9286
B(  8-C , 20-H ) :   0.9335

MP2 TOTAL ENERGY:     -423.461791107 Eh
FINAL SINGLE POINT ENERGY      -423.461791106957

DIPOLE MOMENT
-------------
                                X             Y             Z
Electronic contribution:     -3.48454      -3.03205       3.08545
Nuclear contribution   :      3.68207       3.82747      -3.88407
                        -----------------------------------------
Total Dipole Moment    :      0.19754       0.79542      -0.79861
                        -----------------------------------------
Magnitude (a.u.)       :      1.14433
Magnitude (Debye)      :      2.90867

                             ****ORCA TERMINATED NORMALLY****
TOTAL RUN TIME: 0 days 0 hours 16 minutes 55 seconds 525 msec
