                         Program Version 3.0.3 - RELEASE   -
|  1> ! RI-MP2 RIJK def2-TZVP def2-TZVP/C def2-TZVP/JK TIGHTSCF
|  2> % maxcore 2000
|  3> % mp2 density relaxed end
|  4> *xyz 0 1
|  5>  C        0.1267416805     1.4271330136     0.0890166324
|  6>  C        0.0377794106    -0.0476896368    -0.0634151412
|  7>  N       -0.0488252362    -0.7437437070    -1.1587363006
|  8>  C       -0.0825222742    -2.0561767403    -0.7091800949
|  9>  C       -0.0173310490    -2.0788024317     0.6317798163
| 10>  C       -0.1078772729    -3.4157235930     1.2718593839
| 11>  C        0.0010596791    -4.3221900666    -0.0131212328
| 12>  C       -0.2281330683    -3.4276495596    -1.2884983573
| 13>  O        0.0569777150    -0.7982867274     1.0906101495
| 14>  H        1.0649767158     1.7204743750     0.5721918277
| 15>  H        0.0781431960     1.8859762012    -0.8987801050
| 16>  H       -0.6936013310     1.8123408952     0.7036827995
| 17>  H        0.6908060739    -3.6310132991     1.9897310068
| 18>  H       -1.0587727896    -3.5633366506     1.8004147251
| 19>  H        1.0050764056    -4.7521743980    -0.0544915212
| 20>  H       -0.7023303082    -5.1566286244     0.0286922453
| 21>  H       -1.2239294085    -3.5846511890    -1.7214162409
| 22>  H        0.4969598312    -3.6578581115    -2.0756476024
| 23> *
| 24>
| 25>                          ****END OF INPUT****

CARTESIAN COORDINATES (ANGSTROEM)
---------------------------------
  C      0.126742    1.427133    0.089017
  C      0.037779   -0.047690   -0.063415
  N     -0.048825   -0.743744   -1.158736
  C     -0.082522   -2.056177   -0.709180
  C     -0.017331   -2.078802    0.631780
  C     -0.107877   -3.415724    1.271859
  C      0.001060   -4.322190   -0.013121
  C     -0.228133   -3.427650   -1.288498
  O      0.056978   -0.798287    1.090610
  H      1.064977    1.720474    0.572192
  H      0.078143    1.885976   -0.898780
  H     -0.693601    1.812341    0.703683
  H      0.690806   -3.631013    1.989731
  H     -1.058773   -3.563337    1.800415
  H      1.005076   -4.752174   -0.054492
  H     -0.702330   -5.156629    0.028692
  H     -1.223929   -3.584651   -1.721416
  H      0.496960   -3.657858   -2.075648

 Total Charge           Charge          ....    0
 Multiplicity           Mult            ....    1
 Number of Electrons    NEL             ....   66
 Basis Dimension        Dim             ....  333

ORBITAL ENERGIES
----------------

  NO   OCC          E(Eh)            E(eV)
   0   2.0000     -20.625228      -561.2410
   1   2.0000     -15.554061      -423.2475
   2   2.0000     -11.332370      -308.3695
   3   2.0000     -11.268017      -306.6183
   4   2.0000     -11.242223      -305.9164
   5   2.0000     -11.239792      -305.8503
   6   2.0000     -11.237400      -305.7852
   7   2.0000     -11.235136      -305.7236
   8   2.0000     -11.232825      -305.6607
   9   2.0000      -1.469834       -39.9962
  10   2.0000      -1.224352       -33.3163
  11   2.0000      -1.126503       -30.6537
  12   2.0000      -1.028604       -27.9897
  13   2.0000      -0.965836       -26.2817
  14   2.0000      -0.931887       -25.3579
  15   2.0000      -0.807389       -21.9702
  16   2.0000      -0.801800       -21.8181
  17   2.0000      -0.762043       -20.7362
  18   2.0000      -0.683369       -18.5954
  19   2.0000      -0.670612       -18.2483
  20   2.0000      -0.628682       -17.1073
  21   2.0000      -0.593728       -16.1562
  22   2.0000      -0.585290       -15.9265
  23   2.0000      -0.571121       -15.5410
  24   2.0000      -0.561384       -15.2760
  25   2.0000      -0.549068       -14.9409
  26   2.0000      -0.533184       -14.5087
  27   2.0000      -0.491439       -13.3727
  28   2.0000      -0.489777       -13.3275
  29   2.0000      -0.488693       -13.2980
  30   2.0000      -0.443139       -12.0584
  31   2.0000      -0.435907       -11.8616
  32   2.0000      -0.307527        -8.3682
  33   0.0000       0.135738         3.6936
  34   0.0000       0.148055         4.0288
  35   0.0000       0.149952         4.0804
  36   0.0000       0.170329         4.6349
  37   0.0000       0.182954         4.9784

MULLIKEN ATOMIC CHARGES
-----------------------
   0 C :   -0.452384
   1 C :    0.285155
   2 N :   -0.281580
   3 C :    0.022109
   4 C :    0.092678
   5 C :   -0.204816
   6 C :   -0.227088
   7 C :   -0.221206
   8 O :   -0.228863
   9 H :    0.149083
  10 H :    0.164854
  11 H :    0.149788
  12 H :    0.132543
  13 H :    0.122768
  14 H :    0.121728
  15 H :    0.126533
  16 H :    0.119716
  17 H :    0.128983
Sum of atomic charges:   -0.0000000

LOEWDIN ATOMIC CHARGES
----------------------
   0 C :   -0.272596
   1 C :   -0.346031
   2 N :    0.137058
   3 C :   -0.237493
   4 C :   -0.244442
   5 C :   -0.213997
   6 C :   -0.208751
   7 C :   -0.209506
   8 O :    0.351854
   9 H :    0.136687
  10 H :    0.143597
  11 H :    0.136583
  12 H :    0.139824
  13 H :    0.141032
  14 H :    0.136806
  15 H :    0.130904
  16 H :    0.139603
  17 H :    0.138866

  Mayer bond orders larger than 0.1
B(  0-C ,  1-C ) :   0.8549 B(  0-C ,  9-H ) :   0.9306 B(  0-C , 10-H ) :   0.9537
B(  0-C , 11-H ) :   0.9331 B(  1-C ,  2-N ) :   1.6662 B(  1-C ,  8-O ) :   1.0494
B(  2-N ,  3-C ) :   1.2132 B(  3-C ,  4-C ) :   1.5401 B(  3-C ,  7-C ) :   0.9248
B(  4-C ,  5-C ) :   0.9421 B(  4-C ,  8-O ) :   1.0436 B(  5-C ,  6-C ) :   0.9369
B(  5-C , 12-H ) :   0.9285 B(  5-C , 13-H ) :   0.9009 B(  6-C ,  7-C ) :   0.9476
B(  6-C , 14-H ) :   0.9299 B(  6-C , 15-H ) :   0.9398 B(  7-C , 16-H ) :   0.9072
B(  7-C , 17-H ) :   0.9306

MP2 TOTAL ENERGY:     -401.299780645 Eh
FINAL SINGLE POINT ENERGY      -401.299780645076

DIPOLE MOMENT
-------------
                                X             Y             Z
Electronic contribution:      0.08619       3.05590       0.23297
Nuclear contribution   :     -0.08971      -3.37645       0.29258
                        -----------------------------------------
Total Dipole Moment    :     -0.00352      -0.32055       0.52554
                        -----------------------------------------
Magnitude (a.u.)       :      0.61560
Magnitude (Debye)      :      1.56473

                             ****ORCA TERMINATED NORMALLY****
TOTAL RUN TIME: 0 days 0 hours 18 minutes 21 seconds 940 msec
