                         Program Version 3.0.3 - RELEASE   -
|  1> ! RI-MP2 RIJK def2-TZVP def2-TZVP/C def2-TZVP/JK TIGHTSCF
|  2> % maxcore 2000
|  3> % mp2 density relaxed end
|  4> *xyz 0 1
|  5>  C       -0.2426138371     1.4321596314    -0.2133401720
|  6>  C        1.2152252106     1.2857348354     0.1412531761
|  7>  C        0.3413028928     0.0595942113     0.0235227401
|  8>  C       -0.0355857402    -0.7131483316     1.2543092399
|  9>  C       -1.0786969538    -1.8396784650     1.1676944659
| 10>  C       -0.0860578676    -2.8864813282     0.5713381211
| 11>  C       -0.4552171886    -3.8477185824     1.6933564974
| 12>  N       -0.5051499538    -2.5191477360     2.4425705965
| 13>  C        0.7016333582    -2.0172776837     1.6012913615
| 14>  H       -0.9103479982     1.8330491898     0.5423554126
| 15>  H       -0.5012678142     1.7135828370    -1.2280557478
| 16>  H        1.9549090750     1.4668900646    -0.6306264766
| 17>  H        1.5279589129     1.5881345184     1.1354410806
| 18>  H        0.4964705599    -0.5471671114    -0.8650383424
| 19>  H       -0.1803763848    -0.0537713851     2.1189147422
| 20>  H       -2.1586444469    -1.7864764014     1.0129768809
| 21>  H        0.1509067254    -3.0786467300    -0.4803293552
| 22>  H       -1.4239749322    -4.3563512813     1.6432078066
| 23>  H        0.3159725085    -4.5299186723     2.0669641978
| 24>  H        1.7220731441    -2.1736064594     1.9581078349
| 25> *
| 26>
| 27>                          ****END OF INPUT****

CARTESIAN COORDINATES (ANGSTROEM)
---------------------------------
  C     -0.242614    1.432160   -0.213340
  C      1.215225    1.285735    0.141253
  C      0.341303    0.059594    0.023523
  C     -0.035586   -0.713148    1.254309
  C     -1.078697   -1.839678    1.167694
  C     -0.086058   -2.886481    0.571338
  C     -0.455217   -3.847719    1.693356
  N     -0.505150   -2.519148    2.442571
  C      0.701633   -2.017278    1.601291
  H     -0.910348    1.833049    0.542355
  H     -0.501268    1.713583   -1.228056
  H      1.954909    1.466890   -0.630626
  H      1.527959    1.588135    1.135441
  H      0.496471   -0.547167   -0.865038
  H     -0.180376   -0.053771    2.118915
  H     -2.158644   -1.786476    1.012977
  H      0.150907   -3.078647   -0.480329
  H     -1.423975   -4.356351    1.643208
  H      0.315973   -4.529919    2.066964
  H      1.722073   -2.173606    1.958108

 Total Charge           Charge          ....    0
 Multiplicity           Mult            ....    1
 Number of Electrons    NEL             ....   66
 Basis Dimension        Dim             ....  345

ORBITAL ENERGIES
----------------

  NO   OCC          E(Eh)            E(eV)
   0   2.0000     -15.560642      -423.4266
   1   2.0000     -11.268313      -306.6264
   2   2.0000     -11.268243      -306.6245
   3   2.0000     -11.250145      -306.1320
   4   2.0000     -11.245070      -305.9939
   5   2.0000     -11.235381      -305.7303
   6   2.0000     -11.233025      -305.6661
   7   2.0000     -11.226555      -305.4901
   8   2.0000     -11.225919      -305.4728
   9   2.0000      -1.312728       -35.7211
  10   2.0000      -1.145760       -31.1777
  11   2.0000      -1.028718       -27.9928
  12   2.0000      -0.928753       -25.2727
  13   2.0000      -0.876165       -23.8417
  14   2.0000      -0.869143       -23.6506
  15   2.0000      -0.822763       -22.3885
  16   2.0000      -0.781361       -21.2619
  17   2.0000      -0.704626       -19.1739
  18   2.0000      -0.683307       -18.5937
  19   2.0000      -0.652738       -17.7619
  20   2.0000      -0.634294       -17.2600
  21   2.0000      -0.607100       -16.5200
  22   2.0000      -0.604783       -16.4570
  23   2.0000      -0.541532       -14.7358
  24   2.0000      -0.517820       -14.0906
  25   2.0000      -0.493165       -13.4197
  26   2.0000      -0.471315       -12.8251
  27   2.0000      -0.456785       -12.4298
  28   2.0000      -0.448109       -12.1937
  29   2.0000      -0.436327       -11.8731
  30   2.0000      -0.409047       -11.1307
  31   2.0000      -0.393404       -10.7051
  32   2.0000      -0.370253       -10.0751
  33   0.0000       0.150067         4.0835
  34   0.0000       0.157593         4.2883
  35   0.0000       0.158897         4.3238
  36   0.0000       0.164178         4.4675
  37   0.0000       0.179654         4.8886

MULLIKEN ATOMIC CHARGES
-----------------------
   0 C :   -0.264533
   1 C :   -0.264555
   2 C :   -0.097142
   3 C :   -0.100490
   4 C :   -0.071728
   5 C :   -0.124265
   6 C :   -0.148156
   7 N :   -0.203088
   8 C :   -0.071678
   9 H :    0.129953
  10 H :    0.130993
  11 H :    0.130993
  12 H :    0.129954
  13 H :    0.124627
  14 H :    0.111212
  15 H :    0.125553
  16 H :    0.109946
  17 H :    0.113424
  18 H :    0.113422
  19 H :    0.125558
Sum of atomic charges:   -0.0000000

LOEWDIN ATOMIC CHARGES
----------------------
   0 C :   -0.226405
   1 C :   -0.226402
   2 C :   -0.209019
   3 C :   -0.187089
   4 C :   -0.151873
   5 C :   -0.178388
   6 C :   -0.244749
   7 N :    0.126620
   8 C :   -0.151868
   9 H :    0.133509
  10 H :    0.130588
  11 H :    0.130588
  12 H :    0.133513
  13 H :    0.151716
  14 H :    0.155074
  15 H :    0.125695
  16 H :    0.119991
  17 H :    0.121401
  18 H :    0.121402
  19 H :    0.125695

  Mayer bond orders larger than 0.1
B(  0-C ,  1-C ) :   0.9084 B(  0-C ,  2-C ) :   0.8748 B(  0-C ,  9-H ) :   0.9300
B(  0-C , 10-H ) :   0.9302 B(  1-C ,  2-C ) :   0.8747 B(  1-C , 11-H ) :   0.9302
B(  1-C , 12-H ) :   0.9300 B(  2-C ,  3-C ) :   0.9043 B(  2-C , 13-H ) :   0.9188
B(  3-C ,  4-C ) :   0.9338 B(  3-C ,  8-C ) :   0.9338 B(  3-C , 14-H ) :   0.8754
B(  4-C ,  5-C ) :   0.9112 B(  4-C ,  7-N ) :   0.9154 B(  4-C , 15-H ) :   0.8855
B(  5-C ,  6-C ) :   0.9567 B(  5-C ,  8-C ) :   0.9112 B(  5-C , 16-H ) :   0.9147
B(  6-C ,  7-N ) :   0.9217 B(  6-C , 17-H ) :   0.9265 B(  6-C , 18-H ) :   0.9265
B(  7-N ,  8-C ) :   0.9154 B(  8-C , 19-H ) :   0.8855

MP2 TOTAL ENERGY:     -365.230479560 Eh
FINAL SINGLE POINT ENERGY      -365.230479560071

DIPOLE MOMENT
-------------
                                X             Y             Z
Electronic contribution:     -0.89835      -3.26829       2.34450
Nuclear contribution   :      1.07859       3.26066      -3.08765
                        -----------------------------------------
Total Dipole Moment    :      0.18024      -0.00763      -0.74315
                        -----------------------------------------
Magnitude (a.u.)       :      0.76473
Magnitude (Debye)      :      1.94379

                             ****ORCA TERMINATED NORMALLY****
TOTAL RUN TIME: 0 days 0 hours 19 minutes 5 seconds 442 msec
