                         Program Version 3.0.3 - RELEASE   -
|  1> ! RI-MP2 RIJK def2-TZVP def2-TZVP/C def2-TZVP/JK TIGHTSCF
|  2> % maxcore 2000
|  3> % mp2 density relaxed end
|  4> *xyz 0 1
|  5>  C       -0.0576709238     1.5263610381     0.1486622983
|  6>  N        0.0165442584     0.0830829414     0.1475134561
|  7>  C       -1.2241193262    -0.6750277186     0.4267750179
|  8>  C       -0.4131673493    -1.6201974322     1.3417651096
|  9>  O       -0.9533227988    -1.9854909564     2.5766062142
| 10>  C        0.4991902007    -2.6607763905     0.6167073891
| 11>  C        1.7100640565    -1.6789354917     0.7393369046
| 12>  C        0.7478588980    -0.5869770917     1.2542669704
| 13>  H        0.9448683851     1.9498457026     0.0241708313
| 14>  H       -0.6694501780     1.8656464557    -0.6946270504
| 15>  H       -0.4951212885     1.9473053649     1.0743455850
| 16>  H       -1.9544207102    -0.1102309636     1.0280628734
| 17>  H       -1.7224431694    -1.0862351662    -0.4602274963
| 18>  H       -1.5144573508    -2.7578434779     2.4439874890
| 19>  H        0.6146412628    -3.5897550158     1.1805901270
| 20>  H        0.1942336092    -2.8979442584    -0.4053375048
| 21>  H        2.4289799187    -2.0017169217     1.4974526349
| 22>  H        2.2382980958    -1.4338445407    -0.1837410048
| 23>  H        1.0407666897     0.0571616927     2.0889369555
| 24> *
| 25>
| 26>                          ****END OF INPUT****

CARTESIAN COORDINATES (ANGSTROEM)
---------------------------------
  C     -0.057671    1.526361    0.148662
  N      0.016544    0.083083    0.147513
  C     -1.224119   -0.675028    0.426775
  C     -0.413167   -1.620197    1.341765
  O     -0.953323   -1.985491    2.576606
  C      0.499190   -2.660776    0.616707
  C      1.710064   -1.678935    0.739337
  C      0.747859   -0.586977    1.254267
  H      0.944868    1.949846    0.024171
  H     -0.669450    1.865646   -0.694627
  H     -0.495121    1.947305    1.074346
  H     -1.954421   -0.110231    1.028063
  H     -1.722443   -1.086235   -0.460227
  H     -1.514457   -2.757843    2.443987
  H      0.614641   -3.589755    1.180590
  H      0.194234   -2.897944   -0.405338
  H      2.428980   -2.001717    1.497453
  H      2.238298   -1.433845   -0.183741
  H      1.040767    0.057162    2.088937

 Total Charge           Charge          ....    0
 Multiplicity           Mult            ....    1
 Number of Electrons    NEL             ....   62
 Basis Dimension        Dim             ....  314

ORBITAL ENERGIES
----------------

  NO   OCC          E(Eh)            E(eV)
   0   2.0000     -20.561974      -559.5197
   1   2.0000     -15.540163      -422.8693
   2   2.0000     -11.281492      -306.9850
   3   2.0000     -11.246932      -306.0446
   4   2.0000     -11.244839      -305.9876
   5   2.0000     -11.240612      -305.8726
   6   2.0000     -11.221723      -305.3586
   7   2.0000     -11.217008      -305.2303
   8   2.0000      -1.373020       -37.3618
   9   2.0000      -1.245988       -33.9051
  10   2.0000      -1.084296       -29.5052
  11   2.0000      -0.975057       -26.5326
  12   2.0000      -0.911886       -24.8137
  13   2.0000      -0.848362       -23.0851
  14   2.0000      -0.824941       -22.4478
  15   2.0000      -0.722035       -19.6476
  16   2.0000      -0.695091       -18.9144
  17   2.0000      -0.650250       -17.6942
  18   2.0000      -0.638275       -17.3683
  19   2.0000      -0.624623       -16.9969
  20   2.0000      -0.579964       -15.7816
  21   2.0000      -0.575646       -15.6641
  22   2.0000      -0.568105       -15.4589
  23   2.0000      -0.541959       -14.7475
  24   2.0000      -0.520352       -14.1595
  25   2.0000      -0.489477       -13.3194
  26   2.0000      -0.479076       -13.0363
  27   2.0000      -0.458785       -12.4842
  28   2.0000      -0.414907       -11.2902
  29   2.0000      -0.397075       -10.8050
  30   2.0000      -0.350370        -9.5341
  31   0.0000       0.136766         3.7216
  32   0.0000       0.148584         4.0432
  33   0.0000       0.165015         4.4903
  34   0.0000       0.178001         4.8437
  35   0.0000       0.191894         5.2217

MULLIKEN ATOMIC CHARGES
-----------------------
   0 C :   -0.326577
   1 N :   -0.166651
   2 C :   -0.199172
   3 C :    0.240091
   4 O :   -0.453405
   5 C :   -0.282158
   6 C :   -0.194980
   7 C :   -0.064300
   8 H :    0.135180
   9 H :    0.136131
  10 H :    0.106341
  11 H :    0.097407
  12 H :    0.102654
  13 H :    0.320767
  14 H :    0.114213
  15 H :    0.112816
  16 H :    0.110780
  17 H :    0.104523
  18 H :    0.106340
Sum of atomic charges:    0.0000000

LOEWDIN ATOMIC CHARGES
----------------------
   0 C :   -0.342968
   1 N :    0.084318
   2 C :   -0.225157
   3 C :   -0.333428
   4 O :    0.014763
   5 C :   -0.203795
   6 C :   -0.220883
   7 C :   -0.186175
   8 H :    0.118431
   9 H :    0.118216
  10 H :    0.100762
  11 H :    0.125386
  12 H :    0.117841
  13 H :    0.180731
  14 H :    0.129403
  15 H :    0.132199
  16 H :    0.131932
  17 H :    0.127908
  18 H :    0.130518

  Mayer bond orders larger than 0.1
B(  0-C ,  1-N ) :   0.9087 B(  0-C ,  8-H ) :   0.9383 B(  0-C ,  9-H ) :   0.9387
B(  0-C , 10-H ) :   0.9261 B(  1-N ,  2-C ) :   0.9417 B(  1-N ,  7-C ) :   0.9825
B(  2-C ,  3-C ) :   0.9693 B(  2-C , 11-H ) :   0.9158 B(  2-C , 12-H ) :   0.9077
B(  3-C ,  4-O ) :   1.0748 B(  3-C ,  5-C ) :   0.9329 B(  3-C ,  7-C ) :   0.8770
B(  4-O , 13-H ) :   0.8359 B(  5-C ,  6-C ) :   0.9826 B(  5-C , 14-H ) :   0.9238
B(  5-C , 15-H ) :   0.8961 B(  6-C ,  7-C ) :   0.9172 B(  6-C , 16-H ) :   0.9121
B(  6-C , 17-H ) :   0.9145 B(  7-C , 18-H ) :   0.9004

MP2 TOTAL ENERGY:     -364.395638497 Eh
FINAL SINGLE POINT ENERGY      -364.395638496620

DIPOLE MOMENT
-------------
                                X             Y             Z
Electronic contribution:     -1.13990      -2.45192       2.30701
Nuclear contribution   :      0.90893       2.20118      -2.46111
                        -----------------------------------------
Total Dipole Moment    :     -0.23098      -0.25073      -0.15410
                        -----------------------------------------
Magnitude (a.u.)       :      0.37412
Magnitude (Debye)      :      0.95093

                             ****ORCA TERMINATED NORMALLY****
TOTAL RUN TIME: 0 days 0 hours 13 minutes 44 seconds 689 msec
