                         Program Version 3.0.3 - RELEASE   -
|  1> ! RI-MP2 RIJK def2-TZVP def2-TZVP/C def2-TZVP/JK TIGHTSCF
|  2> % maxcore 2000
|  3> % mp2 density relaxed end
|  4> *xyz 0 1
|  5>  C       -0.1052604747     1.5477847399     0.0391826579
|  6>  C        0.0240687654     0.0278382666     0.0246804907
|  7>  C        0.9694395944    -0.5409246774    -1.0243024248
|  8>  C        2.4038901047    -0.2739965304    -0.4780172385
|  9>  C        2.6782503499    -1.7522972811    -0.7689076926
| 10>  N        1.1972325773    -2.0247569063    -0.6901698969
| 11>  C        0.8286034580    -2.0751495991     0.7607105519
| 12>  C        0.8497986488    -0.5944730092     1.1716602937
| 13>  O        2.1757608574    -0.0873929853     0.9294922643
| 14>  H        0.8669206963     2.0237942876     0.1910288251
| 15>  H       -0.5253477646     1.9164308232    -0.9024085501
| 16>  H       -0.7684298291     1.8737196673     0.8469721119
| 17>  H       -0.9623065440    -0.4428923521    -0.0450801326
| 18>  H        0.7662953783    -0.3646698583    -2.0796113837
| 19>  H        3.0608323950     0.5203444759    -0.8419642127
| 20>  H        3.0383761992    -1.9392897297    -1.7862750341
| 21>  H        3.2952441159    -2.2991484761    -0.0502802022
| 22>  H       -0.1694127894    -2.5110822016     0.8835024645
| 23>  H        1.5428552799    -2.6897072729     1.3139193304
| 24>  H        0.5674045813    -0.3542097911     2.1974935379
| 25> *
| 26>
| 27>                          ****END OF INPUT****

CARTESIAN COORDINATES (ANGSTROEM)
---------------------------------
  C     -0.105260    1.547785    0.039183
  C      0.024069    0.027838    0.024680
  C      0.969440   -0.540925   -1.024302
  C      2.403890   -0.273997   -0.478017
  C      2.678250   -1.752297   -0.768908
  N      1.197233   -2.024757   -0.690170
  C      0.828603   -2.075150    0.760711
  C      0.849799   -0.594473    1.171660
  O      2.175761   -0.087393    0.929492
  H      0.866921    2.023794    0.191029
  H     -0.525348    1.916431   -0.902409
  H     -0.768430    1.873720    0.846972
  H     -0.962307   -0.442892   -0.045080
  H      0.766295   -0.364670   -2.079611
  H      3.060832    0.520344   -0.841964
  H      3.038376   -1.939290   -1.786275
  H      3.295244   -2.299148   -0.050280
  H     -0.169413   -2.511082    0.883502
  H      1.542855   -2.689707    1.313919
  H      0.567405   -0.354210    2.197494

 Total Charge           Charge          ....    0
 Multiplicity           Mult            ....    1
 Number of Electrons    NEL             ....   68
 Basis Dimension        Dim             ....  345

ORBITAL ENERGIES
----------------

  NO   OCC          E(Eh)            E(eV)
   0   2.0000     -20.553273      -559.2830
   1   2.0000     -15.550657      -423.1549
   2   2.0000     -11.279739      -306.9373
   3   2.0000     -11.278672      -306.9083
   4   2.0000     -11.257675      -306.3369
   5   2.0000     -11.247893      -306.0707
   6   2.0000     -11.246702      -306.0383
   7   2.0000     -11.231625      -305.6281
   8   2.0000     -11.218235      -305.2637
   9   2.0000      -1.389365       -37.8065
  10   2.0000      -1.232231       -33.5307
  11   2.0000      -1.075905       -29.2769
  12   2.0000      -1.027941       -27.9717
  13   2.0000      -0.928971       -25.2786
  14   2.0000      -0.890339       -24.2274
  15   2.0000      -0.857010       -23.3204
  16   2.0000      -0.782993       -21.3063
  17   2.0000      -0.741739       -20.1837
  18   2.0000      -0.705171       -19.1887
  19   2.0000      -0.662504       -18.0276
  20   2.0000      -0.630450       -17.1554
  21   2.0000      -0.609971       -16.5982
  22   2.0000      -0.583757       -15.8848
  23   2.0000      -0.562775       -15.3139
  24   2.0000      -0.557578       -15.1725
  25   2.0000      -0.546399       -14.8683
  26   2.0000      -0.523792       -14.2531
  27   2.0000      -0.501452       -13.6452
  28   2.0000      -0.489474       -13.3193
  29   2.0000      -0.469967       -12.7885
  30   2.0000      -0.465880       -12.6772
  31   2.0000      -0.455702       -12.4003
  32   2.0000      -0.410353       -11.1663
  33   2.0000      -0.351331        -9.5602
  34   0.0000       0.135460         3.6860
  35   0.0000       0.162975         4.4348
  36   0.0000       0.164375         4.4729
  37   0.0000       0.178179         4.8485
  38   0.0000       0.186671         5.0796

MULLIKEN ATOMIC CHARGES
-----------------------
   0 C :   -0.448616
   1 C :   -0.147156
   2 C :   -0.013934
   3 C :    0.000739
   4 C :   -0.160802
   5 N :   -0.192811
   6 C :   -0.170996
   7 C :    0.084379
   8 O :   -0.333339
   9 H :    0.151618
  10 H :    0.134888
  11 H :    0.134314
  12 H :    0.111858
  13 H :    0.133453
  14 H :    0.111410
  15 H :    0.118423
  16 H :    0.116343
  17 H :    0.115132
  18 H :    0.126063
  19 H :    0.129033
Sum of atomic charges:    0.0000000

LOEWDIN ATOMIC CHARGES
----------------------
   0 C :   -0.285204
   1 C :   -0.241413
   2 C :   -0.190345
   3 C :   -0.262877
   4 C :   -0.242161
   5 N :    0.094685
   6 C :   -0.251234
   7 C :   -0.275981
   8 O :    0.182944
   9 H :    0.131808
  10 H :    0.125770
  11 H :    0.126066
  12 H :    0.159316
  13 H :    0.142389
  14 H :    0.126529
  15 H :    0.131373
  16 H :    0.123919
  17 H :    0.131958
  18 H :    0.132287
  19 H :    0.140171

  Mayer bond orders larger than 0.1
B(  0-C ,  1-C ) :   0.8778 B(  0-C ,  9-H ) :   0.9352 B(  0-C , 10-H ) :   0.9402
B(  0-C , 11-H ) :   0.9386 B(  1-C ,  2-C ) :   0.9511 B(  1-C ,  7-C ) :   0.9057
B(  1-C , 12-H ) :   0.9174 B(  2-C ,  3-C ) :   0.9359 B(  2-C ,  5-N ) :   0.9360
B(  2-C , 13-H ) :   0.9035 B(  3-C ,  4-C ) :   0.9364 B(  3-C ,  8-O ) :   0.9395
B(  3-C , 14-H ) :   0.9269 B(  4-C ,  5-N ) :   0.9116 B(  4-C , 15-H ) :   0.9154
B(  4-C , 16-H ) :   0.9234 B(  5-N ,  6-C ) :   0.9450 B(  6-C ,  7-C ) :   0.9575
B(  6-C , 17-H ) :   0.9189 B(  6-C , 18-H ) :   0.9368 B(  7-C ,  8-O ) :   0.9028
B(  7-C , 19-H ) :   0.9082

MP2 TOTAL ENERGY:     -402.444576015 Eh
FINAL SINGLE POINT ENERGY      -402.444576014520

DIPOLE MOMENT
-------------
                                X             Y             Z
Electronic contribution:      2.41820      -2.15792       0.33446
Nuclear contribution   :     -2.65328       2.43099      -0.38021
                        -----------------------------------------
Total Dipole Moment    :     -0.23508       0.27307      -0.04576
                        -----------------------------------------
Magnitude (a.u.)       :      0.36321
Magnitude (Debye)      :      0.92321

                             ****ORCA TERMINATED NORMALLY****
TOTAL RUN TIME: 0 days 0 hours 20 minutes 4 seconds 94 msec
