                         Program Version 3.0.3 - RELEASE   -
|  1> ! RI-MP2 RIJK def2-TZVP def2-TZVP/C def2-TZVP/JK TIGHTSCF
|  2> % maxcore 2000
|  3> % mp2 density relaxed end
|  4> *xyz 0 1
|  5>  C       -0.0452737187     1.4667407253     0.1087258620
|  6>  C        1.2989193667     0.7917722441     0.0535464822
|  7>  O        2.0589670686     0.8617950363     1.2249971361
|  8>  C        2.4797044107    -0.3455675213     1.8239778437
|  9>  C        1.3042667186    -1.2471315700     2.2808816526
| 10>  C        0.6755937977    -2.1443252851     1.1956850750
| 11>  C       -0.3349251080    -0.9838025200     1.0820819389
| 12>  O        0.0764158960    -0.4843129079     2.3805569421
| 13>  C        0.0317150763    -0.0333595927    -0.0339277139
| 14>  H       -0.3140574612     1.8414387173     1.0899500112
| 15>  H       -0.3843964975     2.0603417536    -0.7326606901
| 16>  H        1.8937769807     0.8878680490    -0.8549154409
| 17>  H        3.1471213664    -0.9253072977     1.1646033855
| 18>  H        3.0651716785    -0.0281030259     2.6921493589
| 19>  H        1.5555387121    -1.7363030012     3.2278734830
| 20>  H        1.2749270939    -2.3787080103     0.3130874112
| 21>  H        0.2400682684    -3.0568374804     1.6072714142
| 22>  H       -1.4011664766    -1.2340931299     1.0712846639
| 23>  H       -0.1860459525    -0.4400454032    -1.0198954155
| 24> *
| 25>
| 26>                          ****END OF INPUT****

CARTESIAN COORDINATES (ANGSTROEM)
---------------------------------
  C     -0.045274    1.466741    0.108726
  C      1.298919    0.791772    0.053546
  O      2.058967    0.861795    1.224997
  C      2.479704   -0.345568    1.823978
  C      1.304267   -1.247132    2.280882
  C      0.675594   -2.144325    1.195685
  C     -0.334925   -0.983803    1.082082
  O      0.076416   -0.484313    2.380557
  C      0.031715   -0.033360   -0.033928
  H     -0.314057    1.841439    1.089950
  H     -0.384396    2.060342   -0.732661
  H      1.893777    0.887868   -0.854915
  H      3.147121   -0.925307    1.164603
  H      3.065172   -0.028103    2.692149
  H      1.555539   -1.736303    3.227873
  H      1.274927   -2.378708    0.313087
  H      0.240068   -3.056837    1.607271
  H     -1.401166   -1.234093    1.071285
  H     -0.186046   -0.440045   -1.019895

 Total Charge           Charge          ....    0
 Multiplicity           Mult            ....    1
 Number of Electrons    NEL             ....   68
 Basis Dimension        Dim             ....  339

ORBITAL ENERGIES
----------------

  NO   OCC          E(Eh)            E(eV)
   0   2.0000     -20.554606      -559.3193
   1   2.0000     -20.547320      -559.1210
   2   2.0000     -11.288665      -307.1802
   3   2.0000     -11.286161      -307.1121
   4   2.0000     -11.279932      -306.9426
   5   2.0000     -11.277923      -306.8879
   6   2.0000     -11.234604      -305.7091
   7   2.0000     -11.230368      -305.5938
   8   2.0000     -11.220640      -305.3291
   9   2.0000      -1.395423       -37.9714
  10   2.0000      -1.363650       -37.1068
  11   2.0000      -1.137345       -30.9487
  12   2.0000      -1.031107       -28.0579
  13   2.0000      -0.973129       -26.4802
  14   2.0000      -0.916517       -24.9397
  15   2.0000      -0.821575       -22.3562
  16   2.0000      -0.768761       -20.9190
  17   2.0000      -0.749108       -20.3843
  18   2.0000      -0.715391       -19.4668
  19   2.0000      -0.682736       -18.5782
  20   2.0000      -0.664640       -18.0858
  21   2.0000      -0.627167       -17.0661
  22   2.0000      -0.611260       -16.6332
  23   2.0000      -0.581646       -15.8274
  24   2.0000      -0.577142       -15.7048
  25   2.0000      -0.550321       -14.9750
  26   2.0000      -0.525928       -14.3112
  27   2.0000      -0.523623       -14.2485
  28   2.0000      -0.484927       -13.1955
  29   2.0000      -0.453949       -12.3526
  30   2.0000      -0.449047       -12.2192
  31   2.0000      -0.418362       -11.3842
  32   2.0000      -0.397878       -10.8268
  33   2.0000      -0.390060       -10.6141
  34   0.0000       0.140558         3.8248
  35   0.0000       0.153937         4.1888
  36   0.0000       0.161013         4.3814
  37   0.0000       0.173327         4.7165
  38   0.0000       0.192059         5.2262

MULLIKEN ATOMIC CHARGES
-----------------------
   0 C :   -0.281496
   1 C :    0.025294
   2 O :   -0.294186
   3 C :   -0.068540
   4 C :    0.068943
   5 C :   -0.289704
   6 C :    0.176402
   7 O :   -0.343407
   8 C :   -0.190228
   9 H :    0.153570
  10 H :    0.131787
  11 H :    0.102445
  12 H :    0.087411
  13 H :    0.129012
  14 H :    0.109024
  15 H :    0.123166
  16 H :    0.124188
  17 H :    0.117357
  18 H :    0.118961
Sum of atomic charges:   -0.0000000

LOEWDIN ATOMIC CHARGES
----------------------
   0 C :   -0.198363
   1 C :   -0.283983
   2 O :    0.199907
   3 C :   -0.297599
   4 C :   -0.274868
   5 C :   -0.204990
   6 C :   -0.261154
   7 O :    0.166932
   8 C :   -0.202832
   9 H :    0.147917
  10 H :    0.131063
  11 H :    0.132132
  12 H :    0.122345
  13 H :    0.131598
  14 H :    0.135073
  15 H :    0.131222
  16 H :    0.134901
  17 H :    0.136846
  18 H :    0.153852

  Mayer bond orders larger than 0.1
B(  0-C ,  1-C ) :   0.8737 B(  0-C ,  8-C ) :   0.8929 B(  0-C ,  9-H ) :   0.9169
B(  0-C , 10-H ) :   0.9233 B(  1-C ,  2-O ) :   0.9905 B(  1-C ,  8-C ) :   0.8822
B(  1-C , 11-H ) :   0.9473 B(  2-O ,  3-C ) :   0.9473 B(  3-C ,  4-C ) :   0.9012
B(  3-C , 12-H ) :   0.9198 B(  3-C , 13-H ) :   0.9295 B(  4-C ,  5-C ) :   0.9548
B(  4-C ,  7-O ) :   0.9351 B(  4-C , 14-H ) :   0.9141 B(  5-C ,  6-C ) :   0.9140
B(  5-C , 15-H ) :   0.9232 B(  5-C , 16-H ) :   0.9230 B(  6-C ,  7-O ) :   0.9062
B(  6-C ,  8-C ) :   0.9125 B(  6-C , 17-H ) :   0.9202 B(  8-C , 18-H ) :   0.9111

MP2 TOTAL ENERGY:     -422.277571895 Eh
FINAL SINGLE POINT ENERGY      -422.277571895481

DIPOLE MOMENT
-------------
                                X             Y             Z
Electronic contribution:     -0.19398       1.69516       2.10918
Nuclear contribution   :      0.30802      -2.53205      -2.69814
                        -----------------------------------------
Total Dipole Moment    :      0.11404      -0.83689      -0.58896
                        -----------------------------------------
Magnitude (a.u.)       :      1.02969
Magnitude (Debye)      :      2.61726

                             ****ORCA TERMINATED NORMALLY****
TOTAL RUN TIME: 0 days 0 hours 18 minutes 9 seconds 711 msec
