                         Program Version 3.0.3 - RELEASE   -
|  1> ! RI-MP2 RIJK def2-TZVP def2-TZVP/C def2-TZVP/JK TIGHTSCF
|  2> % maxcore 2000
|  3> % mp2 density relaxed end
|  4> *xyz 0 1
|  5>  C       -0.3003586723     1.4828675089    -0.0322918552
|  6>  C        0.0797889878     0.0079861922     0.0280488292
|  7>  C        1.0074491746    -0.4652613926    -1.0997440797
|  8>  O        1.6069581459    -1.6807120866    -0.6185651734
|  9>  C        1.5591315615    -1.7353694376     0.7409422670
| 10>  N        1.9816832025    -2.6747214961     1.4626580348
| 11>  C        0.8770301082    -0.4699736013     1.2721748049
| 12>  C        1.8761091756     0.5052748330     1.7131549134
| 13>  N        2.6530981664     1.2961144727     2.0396327817
| 14>  H        0.5824218928     2.1251050736     0.0340772378
| 15>  H       -0.8165015683     1.7049337558    -0.9716125244
| 16>  H       -0.9735622949     1.7496693975     0.7874627033
| 17>  H       -0.8270231083    -0.6069117065    -0.0034381883
| 18>  H        0.4821112180    -0.6950051285    -2.0289897928
| 19>  H        1.7969292566     0.2681343210    -1.3071107002
| 20>  H        2.3989446345    -3.4139006719     0.8946018194
| 21>  H        0.2399503594    -0.7236551137     2.1215552525
| 22> *
| 23>
| 24>                          ****END OF INPUT****

CARTESIAN COORDINATES (ANGSTROEM)
---------------------------------
  C     -0.300359    1.482868   -0.032292
  C      0.079789    0.007986    0.028049
  C      1.007449   -0.465261   -1.099744
  O      1.606958   -1.680712   -0.618565
  C      1.559132   -1.735369    0.740942
  N      1.981683   -2.674721    1.462658
  C      0.877030   -0.469974    1.272175
  C      1.876109    0.505275    1.713155
  N      2.653098    1.296114    2.039633
  H      0.582422    2.125105    0.034077
  H     -0.816502    1.704934   -0.971613
  H     -0.973562    1.749669    0.787463
  H     -0.827023   -0.606912   -0.003438
  H      0.482111   -0.695005   -2.028990
  H      1.796929    0.268134   -1.307111
  H      2.398945   -3.413901    0.894602
  H      0.239950   -0.723655    2.121555

 Total Charge           Charge          ....    0
 Multiplicity           Mult            ....    1
 Number of Electrons    NEL             ....   66
 Basis Dimension        Dim             ....  327

ORBITAL ENERGIES
----------------

  NO   OCC          E(Eh)            E(eV)
   0   2.0000     -20.613507      -560.9220
   1   2.0000     -15.580215      -423.9592
   2   2.0000     -15.551709      -423.1835
   3   2.0000     -11.361196      -309.1539
   4   2.0000     -11.313696      -307.8613
   5   2.0000     -11.306178      -307.6568
   6   2.0000     -11.284099      -307.0559
   7   2.0000     -11.279769      -306.9381
   8   2.0000     -11.246728      -306.0390
   9   2.0000      -1.451757       -39.5043
  10   2.0000      -1.231966       -33.5235
  11   2.0000      -1.215494       -33.0753
  12   2.0000      -1.136581       -30.9279
  13   2.0000      -1.026116       -27.9220
  14   2.0000      -0.962810       -26.1994
  15   2.0000      -0.858360       -23.3572
  16   2.0000      -0.804269       -21.8853
  17   2.0000      -0.750724       -20.4282
  18   2.0000      -0.706606       -19.2277
  19   2.0000      -0.675268       -18.3750
  20   2.0000      -0.669249       -18.2112
  21   2.0000      -0.636881       -17.3304
  22   2.0000      -0.602449       -16.3935
  23   2.0000      -0.580159       -15.7869
  24   2.0000      -0.563176       -15.3248
  25   2.0000      -0.550068       -14.9681
  26   2.0000      -0.545868       -14.8538
  27   2.0000      -0.515849       -14.0370
  28   2.0000      -0.507489       -13.8095
  29   2.0000      -0.477663       -12.9979
  30   2.0000      -0.465985       -12.6801
  31   2.0000      -0.445321       -12.1178
  32   2.0000      -0.416798       -11.3416
  33   0.0000       0.110150         2.9973
  34   0.0000       0.141709         3.8561
  35   0.0000       0.146941         3.9985
  36   0.0000       0.156563         4.2603
  37   0.0000       0.162350         4.4178

MULLIKEN ATOMIC CHARGES
-----------------------
   0 C :   -0.412032
   1 C :   -0.116021
   2 C :   -0.061134
   3 O :   -0.245528
   4 C :    0.103175
   5 N :   -0.363456
   6 C :    0.172067
   7 C :   -0.256755
   8 N :   -0.044183
   9 H :    0.157620
  10 H :    0.144443
  11 H :    0.147964
  12 H :    0.120881
  13 H :    0.136113
  14 H :    0.124898
  15 H :    0.231528
  16 H :    0.160420
Sum of atomic charges:   -0.0000000

LOEWDIN ATOMIC CHARGES
----------------------
   0 C :   -0.280364
   1 C :   -0.240655
   2 C :   -0.238882
   3 O :    0.245766
   4 C :   -0.380634
   5 N :   -0.035348
   6 C :   -0.174717
   7 C :   -0.158699
   8 N :    0.073124
   9 H :    0.134881
  10 H :    0.130665
  11 H :    0.132385
  12 H :    0.163194
  13 H :    0.132981
  14 H :    0.134697
  15 H :    0.174143
  16 H :    0.187463

  Mayer bond orders larger than 0.1
B(  0-C ,  1-C ) :   0.9270 B(  0-C ,  9-H ) :   0.9204 B(  0-C , 10-H ) :   0.9368
B(  0-C , 11-H ) :   0.9360 B(  1-C ,  2-C ) :   0.9482 B(  1-C ,  6-C ) :   0.8677
B(  1-C , 12-H ) :   0.9224 B(  2-C ,  3-O ) :   0.8812 B(  2-C , 13-H ) :   0.9243
B(  2-C , 14-H ) :   0.9149 B(  3-O ,  4-C ) :   1.1059 B(  4-C ,  5-N ) :   2.0784
B(  4-C ,  6-C ) :   0.8304 B(  5-N , 15-H ) :   0.8510 B(  6-C ,  7-C ) :   0.9271
B(  6-C , 16-H ) :   0.8865 B(  7-C ,  8-N ) :   2.8473

MP2 TOTAL ENERGY:     -417.337930341 Eh
FINAL SINGLE POINT ENERGY      -417.337930341185

DIPOLE MOMENT
-------------
                                X             Y             Z
Electronic contribution:      5.17767      -3.66513       3.43998
Nuclear contribution   :     -6.63560       3.61991      -4.69151
                        -----------------------------------------
Total Dipole Moment    :     -1.45794      -0.04523      -1.25153
                        -----------------------------------------
Magnitude (a.u.)       :      1.92197
Magnitude (Debye)      :      4.88526

                             ****ORCA TERMINATED NORMALLY****
TOTAL RUN TIME: 0 days 0 hours 16 minutes 47 seconds 965 msec
