                         Program Version 3.0.3 - RELEASE   -
|  1> ! RI-MP2 RIJK def2-TZVP def2-TZVP/C def2-TZVP/JK TIGHTSCF
|  2> % maxcore 2000
|  3> % mp2 density relaxed end
|  4> *xyz 0 1
|  5>  C        0.0716865276     1.4692452692     0.0296398744
|  6>  C       -0.0741968092    -0.0087944291    -0.0004082311
|  7>  C       -1.1674888912    -0.8159956431    -0.1613286965
|  8>  C       -0.6483331209    -2.1480004285    -0.0954738975
|  9>  C        0.7149491673    -2.0381270544     0.0994416892
| 10>  O        1.0894293045    -0.7297131207     0.1609694100
| 11>  C        1.2335435369    -3.3399358399     0.1656665668
| 12>  N        0.2348768714    -4.2151292337     0.0179685078
| 13>  N       -0.9000649503    -3.4799569206    -0.1397424712
| 14>  H        0.7412468897     1.8191933065    -0.7641757267
| 15>  H       -0.9025218283     1.9432209347    -0.1069971627
| 16>  H        0.4907467438     1.8087741944     0.9836279402
| 17>  H       -2.1809592237    -0.4770891631    -0.3033246719
| 18>  H        2.2425687308    -3.6927065924     0.3071909612
| 19>  H       -1.7703406584    -3.9650897792    -0.2650031021
| 20> *
| 21>
| 22>                          ****END OF INPUT****

CARTESIAN COORDINATES (ANGSTROEM)
---------------------------------
  C      0.071687    1.469245    0.029640
  C     -0.074197   -0.008794   -0.000408
  C     -1.167489   -0.815996   -0.161329
  C     -0.648333   -2.148000   -0.095474
  C      0.714949   -2.038127    0.099442
  O      1.089429   -0.729713    0.160969
  C      1.233544   -3.339936    0.165667
  N      0.234877   -4.215129    0.017969
  N     -0.900065   -3.479957   -0.139742
  H      0.741247    1.819193   -0.764176
  H     -0.902522    1.943221   -0.106997
  H      0.490747    1.808774    0.983628
  H     -2.180959   -0.477089   -0.303325
  H      2.242569   -3.692707    0.307191
  H     -1.770341   -3.965090   -0.265003

 Total Charge           Charge          ....    0
 Multiplicity           Mult            ....    1
 Number of Electrons    NEL             ....   64
 Basis Dimension        Dim             ....  315

ORBITAL ENERGIES
----------------

  NO   OCC          E(Eh)            E(eV)
   0   2.0000     -20.621465      -561.1386
   1   2.0000     -15.632430      -425.3800
   2   2.0000     -15.585708      -424.1087
   3   2.0000     -11.315035      -307.8978
   4   2.0000     -11.269048      -306.6464
   5   2.0000     -11.267305      -306.5990
   6   2.0000     -11.259184      -306.3780
   7   2.0000     -11.244585      -305.9807
   8   2.0000     -11.242888      -305.9345
   9   2.0000      -1.456789       -39.6412
  10   2.0000      -1.360899       -37.0320
  11   2.0000      -1.112745       -30.2793
  12   2.0000      -1.074250       -29.2318
  13   2.0000      -1.057747       -28.7828
  14   2.0000      -0.959075       -26.0978
  15   2.0000      -0.828399       -22.5419
  16   2.0000      -0.816588       -22.2205
  17   2.0000      -0.773891       -21.0586
  18   2.0000      -0.733928       -19.9712
  19   2.0000      -0.664960       -18.0945
  20   2.0000      -0.661167       -17.9913
  21   2.0000      -0.610026       -16.5997
  22   2.0000      -0.596193       -16.2232
  23   2.0000      -0.593678       -16.1548
  24   2.0000      -0.577265       -15.7082
  25   2.0000      -0.562010       -15.2931
  26   2.0000      -0.561976       -15.2921
  27   2.0000      -0.517670       -14.0865
  28   2.0000      -0.456364       -12.4183
  29   2.0000      -0.413158       -11.2426
  30   2.0000      -0.348568        -9.4850
  31   2.0000      -0.298617        -8.1258
  32   0.0000       0.123846         3.3700
  33   0.0000       0.134643         3.6638
  34   0.0000       0.143069         3.8931
  35   0.0000       0.173675         4.7259
  36   0.0000       0.190283         5.1779

MULLIKEN ATOMIC CHARGES
-----------------------
   0 C :   -0.437988
   1 C :    0.269203
   2 C :   -0.327223
   3 C :    0.134288
   4 C :    0.137431
   5 O :   -0.251358
   6 C :   -0.168558
   7 N :   -0.193955
   8 N :   -0.151199
   9 H :    0.151623
  10 H :    0.146212
  11 H :    0.151618
  12 H :    0.144037
  13 H :    0.139287
  14 H :    0.256582
Sum of atomic charges:   -0.0000000

LOEWDIN ATOMIC CHARGES
----------------------
   0 C :   -0.271591
   1 C :   -0.252306
   2 C :   -0.143151
   3 C :   -0.230292
   4 C :   -0.243601
   5 O :    0.352064
   6 C :   -0.256081
   7 N :    0.028286
   8 N :    0.136286
   9 H :    0.136613
  10 H :    0.138179
  11 H :    0.136598
  12 H :    0.145666
  13 H :    0.136607
  14 H :    0.186722

  Mayer bond orders larger than 0.1
B(  0-C ,  1-C ) :   0.8729 B(  0-C ,  9-H ) :   0.9298 B(  0-C , 10-H ) :   0.9509
B(  0-C , 11-H ) :   0.9297 B(  1-C ,  2-C ) :   1.5528 B(  1-C ,  5-O ) :   0.9926
B(  2-C ,  3-C ) :   1.1503 B(  2-C , 12-H ) :   0.9053 B(  3-C ,  4-C ) :   1.2663
B(  3-C ,  8-N ) :   1.1458 B(  4-C ,  5-O ) :   1.0500 B(  4-C ,  6-C ) :   1.2738
B(  6-C ,  7-N ) :   1.5298 B(  6-C , 13-H ) :   0.9430 B(  7-N ,  8-N ) :   1.0417
B(  8-N , 14-H ) :   0.8650

MP2 TOTAL ENERGY:     -416.119205913 Eh
FINAL SINGLE POINT ENERGY      -416.119205913369

DIPOLE MOMENT
-------------
                                X             Y             Z
Electronic contribution:      0.82585      -6.18992       0.07847
Nuclear contribution   :     -1.66519       7.01983      -0.19198
                        -----------------------------------------
Total Dipole Moment    :     -0.83934       0.82992      -0.11351
                        -----------------------------------------
Magnitude (a.u.)       :      1.18581
Magnitude (Debye)      :      3.01409

                             ****ORCA TERMINATED NORMALLY****
TOTAL RUN TIME: 0 days 0 hours 15 minutes 51 seconds 584 msec
