                         Program Version 3.0.3 - RELEASE   -
|  1> ! RI-MP2 RIJK def2-TZVP def2-TZVP/C def2-TZVP/JK TIGHTSCF
|  2> % maxcore 2000
|  3> % mp2 density relaxed end
|  4> *xyz 0 1
|  5>  C        0.0574167815     1.5565037870    -0.0012674497
|  6>  C       -0.0133129634     0.0291663093    -0.0235964850
|  7>  C       -1.4571947269    -0.5202299631     0.0479391040
|  8>  C       -1.4445175164    -2.0673467163    -0.1021167670
|  9>  C       -2.7800109023    -2.6507179350    -0.1993972688
| 10>  N       -3.8364383529    -3.1086505126    -0.2937390502
| 11>  C       -2.1299636530    -0.1262578862     1.2830532709
| 12>  C       -2.6630743749     0.1807985080     2.3153710818
| 13>  H        1.0959311941     1.8959984707    -0.0513309229
| 14>  H       -0.4774321858     1.9899590963    -0.8533512923
| 15>  H       -0.3883669787     1.9563345148     0.9136302731
| 16>  H        0.4475134296    -0.3508279479    -0.9436425712
| 17>  H        0.5612076689    -0.3853788859     0.8134302154
| 18>  H       -2.0210922626    -0.1110335589    -0.8009203891
| 19>  H       -0.8827918308    -2.3367358418    -1.0034209926
| 20>  H       -0.9237251367    -2.5140406233     0.7514955122
| 21>  H       -3.1531550199     0.4536783750     3.2173615614
| 22> *
| 23>
| 24>                          ****END OF INPUT****

CARTESIAN COORDINATES (ANGSTROEM)
---------------------------------
  C      0.057417    1.556504   -0.001267
  C     -0.013313    0.029166   -0.023596
  C     -1.457195   -0.520230    0.047939
  C     -1.444518   -2.067347   -0.102117
  C     -2.780011   -2.650718   -0.199397
  N     -3.836438   -3.108651   -0.293739
  C     -2.129964   -0.126258    1.283053
  C     -2.663074    0.180799    2.315371
  H      1.095931    1.895998   -0.051331
  H     -0.477432    1.989959   -0.853351
  H     -0.388367    1.956335    0.913630
  H      0.447513   -0.350828   -0.943643
  H      0.561208   -0.385379    0.813430
  H     -2.021092   -0.111034   -0.800920
  H     -0.882792   -2.336736   -1.003421
  H     -0.923725   -2.514041    0.751496
  H     -3.153155    0.453678    3.217362

 Total Charge           Charge          ....    0
 Multiplicity           Mult            ....    1
 Number of Electrons    NEL             ....   58
 Basis Dimension        Dim             ....  302

ORBITAL ENERGIES
----------------

  NO   OCC          E(Eh)            E(eV)
   0   2.0000     -15.567876      -423.6234
   1   2.0000     -11.291011      -307.2440
   2   2.0000     -11.286383      -307.1181
   3   2.0000     -11.272217      -306.7326
   4   2.0000     -11.250224      -306.1342
   5   2.0000     -11.242959      -305.9365
   6   2.0000     -11.233975      -305.6920
   7   2.0000     -11.227964      -305.5284
   8   2.0000      -1.218274       -33.1509
   9   2.0000      -1.138857       -30.9899
  10   2.0000      -1.034949       -28.1624
  11   2.0000      -1.027518       -27.9602
  12   2.0000      -0.926923       -25.2228
  13   2.0000      -0.843060       -22.9408
  14   2.0000      -0.735001       -20.0004
  15   2.0000      -0.704627       -19.1739
  16   2.0000      -0.690183       -18.7808
  17   2.0000      -0.631112       -17.1734
  18   2.0000      -0.617221       -16.7954
  19   2.0000      -0.590381       -16.0651
  20   2.0000      -0.566563       -15.4170
  21   2.0000      -0.554754       -15.0956
  22   2.0000      -0.520433       -14.1617
  23   2.0000      -0.513128       -13.9629
  24   2.0000      -0.502955       -13.6861
  25   2.0000      -0.457847       -12.4587
  26   2.0000      -0.457509       -12.4495
  27   2.0000      -0.399134       -10.8610
  28   2.0000      -0.397847       -10.8260
  29   0.0000       0.114484         3.1153
  30   0.0000       0.143096         3.8938
  31   0.0000       0.154109         4.1935
  32   0.0000       0.156356         4.2546
  33   0.0000       0.165043         4.4911

MULLIKEN ATOMIC CHARGES
-----------------------
   0 C :   -0.401039
   1 C :   -0.184806
   2 C :   -0.146487
   3 C :   -0.108911
   4 C :   -0.181492
   5 N :   -0.054020
   6 C :   -0.065030
   7 C :   -0.154756
   8 H :    0.139464
   9 H :    0.126360
  10 H :    0.148889
  11 H :    0.117255
  12 H :    0.118189
  13 H :    0.133171
  14 H :    0.158091
  15 H :    0.160281
  16 H :    0.194839
Sum of atomic charges:   -0.0000000

LOEWDIN ATOMIC CHARGES
----------------------
   0 C :   -0.309188
   1 C :   -0.254237
   2 C :   -0.231674
   3 C :   -0.208239
   4 C :   -0.187445
   5 N :    0.061571
   6 C :   -0.088712
   7 C :   -0.082467
   8 H :    0.124202
   9 H :    0.123566
  10 H :    0.129094
  11 H :    0.139340
  12 H :    0.143027
  13 H :    0.176686
  14 H :    0.165740
  15 H :    0.169442
  16 H :    0.129294

  Mayer bond orders larger than 0.1
B(  0-C ,  1-C ) :   0.9307 B(  0-C ,  8-H ) :   0.9388 B(  0-C ,  9-H ) :   0.9358
B(  0-C , 10-H ) :   0.9358 B(  1-C ,  2-C ) :   0.9128 B(  1-C , 11-H ) :   0.9309
B(  1-C , 12-H ) :   0.9178 B(  2-C ,  3-C ) :   0.8924 B(  2-C ,  6-C ) :   1.0814
B(  2-C , 13-H ) :   0.9363 B(  3-C ,  4-C ) :   0.9545 B(  3-C , 14-H ) :   0.9066
B(  3-C , 15-H ) :   0.8969 B(  4-C ,  5-N ) :   2.8771 B(  6-C ,  7-C ) :   2.6260
B(  7-C , 16-H ) :   0.8943

MP2 TOTAL ENERGY:     -326.116420150 Eh
FINAL SINGLE POINT ENERGY      -326.116420149573

DIPOLE MOMENT
-------------
                                X             Y             Z
Electronic contribution:     -7.67552      -6.58539       1.09923
Nuclear contribution   :      9.16375       7.33720      -1.06686
                        -----------------------------------------
Total Dipole Moment    :      1.48822       0.75181       0.03237
                        -----------------------------------------
Magnitude (a.u.)       :      1.66765
Magnitude (Debye)      :      4.23884

                             ****ORCA TERMINATED NORMALLY****
TOTAL RUN TIME: 0 days 0 hours 12 minutes 1 seconds 505 msec
