                         Program Version 3.0.3 - RELEASE   -
|  1> ! RI-MP2 RIJK def2-TZVP def2-TZVP/C def2-TZVP/JK TIGHTSCF
|  2> % maxcore 2000
|  3> % mp2 density relaxed end
|  4> *xyz 0 1
|  5>  C       -0.0176179566     1.4227762135    -0.3050027163
|  6>  C        0.0823491925    -0.0141841697     0.2463325685
|  7>  C        0.7325133910    -0.0387429739     1.5610367782
|  8>  N        1.2296749336    -0.0583703669     2.6042376046
|  9>  C       -1.2997129050    -0.6519105612     0.3471249874
| 10>  O       -1.9029751464    -1.0289999914    -0.8870592851
| 11>  C       -1.6119334984    -2.0673619631     0.0778167423
| 12>  C       -0.5574892081    -3.0701731311    -0.3368261976
| 13>  C       -2.8381859925    -2.6688436241     0.7312447145
| 14>  H        0.9730597514     1.8708847680    -0.4098948341
| 15>  H       -0.5007927464     1.3932083867    -1.2844509921
| 16>  H       -0.6122635751     2.0545400867     0.3606427552
| 17>  H        0.6969395742    -0.6071993439    -0.4372636918
| 18>  H       -1.9638193444    -0.1145935417     1.0284810620
| 19>  H        0.2578576556    -2.6071969752    -0.8946024186
| 20>  H       -0.1399376622    -3.5740008133     0.5410428644
| 21>  H       -1.0063900387    -3.8349063964    -0.9793443149
| 22>  H       -3.3160817322    -3.3858023437     0.0552636695
| 23>  H       -2.5649710678    -3.2016799123     1.6480258281
| 24>  H       -3.5678520546    -1.8952027171     0.9812596358
| 25> *
| 26>
| 27>                          ****END OF INPUT****

CARTESIAN COORDINATES (ANGSTROEM)
---------------------------------
  C     -0.017618    1.422776   -0.305003
  C      0.082349   -0.014184    0.246333
  C      0.732513   -0.038743    1.561037
  N      1.229675   -0.058370    2.604238
  C     -1.299713   -0.651911    0.347125
  O     -1.902975   -1.029000   -0.887059
  C     -1.611933   -2.067362    0.077817
  C     -0.557489   -3.070173   -0.336826
  C     -2.838186   -2.668844    0.731245
  H      0.973060    1.870885   -0.409895
  H     -0.500793    1.393208   -1.284451
  H     -0.612264    2.054540    0.360643
  H      0.696940   -0.607199   -0.437264
  H     -1.963819   -0.114594    1.028481
  H      0.257858   -2.607197   -0.894602
  H     -0.139938   -3.574001    0.541043
  H     -1.006390   -3.834906   -0.979344
  H     -3.316082   -3.385802    0.055264
  H     -2.564971   -3.201680    1.648026
  H     -3.567852   -1.895203    0.981260

 Total Charge           Charge          ....    0
 Multiplicity           Mult            ....    1
 Number of Electrons    NEL             ....   68
 Basis Dimension        Dim             ....  345

ORBITAL ENERGIES
----------------

  NO   OCC          E(Eh)            E(eV)
   0   2.0000     -20.577346      -559.9381
   1   2.0000     -15.573461      -423.7754
   2   2.0000     -11.308748      -307.7267
   3   2.0000     -11.305973      -307.6512
   4   2.0000     -11.293160      -307.3025
   5   2.0000     -11.275792      -306.8299
   6   2.0000     -11.245836      -306.0148
   7   2.0000     -11.236525      -305.7614
   8   2.0000     -11.233112      -305.6685
   9   2.0000      -1.424564       -38.7644
  10   2.0000      -1.223598       -33.2958
  11   2.0000      -1.102593       -30.0031
  12   2.0000      -1.054957       -28.7068
  13   2.0000      -0.962647       -26.1950
  14   2.0000      -0.941009       -25.6061
  15   2.0000      -0.869649       -23.6643
  16   2.0000      -0.790332       -21.5060
  17   2.0000      -0.729562       -19.8524
  18   2.0000      -0.674066       -18.3423
  19   2.0000      -0.652196       -17.7472
  20   2.0000      -0.622165       -16.9300
  21   2.0000      -0.598390       -16.2830
  22   2.0000      -0.587119       -15.9763
  23   2.0000      -0.579263       -15.7626
  24   2.0000      -0.564729       -15.3671
  25   2.0000      -0.555201       -15.1078
  26   2.0000      -0.547676       -14.9030
  27   2.0000      -0.541352       -14.7309
  28   2.0000      -0.523104       -14.2344
  29   2.0000      -0.512448       -13.9444
  30   2.0000      -0.470195       -12.7947
  31   2.0000      -0.461843       -12.5674
  32   2.0000      -0.448112       -12.1937
  33   2.0000      -0.431414       -11.7394
  34   0.0000       0.121882         3.3166
  35   0.0000       0.140449         3.8218
  36   0.0000       0.153762         4.1841
  37   0.0000       0.167210         4.5500
  38   0.0000       0.172445         4.6925

MULLIKEN ATOMIC CHARGES
-----------------------
   0 C :   -0.402088
   1 C :    0.097901
   2 C :   -0.239831
   3 N :   -0.055760
   4 C :    0.030752
   5 O :   -0.339934
   6 C :    0.157012
   7 C :   -0.391553
   8 C :   -0.401763
   9 H :    0.152400
  10 H :    0.161221
  11 H :    0.139895
  12 H :    0.126412
  13 H :    0.127724
  14 H :    0.130658
  15 H :    0.147029
  16 H :    0.142298
  17 H :    0.138489
  18 H :    0.138274
  19 H :    0.140864
Sum of atomic charges:   -0.0000000

LOEWDIN ATOMIC CHARGES
----------------------
   0 C :   -0.258416
   1 C :   -0.250247
   2 C :   -0.166204
   3 N :    0.063296
   4 C :   -0.228739
   5 O :    0.183543
   6 C :   -0.335590
   7 C :   -0.263140
   8 C :   -0.262691
   9 H :    0.131127
  10 H :    0.135048
  11 H :    0.131157
  12 H :    0.177538
  13 H :    0.147862
  14 H :    0.127378
  15 H :    0.136472
  16 H :    0.134064
  17 H :    0.131391
  18 H :    0.133740
  19 H :    0.132413

  Mayer bond orders larger than 0.1
B(  0-C ,  1-C ) :   0.9015 B(  0-C ,  9-H ) :   0.9342 B(  0-C , 10-H ) :   0.9350
B(  0-C , 11-H ) :   0.9269 B(  1-C ,  2-C ) :   0.9040 B(  1-C ,  4-C ) :   0.8596
B(  1-C , 12-H ) :   0.9136 B(  2-C ,  3-N ) :   2.8747 B(  4-C ,  5-O ) :   0.8627
B(  4-C ,  6-C ) :   0.9923 B(  4-C , 13-H ) :   0.8887 B(  5-O ,  6-C ) :   0.9107
B(  6-C ,  7-C ) :   0.8933 B(  6-C ,  8-C ) :   0.9016 B(  7-C , 14-H ) :   0.9403
B(  7-C , 15-H ) :   0.9270 B(  7-C , 16-H ) :   0.9329 B(  8-C , 17-H ) :   0.9360
B(  8-C , 18-H ) :   0.9256 B(  8-C , 19-H ) :   0.9368

MP2 TOTAL ENERGY:     -402.467456080 Eh
FINAL SINGLE POINT ENERGY      -402.467456079804

DIPOLE MOMENT
-------------
                                X             Y             Z
Electronic contribution:      3.03283       3.12015       2.86890
Nuclear contribution   :     -3.50220      -3.43962      -3.62264
                        -----------------------------------------
Total Dipole Moment    :     -0.46937      -0.31947      -0.75374
                        -----------------------------------------
Magnitude (a.u.)       :      0.94366
Magnitude (Debye)      :      2.39859

                             ****ORCA TERMINATED NORMALLY****
TOTAL RUN TIME: 0 days 0 hours 21 minutes 11 seconds 833 msec
