                         Program Version 3.0.3 - RELEASE   -
|  1> ! RI-MP2 RIJK def2-TZVP def2-TZVP/C def2-TZVP/JK TIGHTSCF
|  2> % maxcore 2000
|  3> % mp2 density relaxed end
|  4> *xyz 0 1
|  5>  C       -0.1346279963     1.4007049069    -0.0219544500
|  6>  N        0.0882377949    -0.0257981450     0.0306930874
|  7>  C        1.1020549113    -0.6114523303    -0.8747165563
|  8>  C        1.5940308655    -1.4598874872     0.3006221342
|  9>  C        0.7485760023    -0.5892011075     1.2303926544
| 10>  O        1.5481574071    -2.8759155129     0.3129170977
| 11>  C        2.8204870024    -2.2187315427     0.5255821602
| 12>  C        3.8372233430    -2.4638221249    -0.5606100560
| 13>  O        4.3256185392    -3.7927951530    -0.5187805646
| 14>  H        0.7884443004     1.9943058450     0.1294973958
| 15>  H       -0.5576601551     1.6749013172    -0.9939272917
| 16>  H       -0.8548904444     1.6924631886     0.7493973080
| 17>  H        0.6924558747    -1.1525658634    -1.7341520026
| 18>  H        1.8576844988     0.1103178798    -1.2273381339
| 19>  H        1.3519019335     0.1415176410     1.7940240434
| 20>  H        0.0802010409    -1.1150710004     1.9203100857
| 21>  H        3.1961557730    -2.3166234869     1.5455244758
| 22>  H        3.3923858870    -2.2260517522    -1.5388527984
| 23>  H        4.7051708713    -1.8105875156    -0.4175177647
| 24>  H        3.5561211306    -4.3705109864    -0.5800587543
| 25> *
| 26>
| 27>                          ****END OF INPUT****

CARTESIAN COORDINATES (ANGSTROEM)
---------------------------------
  C     -0.134628    1.400705   -0.021954
  N      0.088238   -0.025798    0.030693
  C      1.102055   -0.611452   -0.874717
  C      1.594031   -1.459887    0.300622
  C      0.748576   -0.589201    1.230393
  O      1.548157   -2.875916    0.312917
  C      2.820487   -2.218732    0.525582
  C      3.837223   -2.463822   -0.560610
  O      4.325619   -3.792795   -0.518781
  H      0.788444    1.994306    0.129497
  H     -0.557660    1.674901   -0.993927
  H     -0.854890    1.692463    0.749397
  H      0.692456   -1.152566   -1.734152
  H      1.857684    0.110318   -1.227338
  H      1.351902    0.141518    1.794024
  H      0.080201   -1.115071    1.920310
  H      3.196156   -2.316623    1.545524
  H      3.392386   -2.226052   -1.538853
  H      4.705171   -1.810588   -0.417518
  H      3.556121   -4.370511   -0.580059

 Total Charge           Charge          ....    0
 Multiplicity           Mult            ....    1
 Number of Electrons    NEL             ....   70
 Basis Dimension        Dim             ....  345

ORBITAL ENERGIES
----------------

  NO   OCC          E(Eh)            E(eV)
   0   2.0000     -20.574362      -559.8568
   1   2.0000     -20.560238      -559.4725
   2   2.0000     -15.554919      -423.2709
   3   2.0000     -11.301260      -307.5229
   4   2.0000     -11.290671      -307.2348
   5   2.0000     -11.286999      -307.1349
   6   2.0000     -11.263518      -306.4959
   7   2.0000     -11.262008      -306.4548
   8   2.0000     -11.250593      -306.1442
   9   2.0000      -1.422481       -38.7077
  10   2.0000      -1.363924       -37.1143
  11   2.0000      -1.254423       -34.1346
  12   2.0000      -1.021345       -27.7922
  13   2.0000      -0.996175       -27.1073
  14   2.0000      -0.938777       -25.5454
  15   2.0000      -0.877013       -23.8647
  16   2.0000      -0.829288       -22.5661
  17   2.0000      -0.755850       -20.5677
  18   2.0000      -0.717840       -19.5334
  19   2.0000      -0.691744       -18.8233
  20   2.0000      -0.665722       -18.1152
  21   2.0000      -0.644532       -17.5386
  22   2.0000      -0.621563       -16.9136
  23   2.0000      -0.604802       -16.4575
  24   2.0000      -0.585509       -15.9325
  25   2.0000      -0.576154       -15.6779
  26   2.0000      -0.567867       -15.4525
  27   2.0000      -0.540214       -14.7000
  28   2.0000      -0.504578       -13.7303
  29   2.0000      -0.492947       -13.4138
  30   2.0000      -0.489015       -13.3068
  31   2.0000      -0.460223       -12.5233
  32   2.0000      -0.443824       -12.0771
  33   2.0000      -0.435380       -11.8473
  34   2.0000      -0.363700        -9.8968
  35   0.0000       0.131247         3.5714
  36   0.0000       0.154025         4.1912
  37   0.0000       0.160587         4.3698
  38   0.0000       0.163098         4.4381
  39   0.0000       0.190395         5.1809

MULLIKEN ATOMIC CHARGES
-----------------------
   0 C :   -0.323630
   1 N :   -0.127223
   2 C :   -0.165474
   3 C :    0.138361
   4 C :   -0.156763
   5 O :   -0.343822
   6 C :   -0.043156
   7 C :   -0.006667
   8 O :   -0.473249
   9 H :    0.101431
  10 H :    0.139540
  11 H :    0.139935
  12 H :    0.119648
  13 H :    0.102935
  14 H :    0.102700
  15 H :    0.119375
  16 H :    0.125293
  17 H :    0.113700
  18 H :    0.109671
  19 H :    0.327395
Sum of atomic charges:   -0.0000000

LOEWDIN ATOMIC CHARGES
----------------------
   0 C :   -0.342911
   1 N :    0.068944
   2 C :   -0.215074
   3 C :   -0.290850
   4 C :   -0.208123
   5 O :    0.179755
   6 C :   -0.253498
   7 C :   -0.330526
   8 O :   -0.042383
   9 H :    0.100213
  10 H :    0.119675
  11 H :    0.119811
  12 H :    0.129682
  13 H :    0.126014
  14 H :    0.126086
  15 H :    0.130301
  16 H :    0.142016
  17 H :    0.125488
  18 H :    0.134641
  19 H :    0.180740

  Mayer bond orders larger than 0.1
B(  0-C ,  1-N ) :   0.8980 B(  0-C ,  9-H ) :   0.9231 B(  0-C , 10-H ) :   0.9380
B(  0-C , 11-H ) :   0.9379 B(  1-N ,  2-C ) :   0.9599 B(  1-N ,  4-C ) :   0.9539
B(  2-C ,  3-C ) :   0.9180 B(  2-C , 12-H ) :   0.9041 B(  2-C , 13-H ) :   0.9118
B(  3-C ,  4-C ) :   0.9312 B(  3-C ,  5-O ) :   0.9223 B(  3-C ,  6-C ) :   0.9492
B(  4-C , 14-H ) :   0.9131 B(  4-C , 15-H ) :   0.9040 B(  5-O ,  6-C ) :   0.8469
B(  6-C ,  7-C ) :   0.9305 B(  6-C , 16-H ) :   0.9100 B(  7-C ,  8-O ) :   0.9070
B(  7-C , 17-H ) :   0.9259 B(  7-C , 18-H ) :   0.9210 B(  8-O , 19-H ) :   0.8380

MP2 TOTAL ENERGY:     -439.505649405 Eh
FINAL SINGLE POINT ENERGY      -439.505649404606

DIPOLE MOMENT
-------------
                                X             Y             Z
Electronic contribution:      1.51338      -6.92047       0.70709
Nuclear contribution   :     -1.53358       7.88076      -0.65313
                        -----------------------------------------
Total Dipole Moment    :     -0.02020       0.96029       0.05396
                        -----------------------------------------
Magnitude (a.u.)       :      0.96201
Magnitude (Debye)      :      2.44525

                             ****ORCA TERMINATED NORMALLY****
TOTAL RUN TIME: 0 days 0 hours 24 minutes 44 seconds 475 msec
