                         Program Version 3.0.3 - RELEASE   -
|  1> ! RI-MP2 RIJK def2-TZVP def2-TZVP/C def2-TZVP/JK TIGHTSCF
|  2> % maxcore 2000
|  3> % mp2 density relaxed end
|  4> *xyz 0 1
|  5>  C        0.4233718087    -0.6172726469     1.3374918175
|  6>  C        0.0167190794     0.0103754674    -0.0032454584
|  7>  C        0.0191088465     1.5407511425     0.0852070073
|  8>  C        0.9325258314    -0.4763582518    -1.1410968208
|  9>  C        0.8649956545    -2.0127939600    -1.3894211205
| 10>  O        0.6451190922    -2.1389071749    -2.8095648086
| 11>  C        0.4470955366    -0.8671952198    -3.2525968032
| 12>  N        0.0758904830    -0.7973666121    -4.5682480481
| 13>  N        0.5779427260     0.1069084093    -2.4421058721
| 14>  H        0.3831625024    -1.7117703387     1.3164016967
| 15>  H        1.4456123627    -0.3267200329     1.6089404134
| 16>  H       -0.2389465545    -0.2808282380     2.1414269308
| 17>  H       -1.0030775852    -0.3187926305    -0.2506032228
| 18>  H        1.0177976907     1.9133841652     0.3447513268
| 19>  H       -0.2657542895     1.9836545316    -0.8709661959
| 20>  H       -0.6747900711     1.8880309963     0.8579957887
| 21>  H        1.9614210800    -0.1764613425    -0.8884471185
| 22>  H        1.7826075688    -2.5488799898    -1.1363632740
| 23>  H        0.0226937572    -2.4873373410    -0.8730655812
| 24>  H        0.3707429980    -1.5738677125    -5.1394171451
| 25>  H        0.2075208523     0.1108663191    -4.9846807718
| 26> *
| 27>
| 28>                          ****END OF INPUT****

CARTESIAN COORDINATES (ANGSTROEM)
---------------------------------
  C      0.423372   -0.617273    1.337492
  C      0.016719    0.010375   -0.003245
  C      0.019109    1.540751    0.085207
  C      0.932526   -0.476358   -1.141097
  C      0.864996   -2.012794   -1.389421
  O      0.645119   -2.138907   -2.809565
  C      0.447096   -0.867195   -3.252597
  N      0.075890   -0.797367   -4.568248
  N      0.577943    0.106908   -2.442106
  H      0.383163   -1.711770    1.316402
  H      1.445612   -0.326720    1.608940
  H     -0.238947   -0.280828    2.141427
  H     -1.003078   -0.318793   -0.250603
  H      1.017798    1.913384    0.344751
  H     -0.265754    1.983655   -0.870966
  H     -0.674790    1.888031    0.857996
  H      1.961421   -0.176461   -0.888447
  H      1.782608   -2.548880   -1.136363
  H      0.022694   -2.487337   -0.873066
  H      0.370743   -1.573868   -5.139417
  H      0.207521    0.110866   -4.984681

 Total Charge           Charge          ....    0
 Multiplicity           Mult            ....    1
 Number of Electrons    NEL             ....   70
 Basis Dimension        Dim             ....  351

ORBITAL ENERGIES
----------------

  NO   OCC          E(Eh)            E(eV)
   0   2.0000     -20.592060      -560.3384
   1   2.0000     -15.578589      -423.9149
   2   2.0000     -15.517282      -422.2467
   3   2.0000     -11.358865      -309.0904
   4   2.0000     -11.285369      -307.0905
   5   2.0000     -11.254814      -306.2591
   6   2.0000     -11.222855      -305.3894
   7   2.0000     -11.213290      -305.1291
   8   2.0000     -11.199898      -304.7647
   9   2.0000      -1.441038       -39.2126
  10   2.0000      -1.236636       -33.6506
  11   2.0000      -1.186309       -32.2811
  12   2.0000      -1.072392       -29.1813
  13   2.0000      -0.982304       -26.7299
  14   2.0000      -0.923885       -25.1402
  15   2.0000      -0.864187       -23.5157
  16   2.0000      -0.791997       -21.5513
  17   2.0000      -0.771070       -20.9819
  18   2.0000      -0.712695       -19.3934
  19   2.0000      -0.691659       -18.8210
  20   2.0000      -0.675242       -18.3743
  21   2.0000      -0.620986       -16.8979
  22   2.0000      -0.608263       -16.5517
  23   2.0000      -0.585157       -15.9229
  24   2.0000      -0.573101       -15.5949
  25   2.0000      -0.551990       -15.0204
  26   2.0000      -0.536797       -14.6070
  27   2.0000      -0.530603       -14.4384
  28   2.0000      -0.520718       -14.1695
  29   2.0000      -0.475468       -12.9381
  30   2.0000      -0.468307       -12.7433
  31   2.0000      -0.459828       -12.5126
  32   2.0000      -0.449894       -12.2422
  33   2.0000      -0.416928       -11.3452
  34   2.0000      -0.350622        -9.5409
  35   0.0000       0.136722         3.7204
  36   0.0000       0.142343         3.8733
  37   0.0000       0.165478         4.5029
  38   0.0000       0.169637         4.6161
  39   0.0000       0.182106         4.9554

MULLIKEN ATOMIC CHARGES
-----------------------
   0 C :   -0.403010
   1 C :   -0.039320
   2 C :   -0.398279
   3 C :    0.017069
   4 C :   -0.058789
   5 O :   -0.293864
   6 C :    0.315442
   7 N :   -0.506192
   8 N :   -0.340206
   9 H :    0.123897
  10 H :    0.123706
  11 H :    0.135676
  12 H :    0.081457
  13 H :    0.112327
  14 H :    0.153175
  15 H :    0.124802
  16 H :    0.088320
  17 H :    0.121480
  18 H :    0.108328
  19 H :    0.265020
  20 H :    0.268961
Sum of atomic charges:    0.0000000

LOEWDIN ATOMIC CHARGES
----------------------
   0 C :   -0.294253
   1 C :   -0.294082
   2 C :   -0.292953
   3 C :   -0.266526
   4 C :   -0.238677
   5 O :    0.219345
   6 C :   -0.501378
   7 N :   -0.043081
   8 N :    0.067632
   9 H :    0.119913
  10 H :    0.123903
  11 H :    0.125091
  12 H :    0.151197
  13 H :    0.122404
  14 H :    0.128726
  15 H :    0.120706
  16 H :    0.145111
  17 H :    0.124762
  18 H :    0.127009
  19 H :    0.175677
  20 H :    0.179473

  Mayer bond orders larger than 0.1
B(  0-C ,  1-C ) :   0.9150 B(  0-C ,  9-H ) :   0.9364 B(  0-C , 10-H ) :   0.9299
B(  0-C , 11-H ) :   0.9395 B(  1-C ,  2-C ) :   0.9247 B(  1-C ,  3-C ) :   0.9225
B(  1-C , 12-H ) :   0.9152 B(  2-C , 13-H ) :   0.9300 B(  2-C , 14-H ) :   0.9351
B(  2-C , 15-H ) :   0.9377 B(  3-C ,  4-C ) :   0.9103 B(  3-C ,  8-N ) :   0.9510
B(  3-C , 16-H ) :   0.9171 B(  4-C ,  5-O ) :   0.8789 B(  4-C , 17-H ) :   0.9228
B(  4-C , 18-H ) :   0.9225 B(  5-O ,  6-C ) :   1.0775 B(  6-C ,  7-N ) :   1.1171
B(  6-C ,  8-N ) :   1.7883 B(  7-N , 19-H ) :   0.8665 B(  7-N , 20-H ) :   0.8687

MP2 TOTAL ENERGY:     -419.740086512 Eh
FINAL SINGLE POINT ENERGY      -419.740086511880

DIPOLE MOMENT
-------------
                                X             Y             Z
Electronic contribution:      0.61016      -3.81239     -10.62869
Nuclear contribution   :     -0.30591       3.39267      10.44720
                        -----------------------------------------
Total Dipole Moment    :      0.30424      -0.41972      -0.18149
                        -----------------------------------------
Magnitude (a.u.)       :      0.54924
Magnitude (Debye)      :      1.39605

                             ****ORCA TERMINATED NORMALLY****
TOTAL RUN TIME: 0 days 0 hours 19 minutes 51 seconds 298 msec
