                         Program Version 3.0.3 - RELEASE   -
|  1> ! RI-MP2 RIJK def2-TZVP def2-TZVP/C def2-TZVP/JK TIGHTSCF
|  2> % maxcore 2000
|  3> % mp2 density relaxed end
|  4> *xyz 0 1
|  5>  C       -0.0822430980     1.3576468557     0.0799440533
|  6>  N        0.0266912057    -0.0729129871    -0.0858547552
|  7>  C        0.6671707054    -0.6237787059    -1.1512204222
|  8>  N        1.2024296764     0.1185044269    -2.0561766711
|  9>  C        0.6636394219    -2.1052649068    -1.1273692500
| 10>  C        1.1944576714    -2.9949035379    -2.0055891411
| 11>  O        0.9325489974    -4.2539662323    -1.5516715618
| 12>  C        0.2456244194    -4.0623834575    -0.4035375614
| 13>  N        0.0536068335    -2.8242424592    -0.0969651706
| 14>  H        0.9071101917     1.8255911745     0.1389645793
| 15>  H       -0.6071319652     1.8150946938    -0.7665051379
| 16>  H       -0.6333047596     1.5667997139     0.9990673737
| 17>  H       -0.3715717666    -0.7022310968     0.5894083163
| 18>  H        1.6386756995    -0.4478634099    -2.7796754599
| 19>  H        1.7443101673    -2.9231648100    -2.9273757552
| 20>  H       -0.0669723303    -4.9456101314     0.1307218138
| 21> *
| 22>
| 23>                          ****END OF INPUT****

CARTESIAN COORDINATES (ANGSTROEM)
---------------------------------
  C     -0.082243    1.357647    0.079944
  N      0.026691   -0.072913   -0.085855
  C      0.667171   -0.623779   -1.151220
  N      1.202430    0.118504   -2.056177
  C      0.663639   -2.105265   -1.127369
  C      1.194458   -2.994904   -2.005589
  O      0.932549   -4.253966   -1.551672
  C      0.245624   -4.062383   -0.403538
  N      0.053607   -2.824242   -0.096965
  H      0.907110    1.825591    0.138965
  H     -0.607132    1.815095   -0.766505
  H     -0.633305    1.566800    0.999067
  H     -0.371572   -0.702231    0.589408
  H      1.638676   -0.447863   -2.779675
  H      1.744310   -2.923165   -2.927376
  H     -0.066972   -4.945610    0.130722

 Total Charge           Charge          ....    0
 Multiplicity           Mult            ....    1
 Number of Electrons    NEL             ....   66
 Basis Dimension        Dim             ....  321

ORBITAL ENERGIES
----------------

  NO   OCC          E(Eh)            E(eV)
   0   2.0000     -20.660842      -562.2101
   1   2.0000     -15.587907      -424.1685
   2   2.0000     -15.564769      -423.5389
   3   2.0000     -15.512826      -422.1255
   4   2.0000     -11.354705      -308.9772
   5   2.0000     -11.317993      -307.9782
   6   2.0000     -11.317716      -307.9707
   7   2.0000     -11.285483      -307.0936
   8   2.0000     -11.246544      -306.0340
   9   2.0000      -1.510108       -41.0921
  10   2.0000      -1.281058       -34.8594
  11   2.0000      -1.244058       -33.8525
  12   2.0000      -1.146630       -31.2014
  13   2.0000      -1.056703       -28.7544
  14   2.0000      -0.953125       -25.9359
  15   2.0000      -0.870452       -23.6862
  16   2.0000      -0.839880       -22.8543
  17   2.0000      -0.791302       -21.5324
  18   2.0000      -0.772131       -21.0108
  19   2.0000      -0.681943       -18.5566
  20   2.0000      -0.673085       -18.3156
  21   2.0000      -0.641731       -17.4624
  22   2.0000      -0.635996       -17.3063
  23   2.0000      -0.611120       -16.6294
  24   2.0000      -0.604642       -16.4531
  25   2.0000      -0.579771       -15.7764
  26   2.0000      -0.537805       -14.6344
  27   2.0000      -0.510374       -13.8880
  28   2.0000      -0.484925       -13.1955
  29   2.0000      -0.456617       -12.4252
  30   2.0000      -0.419193       -11.4068
  31   2.0000      -0.365727        -9.9519
  32   2.0000      -0.336969        -9.1694
  33   0.0000       0.106565         2.8998
  34   0.0000       0.146277         3.9804
  35   0.0000       0.147156         4.0043
  36   0.0000       0.161245         4.3877
  37   0.0000       0.165789         4.5113

MULLIKEN ATOMIC CHARGES
-----------------------
   0 C :   -0.259705
   1 N :   -0.319200
   2 C :    0.059561
   3 N :   -0.413077
   4 C :    0.204117
   5 C :   -0.054404
   6 O :   -0.190936
   7 C :    0.107561
   8 N :   -0.327903
   9 H :    0.139840
  10 H :    0.139904
  11 H :    0.129346
  12 H :    0.255187
  13 H :    0.191561
  14 H :    0.170271
  15 H :    0.167878
Sum of atomic charges:   -0.0000000

LOEWDIN ATOMIC CHARGES
----------------------
   0 C :   -0.316668
   1 N :    0.090351
   2 C :   -0.372994
   3 N :   -0.093268
   4 C :   -0.219134
   5 C :   -0.206186
   6 O :    0.342975
   7 C :   -0.315747
   8 N :    0.117227
   9 H :    0.119846
  10 H :    0.119875
  11 H :    0.116739
  12 H :    0.187249
  13 H :    0.154178
  14 H :    0.139423
  15 H :    0.136136

  Mayer bond orders larger than 0.1
B(  0-C ,  1-N ) :   0.8848 B(  0-C ,  9-H ) :   0.9361 B(  0-C , 10-H ) :   0.9361
B(  0-C , 11-H ) :   0.9307 B(  1-N ,  2-C ) :   1.1943 B(  1-N , 12-H ) :   0.8640
B(  2-C ,  3-N ) :   1.9354 B(  2-C ,  4-C ) :   0.8740 B(  3-N , 13-H ) :   0.8762
B(  4-C ,  5-C ) :   1.5505 B(  4-C ,  8-N ) :   1.0623 B(  5-C ,  6-O ) :   1.0433
B(  5-C , 14-H ) :   0.9139 B(  6-O ,  7-C ) :   1.0827 B(  7-C ,  8-N ) :   1.6491
B(  7-C , 15-H ) :   0.9226

MP2 TOTAL ENERGY:     -433.374837473 Eh
FINAL SINGLE POINT ENERGY      -433.374837472863

DIPOLE MOMENT
-------------
                                X             Y             Z
Electronic contribution:      0.95617      -8.51120      -1.49920
Nuclear contribution   :     -1.10541       7.52854       1.76136
                        -----------------------------------------
Total Dipole Moment    :     -0.14925      -0.98266       0.26216
                        -----------------------------------------
Magnitude (a.u.)       :      1.02792
Magnitude (Debye)      :      2.61278

                             ****ORCA TERMINATED NORMALLY****
TOTAL RUN TIME: 0 days 0 hours 13 minutes 25 seconds 148 msec
