                         Program Version 3.0.3 - RELEASE   -
|  1> ! RI-MP2 RIJK def2-TZVP def2-TZVP/C def2-TZVP/JK TIGHTSCF
|  2> % maxcore 2000
|  3> % mp2 density relaxed end
|  4> *xyz 0 1
|  5>  C       -0.0559719317     1.5314625815    -0.0147545054
|  6>  C       -0.0177129024     0.0294290469    -0.0073131183
|  7>  C       -0.0041971701    -0.7281364080    -1.1650976228
|  8>  N        0.0174046358    -2.0690852424    -1.1934489632
|  9>  C        0.0261824583    -2.6504671738     0.0023578508
| 10>  N        0.0216630637    -2.0554525978     1.1936003334
| 11>  C       -0.0029967905    -0.7168172896     1.1933445203
| 12>  N       -0.0562702488    -0.1063351113     2.4184402821
| 13>  H        0.8336696318     1.9681365300     0.4593240344
| 14>  H       -0.0989210290     1.9141929509    -1.0378271025
| 15>  H       -0.9306186656     1.9156166632     0.5245009262
| 16>  H       -0.0131700848    -0.2265592789    -2.1322590633
| 17>  H        0.0430635409    -3.7383564526     0.0148041655
| 18>  H        0.1496935664    -0.7054280669     3.2028655557
| 19>  H        0.2467273759     0.8495404189     2.4982964772
| 20> *
| 21>
| 22>                          ****END OF INPUT****

CARTESIAN COORDINATES (ANGSTROEM)
---------------------------------
  C     -0.055972    1.531463   -0.014755
  C     -0.017713    0.029429   -0.007313
  C     -0.004197   -0.728136   -1.165098
  N      0.017405   -2.069085   -1.193449
  C      0.026182   -2.650467    0.002358
  N      0.021663   -2.055453    1.193600
  C     -0.002997   -0.716817    1.193345
  N     -0.056270   -0.106335    2.418440
  H      0.833670    1.968137    0.459324
  H     -0.098921    1.914193   -1.037827
  H     -0.930619    1.915617    0.524501
  H     -0.013170   -0.226559   -2.132259
  H      0.043064   -3.738356    0.014804
  H      0.149694   -0.705428    3.202866
  H      0.246727    0.849540    2.498296

 Total Charge           Charge          ....    0
 Multiplicity           Mult            ....    1
 Number of Electrons    NEL             ....   58
 Basis Dimension        Dim             ....  290

ORBITAL ENERGIES
----------------

  NO   OCC          E(Eh)            E(eV)
   0   2.0000     -15.583392      -424.0457
   1   2.0000     -15.553395      -423.2294
   2   2.0000     -15.548190      -423.0878
   3   2.0000     -11.331100      -308.3349
   4   2.0000     -11.302161      -307.5474
   5   2.0000     -11.282788      -307.0203
   6   2.0000     -11.241212      -305.8889
   7   2.0000     -11.239310      -305.8372
   8   2.0000      -1.312758       -35.7220
   9   2.0000      -1.238904       -33.7123
  10   2.0000      -1.159259       -31.5451
  11   2.0000      -1.080103       -29.3911
  12   2.0000      -0.959496       -26.1092
  13   2.0000      -0.874150       -23.7868
  14   2.0000      -0.854719       -23.2581
  15   2.0000      -0.742329       -20.1998
  16   2.0000      -0.731911       -19.9163
  17   2.0000      -0.655414       -17.8347
  18   2.0000      -0.623110       -16.9557
  19   2.0000      -0.606925       -16.5153
  20   2.0000      -0.598504       -16.2861
  21   2.0000      -0.567997       -15.4560
  22   2.0000      -0.560302       -15.2466
  23   2.0000      -0.556970       -15.1559
  24   2.0000      -0.493136       -13.4189
  25   2.0000      -0.457589       -12.4516
  26   2.0000      -0.406149       -11.0519
  27   2.0000      -0.390764       -10.6332
  28   2.0000      -0.332784        -9.0555
  29   0.0000       0.115587         3.1453
  30   0.0000       0.120135         3.2690
  31   0.0000       0.133643         3.6366
  32   0.0000       0.159893         4.3509
  33   0.0000       0.179111         4.8739

MULLIKEN ATOMIC CHARGES
-----------------------
   0 C :   -0.468952
   1 C :    0.030271
   2 C :   -0.068147
   3 N :   -0.260797
   4 C :    0.069451
   5 N :   -0.286248
   6 C :    0.245875
   7 N :   -0.487443
   8 H :    0.146237
   9 H :    0.147542
  10 H :    0.162248
  11 H :    0.122467
  12 H :    0.128764
  13 H :    0.261351
  14 H :    0.257381
Sum of atomic charges:   -0.0000000

LOEWDIN ATOMIC CHARGES
----------------------
   0 C :   -0.269171
   1 C :   -0.168119
   2 C :   -0.191417
   3 N :    0.104703
   4 C :   -0.302070
   5 N :    0.126619
   6 C :   -0.298133
   7 N :   -0.022969
   8 H :    0.129968
   9 H :    0.135583
  10 H :    0.134475
  11 H :    0.141746
  12 H :    0.132781
  13 H :    0.176235
  14 H :    0.169767

  Mayer bond orders larger than 0.1
B(  0-C ,  1-C ) :   0.8524 B(  0-C ,  8-H ) :   0.9314 B(  0-C ,  9-H ) :   0.9375
B(  0-C , 10-H ) :   0.9349 B(  1-C ,  2-C ) :   1.3803 B(  1-C ,  6-C ) :   1.2474
B(  2-C ,  3-N ) :   1.3801 B(  2-C , 11-H ) :   0.9576 B(  3-N ,  4-C ) :   1.4027
B(  4-C ,  5-N ) :   1.3900 B(  4-C , 12-H ) :   0.9395 B(  5-N ,  6-C ) :   1.3933
B(  6-C ,  7-N ) :   1.1264 B(  7-N , 13-H ) :   0.8624 B(  7-N , 14-H ) :   0.8703

MP2 TOTAL ENERGY:     -358.286304203 Eh
FINAL SINGLE POINT ENERGY      -358.286304202690

DIPOLE MOMENT
-------------
                                X             Y             Z
Electronic contribution:     -0.00177      -5.74071      -0.36996
Nuclear contribution   :      0.25626       7.12308       1.06022
                        -----------------------------------------
Total Dipole Moment    :      0.25449       1.38237       0.69026
                        -----------------------------------------
Magnitude (a.u.)       :      1.56594
Magnitude (Debye)      :      3.98030

                             ****ORCA TERMINATED NORMALLY****
TOTAL RUN TIME: 0 days 0 hours 11 minutes 38 seconds 27 msec
