                         Program Version 3.0.3 - RELEASE   -
|  1> ! RI-MP2 RIJK def2-TZVP def2-TZVP/C def2-TZVP/JK TIGHTSCF
|  2> % maxcore 2000
|  3> % mp2 density relaxed end
|  4> *xyz 0 1
|  5>  C        0.0421630657     1.5014512052     0.0169418019
|  6>  C        0.0160479383     0.0464218331     0.0120539018
|  7>  C        0.0091443323    -1.1579212775     0.0014822976
|  8>  C        0.0166383825    -2.5918996417    -0.0264769487
|  9>  C       -0.4422663375    -3.3758914918     1.2188492324
| 10>  C       -1.3193104804    -3.3758098966     0.0213233644
| 11>  C       -2.6333757417    -2.6327907638    -0.0114428634
| 12>  C        1.0904295642    -3.2585770535    -0.8214072037
| 13>  O        1.9431737319    -2.7027748932    -1.4612410562
| 14>  H        1.0305559801     1.8739216899    -0.2735373173
| 15>  H       -0.6885261413     1.9186015658    -0.6849275153
| 16>  H       -0.1840638985     1.9027098535     1.0111043711
| 17>  H        0.1149282198    -4.2729129563     1.4693504062
| 18>  H       -0.7233077587    -2.7616690433     2.0663179427
| 19>  H       -1.3006601713    -4.2884759994    -0.5700181836
| 20>  H       -2.5720225761    -1.6992775360     0.5524876108
| 21>  H       -2.9201793254    -2.3856908346    -1.0383535502
| 22>  H       -3.4278759727    -3.2484724074     0.4235356888
| 23>  H        1.0333747588    -4.3728104024    -0.7732630193
| 24> *
| 25>
| 26>                          ****END OF INPUT****

CARTESIAN COORDINATES (ANGSTROEM)
---------------------------------
  C      0.042163    1.501451    0.016942
  C      0.016048    0.046422    0.012054
  C      0.009144   -1.157921    0.001482
  C      0.016638   -2.591900   -0.026477
  C     -0.442266   -3.375891    1.218849
  C     -1.319310   -3.375810    0.021323
  C     -2.633376   -2.632791   -0.011443
  C      1.090430   -3.258577   -0.821407
  O      1.943174   -2.702775   -1.461241
  H      1.030556    1.873922   -0.273537
  H     -0.688526    1.918602   -0.684928
  H     -0.184064    1.902710    1.011104
  H      0.114928   -4.272913    1.469350
  H     -0.723308   -2.761669    2.066318
  H     -1.300660   -4.288476   -0.570018
  H     -2.572023   -1.699278    0.552488
  H     -2.920179   -2.385691   -1.038354
  H     -3.427876   -3.248472    0.423536
  H      1.033375   -4.372810   -0.773263

 Total Charge           Charge          ....    0
 Multiplicity           Mult            ....    1
 Number of Electrons    NEL             ....   66
 Basis Dimension        Dim             ....  339

ORBITAL ENERGIES
----------------

  NO   OCC          E(Eh)            E(eV)
   0   2.0000     -20.549507      -559.1805
   1   2.0000     -11.332423      -308.3709
   2   2.0000     -11.273576      -306.7696
   3   2.0000     -11.264926      -306.5342
   4   2.0000     -11.255487      -306.2774
   5   2.0000     -11.245301      -306.0002
   6   2.0000     -11.230283      -305.5915
   7   2.0000     -11.225174      -305.4525
   8   2.0000     -11.218927      -305.2825
   9   2.0000      -1.391342       -37.8603
  10   2.0000      -1.186761       -32.2934
  11   2.0000      -1.054549       -28.6957
  12   2.0000      -0.995886       -27.0994
  13   2.0000      -0.960529       -26.1373
  14   2.0000      -0.903794       -24.5935
  15   2.0000      -0.817234       -22.2381
  16   2.0000      -0.807741       -21.9798
  17   2.0000      -0.689367       -18.7586
  18   2.0000      -0.671621       -18.2757
  19   2.0000      -0.646792       -17.6001
  20   2.0000      -0.619776       -16.8650
  21   2.0000      -0.596341       -16.2273
  22   2.0000      -0.588662       -16.0183
  23   2.0000      -0.584383       -15.9019
  24   2.0000      -0.580440       -15.7946
  25   2.0000      -0.561719       -15.2851
  26   2.0000      -0.544793       -14.8246
  27   2.0000      -0.517740       -14.0884
  28   2.0000      -0.465525       -12.6676
  29   2.0000      -0.451340       -12.2816
  30   2.0000      -0.424038       -11.5387
  31   2.0000      -0.367835       -10.0093
  32   2.0000      -0.348195        -9.4749
  33   0.0000       0.130795         3.5591
  34   0.0000       0.135045         3.6748
  35   0.0000       0.141433         3.8486
  36   0.0000       0.162836         4.4310
  37   0.0000       0.176847         4.8123

MULLIKEN ATOMIC CHARGES
-----------------------
   0 C :   -0.484449
   1 C :    0.090916
   2 C :    0.007261
   3 C :   -0.059460
   4 C :   -0.277434
   5 C :   -0.081199
   6 C :   -0.407430
   7 C :    0.049245
   8 O :   -0.253914
   9 H :    0.170297
  10 H :    0.161895
  11 H :    0.160182
  12 H :    0.150003
  13 H :    0.148402
  14 H :    0.134131
  15 H :    0.141072
  16 H :    0.140832
  17 H :    0.138905
  18 H :    0.070744
Sum of atomic charges:    0.0000000

LOEWDIN ATOMIC CHARGES
----------------------
   0 C :   -0.293613
   1 C :   -0.085008
   2 C :   -0.042296
   3 C :   -0.207165
   4 C :   -0.156450
   5 C :   -0.191999
   6 C :   -0.281063
   7 C :   -0.263991
   8 O :    0.145195
   9 H :    0.144462
  10 H :    0.140530
  11 H :    0.140179
  12 H :    0.138820
  13 H :    0.146921
  14 H :    0.153224
  15 H :    0.134170
  16 H :    0.130916
  17 H :    0.128828
  18 H :    0.118340

  Mayer bond orders larger than 0.1
B(  0-C ,  1-C ) :   0.8310 B(  0-C ,  9-H ) :   0.9499 B(  0-C , 10-H ) :   0.9470
B(  0-C , 11-H ) :   0.9485 B(  1-C ,  2-C ) :   2.5978 B(  1-C ,  3-C ) :  -0.1806
B(  2-C ,  3-C ) :   1.1481 B(  3-C ,  4-C ) :   0.8006 B(  3-C ,  5-C ) :   0.7986
B(  3-C ,  7-C ) :   0.8933 B(  3-C ,  8-O ) :  -0.1127 B(  4-C ,  5-C ) :   0.9037
B(  4-C , 12-H ) :   0.9204 B(  4-C , 13-H ) :   0.9213 B(  5-C ,  6-C ) :   0.9205
B(  5-C , 14-H ) :   0.9211 B(  6-C , 15-H ) :   0.9307 B(  6-C , 16-H ) :   0.9382
B(  6-C , 17-H ) :   0.9361 B(  7-C ,  8-O ) :   2.0416 B(  7-C , 18-H ) :   0.9484

MP2 TOTAL ENERGY:     -385.178730123 Eh
FINAL SINGLE POINT ENERGY      -385.178730123085

DIPOLE MOMENT
-------------
                                X             Y             Z
Electronic contribution:      6.64214      -2.21840      -2.59145
Nuclear contribution   :     -7.68195       2.08183       3.27509
                        -----------------------------------------
Total Dipole Moment    :     -1.03981      -0.13658       0.68364
                        -----------------------------------------
Magnitude (a.u.)       :      1.25189
Magnitude (Debye)      :      3.18205

                             ****ORCA TERMINATED NORMALLY****
TOTAL RUN TIME: 0 days 0 hours 18 minutes 43 seconds 99 msec
