                         Program Version 3.0.3 - RELEASE   -
|  1> ! RI-MP2 RIJK def2-TZVP def2-TZVP/C def2-TZVP/JK TIGHTSCF
|  2> % maxcore 2000
|  3> % mp2 density relaxed end
|  4> *xyz 0 1
|  5>  O       -0.0436263345    -0.0172650775     0.0022236031
|  6>  C       -0.0354107530     1.1829366986     0.0064048746
|  7>  C        1.3113982938     1.9513205614    -0.0003138841
|  8>  O        2.3670737147     1.3783535627    -0.0119762532
|  9>  C        1.2161062191     3.4897228245     0.0090465421
| 10>  O        0.1301480001     4.0309380521     0.0222235166
| 11>  C        2.4704524243     4.1986581821     0.0013606423
| 12>  C        3.5180105788     4.7910626094    -0.0052056540
| 13>  H       -0.9514811299     1.7978627854     0.0149252799
| 14>  H        4.4431656066     5.3161214013    -0.0115240372
| 15> *
| 16>
| 17>                          ****END OF INPUT****

CARTESIAN COORDINATES (ANGSTROEM)
---------------------------------
  O     -0.043626   -0.017265    0.002224
  C     -0.035411    1.182937    0.006405
  C      1.311398    1.951321   -0.000314
  O      2.367074    1.378354   -0.011976
  C      1.216106    3.489723    0.009047
  O      0.130148    4.030938    0.022224
  C      2.470452    4.198658    0.001361
  C      3.518011    4.791063   -0.005206
  H     -0.951481    1.797863    0.014925
  H      4.443166    5.316121   -0.011524

 Total Charge           Charge          ....    0
 Multiplicity           Mult            ....    1
 Number of Electrons    NEL             ....   56
 Basis Dimension        Dim             ....  260

ORBITAL ENERGIES
----------------

  NO   OCC          E(Eh)            E(eV)
   0   2.0000     -20.620303      -561.1070
   1   2.0000     -20.616898      -561.0143
   2   2.0000     -20.601784      -560.6030
   3   2.0000     -11.405297      -310.3539
   4   2.0000     -11.384060      -309.7760
   5   2.0000     -11.366394      -309.2953
   6   2.0000     -11.290628      -307.2336
   7   2.0000     -11.276491      -306.8489
   8   2.0000      -1.466978       -39.9185
   9   2.0000      -1.447822       -39.3972
  10   2.0000      -1.426510       -38.8173
  11   2.0000      -1.092312       -29.7233
  12   2.0000      -1.007785       -27.4232
  13   2.0000      -0.932529       -25.3754
  14   2.0000      -0.810776       -22.0623
  15   2.0000      -0.767153       -20.8753
  16   2.0000      -0.747758       -20.3475
  17   2.0000      -0.723400       -19.6847
  18   2.0000      -0.686048       -18.6683
  19   2.0000      -0.672542       -18.3008
  20   2.0000      -0.633499       -17.2384
  21   2.0000      -0.576204       -15.6793
  22   2.0000      -0.558596       -15.2002
  23   2.0000      -0.534273       -14.5383
  24   2.0000      -0.516278       -14.0486
  25   2.0000      -0.447421       -12.1749
  26   2.0000      -0.443221       -12.0607
  27   2.0000      -0.431434       -11.7399
  28   0.0000       0.000426         0.0116
  29   0.0000       0.064751         1.7620
  30   0.0000       0.139365         3.7923
  31   0.0000       0.142971         3.8905
  32   0.0000       0.167909         4.5690

MULLIKEN ATOMIC CHARGES
-----------------------
   0 O :   -0.203303
   1 C :    0.046908
   2 C :    0.227387
   3 O :   -0.199828
   4 C :   -0.016787
   5 O :   -0.248019
   6 C :    0.094171
   7 C :   -0.057459
   8 H :    0.143764
   9 H :    0.213164
Sum of atomic charges:    0.0000000

LOEWDIN ATOMIC CHARGES
----------------------
   0 O :    0.186683
   1 C :   -0.252870
   2 C :   -0.279862
   3 O :    0.238209
   4 C :   -0.295786
   5 O :    0.203054
   6 C :   -0.055828
   7 C :   -0.005114
   8 H :    0.124574
   9 H :    0.136941

  Mayer bond orders larger than 0.1
B(  0-O ,  1-C ) :   1.9943 B(  1-C ,  2-C ) :   0.8367 B(  1-C ,  8-H ) :   0.9276
B(  2-C ,  3-O ) :   1.9644 B(  2-C ,  4-C ) :   0.8860 B(  2-C ,  6-C ) :  -0.1214
B(  4-C ,  5-O ) :   1.9130 B(  4-C ,  6-C ) :   1.0432 B(  4-C ,  7-C ) :  -0.1012
B(  6-C ,  7-C ) :   2.5847 B(  7-C ,  9-H ) :   0.8835

MP2 TOTAL ENERGY:     -416.559893447 Eh
FINAL SINGLE POINT ENERGY      -416.559893447366

DIPOLE MOMENT
-------------
                                X             Y             Z
Electronic contribution:     -0.36737      -0.83659       0.00144
Nuclear contribution   :      0.78818       1.85083      -0.00253
                        -----------------------------------------
Total Dipole Moment    :      0.42081       1.01424      -0.00109
                        -----------------------------------------
Magnitude (a.u.)       :      1.09807
Magnitude (Debye)      :      2.79108

                             ****ORCA TERMINATED NORMALLY****
TOTAL RUN TIME: 0 days 0 hours 8 minutes 7 seconds 892 msec
