                         Program Version 3.0.3 - RELEASE   -
|  1> ! RI-MP2 RIJK def2-TZVP def2-TZVP/C def2-TZVP/JK TIGHTSCF
|  2> % maxcore 2000
|  3> % mp2 density relaxed end
|  4> *xyz 0 1
|  5>  N        0.2418049181     1.3594670533    -0.7117860643
|  6>  C        0.1832190771     0.1524028764    -0.3442817644
|  7>  O       -0.9300064968    -0.5594407111    -0.5996503437
|  8>  C       -1.0411412748    -1.9190109412    -0.2185407913
|  9>  C        0.1202839356    -2.8715901009    -0.2564450650
| 10>  C       -0.4949697270    -2.4559982794     1.0703679006
| 11>  C       -2.3776682432    -2.3912258767    -0.7137133058
| 12>  O       -2.8379367033    -3.6305471918    -0.1886330479
| 13>  C       -3.5571070621    -2.4379742734     0.1559291152
| 14>  H        1.1400988145     1.7570376674    -0.4449651116
| 15>  H        0.9701277529    -0.3964377116     0.1826676217
| 16>  H       -0.0761389210    -3.8770129560    -0.6118334688
| 17>  H        1.1013762711    -2.4869530039    -0.5117974054
| 18>  H        0.0693084564    -1.7837603905     1.7070720234
| 19>  H       -1.0966706058    -3.1887466721     1.5954481484
| 20>  H       -2.5266479508    -2.2594179488    -1.7857074936
| 21>  H       -3.4657002230    -2.1261735949     1.1942941046
| 22>  H       -4.5510501980    -2.3550937147    -0.2786021418
| 23> *
| 24>
| 25>                          ****END OF INPUT****

CARTESIAN COORDINATES (ANGSTROEM)
---------------------------------
  N      0.241805    1.359467   -0.711786
  C      0.183219    0.152403   -0.344282
  O     -0.930006   -0.559441   -0.599650
  C     -1.041141   -1.919011   -0.218541
  C      0.120284   -2.871590   -0.256445
  C     -0.494970   -2.455998    1.070368
  C     -2.377668   -2.391226   -0.713713
  O     -2.837937   -3.630547   -0.188633
  C     -3.557107   -2.437974    0.155929
  H      1.140099    1.757038   -0.444965
  H      0.970128   -0.396438    0.182668
  H     -0.076139   -3.877013   -0.611833
  H      1.101376   -2.486953   -0.511797
  H      0.069308   -1.783760    1.707072
  H     -1.096671   -3.188747    1.595448
  H     -2.526648   -2.259418   -1.785707
  H     -3.465700   -2.126174    1.194294
  H     -4.551050   -2.355094   -0.278602

 Total Charge           Charge          ....    0
 Multiplicity           Mult            ....    1
 Number of Electrons    NEL             ....   68
 Basis Dimension        Dim             ....  333

ORBITAL ENERGIES
----------------

  NO   OCC          E(Eh)            E(eV)
   0   2.0000     -20.601912      -560.6065
   1   2.0000     -20.579988      -560.0099
   2   2.0000     -15.544164      -422.9782
   3   2.0000     -11.344389      -308.6965
   4   2.0000     -11.317657      -307.9691
   5   2.0000     -11.299005      -307.4615
   6   2.0000     -11.290698      -307.2355
   7   2.0000     -11.245327      -306.0009
   8   2.0000     -11.244552      -305.9798
   9   2.0000      -1.441264       -39.2188
  10   2.0000      -1.422204       -38.7001
  11   2.0000      -1.208218       -32.8773
  12   2.0000      -1.151156       -31.3246
  13   2.0000      -0.972409       -26.4606
  14   2.0000      -0.908225       -24.7141
  15   2.0000      -0.854048       -23.2398
  16   2.0000      -0.838630       -22.8203
  17   2.0000      -0.785254       -21.3678
  18   2.0000      -0.746621       -20.3166
  19   2.0000      -0.701034       -19.0761
  20   2.0000      -0.687937       -18.7197
  21   2.0000      -0.662412       -18.0252
  22   2.0000      -0.630940       -17.1687
  23   2.0000      -0.621041       -16.8994
  24   2.0000      -0.570724       -15.5302
  25   2.0000      -0.556799       -15.1513
  26   2.0000      -0.549566       -14.9544
  27   2.0000      -0.538573       -14.6553
  28   2.0000      -0.488470       -13.2919
  29   2.0000      -0.472871       -12.8675
  30   2.0000      -0.445386       -12.1196
  31   2.0000      -0.436984       -11.8910
  32   2.0000      -0.431676       -11.7465
  33   2.0000      -0.385115       -10.4795
  34   0.0000       0.137072         3.7299
  35   0.0000       0.144213         3.9242
  36   0.0000       0.163473         4.4483
  37   0.0000       0.166618         4.5339
  38   0.0000       0.172540         4.6951

MULLIKEN ATOMIC CHARGES
-----------------------
   0 N :   -0.335875
   1 C :    0.048009
   2 O :   -0.202750
   3 C :    0.219743
   4 C :   -0.306722
   5 C :   -0.303230
   6 C :   -0.006015
   7 O :   -0.336921
   8 C :   -0.080698
   9 H :    0.225071
  10 H :    0.084890
  11 H :    0.153234
  12 H :    0.147087
  13 H :    0.146421
  14 H :    0.158287
  15 H :    0.136322
  16 H :    0.126606
  17 H :    0.126542
Sum of atomic charges:    0.0000000

LOEWDIN ATOMIC CHARGES
----------------------
   0 N :   -0.078368
   1 C :   -0.393424
   2 O :    0.300208
   3 C :   -0.311248
   4 C :   -0.201115
   5 C :   -0.204740
   6 C :   -0.252755
   7 O :    0.155076
   8 C :   -0.244793
   9 H :    0.167599
  10 H :    0.111949
  11 H :    0.143486
  12 H :    0.134794
  13 H :    0.135264
  14 H :    0.143659
  15 H :    0.146990
  16 H :    0.124404
  17 H :    0.123013

  Mayer bond orders larger than 0.1
B(  0-N ,  1-C ) :   1.9706 B(  0-N ,  9-H ) :   0.8495 B(  1-C ,  2-O ) :   1.0573
B(  1-C , 10-H ) :   0.9290 B(  2-O ,  3-C ) :   0.8838 B(  3-C ,  4-C ) :   0.8867
B(  3-C ,  5-C ) :   0.8732 B(  3-C ,  6-C ) :   0.9548 B(  4-C ,  5-C ) :   0.8484
B(  4-C , 11-H ) :   0.9141 B(  4-C , 12-H ) :   0.9251 B(  5-C , 13-H ) :   0.9231
B(  5-C , 14-H ) :   0.9065 B(  6-C ,  7-O ) :   0.9162 B(  6-C ,  8-C ) :   0.9777
B(  6-C , 15-H ) :   0.9151 B(  7-O ,  8-C ) :   0.8856 B(  8-C , 16-H ) :   0.9084
B(  8-C , 17-H ) :   0.9238

MP2 TOTAL ENERGY:     -438.303279740 Eh
FINAL SINGLE POINT ENERGY      -438.303279740086

DIPOLE MOMENT
-------------
                                X             Y             Z
Electronic contribution:     -1.57043       1.44220      -2.02851
Nuclear contribution   :      2.13386      -1.86313       2.64748
                        -----------------------------------------
Total Dipole Moment    :      0.56343      -0.42093       0.61896
                        -----------------------------------------
Magnitude (a.u.)       :      0.93688
Magnitude (Debye)      :      2.38136

                             ****ORCA TERMINATED NORMALLY****
TOTAL RUN TIME: 0 days 0 hours 15 minutes 14 seconds 222 msec
