                         Program Version 3.0.3 - RELEASE   -
|  1> ! RI-MP2 RIJK def2-TZVP def2-TZVP/C def2-TZVP/JK TIGHTSCF
|  2> % maxcore 2000
|  3> % mp2 density relaxed end
|  4> *xyz 0 1
|  5>  N        0.0042601923     1.3478290959     0.1159880719
|  6>  C       -0.0036547198    -0.0104371105     0.0329307469
|  7>  N       -1.0689975062    -0.7435671752     0.0116550095
|  8>  C       -0.7119126393    -2.1755062968    -0.0086947840
|  9>  C        0.7923148914    -2.1768679432    -0.0179390800
| 10>  N        1.8263589087    -2.9573096833    -0.0455245470
| 11>  O        2.9117972800    -2.0834243629    -0.0340305668
| 12>  N        2.5146410621    -0.7611705471     0.0017574134
| 13>  C        1.2176885993    -0.8289058157     0.0121145283
| 14>  H        0.8339682824     1.8354039238    -0.1784475974
| 15>  H       -0.8739115626     1.8119820375    -0.0565840532
| 16>  H       -1.1276070913    -2.6842406666     0.8684345846
| 17>  H       -1.1406346671    -2.6595030558    -0.8932049061
| 18> *
| 19>
| 20>                          ****END OF INPUT****

CARTESIAN COORDINATES (ANGSTROEM)
---------------------------------
  N      0.004260    1.347829    0.115988
  C     -0.003655   -0.010437    0.032931
  N     -1.068998   -0.743567    0.011655
  C     -0.711913   -2.175506   -0.008695
  C      0.792315   -2.176868   -0.017939
  N      1.826359   -2.957310   -0.045525
  O      2.911797   -2.083424   -0.034031
  N      2.514641   -0.761171    0.001757
  C      1.217689   -0.828906    0.012115
  H      0.833968    1.835404   -0.178448
  H     -0.873912    1.811982   -0.056584
  H     -1.127607   -2.684241    0.868435
  H     -1.140635   -2.659503   -0.893205

 Total Charge           Charge          ....    0
 Multiplicity           Mult            ....    1
 Number of Electrons    NEL             ....   64
 Basis Dimension        Dim             ....  303

ORBITAL ENERGIES
----------------

  NO   OCC          E(Eh)            E(eV)
   0   2.0000     -20.683352      -562.8226
   1   2.0000     -15.673755      -426.5046
   2   2.0000     -15.661589      -426.1735
   3   2.0000     -15.601863      -424.5483
   4   2.0000     -15.570110      -423.6842
   5   2.0000     -11.355666      -309.0034
   6   2.0000     -11.303446      -307.5824
   7   2.0000     -11.298897      -307.4586
   8   2.0000     -11.294599      -307.3417
   9   2.0000      -1.537291       -41.8318
  10   2.0000      -1.316177       -35.8150
  11   2.0000      -1.228526       -33.4299
  12   2.0000      -1.213094       -33.0100
  13   2.0000      -1.164586       -31.6900
  14   2.0000      -0.988656       -26.9027
  15   2.0000      -0.928858       -25.2755
  16   2.0000      -0.832432       -22.6516
  17   2.0000      -0.807400       -21.9705
  18   2.0000      -0.741016       -20.1641
  19   2.0000      -0.708420       -19.2771
  20   2.0000      -0.699129       -19.0243
  21   2.0000      -0.637519       -17.3478
  22   2.0000      -0.636899       -17.3309
  23   2.0000      -0.619824       -16.8663
  24   2.0000      -0.592466       -16.1218
  25   2.0000      -0.556993       -15.1565
  26   2.0000      -0.513152       -13.9636
  27   2.0000      -0.502717       -13.6796
  28   2.0000      -0.450412       -12.2563
  29   2.0000      -0.446430       -12.1480
  30   2.0000      -0.434818       -11.8320
  31   2.0000      -0.378809       -10.3079
  32   0.0000       0.063317         1.7230
  33   0.0000       0.121126         3.2960
  34   0.0000       0.140117         3.8128
  35   0.0000       0.144370         3.9285
  36   0.0000       0.175617         4.7788

MULLIKEN ATOMIC CHARGES
-----------------------
   0 N :   -0.491836
   1 C :    0.173999
   2 N :   -0.250051
   3 C :   -0.071820
   4 C :   -0.053480
   5 N :   -0.073844
   6 O :   -0.005354
   7 N :   -0.089972
   8 C :    0.017904
   9 H :    0.271567
  10 H :    0.266881
  11 H :    0.153371
  12 H :    0.152635
Sum of atomic charges:   -0.0000000

LOEWDIN ATOMIC CHARGES
----------------------
   0 N :   -0.014352
   1 C :   -0.335763
   2 N :    0.096375
   3 C :   -0.221848
   4 C :   -0.255160
   5 N :    0.066979
   6 O :    0.200398
   7 N :    0.054134
   8 C :   -0.250618
   9 H :    0.179864
  10 H :    0.180167
  11 H :    0.150084
  12 H :    0.149740

  Mayer bond orders larger than 0.1
B(  0-N ,  1-C ) :   1.1525 B(  0-N ,  9-H ) :   0.8641 B(  0-N , 10-H ) :   0.8592
B(  1-C ,  2-N ) :   1.7519 B(  1-C ,  8-C ) :   0.9783 B(  2-N ,  3-C ) :   0.9670
B(  3-C ,  4-C ) :   0.9468 B(  3-C , 11-H ) :   0.9058 B(  3-C , 12-H ) :   0.9074
B(  4-C ,  5-N ) :   1.6208 B(  4-C ,  8-C ) :   1.1628 B(  5-N ,  6-O ) :   0.9202
B(  5-N ,  7-N ) :   0.1291 B(  6-O ,  7-N ) :   0.9352 B(  7-N ,  8-C ) :   1.5809

MP2 TOTAL ENERGY:     -448.148175641 Eh
FINAL SINGLE POINT ENERGY      -448.148175641118

DIPOLE MOMENT
-------------
                                X             Y             Z
Electronic contribution:      4.59726      -1.84966       0.01413
Nuclear contribution   :     -5.33188       2.66668      -0.26179
                        -----------------------------------------
Total Dipole Moment    :     -0.73462       0.81702      -0.24766
                        -----------------------------------------
Magnitude (a.u.)       :      1.12629
Magnitude (Debye)      :      2.86279

                             ****ORCA TERMINATED NORMALLY****
TOTAL RUN TIME: 0 days 0 hours 15 minutes 34 seconds 955 msec
