                         Program Version 3.0.3 - RELEASE   -
|  1> ! RI-MP2 RIJK def2-TZVP def2-TZVP/C def2-TZVP/JK TIGHTSCF
|  2> % maxcore 2000
|  3> % mp2 density relaxed end
|  4> *xyz 0 1
|  5>  C        0.4448263629     1.4450910986     0.2880432938
|  6>  C        0.4358522292    -0.0845940941     0.2211577739
|  7>  C        0.5951568402    -0.6051104986    -1.2112143472
|  8>  O        1.8062906802    -0.0790561203    -1.7730902536
|  9>  C        2.7117759288    -1.1278181890    -2.1341206813
| 10>  C        4.1334912546    -0.6806085641    -1.8319944978
| 11>  C        2.2206914384    -2.3590828429    -1.3703928384
| 12>  C        0.6996330438    -2.1459067646    -1.3667959331
| 13>  C       -0.0785400857    -2.9925825421    -0.3607778463
| 14>  H        1.3721089732     1.8393681802    -0.1345008072
| 15>  H       -0.3893152329     1.8686372303    -0.2831373390
| 16>  H        0.3553998840     1.7971008047     1.3202920502
| 17>  H        1.2439670685    -0.4863739820     0.8454565954
| 18>  H       -0.5050716729    -0.4682291875     0.6342362650
| 19>  H       -0.2454187840    -0.2220382646    -1.8091806941
| 20>  H        2.6191685992    -1.3168172041    -3.2174250708
| 21>  H        4.2587721320    -0.4998089618    -0.7597103461
| 22>  H        4.8525497676    -1.4446464883    -2.1455212138
| 23>  H        4.3649883091     0.2462477875    -2.3645627717
| 24>  H        2.5219765693    -3.2985147184    -1.8419970717
| 25>  H        2.6147369806    -2.3542460512    -0.3460252100
| 26>  H        0.3309802284    -2.3900372033    -2.3718966680
| 27>  H        0.2801151195    -2.8412402381     0.6619277201
| 28>  H       -1.1480339341    -2.7568220269    -0.3798311082
| 29>  H        0.0269693801    -4.0571081791    -0.5941129799
| 30> *
| 31>
| 32>                          ****END OF INPUT****

CARTESIAN COORDINATES (ANGSTROEM)
---------------------------------
  C      0.444826    1.445091    0.288043
  C      0.435852   -0.084594    0.221158
  C      0.595157   -0.605110   -1.211214
  O      1.806291   -0.079056   -1.773090
  C      2.711776   -1.127818   -2.134121
  C      4.133491   -0.680609   -1.831994
  C      2.220691   -2.359083   -1.370393
  C      0.699633   -2.145907   -1.366796
  C     -0.078540   -2.992583   -0.360778
  H      1.372109    1.839368   -0.134501
  H     -0.389315    1.868637   -0.283137
  H      0.355400    1.797101    1.320292
  H      1.243967   -0.486374    0.845457
  H     -0.505072   -0.468229    0.634236
  H     -0.245419   -0.222038   -1.809181
  H      2.619169   -1.316817   -3.217425
  H      4.258772   -0.499809   -0.759710
  H      4.852550   -1.444646   -2.145521
  H      4.364988    0.246248   -2.364563
  H      2.521977   -3.298515   -1.841997
  H      2.614737   -2.354246   -0.346025
  H      0.330980   -2.390037   -2.371897
  H      0.280115   -2.841240    0.661928
  H     -1.148034   -2.756822   -0.379831
  H      0.026969   -4.057108   -0.594113

 Total Charge           Charge          ....    0
 Multiplicity           Mult            ....    1
 Number of Electrons    NEL             ....   72
 Basis Dimension        Dim             ....  375

ORBITAL ENERGIES
----------------

  NO   OCC          E(Eh)            E(eV)
   0   2.0000     -20.536866      -558.8365
   1   2.0000     -11.271542      -306.7142
   2   2.0000     -11.268705      -306.6370
   3   2.0000     -11.228527      -305.5437
   4   2.0000     -11.218597      -305.2735
   5   2.0000     -11.217801      -305.2519
   6   2.0000     -11.213255      -305.1282
   7   2.0000     -11.209731      -305.0323
   8   2.0000     -11.202697      -304.8409
   9   2.0000      -1.363005       -37.0892
  10   2.0000      -1.081463       -29.4281
  11   2.0000      -1.056339       -28.7444
  12   2.0000      -1.003603       -27.3094
  13   2.0000      -0.936350       -25.4794
  14   2.0000      -0.903753       -24.5924
  15   2.0000      -0.827240       -22.5104
  16   2.0000      -0.788119       -21.4458
  17   2.0000      -0.746705       -20.3189
  18   2.0000      -0.680759       -18.5244
  19   2.0000      -0.640253       -17.4222
  20   2.0000      -0.618165       -16.8211
  21   2.0000      -0.610166       -16.6035
  22   2.0000      -0.581501       -15.8234
  23   2.0000      -0.566135       -15.4053
  24   2.0000      -0.560002       -15.2384
  25   2.0000      -0.540943       -14.7198
  26   2.0000      -0.533854       -14.5269
  27   2.0000      -0.519456       -14.1351
  28   2.0000      -0.511424       -13.9166
  29   2.0000      -0.498127       -13.5547
  30   2.0000      -0.489194       -13.3116
  31   2.0000      -0.472471       -12.8566
  32   2.0000      -0.457528       -12.4500
  33   2.0000      -0.451328       -12.2813
  34   2.0000      -0.432783       -11.7766
  35   2.0000      -0.397280       -10.8105
  36   0.0000       0.132718         3.6114
  37   0.0000       0.147508         4.0139
  38   0.0000       0.150851         4.1049
  39   0.0000       0.163766         4.4563
  40   0.0000       0.189570         5.1585

MULLIKEN ATOMIC CHARGES
-----------------------
   0 C :   -0.389671
   1 C :   -0.233966
   2 C :    0.077722
   3 O :   -0.320248
   4 C :    0.117963
   5 C :   -0.393096
   6 C :   -0.292739
   7 C :   -0.025542
   8 C :   -0.413202
   9 H :    0.144154
  10 H :    0.115609
  11 H :    0.128276
  12 H :    0.106893
  13 H :    0.105323
  14 H :    0.082669
  15 H :    0.070469
  16 H :    0.121196
  17 H :    0.121614
  18 H :    0.139307
  19 H :    0.126487
  20 H :    0.108099
  21 H :    0.095792
  22 H :    0.132366
  23 H :    0.136980
  24 H :    0.137544
Sum of atomic charges:    0.0000000

LOEWDIN ATOMIC CHARGES
----------------------
   0 C :   -0.318736
   1 C :   -0.277780
   2 C :   -0.282193
   3 O :    0.186283
   4 C :   -0.335597
   5 C :   -0.295767
   6 C :   -0.220593
   7 C :   -0.256065
   8 C :   -0.294783
   9 H :    0.125499
  10 H :    0.120114
  11 H :    0.118412
  12 H :    0.135663
  13 H :    0.138012
  14 H :    0.139485
  15 H :    0.135317
  16 H :    0.123047
  17 H :    0.125071
  18 H :    0.126502
  19 H :    0.138335
  20 H :    0.140558
  21 H :    0.154805
  22 H :    0.124338
  23 H :    0.124858
  24 H :    0.125216

  Mayer bond orders larger than 0.1
B(  0-C ,  1-C ) :   0.9247 B(  0-C ,  9-H ) :   0.9378 B(  0-C , 10-H ) :   0.9365
B(  0-C , 11-H ) :   0.9418 B(  1-C ,  2-C ) :   0.9186 B(  1-C , 12-H ) :   0.9307
B(  1-C , 13-H ) :   0.9278 B(  2-C ,  3-O ) :   0.9222 B(  2-C ,  7-C ) :   0.9187
B(  2-C , 14-H ) :   0.9110 B(  3-O ,  4-C ) :   0.9434 B(  4-C ,  5-C ) :   0.9038
B(  4-C ,  6-C ) :   0.9328 B(  4-C , 15-H ) :   0.9301 B(  5-C , 16-H ) :   0.9367
B(  5-C , 17-H ) :   0.9337 B(  5-C , 18-H ) :   0.9402 B(  6-C ,  7-C ) :   0.9237
B(  6-C , 19-H ) :   0.9200 B(  6-C , 20-H ) :   0.9194 B(  7-C ,  8-C ) :   0.8921
B(  7-C , 21-H ) :   0.9326 B(  8-C , 22-H ) :   0.9330 B(  8-C , 23-H ) :   0.9445
B(  8-C , 24-H ) :   0.9373

MP2 TOTAL ENERGY:     -388.841436209 Eh
FINAL SINGLE POINT ENERGY      -388.841436209445

DIPOLE MOMENT
-------------
                                X             Y             Z
Electronic contribution:      0.49481       0.62962      -3.66983
Nuclear contribution   :     -0.57732      -1.25339       3.74446
                        -----------------------------------------
Total Dipole Moment    :     -0.08251      -0.62377       0.07464
                        -----------------------------------------
Magnitude (a.u.)       :      0.63362
Magnitude (Debye)      :      1.61053

                             ****ORCA TERMINATED NORMALLY****
TOTAL RUN TIME: 0 days 0 hours 35 minutes 38 seconds 188 msec
