                         Program Version 3.0.3 - RELEASE   -
|  1> ! RI-MP2 RIJK def2-TZVP def2-TZVP/C def2-TZVP/JK TIGHTSCF
|  2> % maxcore 2000
|  3> % mp2 density relaxed end
|  4> *xyz 0 1
|  5>  C        1.0181242824    -0.6340937314    -0.8203301257
|  6>  C       -0.3910646006    -0.9483696886    -1.2047550863
|  7>  N       -0.0989736253    -0.1406750324    -0.0322765442
|  8>  C       -0.3438152942    -0.6297057078     1.2650213681
|  9>  C        0.6596095683    -0.5846523391     2.2401743187
| 10>  C        0.3913818535    -0.9967480989     3.5412189949
| 11>  C       -0.8755300412    -1.4588321394     3.8919666990
| 12>  C       -1.8756719278    -1.5024744239     2.9227303967
| 13>  C       -1.6167134212    -1.0924483416     1.6191546640
| 14>  H        1.6097863601    -1.4469507059    -0.4038781470
| 15>  H        1.5842983867     0.1164540052    -1.3644850627
| 16>  H       -0.8658764583    -0.4299838792    -2.0328912464
| 17>  H       -0.7316318272    -1.9691328195    -1.0426149008
| 18>  H        1.6445964722    -0.2184556726     1.9704476128
| 19>  H        1.1807389403    -0.9573227230     4.2852107799
| 20>  H       -1.0805297837    -1.7810289896     4.9068431615
| 21>  H       -2.8673725113    -1.8603610356     3.1808194576
| 22>  H       -2.3984928528    -1.1203772367     0.8674282601
| 23> *
| 24>
| 25>                          ****END OF INPUT****

CARTESIAN COORDINATES (ANGSTROEM)
---------------------------------
  C      1.018124   -0.634094   -0.820330
  C     -0.391065   -0.948370   -1.204755
  N     -0.098974   -0.140675   -0.032277
  C     -0.343815   -0.629706    1.265021
  C      0.659610   -0.584652    2.240174
  C      0.391382   -0.996748    3.541219
  C     -0.875530   -1.458832    3.891967
  C     -1.875672   -1.502474    2.922730
  C     -1.616713   -1.092448    1.619155
  H      1.609786   -1.446951   -0.403878
  H      1.584298    0.116454   -1.364485
  H     -0.865876   -0.429984   -2.032891
  H     -0.731632   -1.969133   -1.042615
  H      1.644596   -0.218456    1.970448
  H      1.180739   -0.957323    4.285211
  H     -1.080530   -1.781029    4.906843
  H     -2.867373   -1.860361    3.180819
  H     -2.398493   -1.120377    0.867428

 Total Charge           Charge          ....    0
 Multiplicity           Mult            ....    1
 Number of Electrons    NEL             ....   64
 Basis Dimension        Dim             ....  333

ORBITAL ENERGIES
----------------

  NO   OCC          E(Eh)            E(eV)
   0   2.0000     -15.571574      -423.7241
   1   2.0000     -11.270792      -306.6939
   2   2.0000     -11.265232      -306.5426
   3   2.0000     -11.264528      -306.5234
   4   2.0000     -11.233092      -305.6680
   5   2.0000     -11.233036      -305.6665
   6   2.0000     -11.224717      -305.4401
   7   2.0000     -11.224696      -305.4395
   8   2.0000     -11.222456      -305.3785
   9   2.0000      -1.292960       -35.1832
  10   2.0000      -1.144882       -31.1538
  11   2.0000      -1.029562       -28.0158
  12   2.0000      -1.012004       -27.5380
  13   2.0000      -0.907235       -24.6871
  14   2.0000      -0.860779       -23.4230
  15   2.0000      -0.816258       -22.2115
  16   2.0000      -0.789568       -21.4852
  17   2.0000      -0.715286       -19.4639
  18   2.0000      -0.676915       -18.4198
  19   2.0000      -0.658273       -17.9125
  20   2.0000      -0.630177       -17.1480
  21   2.0000      -0.611126       -16.6296
  22   2.0000      -0.583131       -15.8678
  23   2.0000      -0.536109       -14.5883
  24   2.0000      -0.521103       -14.1799
  25   2.0000      -0.510432       -13.8896
  26   2.0000      -0.509004       -13.8507
  27   2.0000      -0.476223       -12.9587
  28   2.0000      -0.468294       -12.7429
  29   2.0000      -0.422570       -11.4987
  30   2.0000      -0.336084        -9.1453
  31   2.0000      -0.300062        -8.1651
  32   0.0000       0.124810         3.3963
  33   0.0000       0.133568         3.6346
  34   0.0000       0.153351         4.1729
  35   0.0000       0.161033         4.3819
  36   0.0000       0.165986         4.5167

MULLIKEN ATOMIC CHARGES
-----------------------
   0 C :   -0.178240
   1 C :   -0.178243
   2 N :   -0.209749
   3 C :    0.263318
   4 C :   -0.265829
   5 C :   -0.085538
   6 C :   -0.149239
   7 C :   -0.085541
   8 C :   -0.265827
   9 H :    0.134947
  10 H :    0.133169
  11 H :    0.133170
  12 H :    0.134947
  13 H :    0.127272
  14 H :    0.121251
  15 H :    0.121609
  16 H :    0.121251
  17 H :    0.127274
Sum of atomic charges:   -0.0000000

LOEWDIN ATOMIC CHARGES
----------------------
   0 C :   -0.249803
   1 C :   -0.249805
   2 N :    0.161311
   3 C :   -0.208562
   4 C :   -0.119471
   5 C :   -0.149340
   6 C :   -0.155163
   7 C :   -0.149340
   8 C :   -0.119473
   9 H :    0.126591
  10 H :    0.125278
  11 H :    0.125278
  12 H :    0.126591
  13 H :    0.149984
  14 H :    0.145751
  15 H :    0.144438
  16 H :    0.145751
  17 H :    0.149984

  Mayer bond orders larger than 0.1
B(  0-C ,  1-C ) :   0.9445 B(  0-C ,  2-N ) :   0.8807 B(  0-C ,  9-H ) :   0.9201
B(  0-C , 10-H ) :   0.9267 B(  1-C ,  2-N ) :   0.8807 B(  1-C , 11-H ) :   0.9267
B(  1-C , 12-H ) :   0.9201 B(  2-N ,  3-C ) :   0.9705 B(  3-C ,  4-C ) :   1.3090
B(  3-C ,  8-C ) :   1.3090 B(  4-C ,  5-C ) :   1.3397 B(  4-C , 13-H ) :   0.9311
B(  5-C ,  6-C ) :   1.3190 B(  5-C , 14-H ) :   0.9321 B(  6-C ,  7-C ) :   1.3190
B(  6-C , 15-H ) :   0.9341 B(  7-C ,  8-C ) :   1.3397 B(  7-C , 16-H ) :   0.9321
B(  8-C , 17-H ) :   0.9311

MP2 TOTAL ENERGY:     -364.169457972 Eh
FINAL SINGLE POINT ENERGY      -364.169457971819

DIPOLE MOMENT
-------------
                                X             Y             Z
Electronic contribution:     -0.83607       1.17194       2.10672
Nuclear contribution   :      1.01325      -1.55693      -2.44144
                        -----------------------------------------
Total Dipole Moment    :      0.17718      -0.38498      -0.33472
                        -----------------------------------------
Magnitude (a.u.)       :      0.54004
Magnitude (Debye)      :      1.37267

                             ****ORCA TERMINATED NORMALLY****
TOTAL RUN TIME: 0 days 0 hours 16 minutes 19 seconds 324 msec
