                         Program Version 3.0.3 - RELEASE   -
|  1> ! RI-MP2 RIJK def2-TZVP def2-TZVP/C def2-TZVP/JK TIGHTSCF
|  2> % maxcore 2000
|  3> % mp2 density relaxed end
|  4> *xyz 0 1
|  5>  C       -0.6211971077     1.2697822270    -0.0581072584
|  6>  C        0.0858586518    -0.0639682802     0.0505903112
|  7>  O        1.3039122590    -0.1319202288    -0.7363002402
|  8>  C        2.0857254971    -0.6074428968     0.3919933734
|  9>  C        2.9050710130    -1.8289252021     0.0994638353
| 10>  C        0.8524301772    -0.4440714550     1.3401601614
| 11>  N        1.5879848808     0.6256891988     2.0140902407
| 12>  C        2.6871014518     0.5887853680     1.1447495557
| 13>  N        3.7543565380     1.2427775467     0.9816974053
| 14>  H        0.0182375841     2.0855732228     0.2904355741
| 15>  H       -0.8815252597     1.4694662251    -1.1018010737
| 16>  H       -1.5464893683     1.2652443396     0.5286589550
| 17>  H       -0.5876303725    -0.8798864348    -0.2492249233
| 18>  H        3.6849978726    -1.5744673189    -0.6251180498
| 19>  H        3.3938351664    -2.1934985419     1.0077092618
| 20>  H        2.2848419236    -2.6252178919    -0.3211251587
| 21>  H        0.4377168681    -1.2114642981     1.9939639086
| 22>  H        1.1941668863     1.4480044935     2.4517219287
| 23>  H        3.8197029285     2.0387903072     1.6193105429
| 24> *
| 25>
| 26>                          ****END OF INPUT****

CARTESIAN COORDINATES (ANGSTROEM)
---------------------------------
  C     -0.621197    1.269782   -0.058107
  C      0.085859   -0.063968    0.050590
  O      1.303912   -0.131920   -0.736300
  C      2.085725   -0.607443    0.391993
  C      2.905071   -1.828925    0.099464
  C      0.852430   -0.444071    1.340160
  N      1.587985    0.625689    2.014090
  C      2.687101    0.588785    1.144750
  N      3.754357    1.242778    0.981697
  H      0.018238    2.085573    0.290436
  H     -0.881525    1.469466   -1.101801
  H     -1.546489    1.265244    0.528659
  H     -0.587630   -0.879886   -0.249225
  H      3.684998   -1.574467   -0.625118
  H      3.393835   -2.193499    1.007709
  H      2.284842   -2.625218   -0.321125
  H      0.437717   -1.211464    1.993964
  H      1.194167    1.448004    2.451722
  H      3.819703    2.038790    1.619311

 Total Charge           Charge          ....    0
 Multiplicity           Mult            ....    1
 Number of Electrons    NEL             ....   68
 Basis Dimension        Dim             ....  339

ORBITAL ENERGIES
----------------

  NO   OCC          E(Eh)            E(eV)
   0   2.0000     -20.556979      -559.3838
   1   2.0000     -15.583025      -424.0357
   2   2.0000     -15.527577      -422.5269
   3   2.0000     -11.312507      -307.8290
   4   2.0000     -11.302837      -307.5658
   5   2.0000     -11.293467      -307.3109
   6   2.0000     -11.279191      -306.9224
   7   2.0000     -11.227131      -305.5058
   8   2.0000     -11.223841      -305.4162
   9   2.0000      -1.397543       -38.0291
  10   2.0000      -1.276563       -34.7371
  11   2.0000      -1.168567       -31.7983
  12   2.0000      -1.043367       -28.3915
  13   2.0000      -1.013103       -27.5679
  14   2.0000      -0.943307       -25.6687
  15   2.0000      -0.888916       -24.1886
  16   2.0000      -0.797936       -21.7129
  17   2.0000      -0.728258       -19.8169
  18   2.0000      -0.707449       -19.2507
  19   2.0000      -0.687959       -18.7203
  20   2.0000      -0.651296       -17.7227
  21   2.0000      -0.630190       -17.1483
  22   2.0000      -0.594077       -16.1657
  23   2.0000      -0.574353       -15.6289
  24   2.0000      -0.567956       -15.4549
  25   2.0000      -0.559179       -15.2160
  26   2.0000      -0.535548       -14.5730
  27   2.0000      -0.521240       -14.1837
  28   2.0000      -0.506939       -13.7945
  29   2.0000      -0.470969       -12.8157
  30   2.0000      -0.444749       -12.1022
  31   2.0000      -0.441096       -12.0028
  32   2.0000      -0.407133       -11.0787
  33   2.0000      -0.363743        -9.8980
  34   0.0000       0.122920         3.3448
  35   0.0000       0.143814         3.9134
  36   0.0000       0.156632         4.2622
  37   0.0000       0.173080         4.7098
  38   0.0000       0.179776         4.8920

MULLIKEN ATOMIC CHARGES
-----------------------
   0 C :   -0.432473
   1 C :    0.111435
   2 O :   -0.332652
   3 C :    0.291383
   4 C :   -0.403911
   5 C :   -0.006672
   6 N :   -0.347431
   7 C :   -0.011826
   8 N :   -0.363439
   9 H :    0.128760
  10 H :    0.148735
  11 H :    0.131430
  12 H :    0.085514
  13 H :    0.156400
  14 H :    0.136579
  15 H :    0.135052
  16 H :    0.133133
  17 H :    0.231263
  18 H :    0.208721
Sum of atomic charges:    0.0000000

LOEWDIN ATOMIC CHARGES
----------------------
   0 C :   -0.297376
   1 C :   -0.288488
   2 O :    0.185755
   3 C :   -0.257875
   4 C :   -0.261493
   5 C :   -0.189568
   6 N :    0.112831
   7 C :   -0.334856
   8 N :   -0.066087
   9 H :    0.124035
  10 H :    0.133397
  11 H :    0.128306
  12 H :    0.139293
  13 H :    0.143662
  14 H :    0.136191
  15 H :    0.130764
  16 H :    0.133157
  17 H :    0.165561
  18 H :    0.162789

  Mayer bond orders larger than 0.1
B(  0-C ,  1-C ) :   0.9036 B(  0-C ,  9-H ) :   0.9389 B(  0-C , 10-H ) :   0.9347
B(  0-C , 11-H ) :   0.9287 B(  1-C ,  2-O ) :   0.9220 B(  1-C ,  5-C ) :   0.9428
B(  1-C , 12-H ) :   0.9115 B(  2-O ,  3-C ) :   0.9157 B(  3-C ,  4-C ) :   0.9039
B(  3-C ,  5-C ) :   0.9068 B(  3-C ,  7-C ) :   0.8104 B(  4-C , 13-H ) :   0.9340
B(  4-C , 14-H ) :   0.9278 B(  4-C , 15-H ) :   0.9341 B(  5-C ,  6-N ) :   0.9693
B(  5-C , 16-H ) :   0.9123 B(  6-N ,  7-C ) :   1.1186 B(  6-N , 17-H ) :   0.8631
B(  7-C ,  8-N ) :   2.1174 B(  8-N , 18-H ) :   0.8501

MP2 TOTAL ENERGY:     -418.476104070 Eh
FINAL SINGLE POINT ENERGY      -418.476104070223

DIPOLE MOMENT
-------------
                                X             Y             Z
Electronic contribution:      2.80295       0.87558       0.99497
Nuclear contribution   :     -4.04870      -0.96649      -0.07594
                        -----------------------------------------
Total Dipole Moment    :     -1.24576      -0.09090       0.91903
                        -----------------------------------------
Magnitude (a.u.)       :      1.55073
Magnitude (Debye)      :      3.94165

                             ****ORCA TERMINATED NORMALLY****
TOTAL RUN TIME: 0 days 0 hours 17 minutes 49 seconds 956 msec
