                         Program Version 3.0.3 - RELEASE   -
|  1> ! RI-MP2 RIJK def2-TZVP def2-TZVP/C def2-TZVP/JK TIGHTSCF
|  2> % maxcore 2000
|  3> % mp2 density relaxed end
|  4> *xyz 0 1
|  5>  C        0.0036075715     1.6158399678     0.0870176700
|  6>  C       -0.0258702774     0.0865733640    -0.0217243383
|  7>  C        0.7152364522    -0.4809463442    -1.2490486897
|  8>  C        2.1887102338    -0.0492409319    -1.2759430326
|  9>  C        0.6052406316    -2.0337350469    -1.3133521069
| 10>  C       -0.8533766180    -2.5618720810    -1.2823124645
| 11>  O       -0.9240685484    -3.9647651905    -1.4065989877
| 12>  C        1.2491702424    -2.5682281770    -2.5145725626
| 13>  C        1.7079967305    -3.0354079682    -3.5250158353
| 14>  H        1.0124418131     1.9996924005     0.2614428133
| 15>  H       -0.3783488505     2.0841950214    -0.8272834897
| 16>  H       -0.6235750964     1.9533281753     0.9178950586
| 17>  H        0.4028841173    -0.3538369536     0.8895730423
| 18>  H       -1.0737846953    -0.2293953461    -0.0497808810
| 19>  H        0.2271062501    -0.0875142356    -2.1521693738
| 20>  H        2.7127141745    -0.4951272265    -2.1247870543
| 21>  H        2.2858895292     1.0361109174    -1.3575088267
| 22>  H        2.7033746759    -0.3635149219    -0.3595677631
| 23>  H        1.1196974676    -2.4530125891    -0.4366547119
| 24>  H       -1.3118622757    -2.3251118143    -0.3200140709
| 25>  H       -1.4317207575    -2.0506546440    -2.0695159035
| 26>  H       -0.4429245883    -4.2020636202    -2.2091462723
| 27>  H        2.1476164178    -3.4331467253    -4.4064056493
| 28> *
| 29>
| 30>                          ****END OF INPUT****

CARTESIAN COORDINATES (ANGSTROEM)
---------------------------------
  C      0.003608    1.615840    0.087018
  C     -0.025870    0.086573   -0.021724
  C      0.715236   -0.480946   -1.249049
  C      2.188710   -0.049241   -1.275943
  C      0.605241   -2.033735   -1.313352
  C     -0.853377   -2.561872   -1.282312
  O     -0.924069   -3.964765   -1.406599
  C      1.249170   -2.568228   -2.514573
  C      1.707997   -3.035408   -3.525016
  H      1.012442    1.999692    0.261443
  H     -0.378349    2.084195   -0.827283
  H     -0.623575    1.953328    0.917895
  H      0.402884   -0.353837    0.889573
  H     -1.073785   -0.229395   -0.049781
  H      0.227106   -0.087514   -2.152169
  H      2.712714   -0.495127   -2.124787
  H      2.285890    1.036111   -1.357509
  H      2.703375   -0.363515   -0.359568
  H      1.119697   -2.453013   -0.436655
  H     -1.311862   -2.325112   -0.320014
  H     -1.431721   -2.050655   -2.069516
  H     -0.442925   -4.202064   -2.209146
  H      2.147616   -3.433147   -4.406406

 Total Charge           Charge          ....    0
 Multiplicity           Mult            ....    1
 Number of Electrons    NEL             ....   70
 Basis Dimension        Dim             ....  363

ORBITAL ENERGIES
----------------

  NO   OCC          E(Eh)            E(eV)
   0   2.0000     -20.551515      -559.2352
   1   2.0000     -11.280399      -306.9553
   2   2.0000     -11.257715      -306.3380
   3   2.0000     -11.241309      -305.8916
   4   2.0000     -11.240754      -305.8765
   5   2.0000     -11.228880      -305.5534
   6   2.0000     -11.227197      -305.5076
   7   2.0000     -11.218278      -305.2649
   8   2.0000     -11.214545      -305.1633
   9   2.0000      -1.360312       -37.0160
  10   2.0000      -1.121905       -30.5286
  11   2.0000      -1.051385       -28.6096
  12   2.0000      -0.997502       -27.1434
  13   2.0000      -0.972010       -26.4497
  14   2.0000      -0.878858       -23.9149
  15   2.0000      -0.865820       -23.5602
  16   2.0000      -0.778286       -21.1782
  17   2.0000      -0.725719       -19.7478
  18   2.0000      -0.696846       -18.9621
  19   2.0000      -0.654994       -17.8233
  20   2.0000      -0.637906       -17.3583
  21   2.0000      -0.631893       -17.1947
  22   2.0000      -0.585635       -15.9359
  23   2.0000      -0.581740       -15.8299
  24   2.0000      -0.558605       -15.2004
  25   2.0000      -0.542380       -14.7589
  26   2.0000      -0.537983       -14.6393
  27   2.0000      -0.513166       -13.9639
  28   2.0000      -0.506091       -13.7714
  29   2.0000      -0.476488       -12.9659
  30   2.0000      -0.468220       -12.7409
  31   2.0000      -0.462232       -12.5780
  32   2.0000      -0.444221       -12.0879
  33   2.0000      -0.392969       -10.6932
  34   2.0000      -0.390347       -10.6219
  35   0.0000       0.132051         3.5933
  36   0.0000       0.148776         4.0484
  37   0.0000       0.153069         4.1652
  38   0.0000       0.157344         4.2815
  39   0.0000       0.169384         4.6092

MULLIKEN ATOMIC CHARGES
-----------------------
   0 C :   -0.411738
   1 C :   -0.204991
   2 C :   -0.066012
   3 C :   -0.431030
   4 C :   -0.100740
   5 C :   -0.025801
   6 O :   -0.469266
   7 C :   -0.119750
   8 C :   -0.155789
   9 H :    0.134543
  10 H :    0.126310
  11 H :    0.138688
  12 H :    0.112358
  13 H :    0.116564
  14 H :    0.093085
  15 H :    0.155973
  16 H :    0.138904
  17 H :    0.122885
  18 H :    0.106913
  19 H :    0.122160
  20 H :    0.100307
  21 H :    0.324410
  22 H :    0.192015
Sum of atomic charges:    0.0000000

LOEWDIN ATOMIC CHARGES
----------------------
   0 C :   -0.316830
   1 C :   -0.271488
   2 C :   -0.248065
   3 C :   -0.285297
   4 C :   -0.230794
   5 C :   -0.315695
   6 O :   -0.035035
   7 C :   -0.101289
   8 C :   -0.106043
   9 H :    0.120109
  10 H :    0.122473
  11 H :    0.122523
  12 H :    0.139211
  13 H :    0.138450
  14 H :    0.156341
  15 H :    0.131067
  16 H :    0.123446
  17 H :    0.125613
  18 H :    0.173266
  19 H :    0.129511
  20 H :    0.121779
  21 H :    0.178840
  22 H :    0.127906

  Mayer bond orders larger than 0.1
B(  0-C ,  1-C ) :   0.9148 B(  0-C ,  9-H ) :   0.9438 B(  0-C , 10-H ) :   0.9372
B(  0-C , 11-H ) :   0.9413 B(  1-C ,  2-C ) :   0.9131 B(  1-C , 12-H ) :   0.9218
B(  1-C , 13-H ) :   0.9390 B(  2-C ,  3-C ) :   0.9023 B(  2-C ,  4-C ) :   0.9304
B(  2-C , 14-H ) :   0.9121 B(  3-C , 15-H ) :   0.9370 B(  3-C , 16-H ) :   0.9408
B(  3-C , 17-H ) :   0.9293 B(  4-C ,  5-C ) :   0.8787 B(  4-C ,  7-C ) :   1.1078
B(  4-C , 18-H ) :   0.8905 B(  5-C ,  6-O ) :   0.9551 B(  5-C , 19-H ) :   0.9287
B(  5-C , 20-H ) :   0.9194 B(  6-O , 21-H ) :   0.8329 B(  7-C ,  8-C ) :   2.6156
B(  8-C , 22-H ) :   0.8919

MP2 TOTAL ENERGY:     -387.583167962 Eh
FINAL SINGLE POINT ENERGY      -387.583167962263

DIPOLE MOMENT
-------------
                                X             Y             Z
Electronic contribution:     -0.37420      -9.81840      -4.56470
Nuclear contribution   :      0.65332      10.41609       4.34184
                        -----------------------------------------
Total Dipole Moment    :      0.27912       0.59769      -0.22285
                        -----------------------------------------
Magnitude (a.u.)       :      0.69628
Magnitude (Debye)      :      1.76980

                             ****ORCA TERMINATED NORMALLY****
TOTAL RUN TIME: 0 days 0 hours 20 minutes 26 seconds 411 msec
