                         Program Version 3.0.3 - RELEASE   -
|  1> ! RI-MP2 RIJK def2-TZVP def2-TZVP/C def2-TZVP/JK TIGHTSCF
|  2> % maxcore 2000
|  3> % mp2 density relaxed end
|  4> *xyz 0 1
|  5>  C        0.1718029663     1.3825124693    -0.2819100767
|  6>  C       -0.0406933243    -0.1027968611    -0.0380028381
|  7>  O        0.8064045827    -0.9090896820    -0.9547825429
|  8>  C        1.6082701290    -1.3524742547     0.0634726433
|  9>  O        2.6198100976    -1.9726271183    -0.0205320458
| 10>  C        0.7560304136    -0.7144501083     1.1756057604
| 11>  N        1.3335200225     0.1658305639     2.1522376650
| 12>  C       -1.4331142459    -0.4993048912    -0.1354231056
| 13>  C       -2.5907717566    -0.8177960502    -0.1846535937
| 14>  H        1.2372868464     1.6255935290    -0.2608232478
| 15>  H       -0.2325121552     1.6662183365    -1.2561796692
| 16>  H       -0.3327953218     1.9592418578     0.4966955780
| 17>  H        0.1502195894    -1.4753950030     1.6719340230
| 18>  H        1.4954622593    -0.3135669071     3.0286788898
| 19>  H        2.2214819560     0.5460424944     1.8451815843
| 20>  H       -3.6131540190    -1.1015247951    -0.2387420239
| 21> *
| 22>
| 23>                          ****END OF INPUT****

CARTESIAN COORDINATES (ANGSTROEM)
---------------------------------
  C      0.171803    1.382512   -0.281910
  C     -0.040693   -0.102797   -0.038003
  O      0.806405   -0.909090   -0.954783
  C      1.608270   -1.352474    0.063473
  O      2.619810   -1.972627   -0.020532
  C      0.756030   -0.714450    1.175606
  N      1.333520    0.165831    2.152238
  C     -1.433114   -0.499305   -0.135423
  C     -2.590772   -0.817796   -0.184654
  H      1.237287    1.625594   -0.260823
  H     -0.232512    1.666218   -1.256180
  H     -0.332795    1.959242    0.496696
  H      0.150220   -1.475395    1.671934
  H      1.495462   -0.313567    3.028679
  H      2.221482    0.546042    1.845182
  H     -3.613154   -1.101525   -0.238742

 Total Charge           Charge          ....    0
 Multiplicity           Mult            ....    1
 Number of Electrons    NEL             ....   66
 Basis Dimension        Dim             ....  321

ORBITAL ENERGIES
----------------

  NO   OCC          E(Eh)            E(eV)
   0   2.0000     -20.607515      -560.7590
   1   2.0000     -20.559317      -559.4475
   2   2.0000     -15.578643      -423.9164
   3   2.0000     -11.385568      -309.8170
   4   2.0000     -11.343273      -308.6661
   5   2.0000     -11.305680      -307.6432
   6   2.0000     -11.251890      -306.1795
   7   2.0000     -11.247683      -306.0650
   8   2.0000     -11.242277      -305.9179
   9   2.0000      -1.469399       -39.9844
  10   2.0000      -1.385185       -37.6928
  11   2.0000      -1.222356       -33.2620
  12   2.0000      -1.094290       -29.7771
  13   2.0000      -1.020173       -27.7603
  14   2.0000      -0.984104       -26.7788
  15   2.0000      -0.884570       -24.0704
  16   2.0000      -0.768769       -20.9193
  17   2.0000      -0.758677       -20.6446
  18   2.0000      -0.714835       -19.4516
  19   2.0000      -0.705557       -19.1992
  20   2.0000      -0.687522       -18.7084
  21   2.0000      -0.666928       -18.1480
  22   2.0000      -0.617636       -16.8067
  23   2.0000      -0.590825       -16.0772
  24   2.0000      -0.586562       -15.9612
  25   2.0000      -0.572833       -15.5876
  26   2.0000      -0.551082       -14.9957
  27   2.0000      -0.514688       -14.0054
  28   2.0000      -0.481836       -13.1114
  29   2.0000      -0.468406       -12.7460
  30   2.0000      -0.433323       -11.7913
  31   2.0000      -0.414742       -11.2857
  32   2.0000      -0.392725       -10.6866
  33   0.0000       0.109278         2.9736
  34   0.0000       0.143178         3.8961
  35   0.0000       0.150534         4.0962
  36   0.0000       0.154453         4.2029
  37   0.0000       0.164433         4.4745

MULLIKEN ATOMIC CHARGES
-----------------------
   0 C :   -0.381406
   1 C :    0.168767
   2 O :   -0.232265
   3 C :    0.216396
   4 O :   -0.257924
   5 C :   -0.108341
   6 N :   -0.528574
   7 C :   -0.060011
   8 C :   -0.099677
   9 H :    0.129535
  10 H :    0.153569
  11 H :    0.151113
  12 H :    0.147854
  13 H :    0.252542
  14 H :    0.247769
  15 H :    0.200651
Sum of atomic charges:   -0.0000000

LOEWDIN ATOMIC CHARGES
----------------------
   0 C :   -0.244466
   1 C :   -0.278829
   2 O :    0.278493
   3 C :   -0.452680
   4 O :    0.154377
   5 C :   -0.243452
   6 N :   -0.119843
   7 C :   -0.065853
   8 C :   -0.063424
   9 H :    0.130589
  10 H :    0.137843
  11 H :    0.141574
  12 H :    0.164535
  13 H :    0.165474
  14 H :    0.164736
  15 H :    0.130925

  Mayer bond orders larger than 0.1
B(  0-C ,  1-C ) :   0.9353 B(  0-C ,  9-H ) :   0.9227 B(  0-C , 10-H ) :   0.9286
B(  0-C , 11-H ) :   0.9205 B(  1-C ,  2-O ) :   0.9214 B(  1-C ,  5-C ) :   0.7875
B(  1-C ,  6-N ) :  -0.1172 B(  1-C ,  7-C ) :   1.1770 B(  1-C ,  8-C ) :  -0.1167
B(  2-O ,  3-C ) :   1.1011 B(  3-C ,  4-O ) :   2.0673 B(  3-C ,  5-C ) :   0.9690
B(  5-C ,  6-N ) :   1.0787 B(  5-C , 12-H ) :   0.9063 B(  6-N , 13-H ) :   0.8864
B(  6-N , 14-H ) :   0.8821 B(  7-C ,  8-C ) :   2.5777 B(  8-C , 15-H ) :   0.8814

MP2 TOTAL ENERGY:     -437.145249706 Eh
FINAL SINGLE POINT ENERGY      -437.145249705722

DIPOLE MOMENT
-------------
                                X             Y             Z
Electronic contribution:      1.33072      -5.51503      -2.62989
Nuclear contribution   :     -2.03175       6.17438       3.52914
                        -----------------------------------------
Total Dipole Moment    :     -0.70103       0.65935       0.89925
                        -----------------------------------------
Magnitude (a.u.)       :      1.31713
Magnitude (Debye)      :      3.34787

                             ****ORCA TERMINATED NORMALLY****
TOTAL RUN TIME: 0 days 0 hours 16 minutes 21 seconds 854 msec
