                         Program Version 3.0.3 - RELEASE   -
|  1> ! RI-MP2 RIJK def2-TZVP def2-TZVP/C def2-TZVP/JK TIGHTSCF
|  2> % maxcore 2000
|  3> % mp2 density relaxed end
|  4> *xyz 0 1
|  5>  C       -0.2171624773     1.4613975562     0.0530789831
|  6>  C       -0.0969550308    -0.0262392372    -0.0313667522
|  7>  C       -0.1736200725    -0.8050546611    -1.1158351824
|  8>  C        0.0360578712    -2.2702080423    -0.8120549915
|  9>  O        1.2534350629    -2.7662121525    -1.3728551729
| 10>  C       -0.0067920049    -2.3226030357     0.7382030894
| 11>  C        0.1078719617    -0.8686426774     1.1901488718
| 12>  C        0.8564775944    -0.4154814617     2.3761181571
| 13>  O       -0.5696963701    -0.4759129028     2.3953451469
| 14>  H        0.7371704572     1.9238784920     0.3346491064
| 15>  H       -0.5307508763     1.8930414849    -0.9001493222
| 16>  H       -0.9429154366     1.7381799070     0.8251576699
| 17>  H       -0.3093314972    -0.4492123800    -2.1316956327
| 18>  H       -0.7355939531    -2.9061865721    -1.2570792706
| 19>  H        1.9446116320    -2.1278700695    -1.1635752625
| 20>  H       -0.9643345523    -2.7181296438     1.0902826394
| 21>  H        0.7847577491    -2.9695592164     1.1233354648
| 22>  H        1.3658257103    -1.1557783090     2.9928830842
| 23>  H        1.2834802222     0.5862174512     2.4131960142
| 24> *
| 25>
| 26>                          ****END OF INPUT****

CARTESIAN COORDINATES (ANGSTROEM)
---------------------------------
  C     -0.217162    1.461398    0.053079
  C     -0.096955   -0.026239   -0.031367
  C     -0.173620   -0.805055   -1.115835
  C      0.036058   -2.270208   -0.812055
  O      1.253435   -2.766212   -1.372855
  C     -0.006792   -2.322603    0.738203
  C      0.107872   -0.868643    1.190149
  C      0.856478   -0.415481    2.376118
  O     -0.569696   -0.475913    2.395345
  H      0.737170    1.923878    0.334649
  H     -0.530751    1.893041   -0.900149
  H     -0.942915    1.738180    0.825158
  H     -0.309331   -0.449212   -2.131696
  H     -0.735594   -2.906187   -1.257079
  H      1.944612   -2.127870   -1.163575
  H     -0.964335   -2.718130    1.090283
  H      0.784758   -2.969559    1.123335
  H      1.365826   -1.155778    2.992883
  H      1.283480    0.586217    2.413196

 Total Charge           Charge          ....    0
 Multiplicity           Mult            ....    1
 Number of Electrons    NEL             ....   68
 Basis Dimension        Dim             ....  339

ORBITAL ENERGIES
----------------

  NO   OCC          E(Eh)            E(eV)
   0   2.0000     -20.570586      -559.7541
   1   2.0000     -20.555584      -559.3459
   2   2.0000     -11.298235      -307.4406
   3   2.0000     -11.287807      -307.1569
   4   2.0000     -11.286700      -307.1267
   5   2.0000     -11.249744      -306.1211
   6   2.0000     -11.231406      -305.6221
   7   2.0000     -11.230869      -305.6075
   8   2.0000     -11.228576      -305.5451
   9   2.0000      -1.414405       -38.4879
  10   2.0000      -1.360739       -37.0276
  11   2.0000      -1.136262       -30.9193
  12   2.0000      -1.021339       -27.7921
  13   2.0000      -0.953796       -25.9541
  14   2.0000      -0.919314       -25.0158
  15   2.0000      -0.890034       -24.2191
  16   2.0000      -0.799335       -21.7510
  17   2.0000      -0.735659       -20.0183
  18   2.0000      -0.699369       -19.0308
  19   2.0000      -0.670067       -18.2335
  20   2.0000      -0.646262       -17.5857
  21   2.0000      -0.626532       -17.0488
  22   2.0000      -0.602654       -16.3990
  23   2.0000      -0.580935       -15.8080
  24   2.0000      -0.568986       -15.4829
  25   2.0000      -0.561431       -15.2773
  26   2.0000      -0.546993       -14.8844
  27   2.0000      -0.529155       -14.3990
  28   2.0000      -0.500083       -13.6079
  29   2.0000      -0.491045       -13.3620
  30   2.0000      -0.454497       -12.3675
  31   2.0000      -0.452168       -12.3041
  32   2.0000      -0.431720       -11.7477
  33   2.0000      -0.354887        -9.6570
  34   0.0000       0.131385         3.5752
  35   0.0000       0.139879         3.8063
  36   0.0000       0.154049         4.1919
  37   0.0000       0.167341         4.5536
  38   0.0000       0.171089         4.6556

MULLIKEN ATOMIC CHARGES
-----------------------
   0 C :   -0.447603
   1 C :    0.008598
   2 C :   -0.232636
   3 C :    0.130781
   4 O :   -0.462256
   5 C :   -0.257493
   6 C :    0.188870
   7 C :   -0.094963
   8 O :   -0.336795
   9 H :    0.137867
  10 H :    0.144677
  11 H :    0.168410
  12 H :    0.132013
  13 H :    0.108081
  14 H :    0.308140
  15 H :    0.130003
  16 H :    0.137903
  17 H :    0.118368
  18 H :    0.118035
Sum of atomic charges:    0.0000000

LOEWDIN ATOMIC CHARGES
----------------------
   0 C :   -0.264277
   1 C :   -0.148286
   2 C :   -0.116191
   3 C :   -0.311005
   4 O :   -0.029115
   5 C :   -0.181315
   6 C :   -0.275769
   7 C :   -0.241635
   8 O :    0.165714
   9 H :    0.133016
  10 H :    0.132893
  11 H :    0.140973
  12 H :    0.141503
  13 H :    0.143682
  14 H :    0.172699
  15 H :    0.151471
  16 H :    0.143744
  17 H :    0.122041
  18 H :    0.119855

  Mayer bond orders larger than 0.1
B(  0-C ,  1-C ) :   0.8847 B(  0-C ,  9-H ) :   0.9218 B(  0-C , 10-H ) :   0.9459
B(  0-C , 11-H ) :   0.9382 B(  1-C ,  2-C ) :   1.6862 B(  1-C ,  6-C ) :   0.9250
B(  2-C ,  3-C ) :   0.9569 B(  2-C , 12-H ) :   0.9333 B(  3-C ,  4-O ) :   0.9269
B(  3-C ,  5-C ) :   0.9201 B(  3-C , 13-H ) :   0.9414 B(  4-O , 14-H ) :   0.8430
B(  5-C ,  6-C ) :   0.8943 B(  5-C , 15-H ) :   0.9090 B(  5-C , 16-H ) :   0.9336
B(  6-C ,  7-C ) :   0.9581 B(  6-C ,  8-O ) :   0.8726 B(  7-C ,  8-O ) :   0.8868
B(  7-C , 17-H ) :   0.9086 B(  7-C , 18-H ) :   0.9141

MP2 TOTAL ENERGY:     -422.312602880 Eh
FINAL SINGLE POINT ENERGY      -422.312602880263

DIPOLE MOMENT
-------------
                                X             Y             Z
Electronic contribution:     -0.53907      -2.58981       0.48068
Nuclear contribution   :      1.01290       3.18516      -0.48310
                        -----------------------------------------
Total Dipole Moment    :      0.47384       0.59535      -0.00242
                        -----------------------------------------
Magnitude (a.u.)       :      0.76090
Magnitude (Debye)      :      1.93405

                             ****ORCA TERMINATED NORMALLY****
TOTAL RUN TIME: 0 days 0 hours 20 minutes 53 seconds 389 msec
