                         Program Version 3.0.3 - RELEASE   -
|  1> ! RI-MP2 RIJK def2-TZVP def2-TZVP/C def2-TZVP/JK TIGHTSCF
|  2> % maxcore 2000
|  3> % mp2 density relaxed end
|  4> *xyz 0 1
|  5>  C        0.3307402016     1.4861178131    -0.2668635217
|  6>  C       -0.0096201855     0.0108340150     0.0120447743
|  7>  C       -1.5264524530    -0.1615072973     0.1332838509
|  8>  C        0.6018136317    -0.8744543400    -1.0902500947
|  9>  O        1.9918841517    -0.9762377526    -0.7874277119
| 10>  C        2.1746682436    -0.8021392648     0.6112293911
| 11>  C        0.7862881108    -0.5432769384     1.2360197890
| 12>  C        0.8334969658     0.3382837707     2.4822253477
| 13>  O        0.1638046235    -1.7943923738     1.5595000849
| 14>  H        1.4055672930     1.6439864426    -0.3938703591
| 15>  H       -0.1595600144     1.8066724028    -1.1919637475
| 16>  H       -0.0221154522     2.1418145628     0.5345084762
| 17>  H       -2.0170268462     0.1465047329    -0.7967977107
| 18>  H       -1.7950369568    -1.1973171214     0.3427801557
| 19>  H       -1.9319629834     0.4637569592     0.9361608544
| 20>  H        0.1329641084    -1.8679066085    -1.0915264235
| 21>  H        0.5063719453    -0.4376587011    -2.0897558607
| 22>  H        2.6259341406    -1.7034722876     1.0510539634
| 23>  H        2.8647224785     0.0350949673     0.7830227769
| 24>  H        1.2972250764     1.3081983155     2.2881776480
| 25>  H       -0.1748701791     0.5009178999     2.8733260472
| 26>  H        1.4187017971    -0.1538024770     3.2690046502
| 27>  H        0.7042598226    -2.2268051992     2.2285905799
| 28> *
| 29>
| 30>                          ****END OF INPUT****

CARTESIAN COORDINATES (ANGSTROEM)
---------------------------------
  C      0.330740    1.486118   -0.266864
  C     -0.009620    0.010834    0.012045
  C     -1.526452   -0.161507    0.133284
  C      0.601814   -0.874454   -1.090250
  O      1.991884   -0.976238   -0.787428
  C      2.174668   -0.802139    0.611229
  C      0.786288   -0.543277    1.236020
  C      0.833497    0.338284    2.482225
  O      0.163805   -1.794392    1.559500
  H      1.405567    1.643986   -0.393870
  H     -0.159560    1.806672   -1.191964
  H     -0.022115    2.141815    0.534508
  H     -2.017027    0.146505   -0.796798
  H     -1.795037   -1.197317    0.342780
  H     -1.931963    0.463757    0.936161
  H      0.132964   -1.867907   -1.091526
  H      0.506372   -0.437659   -2.089756
  H      2.625934   -1.703472    1.051054
  H      2.864722    0.035095    0.783023
  H      1.297225    1.308198    2.288178
  H     -0.174870    0.500918    2.873326
  H      1.418702   -0.153802    3.269005
  H      0.704260   -2.226805    2.228591

 Total Charge           Charge          ....    0
 Multiplicity           Mult            ....    1
 Number of Electrons    NEL             ....   72
 Basis Dimension        Dim             ....  363

ORBITAL ENERGIES
----------------

  NO   OCC          E(Eh)            E(eV)
   0   2.0000     -20.556170      -559.3618
   1   2.0000     -20.545231      -559.0642
   2   2.0000     -11.289723      -307.2090
   3   2.0000     -11.271053      -306.7009
   4   2.0000     -11.262190      -306.4598
   5   2.0000     -11.236019      -305.7476
   6   2.0000     -11.224566      -305.4360
   7   2.0000     -11.215371      -305.1858
   8   2.0000     -11.208925      -305.0104
   9   2.0000      -1.381289       -37.5868
  10   2.0000      -1.353602       -36.8334
  11   2.0000      -1.096760       -29.8444
  12   2.0000      -1.024463       -27.8770
  13   2.0000      -0.941723       -25.6256
  14   2.0000      -0.931495       -25.3473
  15   2.0000      -0.909647       -24.7527
  16   2.0000      -0.810271       -22.0486
  17   2.0000      -0.735719       -20.0199
  18   2.0000      -0.687999       -18.7214
  19   2.0000      -0.662593       -18.0301
  20   2.0000      -0.652297       -17.7499
  21   2.0000      -0.633318       -17.2335
  22   2.0000      -0.596740       -16.2381
  23   2.0000      -0.579927       -15.7806
  24   2.0000      -0.568520       -15.4702
  25   2.0000      -0.561821       -15.2879
  26   2.0000      -0.547096       -14.8872
  27   2.0000      -0.536465       -14.5980
  28   2.0000      -0.532377       -14.4867
  29   2.0000      -0.522361       -14.2142
  30   2.0000      -0.511501       -13.9187
  31   2.0000      -0.467685       -12.7263
  32   2.0000      -0.463602       -12.6153
  33   2.0000      -0.447609       -12.1801
  34   2.0000      -0.424438       -11.5496
  35   2.0000      -0.406253       -11.0547
  36   0.0000       0.122776         3.3409
  37   0.0000       0.150771         4.1027
  38   0.0000       0.169184         4.6037
  39   0.0000       0.173338         4.7168
  40   0.0000       0.194633         5.2962

MULLIKEN ATOMIC CHARGES
-----------------------
   0 C :   -0.479657
   1 C :    0.120081
   2 C :   -0.432488
   3 C :   -0.031804
   4 O :   -0.326805
   5 C :   -0.038438
   6 C :    0.165123
   7 C :   -0.458990
   8 O :   -0.470688
   9 H :    0.151973
  10 H :    0.137101
  11 H :    0.137397
  12 H :    0.132574
  13 H :    0.159538
  14 H :    0.124417
  15 H :    0.098722
  16 H :    0.102676
  17 H :    0.082032
  18 H :    0.095201
  19 H :    0.139962
  20 H :    0.151314
  21 H :    0.127589
  22 H :    0.313170
Sum of atomic charges:   -0.0000000

LOEWDIN ATOMIC CHARGES
----------------------
   0 C :   -0.263128
   1 C :   -0.289027
   2 C :   -0.266668
   3 C :   -0.260368
   4 O :    0.145423
   5 C :   -0.273402
   6 C :   -0.357592
   7 C :   -0.276690
   8 O :    0.012822
   9 H :    0.131284
  10 H :    0.128748
  11 H :    0.125243
  12 H :    0.127237
  13 H :    0.131636
  14 H :    0.125861
  15 H :    0.126787
  16 H :    0.127779
  17 H :    0.121976
  18 H :    0.124402
  19 H :    0.129043
  20 H :    0.130719
  21 H :    0.125850
  22 H :    0.172067

  Mayer bond orders larger than 0.1
B(  0-C ,  1-C ) :   0.8775 B(  0-C ,  9-H ) :   0.9333 B(  0-C , 10-H ) :   0.9366
B(  0-C , 11-H ) :   0.9374 B(  1-C ,  2-C ) :   0.9081 B(  1-C ,  3-C ) :   0.9417
B(  1-C ,  6-C ) :   0.8338 B(  2-C , 12-H ) :   0.9379 B(  2-C , 13-H ) :   0.9309
B(  2-C , 14-H ) :   0.9326 B(  3-C ,  4-O ) :   0.9436 B(  3-C , 15-H ) :   0.9168
B(  3-C , 16-H ) :   0.9142 B(  4-O ,  5-C ) :   0.9742 B(  5-C ,  6-C ) :   0.9720
B(  5-C , 17-H ) :   0.8975 B(  5-C , 18-H ) :   0.9162 B(  6-C ,  7-C ) :   0.9051
B(  6-C ,  8-O ) :   0.9140 B(  7-C , 19-H ) :   0.9342 B(  7-C , 20-H ) :   0.9458
B(  7-C , 21-H ) :   0.9241 B(  8-O , 22-H ) :   0.8417

MP2 TOTAL ENERGY:     -424.743781265 Eh
FINAL SINGLE POINT ENERGY      -424.743781265083

DIPOLE MOMENT
-------------
                                X             Y             Z
Electronic contribution:      3.24746      -5.14510      -1.59757
Nuclear contribution   :     -3.27079       5.48920       2.28703
                        -----------------------------------------
Total Dipole Moment    :     -0.02333       0.34411       0.68945
                        -----------------------------------------
Magnitude (a.u.)       :      0.77091
Magnitude (Debye)      :      1.95949

                             ****ORCA TERMINATED NORMALLY****
TOTAL RUN TIME: 0 days 0 hours 22 minutes 22 seconds 758 msec
