                         Program Version 3.0.3 - RELEASE   -
|  1> ! RI-MP2 RIJK def2-TZVP def2-TZVP/C def2-TZVP/JK TIGHTSCF
|  2> % maxcore 2000
|  3> % mp2 density relaxed end
|  4> *xyz 0 1
|  5>  O        0.4160819958     1.0297161032     0.5803560541
|  6>  C        0.0977435375    -0.1009538465    -0.2114708452
|  7>  C       -1.3640625000    -0.5116726404    -0.0905241563
|  8>  C       -2.3483054140     0.2306997679    -0.9953878137
|  9>  C       -2.2352337890     1.6863782318    -0.9158277537
| 10>  C       -2.1208709826     2.8831962467    -0.8593595979
| 11>  C       -1.6770850397    -1.9074394118     0.3134545544
| 12>  N       -1.8709131951    -0.7943557914     1.2568592952
| 13>  H       -0.1497306439     1.7541654271     0.2845264544
| 14>  H        0.3498629327     0.0625426218    -1.2716770229
| 15>  H        0.7403203069    -0.9088137199     0.1543705211
| 16>  H       -2.1893219420    -0.0825752622    -2.0359324477
| 17>  H       -3.3650691982    -0.0695535865    -0.7212021031
| 18>  H       -2.0513298740     3.9422225549    -0.8130772033
| 19>  H       -2.5947654708    -2.3814461962    -0.0261001851
| 20>  H       -0.8466514776    -2.5927854467     0.4630126690
| 21>  H       -1.1037306661    -0.7377464919     1.9231096206
| 22> *
| 23>
| 24>                          ****END OF INPUT****

CARTESIAN COORDINATES (ANGSTROEM)
---------------------------------
  O      0.416082    1.029716    0.580356
  C      0.097744   -0.100954   -0.211471
  C     -1.364062   -0.511673   -0.090524
  C     -2.348305    0.230700   -0.995388
  C     -2.235234    1.686378   -0.915828
  C     -2.120871    2.883196   -0.859360
  C     -1.677085   -1.907439    0.313455
  N     -1.870913   -0.794356    1.256859
  H     -0.149731    1.754165    0.284526
  H      0.349863    0.062543   -1.271677
  H      0.740320   -0.908814    0.154371
  H     -2.189322   -0.082575   -2.035932
  H     -3.365069   -0.069554   -0.721202
  H     -2.051330    3.942223   -0.813077
  H     -2.594765   -2.381446   -0.026100
  H     -0.846651   -2.592785    0.463013
  H     -1.103731   -0.737746    1.923110

 Total Charge           Charge          ....    0
 Multiplicity           Mult            ....    1
 Number of Electrons    NEL             ....   60
 Basis Dimension        Dim             ....  302

ORBITAL ENERGIES
----------------

  NO   OCC          E(Eh)            E(eV)
   0   2.0000     -20.551896      -559.2455
   1   2.0000     -15.561270      -423.4437
   2   2.0000     -11.284688      -307.0720
   3   2.0000     -11.276620      -306.8524
   4   2.0000     -11.263896      -306.5062
   5   2.0000     -11.263071      -306.4837
   6   2.0000     -11.247915      -306.0713
   7   2.0000     -11.233431      -305.6772
   8   2.0000      -1.361050       -37.0361
   9   2.0000      -1.271581       -34.6015
  10   2.0000      -1.080124       -29.3917
  11   2.0000      -0.999012       -27.1845
  12   2.0000      -0.945034       -25.7157
  13   2.0000      -0.889389       -24.2015
  14   2.0000      -0.793044       -21.5798
  15   2.0000      -0.731307       -19.8999
  16   2.0000      -0.710103       -19.3229
  17   2.0000      -0.677251       -18.4289
  18   2.0000      -0.643297       -17.5050
  19   2.0000      -0.638712       -17.3802
  20   2.0000      -0.604302       -16.4439
  21   2.0000      -0.584535       -15.9060
  22   2.0000      -0.570224       -15.5166
  23   2.0000      -0.506354       -13.7786
  24   2.0000      -0.492510       -13.4019
  25   2.0000      -0.472414       -12.8550
  26   2.0000      -0.442926       -12.0526
  27   2.0000      -0.411802       -11.2057
  28   2.0000      -0.398058       -10.8317
  29   2.0000      -0.386037       -10.5046
  30   0.0000       0.132259         3.5990
  31   0.0000       0.151977         4.1355
  32   0.0000       0.159322         4.3354
  33   0.0000       0.163474         4.4483
  34   0.0000       0.174817         4.7570

MULLIKEN ATOMIC CHARGES
-----------------------
   0 O :   -0.467474
   1 C :   -0.000395
   2 C :    0.051888
   3 C :   -0.309883
   4 C :   -0.056860
   5 C :   -0.164432
   6 C :   -0.199186
   7 N :   -0.365582
   8 H :    0.325896
   9 H :    0.106534
  10 H :    0.105888
  11 H :    0.145221
  12 H :    0.156540
  13 H :    0.196143
  14 H :    0.119176
  15 H :    0.128907
  16 H :    0.227617
Sum of atomic charges:    0.0000000

LOEWDIN ATOMIC CHARGES
----------------------
   0 O :   -0.040468
   1 C :   -0.311961
   2 C :   -0.317975
   3 C :   -0.207424
   4 C :   -0.107335
   5 C :   -0.108793
   6 C :   -0.242880
   7 N :    0.015829
   8 H :    0.176708
   9 H :    0.127517
  10 H :    0.133280
  11 H :    0.162828
  12 H :    0.169148
  13 H :    0.129160
  14 H :    0.126496
  15 H :    0.123315
  16 H :    0.172556

  Mayer bond orders larger than 0.1
B(  0-O ,  1-C ) :   0.9272 B(  0-O ,  8-H ) :   0.8328 B(  1-C ,  2-C ) :   0.9557
B(  1-C ,  9-H ) :   0.9245 B(  1-C , 10-H ) :   0.9178 B(  2-C ,  3-C ) :   0.8879
B(  2-C ,  6-C ) :   0.9348 B(  2-C ,  7-N ) :   0.8911 B(  3-C ,  4-C ) :   1.1229
B(  3-C , 11-H ) :   0.9375 B(  3-C , 12-H ) :   0.9126 B(  4-C ,  5-C ) :   2.5744
B(  5-C , 13-H ) :   0.9033 B(  6-C ,  7-N ) :   0.9517 B(  6-C , 14-H ) :   0.9092
B(  6-C , 15-H ) :   0.9082 B(  7-N , 16-H ) :   0.8698

MP2 TOTAL ENERGY:     -363.174838441 Eh
FINAL SINGLE POINT ENERGY      -363.174838440761

DIPOLE MOMENT
-------------
                                X             Y             Z
Electronic contribution:     -0.64568       2.99389       0.59740
Nuclear contribution   :      0.65227      -3.35550      -1.26840
                        -----------------------------------------
Total Dipole Moment    :      0.00659      -0.36161      -0.67100
                        -----------------------------------------
Magnitude (a.u.)       :      0.76227
Magnitude (Debye)      :      1.93752

                             ****ORCA TERMINATED NORMALLY****
TOTAL RUN TIME: 0 days 0 hours 12 minutes 44 seconds 267 msec
