                         Program Version 3.0.3 - RELEASE   -
|  1> ! RI-MP2 RIJK def2-TZVP def2-TZVP/C def2-TZVP/JK TIGHTSCF
|  2> % maxcore 2000
|  3> % mp2 density relaxed end
|  4> *xyz 0 1
|  5>  O       -0.1099052032     1.3842365530     0.0453228794
|  6>  C       -0.0705822342    -0.0067357812     0.0065573483
|  7>  C       -0.4974275504    -0.7681744661    -1.2198885050
|  8>  C       -1.3386577497    -0.8152133190     0.0456418204
|  9>  C       -1.0564333150    -1.9499599018     0.9830622833
| 10>  C       -1.9068031281    -2.2288885453     2.1941060414
| 11>  C       -1.7990798812    -3.2406559522     1.0609327383
| 12>  O        0.3524368177    -2.0363175000     1.1089668309
| 13>  C        0.8858086282    -0.7244314242     0.9519937956
| 14>  H        0.5811224079     1.7193873453    -0.5360200870
| 15>  H       -0.8998501316    -0.1730817823    -2.0323211547
| 16>  H        0.0545178723    -1.6552114059    -1.5145085433
| 17>  H       -2.3062620353    -0.3299056852     0.0591604291
| 18>  H       -1.3842666449    -2.4612556704     3.1151672477
| 19>  H       -2.8377434995    -1.6853613385     2.3191560450
| 20>  H       -2.6533226204    -3.3840659303     0.4082239474
| 21>  H       -1.2113249251    -4.1328969829     1.2457971932
| 22>  H        1.9091030196    -0.8320726640     0.5757554946
| 23>  H        0.9128329930    -0.1726256089     1.9044121054
| 24> *
| 25>
| 26>                          ****END OF INPUT****

CARTESIAN COORDINATES (ANGSTROEM)
---------------------------------
  O     -0.109905    1.384237    0.045323
  C     -0.070582   -0.006736    0.006557
  C     -0.497428   -0.768174   -1.219889
  C     -1.338658   -0.815213    0.045642
  C     -1.056433   -1.949960    0.983062
  C     -1.906803   -2.228889    2.194106
  C     -1.799080   -3.240656    1.060933
  O      0.352437   -2.036318    1.108967
  C      0.885809   -0.724431    0.951994
  H      0.581122    1.719387   -0.536020
  H     -0.899850   -0.173082   -2.032321
  H      0.054518   -1.655211   -1.514509
  H     -2.306262   -0.329906    0.059160
  H     -1.384267   -2.461256    3.115167
  H     -2.837743   -1.685361    2.319156
  H     -2.653323   -3.384066    0.408224
  H     -1.211325   -4.132897    1.245797
  H      1.909103   -0.832073    0.575755
  H      0.912833   -0.172626    1.904412

 Total Charge           Charge          ....    0
 Multiplicity           Mult            ....    1
 Number of Electrons    NEL             ....   68
 Basis Dimension        Dim             ....  339

ORBITAL ENERGIES
----------------

  NO   OCC          E(Eh)            E(eV)
   0   2.0000     -20.572887      -559.8167
   1   2.0000     -20.558620      -559.4285
   2   2.0000     -11.290579      -307.2323
   3   2.0000     -11.287289      -307.1428
   4   2.0000     -11.277223      -306.8688
   5   2.0000     -11.235180      -305.7248
   6   2.0000     -11.230485      -305.5970
   7   2.0000     -11.221807      -305.3609
   8   2.0000     -11.221129      -305.3424
   9   2.0000      -1.395281       -37.9675
  10   2.0000      -1.375452       -37.4280
  11   2.0000      -1.144669       -31.1480
  12   2.0000      -1.125486       -30.6260
  13   2.0000      -0.949299       -25.8317
  14   2.0000      -0.874432       -23.7945
  15   2.0000      -0.826225       -22.4827
  16   2.0000      -0.794450       -21.6181
  17   2.0000      -0.763314       -20.7708
  18   2.0000      -0.712139       -19.3783
  19   2.0000      -0.667728       -18.1698
  20   2.0000      -0.659879       -17.9562
  21   2.0000      -0.631251       -17.1772
  22   2.0000      -0.622282       -16.9331
  23   2.0000      -0.586794       -15.9675
  24   2.0000      -0.577297       -15.7090
  25   2.0000      -0.558843       -15.2069
  26   2.0000      -0.524603       -14.2752
  27   2.0000      -0.516761       -14.0618
  28   2.0000      -0.503237       -13.6938
  29   2.0000      -0.483222       -13.1491
  30   2.0000      -0.437941       -11.9170
  31   2.0000      -0.413585       -11.2542
  32   2.0000      -0.398852       -10.8533
  33   2.0000      -0.363249        -9.8845
  34   0.0000       0.135346         3.6830
  35   0.0000       0.152089         4.1386
  36   0.0000       0.171837         4.6759
  37   0.0000       0.177130         4.8200
  38   0.0000       0.181409         4.9364

MULLIKEN ATOMIC CHARGES
-----------------------
   0 O :   -0.454872
   1 C :    0.142211
   2 C :   -0.329471
   3 C :   -0.092651
   4 C :    0.180423
   5 C :   -0.302863
   6 C :   -0.279851
   7 O :   -0.311046
   8 C :   -0.028579
   9 H :    0.328841
  10 H :    0.141980
  11 H :    0.140781
  12 H :    0.141685
  13 H :    0.132503
  14 H :    0.125484
  15 H :    0.130257
  16 H :    0.132899
  17 H :    0.110768
  18 H :    0.091501
Sum of atomic charges:   -0.0000000

LOEWDIN ATOMIC CHARGES
----------------------
   0 O :    0.029177
   1 C :   -0.353644
   2 C :   -0.184539
   3 C :   -0.142977
   4 C :   -0.312010
   5 C :   -0.203847
   6 C :   -0.201619
   7 O :    0.206768
   8 C :   -0.258688
   9 H :    0.185211
  10 H :    0.139834
  11 H :    0.141293
  12 H :    0.155554
  13 H :    0.137339
  14 H :    0.131614
  15 H :    0.134762
  16 H :    0.139432
  17 H :    0.127465
  18 H :    0.128876

  Mayer bond orders larger than 0.1
B(  0-O ,  1-C ) :   1.0441 B(  0-O ,  9-H ) :   0.8369 B(  1-C ,  2-C ) :   0.9144
B(  1-C ,  3-C ) :   0.8710 B(  1-C ,  8-C ) :   0.9760 B(  2-C ,  3-C ) :   0.8624
B(  2-C , 10-H ) :   0.9276 B(  2-C , 11-H ) :   0.8951 B(  3-C ,  4-C ) :   0.9293
B(  3-C , 12-H ) :   0.8959 B(  4-C ,  5-C ) :   0.8694 B(  4-C ,  6-C ) :   0.8682
B(  4-C ,  7-O ) :   0.9684 B(  5-C ,  6-C ) :   0.9399 B(  5-C , 13-H ) :   0.9192
B(  5-C , 14-H ) :   0.9169 B(  6-C , 15-H ) :   0.9198 B(  6-C , 16-H ) :   0.9181
B(  7-O ,  8-C ) :   0.9324 B(  8-C , 17-H ) :   0.9157 B(  8-C , 18-H ) :   0.9106

MP2 TOTAL ENERGY:     -422.289784441 Eh
FINAL SINGLE POINT ENERGY      -422.289784441152

DIPOLE MOMENT
-------------
                                X             Y             Z
Electronic contribution:      1.96873       2.08675      -0.30058
Nuclear contribution   :     -1.86554      -1.82040      -0.17980
                        -----------------------------------------
Total Dipole Moment    :      0.10318       0.26634      -0.48037
                        -----------------------------------------
Magnitude (a.u.)       :      0.55888
Magnitude (Debye)      :      1.42055

                             ****ORCA TERMINATED NORMALLY****
TOTAL RUN TIME: 0 days 0 hours 16 minutes 46 seconds 218 msec
