                         Program Version 3.0.3 - RELEASE   -
|  1> ! RI-MP2 RIJK def2-TZVP def2-TZVP/C def2-TZVP/JK TIGHTSCF
|  2> % maxcore 2000
|  3> % mp2 density relaxed end
|  4> *xyz 0 1
|  5>  C        0.0583480258     1.4329699889    -0.2382151292
|  6>  C       -0.0744378943    -0.0812014768    -0.0356009843
|  7>  C        0.6980456279    -0.5585141046     1.1999402707
|  8>  C       -1.5415026467    -0.4988206814     0.0622943272
|  9>  O       -2.2016790855    -0.1651907054    -1.1397192550
| 10>  C       -3.5812516789    -0.4692929707    -1.1261763196
| 11>  C       -4.1962667625    -0.0345624928    -2.4275250767
| 12>  C       -4.1242254500    -0.9357368205    -3.6321224671
| 13>  C       -5.4411073835    -0.7221771528    -2.9290871856
| 14>  H        1.1040210414     1.7193990438    -0.3905625913
| 15>  H       -0.5210360477     1.7587824834    -1.1048734027
| 16>  H       -0.3106708575     1.9767187226     0.6404349932
| 17>  H        0.3376328605    -0.5843242337    -0.9206432498
| 18>  H        0.3037386435    -0.0987550114     2.1142173365
| 19>  H        0.6376765887    -1.6455814379     1.3199557852
| 20>  H        1.7560292429    -0.2881937535     1.1264934753
| 21>  H       -1.6167218682    -1.5844263008     0.2497385541
| 22>  H       -2.0225049159     0.0090195333     0.9186638641
| 23>  H       -3.7347867416    -1.5538105355    -0.9815552557
| 24>  H       -4.0716581208     0.0387105533    -0.2772575348
| 25>  H       -4.1202387604     1.0324269471    -2.6155664384
| 26>  H       -3.9782390468    -0.4815557055    -4.6056569840
| 27>  H       -3.6343533373    -1.8964230965    -3.5124537024
| 28>  H       -5.8422628403    -1.5419031707    -2.3415928860
| 29>  H       -6.1978724627    -0.1180250722    -3.4166072141
| 30> *
| 31>
| 32>                          ****END OF INPUT****

CARTESIAN COORDINATES (ANGSTROEM)
---------------------------------
  C      0.058348    1.432970   -0.238215
  C     -0.074438   -0.081201   -0.035601
  C      0.698046   -0.558514    1.199940
  C     -1.541503   -0.498821    0.062294
  O     -2.201679   -0.165191   -1.139719
  C     -3.581252   -0.469293   -1.126176
  C     -4.196267   -0.034562   -2.427525
  C     -4.124225   -0.935737   -3.632122
  C     -5.441107   -0.722177   -2.929087
  H      1.104021    1.719399   -0.390563
  H     -0.521036    1.758782   -1.104873
  H     -0.310671    1.976719    0.640435
  H      0.337633   -0.584324   -0.920643
  H      0.303739   -0.098755    2.114217
  H      0.637677   -1.645581    1.319956
  H      1.756029   -0.288194    1.126493
  H     -1.616722   -1.584426    0.249739
  H     -2.022505    0.009020    0.918664
  H     -3.734787   -1.553811   -0.981555
  H     -4.071658    0.038711   -0.277258
  H     -4.120239    1.032427   -2.615566
  H     -3.978239   -0.481556   -4.605657
  H     -3.634353   -1.896423   -3.512454
  H     -5.842263   -1.541903   -2.341593
  H     -6.197872   -0.118025   -3.416607

 Total Charge           Charge          ....    0
 Multiplicity           Mult            ....    1
 Number of Electrons    NEL             ....   72
 Basis Dimension        Dim             ....  375

ORBITAL ENERGIES
----------------

  NO   OCC          E(Eh)            E(eV)
   0   2.0000     -20.547839      -559.1351
   1   2.0000     -11.273340      -306.7632
   2   2.0000     -11.267268      -306.5979
   3   2.0000     -11.226594      -305.4911
   4   2.0000     -11.224001      -305.4206
   5   2.0000     -11.222218      -305.3721
   6   2.0000     -11.221066      -305.3407
   7   2.0000     -11.212102      -305.0968
   8   2.0000     -11.203206      -304.8547
   9   2.0000      -1.371524       -37.3211
  10   2.0000      -1.141413       -31.0594
  11   2.0000      -1.075697       -29.2712
  12   2.0000      -0.961324       -26.1590
  13   2.0000      -0.924761       -25.1640
  14   2.0000      -0.882884       -24.0245
  15   2.0000      -0.820098       -22.3160
  16   2.0000      -0.785082       -21.3632
  17   2.0000      -0.765544       -20.8315
  18   2.0000      -0.681912       -18.5558
  19   2.0000      -0.658048       -17.9064
  20   2.0000      -0.652993       -17.7688
  21   2.0000      -0.629186       -17.1210
  22   2.0000      -0.604375       -16.4459
  23   2.0000      -0.590956       -16.0807
  24   2.0000      -0.554182       -15.0801
  25   2.0000      -0.533376       -14.5139
  26   2.0000      -0.532231       -14.4827
  27   2.0000      -0.523030       -14.2324
  28   2.0000      -0.512121       -13.9355
  29   2.0000      -0.481094       -13.0912
  30   2.0000      -0.469310       -12.7706
  31   2.0000      -0.465062       -12.6550
  32   2.0000      -0.453076       -12.3288
  33   2.0000      -0.422205       -11.4888
  34   2.0000      -0.417048       -11.3485
  35   2.0000      -0.405836       -11.0434
  36   0.0000       0.137331         3.7370
  37   0.0000       0.155749         4.2381
  38   0.0000       0.162228         4.4144
  39   0.0000       0.173963         4.7338
  40   0.0000       0.176512         4.8031

MULLIKEN ATOMIC CHARGES
-----------------------
   0 C :   -0.408372
   1 C :    0.006343
   2 C :   -0.412348
   3 C :   -0.081199
   4 O :   -0.285534
   5 C :   -0.096911
   6 C :   -0.028023
   7 C :   -0.266835
   8 C :   -0.287461
   9 H :    0.126640
  10 H :    0.149127
  11 H :    0.111388
  12 H :    0.085492
  13 H :    0.121125
  14 H :    0.129275
  15 H :    0.135307
  16 H :    0.093510
  17 H :    0.088089
  18 H :    0.087910
  19 H :    0.096097
  20 H :    0.120792
  21 H :    0.129457
  22 H :    0.128034
  23 H :    0.127884
  24 H :    0.130213
Sum of atomic charges:   -0.0000000

LOEWDIN ATOMIC CHARGES
----------------------
   0 C :   -0.296492
   1 C :   -0.312751
   2 C :   -0.295978
   3 C :   -0.312628
   4 O :    0.167937
   5 C :   -0.313164
   6 C :   -0.232965
   7 C :   -0.226501
   8 C :   -0.230325
   9 H :    0.121316
  10 H :    0.126852
  11 H :    0.121344
  12 H :    0.152460
  13 H :    0.122710
  14 H :    0.121995
  15 H :    0.124516
  16 H :    0.120374
  17 H :    0.120025
  18 H :    0.123476
  19 H :    0.122278
  20 H :    0.148444
  21 H :    0.131178
  22 H :    0.133679
  23 H :    0.131580
  24 H :    0.130639

  Mayer bond orders larger than 0.1
B(  0-C ,  1-C ) :   0.9232 B(  0-C ,  9-H ) :   0.9389 B(  0-C , 10-H ) :   0.9346
B(  0-C , 11-H ) :   0.9309 B(  1-C ,  2-C ) :   0.9117 B(  1-C ,  3-C ) :   0.9453
B(  1-C , 12-H ) :   0.9247 B(  2-C , 13-H ) :   0.9299 B(  2-C , 14-H ) :   0.9390
B(  2-C , 15-H ) :   0.9397 B(  3-C ,  4-O ) :   0.9364 B(  3-C , 16-H ) :   0.9227
B(  3-C , 17-H ) :   0.9219 B(  4-O ,  5-C ) :   0.9431 B(  5-C ,  6-C ) :   0.9597
B(  5-C , 18-H ) :   0.9120 B(  5-C , 19-H ) :   0.9236 B(  6-C ,  7-C ) :   0.8797
B(  6-C ,  8-C ) :   0.8717 B(  6-C , 20-H ) :   0.9282 B(  7-C ,  8-C ) :   0.9057
B(  7-C , 21-H ) :   0.9303 B(  7-C , 22-H ) :   0.9301 B(  8-C , 23-H ) :   0.9282
B(  8-C , 24-H ) :   0.9296

MP2 TOTAL ENERGY:     -388.795244929 Eh
FINAL SINGLE POINT ENERGY      -388.795244929156

DIPOLE MOMENT
-------------
                                X             Y             Z
Electronic contribution:     -3.73260      -0.42292      -3.41477
Nuclear contribution   :      3.54798       0.26403       3.65187
                        -----------------------------------------
Total Dipole Moment    :     -0.18462      -0.15889       0.23710
                        -----------------------------------------
Magnitude (a.u.)       :      0.33992
Magnitude (Debye)      :      0.86402

                             ****ORCA TERMINATED NORMALLY****
TOTAL RUN TIME: 0 days 0 hours 18 minutes 45 seconds 575 msec
