                         Program Version 3.0.3 - RELEASE   -
|  1> ! RI-MP2 RIJK def2-TZVP def2-TZVP/C def2-TZVP/JK TIGHTSCF
|  2> % maxcore 2000
|  3> % mp2 density relaxed end
|  4> *xyz 0 1
|  5>  C       -0.3223232457     1.3515541692    -0.0392042717
|  6>  N       -0.0164262369    -0.0618075070     0.1551972586
|  7>  C        1.3398920644    -0.5149402662    -0.1278810065
|  8>  C        0.8337936239    -0.4611067308     1.2727234033
|  9>  C        1.4128401387     0.5221881771     2.2483710230
| 10>  C        2.8547593500     0.4755934094     2.5967077778
| 11>  O        2.3444896916     1.5116917587     1.7766406018
| 12>  C        0.5078060078     1.0600536520     3.3194368977
| 13>  O       -0.5932486562     0.6358660364     3.5530305110
| 14>  H        0.5198218231     2.0300657386     0.1586501103
| 15>  H       -0.6422167825     1.4957089014    -1.0756550404
| 16>  H       -1.1560493219     1.6247773757     0.6146201746
| 17>  H        1.4283017009    -1.4676080918    -0.6436378234
| 18>  H        2.0807073984     0.2342458006    -0.4020835024
| 19>  H        0.5049076893    -1.3758574783     1.7624235394
| 20>  H        3.1905783746     0.7843590037     3.5858349100
| 21>  H        3.4681919802    -0.2707435925     2.0958791168
| 22>  H        0.9584851102     1.9050569738     3.8867684802
| 23> *
| 24>
| 25>                          ****END OF INPUT****

CARTESIAN COORDINATES (ANGSTROEM)
---------------------------------
  C     -0.322323    1.351554   -0.039204
  N     -0.016426   -0.061808    0.155197
  C      1.339892   -0.514940   -0.127881
  C      0.833794   -0.461107    1.272723
  C      1.412840    0.522188    2.248371
  C      2.854759    0.475593    2.596708
  O      2.344490    1.511692    1.776641
  C      0.507806    1.060054    3.319437
  O     -0.593249    0.635866    3.553031
  H      0.519822    2.030066    0.158650
  H     -0.642217    1.495709   -1.075655
  H     -1.156049    1.624777    0.614620
  H      1.428302   -1.467608   -0.643638
  H      2.080707    0.234246   -0.402084
  H      0.504908   -1.375857    1.762424
  H      3.190578    0.784359    3.585835
  H      3.468192   -0.270744    2.095879
  H      0.958485    1.905057    3.886768

 Total Charge           Charge          ....    0
 Multiplicity           Mult            ....    1
 Number of Electrons    NEL             ....   68
 Basis Dimension        Dim             ....  333

ORBITAL ENERGIES
----------------

  NO   OCC          E(Eh)            E(eV)
   0   2.0000     -20.604193      -560.6686
   1   2.0000     -20.573106      -559.8227
   2   2.0000     -15.563036      -423.4917
   3   2.0000     -11.346918      -308.7653
   4   2.0000     -11.321068      -308.0619
   5   2.0000     -11.316268      -307.9313
   6   2.0000     -11.272864      -306.7502
   7   2.0000     -11.258757      -306.3664
   8   2.0000     -11.243169      -305.9422
   9   2.0000      -1.451212       -39.4895
  10   2.0000      -1.410335       -38.3772
  11   2.0000      -1.277869       -34.7726
  12   2.0000      -1.024749       -27.8848
  13   2.0000      -0.984004       -26.7761
  14   2.0000      -0.923932       -25.1415
  15   2.0000      -0.872431       -23.7401
  16   2.0000      -0.833408       -22.6782
  17   2.0000      -0.763247       -20.7690
  18   2.0000      -0.716866       -19.5069
  19   2.0000      -0.704980       -19.1835
  20   2.0000      -0.674712       -18.3598
  21   2.0000      -0.650025       -17.6881
  22   2.0000      -0.625033       -17.0080
  23   2.0000      -0.599521       -16.3138
  24   2.0000      -0.593865       -16.1599
  25   2.0000      -0.556978       -15.1562
  26   2.0000      -0.553968       -15.0742
  27   2.0000      -0.537414       -14.6238
  28   2.0000      -0.500597       -13.6219
  29   2.0000      -0.484413       -13.1815
  30   2.0000      -0.476292       -12.9606
  31   2.0000      -0.441367       -12.0102
  32   2.0000      -0.427706       -11.6385
  33   2.0000      -0.374450       -10.1893
  34   0.0000       0.109614         2.9827
  35   0.0000       0.152278         4.1437
  36   0.0000       0.163937         4.4609
  37   0.0000       0.164768         4.4836
  38   0.0000       0.171087         4.6555

MULLIKEN ATOMIC CHARGES
-----------------------
   0 C :   -0.327070
   1 N :   -0.201688
   2 C :   -0.173009
   3 C :   -0.074364
   4 C :    0.215411
   5 C :   -0.090084
   6 O :   -0.323834
   7 C :    0.027621
   8 O :   -0.249075
   9 H :    0.134953
  10 H :    0.142496
  11 H :    0.145589
  12 H :    0.128794
  13 H :    0.137977
  14 H :    0.133949
  15 H :    0.133419
  16 H :    0.137881
  17 H :    0.101032
Sum of atomic charges:   -0.0000000

LOEWDIN ATOMIC CHARGES
----------------------
   0 C :   -0.326056
   1 N :    0.100309
   2 C :   -0.236309
   3 C :   -0.225583
   4 C :   -0.310717
   5 C :   -0.229520
   6 O :    0.187552
   7 C :   -0.260741
   8 O :    0.155420
   9 H :    0.112092
  10 H :    0.119859
  11 H :    0.121799
  12 H :    0.124746
  13 H :    0.130589
  14 H :    0.156342
  15 H :    0.126083
  16 H :    0.130970
  17 H :    0.123165

  Mayer bond orders larger than 0.1
B(  0-C ,  1-N ) :   0.8760 B(  0-C ,  9-H ) :   0.9277 B(  0-C , 10-H ) :   0.9344
B(  0-C , 11-H ) :   0.9354 B(  1-N ,  2-C ) :   0.8992 B(  1-N ,  3-C ) :   0.9483
B(  2-C ,  3-C ) :   0.9391 B(  2-C , 12-H ) :   0.9180 B(  2-C , 13-H ) :   0.9091
B(  3-C ,  4-C ) :   0.9119 B(  3-C , 14-H ) :   0.9099 B(  4-C ,  5-C ) :   0.9083
B(  4-C ,  6-O ) :   0.8192 B(  4-C ,  7-C ) :   0.8282 B(  5-C ,  6-O ) :   0.9070
B(  5-C , 15-H ) :   0.9171 B(  5-C , 16-H ) :   0.8990 B(  7-C ,  8-O ) :   2.0253
B(  7-C , 17-H ) :   0.9613

MP2 TOTAL ENERGY:     -438.304596649 Eh
FINAL SINGLE POINT ENERGY      -438.304596649030

DIPOLE MOMENT
-------------
                                X             Y             Z
Electronic contribution:     -0.66345      -0.21143       4.58956
Nuclear contribution   :      1.88169       0.16882      -4.48207
                        -----------------------------------------
Total Dipole Moment    :      1.21824      -0.04261       0.10748
                        -----------------------------------------
Magnitude (a.u.)       :      1.22371
Magnitude (Debye)      :      3.11043

                             ****ORCA TERMINATED NORMALLY****
TOTAL RUN TIME: 0 days 0 hours 18 minutes 37 seconds 261 msec
