                         Program Version 3.0.3 - RELEASE   -
|  1> ! RI-MP2 RIJK def2-TZVP def2-TZVP/C def2-TZVP/JK TIGHTSCF
|  2> % maxcore 2000
|  3> % mp2 density relaxed end
|  4> *xyz 0 1
|  5>  C        0.3349867861     1.1254698677    -1.3026587396
|  6>  C        0.1424913282    -0.0831494757    -0.4114606721
|  7>  O        0.8669597720    -1.2371528290    -0.8820910353
|  8>  C        1.4381108048    -1.4869986160     0.4176875751
|  9>  C        2.9368677324    -1.6937208508     0.3624692221
| 10>  C        0.8215177859    -0.1686074185     0.9980935151
| 11>  C        1.7682973800     0.9444442280     1.4032073607
| 12>  C        1.5454791895     1.5500747936     2.7769163289
| 13>  O        2.6575853297     1.3363845599     0.6771132659
| 14>  H        1.3869933006     1.4053172997    -1.3663394720
| 15>  H       -0.0331692772     0.8879298858    -2.3059429742
| 16>  H       -0.2385761272     1.9789001975    -0.9237300694
| 17>  H       -0.9294264792    -0.3153107077    -0.3257899349
| 18>  H        0.9588157745    -2.3612852208     0.8826013496
| 19>  H        3.4407490020    -0.8200349101    -0.0520971263
| 20>  H        3.3354194557    -1.8934312208     1.3635580804
| 21>  H        3.1515450407    -2.5628188992    -0.2677078588
| 22>  H        0.1061220276    -0.3546093320     1.8010336275
| 23>  H        1.6249426607     0.7758485881     3.5493567979
| 24>  H        2.2776359517     2.3362326271     2.9641770671
| 25>  H        0.5314294214     1.9609903432     2.8494575824
| 26> *
| 27>
| 28>                          ****END OF INPUT****

CARTESIAN COORDINATES (ANGSTROEM)
---------------------------------
  C      0.334987    1.125470   -1.302659
  C      0.142491   -0.083149   -0.411461
  O      0.866960   -1.237153   -0.882091
  C      1.438111   -1.486999    0.417688
  C      2.936868   -1.693721    0.362469
  C      0.821518   -0.168607    0.998094
  C      1.768297    0.944444    1.403207
  C      1.545479    1.550075    2.776916
  O      2.657585    1.336385    0.677113
  H      1.386993    1.405317   -1.366339
  H     -0.033169    0.887930   -2.305943
  H     -0.238576    1.978900   -0.923730
  H     -0.929426   -0.315311   -0.325790
  H      0.958816   -2.361285    0.882601
  H      3.440749   -0.820035   -0.052097
  H      3.335419   -1.893431    1.363558
  H      3.151545   -2.562819   -0.267708
  H      0.106122   -0.354609    1.801034
  H      1.624943    0.775849    3.549357
  H      2.277636    2.336233    2.964177
  H      0.531429    1.960990    2.849458

 Total Charge           Charge          ....    0
 Multiplicity           Mult            ....    1
 Number of Electrons    NEL             ....   70
 Basis Dimension        Dim             ....  351

ORBITAL ENERGIES
----------------

  NO   OCC          E(Eh)            E(eV)
   0   2.0000     -20.548046      -559.1407
   1   2.0000     -20.546010      -559.0853
   2   2.0000     -11.336451      -308.4805
   3   2.0000     -11.293182      -307.3031
   4   2.0000     -11.293178      -307.3030
   5   2.0000     -11.246114      -306.0223
   6   2.0000     -11.240648      -305.8736
   7   2.0000     -11.211307      -305.0752
   8   2.0000     -11.211305      -305.0751
   9   2.0000      -1.394994       -37.9597
  10   2.0000      -1.379494       -37.5379
  11   2.0000      -1.060949       -28.8699
  12   2.0000      -1.029329       -28.0095
  13   2.0000      -1.006426       -27.3863
  14   2.0000      -0.951899       -25.9025
  15   2.0000      -0.827043       -22.5050
  16   2.0000      -0.812462       -22.1082
  17   2.0000      -0.716998       -19.5105
  18   2.0000      -0.697597       -18.9826
  19   2.0000      -0.645805       -17.5732
  20   2.0000      -0.643045       -17.4981
  21   2.0000      -0.617465       -16.8021
  22   2.0000      -0.614196       -16.7131
  23   2.0000      -0.589463       -16.0401
  24   2.0000      -0.582035       -15.8380
  25   2.0000      -0.564274       -15.3547
  26   2.0000      -0.550748       -14.9866
  27   2.0000      -0.533828       -14.5262
  28   2.0000      -0.518102       -14.0983
  29   2.0000      -0.514430       -13.9984
  30   2.0000      -0.494362       -13.4523
  31   2.0000      -0.464781       -12.6473
  32   2.0000      -0.442530       -12.0419
  33   2.0000      -0.431456       -11.7405
  34   2.0000      -0.396178       -10.7805
  35   0.0000       0.118453         3.2233
  36   0.0000       0.128021         3.4836
  37   0.0000       0.158279         4.3070
  38   0.0000       0.158299         4.3075
  39   0.0000       0.171843         4.6761

MULLIKEN ATOMIC CHARGES
-----------------------
   0 C :   -0.408609
   1 C :    0.077765
   2 O :   -0.321650
   3 C :    0.077762
   4 C :   -0.408606
   5 C :   -0.060502
   6 C :    0.190821
   7 C :   -0.437348
   8 O :   -0.303609
   9 H :    0.163678
  10 H :    0.140139
  11 H :    0.119426
  12 H :    0.083521
  13 H :    0.083521
  14 H :    0.163675
  15 H :    0.119426
  16 H :    0.140139
  17 H :    0.132257
  18 H :    0.147008
  19 H :    0.154178
  20 H :    0.147009
Sum of atomic charges:   -0.0000000

LOEWDIN ATOMIC CHARGES
----------------------
   0 C :   -0.295999
   1 C :   -0.278712
   2 O :    0.162442
   3 C :   -0.278716
   4 C :   -0.295998
   5 C :   -0.165453
   6 C :   -0.332678
   7 C :   -0.279912
   8 O :    0.153850
   9 H :    0.132518
  10 H :    0.131184
  11 H :    0.126980
  12 H :    0.135756
  13 H :    0.135756
  14 H :    0.132519
  15 H :    0.126982
  16 H :    0.131181
  17 H :    0.151730
  18 H :    0.137161
  19 H :    0.132242
  20 H :    0.137166

  Mayer bond orders larger than 0.1
B(  0-C ,  1-C ) :   0.9141 B(  0-C ,  9-H ) :   0.9320 B(  0-C , 10-H ) :   0.9281
B(  0-C , 11-H ) :   0.9269 B(  1-C ,  2-O ) :   0.9555 B(  1-C ,  5-C ) :   0.8913
B(  1-C , 12-H ) :   0.9207 B(  2-O ,  3-C ) :   0.9555 B(  3-C ,  4-C ) :   0.9141
B(  3-C ,  5-C ) :   0.8913 B(  3-C , 13-H ) :   0.9207 B(  4-C , 14-H ) :   0.9320
B(  4-C , 15-H ) :   0.9269 B(  4-C , 16-H ) :   0.9281 B(  5-C ,  6-C ) :   0.8549
B(  5-C , 17-H ) :   0.9186 B(  6-C ,  7-C ) :   0.9275 B(  6-C ,  8-O ) :   1.9378
B(  7-C , 18-H ) :   0.9160 B(  7-C , 19-H ) :   0.9454 B(  7-C , 20-H ) :   0.9160

MP2 TOTAL ENERGY:     -423.524443945 Eh
FINAL SINGLE POINT ENERGY      -423.524443944642

DIPOLE MOMENT
-------------
                                X             Y             Z
Electronic contribution:      0.46118      -0.54674      -1.64656
Nuclear contribution   :     -1.15967       0.54476       2.73473
                        -----------------------------------------
Total Dipole Moment    :     -0.69849      -0.00199       1.08816
                        -----------------------------------------
Magnitude (a.u.)       :      1.29305
Magnitude (Debye)      :      3.28668

                             ****ORCA TERMINATED NORMALLY****
TOTAL RUN TIME: 0 days 0 hours 20 minutes 11 seconds 255 msec
