                         Program Version 3.0.3 - RELEASE   -
|  1> ! RI-MP2 RIJK def2-TZVP def2-TZVP/C def2-TZVP/JK TIGHTSCF
|  2> % maxcore 2000
|  3> % mp2 density relaxed end
|  4> *xyz 0 1
|  5>  O       -0.1545731035     1.2627198154     0.0104629101
|  6>  N        1.2317204793     1.8132567103    -0.0000219550
|  7>  N        2.0445437215     0.8752440039    -0.0129347273
|  8>  C        1.3777604734    -0.3384274233    -0.0130556190
|  9>  C        0.0095610200    -0.0513251320     0.0017285571
| 10>  N       -0.9550835325    -0.9592200503     0.0061605554
| 11>  C       -0.4722756233    -2.2050941393    -0.0052420605
| 12>  N        0.8117146101    -2.6092584878    -0.0198635061
| 13>  C        1.7584131791    -1.6733994415    -0.0239645382
| 14>  H       -1.2138895719    -2.9988556459    -0.0023792089
| 15>  H        2.7973486179    -1.9905256096    -0.0357322177
| 16> *
| 17>
| 18>                          ****END OF INPUT****

CARTESIAN COORDINATES (ANGSTROEM)
---------------------------------
  O     -0.154573    1.262720    0.010463
  N      1.231720    1.813257   -0.000022
  N      2.044544    0.875244   -0.012935
  C      1.377760   -0.338427   -0.013056
  C      0.009561   -0.051325    0.001729
  N     -0.955084   -0.959220    0.006161
  C     -0.472276   -2.205094   -0.005242
  N      0.811715   -2.609258   -0.019864
  C      1.758413   -1.673399   -0.023965
  H     -1.213890   -2.998856   -0.002379
  H      2.797349   -1.990526   -0.035732

 Total Charge           Charge          ....    0
 Multiplicity           Mult            ....    1
 Number of Electrons    NEL             ....   62
 Basis Dimension        Dim             ....  291

ORBITAL ENERGIES
----------------

  NO   OCC          E(Eh)            E(eV)
   0   2.0000     -20.672400      -562.5246
   1   2.0000     -15.734652      -428.1616
   2   2.0000     -15.681850      -426.7248
   3   2.0000     -15.603455      -424.5916
   4   2.0000     -15.598083      -424.4454
   5   2.0000     -11.382487      -309.7332
   6   2.0000     -11.352386      -308.9141
   7   2.0000     -11.342928      -308.6568
   8   2.0000     -11.304120      -307.6007
   9   2.0000      -1.542954       -41.9859
  10   2.0000      -1.368437       -37.2371
  11   2.0000      -1.339890       -36.4603
  12   2.0000      -1.227159       -33.3927
  13   2.0000      -1.128952       -30.7204
  14   2.0000      -0.970555       -26.4101
  15   2.0000      -0.921423       -25.0732
  16   2.0000      -0.891314       -24.2539
  17   2.0000      -0.784337       -21.3429
  18   2.0000      -0.777132       -21.1468
  19   2.0000      -0.717486       -19.5238
  20   2.0000      -0.711002       -19.3473
  21   2.0000      -0.638775       -17.3819
  22   2.0000      -0.622107       -16.9284
  23   2.0000      -0.598846       -16.2954
  24   2.0000      -0.588028       -16.0011
  25   2.0000      -0.553069       -15.0498
  26   2.0000      -0.522251       -14.2112
  27   2.0000      -0.490277       -13.3411
  28   2.0000      -0.448380       -12.2011
  29   2.0000      -0.438782       -11.9399
  30   2.0000      -0.397387       -10.8134
  31   0.0000       0.038399         1.0449
  32   0.0000       0.097140         2.6433
  33   0.0000       0.137640         3.7454
  34   0.0000       0.139676         3.8008
  35   0.0000       0.169896         4.6231

MULLIKEN ATOMIC CHARGES
-----------------------
   0 O :   -0.114063
   1 N :    0.043900
   2 N :   -0.067228
   3 C :   -0.000818
   4 C :    0.227277
   5 N :   -0.224868
   6 C :    0.085402
   7 N :   -0.230981
   8 C :   -0.036461
   9 H :    0.154138
  10 H :    0.163703
Sum of atomic charges:   -0.0000000

LOEWDIN ATOMIC CHARGES
----------------------
   0 O :    0.260723
   1 N :    0.061214
   2 N :    0.078954
   3 C :   -0.235049
   4 C :   -0.353189
   5 N :    0.164330
   6 C :   -0.257556
   7 N :    0.135770
   8 C :   -0.148187
   9 H :    0.141517
  10 H :    0.151474

  Mayer bond orders larger than 0.1
B(  0-O ,  1-N ) :   0.7848 B(  0-O ,  4-C ) :   1.1895 B(  1-N ,  2-N ) :   1.5308
B(  2-N ,  3-C ) :   1.1562 B(  3-C ,  4-C ) :   1.2313 B(  3-C ,  8-C ) :   1.2483
B(  4-C ,  5-N ) :   1.3815 B(  5-N ,  6-C ) :   1.3841 B(  6-C ,  7-N ) :   1.3245
B(  6-C ,  9-H ) :   0.9330 B(  7-N ,  8-C ) :   1.4527 B(  8-C , 10-H ) :   0.9368

MP2 TOTAL ENERGY:     -446.986963822 Eh
FINAL SINGLE POINT ENERGY      -446.986963821815

DIPOLE MOMENT
-------------
                                X             Y             Z
Electronic contribution:      0.00914       3.31064       0.01783
Nuclear contribution   :      0.32341      -3.90834      -0.02429
                        -----------------------------------------
Total Dipole Moment    :      0.33256      -0.59770      -0.00646
                        -----------------------------------------
Magnitude (a.u.)       :      0.68402
Magnitude (Debye)      :      1.73865

                             ****ORCA TERMINATED NORMALLY****
TOTAL RUN TIME: 0 days 0 hours 14 minutes 59 seconds 422 msec
