                         Program Version 3.0.3 - RELEASE   -
|  1> ! RI-MP2 RIJK def2-TZVP def2-TZVP/C def2-TZVP/JK TIGHTSCF
|  2> % maxcore 2000
|  3> % mp2 density relaxed end
|  4> *xyz 0 1
|  5>  O        0.1689265256     1.4629967757    -0.1083543980
|  6>  C        0.0879765394     0.0654069024    -0.0016727476
|  7>  C        0.2065411651    -0.5527937716     1.4845797681
|  8>  C       -1.3277438202    -0.6127917286     1.4198794624
|  9>  N       -2.6812556970    -1.3563563279     1.5037459016
| 10>  C       -2.8183013894    -0.2297689894     0.4237197402
| 11>  C       -2.1965663142     0.7021986452     1.4747117764
| 12>  O       -2.9054982103     0.9838082141     2.6339175637
| 13>  C       -1.3631498025    -0.5725881037    -0.0798507440
| 14>  H        1.0674230930     1.7311808311     0.1113659303
| 15>  H        0.7679667704    -0.4200241385    -0.7142650023
| 16>  H        0.7083150317    -1.5241340834     1.4578337929
| 17>  H        0.6568127630     0.0781539407     2.2568348217
| 18>  H       -2.5895637364    -2.2620247947     1.0337657050
| 19>  H       -3.7575282783    -0.1395969335    -0.1299544933
| 20>  H       -1.7257878112     1.6105476748     1.1126654412
| 21>  H       -3.2987224316     0.1385415208     2.8991607672
| 22>  H       -1.3044862671    -1.5469705235    -0.5732430456
| 23> *
| 24>
| 25>                          ****END OF INPUT****

CARTESIAN COORDINATES (ANGSTROEM)
---------------------------------
  O      0.168927    1.462997   -0.108354
  C      0.087977    0.065407   -0.001673
  C      0.206541   -0.552794    1.484580
  C     -1.327744   -0.612792    1.419879
  N     -2.681256   -1.356356    1.503746
  C     -2.818301   -0.229769    0.423720
  C     -2.196566    0.702199    1.474712
  O     -2.905498    0.983808    2.633918
  C     -1.363150   -0.572588   -0.079851
  H      1.067423    1.731181    0.111366
  H      0.767967   -0.420024   -0.714265
  H      0.708315   -1.524134    1.457834
  H      0.656813    0.078154    2.256835
  H     -2.589564   -2.262025    1.033766
  H     -3.757528   -0.139597   -0.129954
  H     -1.725788    1.610548    1.112665
  H     -3.298722    0.138542    2.899161
  H     -1.304486   -1.546971   -0.573243

 Total Charge           Charge          ....    0
 Multiplicity           Mult            ....    1
 Number of Electrons    NEL             ....   68
 Basis Dimension        Dim             ....  333

ORBITAL ENERGIES
----------------

  NO   OCC          E(Eh)            E(eV)
   0   2.0000     -20.573171      -559.8244
   1   2.0000     -20.543723      -559.0231
   2   2.0000     -15.569790      -423.6755
   3   2.0000     -11.314021      -307.8702
   4   2.0000     -11.288650      -307.1798
   5   2.0000     -11.278320      -306.8987
   6   2.0000     -11.274016      -306.7816
   7   2.0000     -11.250225      -306.1342
   8   2.0000     -11.232435      -305.6501
   9   2.0000      -1.383816       -37.6555
  10   2.0000      -1.366783       -37.1921
  11   2.0000      -1.271364       -34.5956
  12   2.0000      -1.092508       -29.7287
  13   2.0000      -0.981730       -26.7142
  14   2.0000      -0.910433       -24.7741
  15   2.0000      -0.843854       -22.9624
  16   2.0000      -0.824603       -22.4386
  17   2.0000      -0.765124       -20.8201
  18   2.0000      -0.716053       -19.4848
  19   2.0000      -0.665036       -18.0966
  20   2.0000      -0.642359       -17.4795
  21   2.0000      -0.633166       -17.2293
  22   2.0000      -0.612411       -16.6646
  23   2.0000      -0.603650       -16.4261
  24   2.0000      -0.563782       -15.3413
  25   2.0000      -0.551410       -15.0046
  26   2.0000      -0.541204       -14.7269
  27   2.0000      -0.505781       -13.7630
  28   2.0000      -0.495861       -13.4931
  29   2.0000      -0.456851       -12.4316
  30   2.0000      -0.435401       -11.8479
  31   2.0000      -0.425998       -11.5920
  32   2.0000      -0.394770       -10.7422
  33   2.0000      -0.361329        -9.8323
  34   0.0000       0.123510         3.3609
  35   0.0000       0.145402         3.9566
  36   0.0000       0.153295         4.1714
  37   0.0000       0.167213         4.5501
  38   0.0000       0.186925         5.0865

MULLIKEN ATOMIC CHARGES
-----------------------
   0 O :   -0.456922
   1 C :    0.051869
   2 C :   -0.282782
   3 C :    0.082886
   4 N :   -0.369435
   5 C :   -0.041862
   6 C :    0.058492
   7 O :   -0.467966
   8 C :   -0.165924
   9 H :    0.323122
  10 H :    0.102173
  11 H :    0.121385
  12 H :    0.135976
  13 H :    0.195424
  14 H :    0.131872
  15 H :    0.149846
  16 H :    0.334372
  17 H :    0.097474
Sum of atomic charges:   -0.0000000

LOEWDIN ATOMIC CHARGES
----------------------
   0 O :   -0.007741
   1 C :   -0.280386
   2 C :   -0.189507
   3 C :   -0.236793
   4 N :   -0.009428
   5 C :   -0.173218
   6 C :   -0.283304
   7 O :    0.001768
   8 C :   -0.151331
   9 H :    0.180582
  10 H :    0.126054
  11 H :    0.137027
  12 H :    0.130229
  13 H :    0.154858
  14 H :    0.122861
  15 H :    0.148657
  16 H :    0.184297
  17 H :    0.145375

  Mayer bond orders larger than 0.1
B(  0-O ,  1-C ) :   1.0000 B(  0-O ,  9-H ) :   0.8361 B(  1-C ,  2-C ) :   0.9000
B(  1-C ,  8-C ) :   0.8705 B(  1-C , 10-H ) :   0.9330 B(  2-C ,  3-C ) :   0.8222
B(  2-C , 11-H ) :   0.9065 B(  2-C , 12-H ) :   0.9267 B(  3-C ,  4-N ) :   0.8591
B(  3-C ,  6-C ) :   0.9002 B(  3-C ,  8-C ) :   0.9026 B(  4-N ,  5-C ) :   0.8708
B(  4-N , 13-H ) :   0.8778 B(  5-C ,  6-C ) :   0.9058 B(  5-C ,  8-C ) :   0.9094
B(  5-C , 14-H ) :   0.8888 B(  6-C ,  7-O ) :   1.0102 B(  6-C , 15-H ) :   0.9051
B(  7-O , 16-H ) :   0.8069 B(  8-C , 17-H ) :   0.9255

MP2 TOTAL ENERGY:     -438.219893816 Eh
FINAL SINGLE POINT ENERGY      -438.219893816088

DIPOLE MOMENT
-------------
                                X             Y             Z
Electronic contribution:     -1.94432       1.62345       0.73575
Nuclear contribution   :      3.05228      -2.38654      -1.34293
                        -----------------------------------------
Total Dipole Moment    :      1.10795      -0.76309      -0.60718
                        -----------------------------------------
Magnitude (a.u.)       :      1.47599
Magnitude (Debye)      :      3.75166

                             ****ORCA TERMINATED NORMALLY****
TOTAL RUN TIME: 0 days 0 hours 18 minutes 14 seconds 362 msec
