                         Program Version 3.0.3 - RELEASE   -
|  1> ! RI-MP2 RIJK def2-TZVP def2-TZVP/C def2-TZVP/JK TIGHTSCF
|  2> % maxcore 2000
|  3> % mp2 density relaxed end
|  4> *xyz 0 1
|  5>  C       -0.0257364877     1.5910048891    -0.2798361272
|  6>  C       -0.0486081709     0.0964015949     0.0718281666
|  7>  C       -1.4515229950    -0.4959703033     0.0821336742
|  8>  C       -2.1444156238    -0.7371366354    -1.2810036429
|  9>  O       -2.2638565881    -2.1503160384    -1.0259846387
| 10>  C       -1.5753394799    -2.0292557642     0.2353075269
| 11>  C        1.3724485486     2.1587129616    -0.2769228629
| 12>  C        1.6761719410     3.5135152834     0.1980578447
| 13>  O        1.9675585079     2.3726515169     1.0075524747
| 14>  H       -0.4707516804     1.7507969297    -1.2715234701
| 15>  H       -0.6363489953     2.1502545228     0.4393140461
| 16>  H        0.5725422135    -0.4597723488    -0.6440568696
| 17>  H        0.4154261544    -0.0393985676     1.0565691165
| 18>  H       -2.0856629444     0.0516457260     0.7858149191
| 19>  H       -3.1225039816    -0.2621915072    -1.4255389440
| 20>  H       -1.5190324886    -0.5312454592    -2.1617754843
| 21>  H       -0.6195611410    -2.5713638021     0.2355044077
| 22>  H       -2.1858674866    -2.3883672424     1.0726799835
| 23>  H        2.0564626706     1.7159475110    -1.0045856242
| 24>  H        2.5430731010     4.0461173518    -0.1908555810
| 25>  H        0.8672544561     4.1480348115     0.5589071747
| 26> *
| 27>
| 28>                          ****END OF INPUT****

CARTESIAN COORDINATES (ANGSTROEM)
---------------------------------
  C     -0.025736    1.591005   -0.279836
  C     -0.048608    0.096402    0.071828
  C     -1.451523   -0.495970    0.082134
  C     -2.144416   -0.737137   -1.281004
  O     -2.263857   -2.150316   -1.025985
  C     -1.575339   -2.029256    0.235308
  C      1.372449    2.158713   -0.276923
  C      1.676172    3.513515    0.198058
  O      1.967559    2.372652    1.007552
  H     -0.470752    1.750797   -1.271523
  H     -0.636349    2.150255    0.439314
  H      0.572542   -0.459772   -0.644057
  H      0.415426   -0.039399    1.056569
  H     -2.085663    0.051646    0.785815
  H     -3.122504   -0.262192   -1.425539
  H     -1.519032   -0.531245   -2.161775
  H     -0.619561   -2.571364    0.235504
  H     -2.185867   -2.388367    1.072680
  H      2.056463    1.715948   -1.004586
  H      2.543073    4.046117   -0.190856
  H      0.867254    4.148035    0.558907

 Total Charge           Charge          ....    0
 Multiplicity           Mult            ....    1
 Number of Electrons    NEL             ....   70
 Basis Dimension        Dim             ....  351

ORBITAL ENERGIES
----------------

  NO   OCC          E(Eh)            E(eV)
   0   2.0000     -20.568775      -559.7048
   1   2.0000     -20.545260      -559.0649
   2   2.0000     -11.290352      -307.2261
   3   2.0000     -11.284855      -307.0765
   4   2.0000     -11.277151      -306.8669
   5   2.0000     -11.275942      -306.8340
   6   2.0000     -11.236725      -305.7668
   7   2.0000     -11.236201      -305.7526
   8   2.0000     -11.231058      -305.6126
   9   2.0000      -1.412119       -38.4257
  10   2.0000      -1.375121       -37.4189
  11   2.0000      -1.087883       -29.6028
  12   2.0000      -1.007076       -27.4039
  13   2.0000      -0.933059       -25.3898
  14   2.0000      -0.925087       -25.1729
  15   2.0000      -0.872742       -23.7485
  16   2.0000      -0.808332       -21.9958
  17   2.0000      -0.758040       -20.6273
  18   2.0000      -0.699308       -19.0291
  19   2.0000      -0.687488       -18.7075
  20   2.0000      -0.666436       -18.1346
  21   2.0000      -0.637882       -17.3577
  22   2.0000      -0.620185       -16.8761
  23   2.0000      -0.596777       -16.2391
  24   2.0000      -0.563062       -15.3217
  25   2.0000      -0.548231       -14.9181
  26   2.0000      -0.543701       -14.7948
  27   2.0000      -0.535935       -14.5835
  28   2.0000      -0.509382       -13.8610
  29   2.0000      -0.492944       -13.4137
  30   2.0000      -0.465783       -12.6746
  31   2.0000      -0.449580       -12.2337
  32   2.0000      -0.443496       -12.0682
  33   2.0000      -0.427238       -11.6257
  34   2.0000      -0.411231       -11.1902
  35   0.0000       0.137698         3.7469
  36   0.0000       0.150239         4.0882
  37   0.0000       0.154088         4.1930
  38   0.0000       0.170092         4.6284
  39   0.0000       0.176132         4.7928

MULLIKEN ATOMIC CHARGES
-----------------------
   0 C :   -0.242909
   1 C :   -0.315236
   2 C :   -0.059780
   3 C :   -0.031797
   4 O :   -0.328787
   5 C :   -0.008105
   6 C :    0.056763
   7 C :   -0.073217
   8 O :   -0.339685
   9 H :    0.119890
  10 H :    0.122833
  11 H :    0.124044
  12 H :    0.138363
  13 H :    0.110930
  14 H :    0.097435
  15 H :    0.086132
  16 H :    0.091935
  17 H :    0.095977
  18 H :    0.124771
  19 H :    0.115880
  20 H :    0.114564
Sum of atomic charges:   -0.0000000

LOEWDIN ATOMIC CHARGES
----------------------
   0 C :   -0.250383
   1 C :   -0.249006
   2 C :   -0.244056
   3 C :   -0.257204
   4 O :    0.107336
   5 C :   -0.251803
   6 C :   -0.294838
   7 C :   -0.267955
   8 O :    0.139248
   9 H :    0.144954
  10 H :    0.146294
  11 H :    0.142562
  12 H :    0.147397
  13 H :    0.147070
  14 H :    0.115147
  15 H :    0.115962
  16 H :    0.117711
  17 H :    0.115456
  18 H :    0.137782
  19 H :    0.118803
  20 H :    0.119523

  Mayer bond orders larger than 0.1
B(  0-C ,  1-C ) :   0.9135 B(  0-C ,  6-C ) :   0.9279 B(  0-C ,  9-H ) :   0.9315
B(  0-C , 10-H ) :   0.9318 B(  1-C ,  2-C ) :   0.9197 B(  1-C , 11-H ) :   0.9287
B(  1-C , 12-H ) :   0.9294 B(  2-C ,  3-C ) :   0.9483 B(  2-C ,  5-C ) :   0.9638
B(  2-C , 13-H ) :   0.9228 B(  3-C ,  4-O ) :   0.9606 B(  3-C , 14-H ) :   0.9131
B(  3-C , 15-H ) :   0.9029 B(  4-O ,  5-C ) :   0.9564 B(  5-C , 16-H ) :   0.9050
B(  5-C , 17-H ) :   0.9164 B(  6-C ,  7-C ) :   0.9909 B(  6-C ,  8-O ) :   0.8602
B(  6-C , 18-H ) :   0.9120 B(  7-C ,  8-O ) :   0.9190 B(  7-C , 19-H ) :   0.9211
B(  7-C , 20-H ) :   0.9081

MP2 TOTAL ENERGY:     -423.468177546 Eh
FINAL SINGLE POINT ENERGY      -423.468177545901

DIPOLE MOMENT
-------------
                                X             Y             Z
Electronic contribution:      0.82290      -0.98808       0.62974
Nuclear contribution   :     -0.81769       1.82037      -0.81721
                        -----------------------------------------
Total Dipole Moment    :      0.00520       0.83229      -0.18748
                        -----------------------------------------
Magnitude (a.u.)       :      0.85316
Magnitude (Debye)      :      2.16857

                             ****ORCA TERMINATED NORMALLY****
TOTAL RUN TIME: 0 days 0 hours 14 minutes 36 seconds 46 msec
