                         Program Version 3.0.3 - RELEASE   -
|  1> ! RI-MP2 RIJK def2-TZVP def2-TZVP/C def2-TZVP/JK TIGHTSCF
|  2> % maxcore 2000
|  3> % mp2 density relaxed end
|  4> *xyz 0 1
|  5>  C        0.2004316212     1.4818464485     0.0792456701
|  6>  N        0.0535325129     0.0324948931     0.0434472805
|  7>  C        0.0096894693    -0.6785978739     1.2172063520
|  8>  O        0.0356431383    -0.1931503096     2.3245791583
|  9>  C       -0.0104708752    -0.6574622332    -1.2339793537
| 10>  C       -1.3012758848    -0.3468214051    -2.0276395050
| 11>  N       -2.4473166914    -0.7946958344    -1.2478654020
| 12>  C        1.1804810390    -0.3700224527    -2.0563368978
| 13>  N        2.0989160130    -0.1273049028    -2.7137135634
| 14>  H        1.0761145974     1.7937827027    -0.4987280099
| 15>  H       -0.6844910191     1.9876937702    -0.3227230750
| 16>  H        0.3274089828     1.7656793804     1.1235780716
| 17>  H       -0.0596324961    -1.7674996323     1.0350698356
| 18>  H       -0.0232786192    -1.7316213173    -1.0190240916
| 19>  H       -1.3060340611     0.7185179272    -2.3068932880
| 20>  H       -1.2626447103    -0.9182876981    -2.9602141791
| 21>  H       -2.6163311191    -0.1661945276    -0.4690437978
| 22>  H       -3.2852054977    -0.7862769753    -1.8188762747
| 23> *
| 24>
| 25>                          ****END OF INPUT****

CARTESIAN COORDINATES (ANGSTROEM)
---------------------------------
  C      0.200432    1.481846    0.079246
  N      0.053533    0.032495    0.043447
  C      0.009689   -0.678598    1.217206
  O      0.035643   -0.193150    2.324579
  C     -0.010471   -0.657462   -1.233979
  C     -1.301276   -0.346821   -2.027640
  N     -2.447317   -0.794696   -1.247865
  C      1.180481   -0.370022   -2.056337
  N      2.098916   -0.127305   -2.713714
  H      1.076115    1.793783   -0.498728
  H     -0.684491    1.987694   -0.322723
  H      0.327409    1.765679    1.123578
  H     -0.059632   -1.767500    1.035070
  H     -0.023279   -1.731621   -1.019024
  H     -1.306034    0.718518   -2.306893
  H     -1.262645   -0.918288   -2.960214
  H     -2.616331   -0.166195   -0.469044
  H     -3.285205   -0.786277   -1.818876

 Total Charge           Charge          ....    0
 Multiplicity           Mult            ....    1
 Number of Electrons    NEL             ....   68
 Basis Dimension        Dim             ....  333

ORBITAL ENERGIES
----------------

  NO   OCC          E(Eh)            E(eV)
   0   2.0000     -20.538629      -558.8845
   1   2.0000     -15.615439      -424.9177
   2   2.0000     -15.589074      -424.2003
   3   2.0000     -15.573541      -423.7776
   4   2.0000     -11.364073      -309.2322
   5   2.0000     -11.339801      -308.5717
   6   2.0000     -11.294119      -307.3286
   7   2.0000     -11.287635      -307.1522
   8   2.0000     -11.274439      -306.7931
   9   2.0000      -1.401877       -38.1470
  10   2.0000      -1.289226       -35.0816
  11   2.0000      -1.231329       -33.5062
  12   2.0000      -1.211020       -32.9535
  13   2.0000      -1.057359       -28.7722
  14   2.0000      -0.982395       -26.7323
  15   2.0000      -0.896359       -24.3912
  16   2.0000      -0.810093       -22.0437
  17   2.0000      -0.759977       -20.6800
  18   2.0000      -0.729731       -19.8570
  19   2.0000      -0.703863       -19.1531
  20   2.0000      -0.657687       -17.8966
  21   2.0000      -0.644230       -17.5304
  22   2.0000      -0.618497       -16.8302
  23   2.0000      -0.610136       -16.6026
  24   2.0000      -0.589323       -16.0363
  25   2.0000      -0.574971       -15.6458
  26   2.0000      -0.566755       -15.4222
  27   2.0000      -0.549929       -14.9643
  28   2.0000      -0.549395       -14.9498
  29   2.0000      -0.486496       -13.2382
  30   2.0000      -0.476904       -12.9772
  31   2.0000      -0.446598       -12.1526
  32   2.0000      -0.432863       -11.7788
  33   2.0000      -0.402301       -10.9472
  34   0.0000       0.108870         2.9625
  35   0.0000       0.130444         3.5496
  36   0.0000       0.145989         3.9726
  37   0.0000       0.151400         4.1198
  38   0.0000       0.153977         4.1899

MULLIKEN ATOMIC CHARGES
-----------------------
   0 C :   -0.349809
   1 N :   -0.110430
   2 C :    0.148696
   3 O :   -0.344476
   4 C :    0.141850
   5 C :   -0.181612
   6 N :   -0.544586
   7 C :   -0.194603
   8 N :   -0.041573
   9 H :    0.162734
  10 H :    0.135687
  11 H :    0.188593
  12 H :    0.091103
  13 H :    0.134821
  14 H :    0.134294
  15 H :    0.141381
  16 H :    0.245021
  17 H :    0.242911
Sum of atomic charges:    0.0000000

LOEWDIN ATOMIC CHARGES
----------------------
   0 C :   -0.278744
   1 N :    0.169854
   2 C :   -0.408231
   3 O :    0.073514
   4 C :   -0.264067
   5 C :   -0.301772
   6 N :   -0.169982
   7 C :   -0.166096
   8 N :    0.075925
   9 H :    0.128063
  10 H :    0.117356
  11 H :    0.139118
  12 H :    0.119263
  13 H :    0.179269
  14 H :    0.125117
  15 H :    0.143804
  16 H :    0.158685
  17 H :    0.158927

  Mayer bond orders larger than 0.1
B(  0-C ,  1-N ) :   0.8561 B(  0-C ,  9-H ) :   0.9249 B(  0-C , 10-H ) :   0.9291
B(  0-C , 11-H ) :   0.9155 B(  1-N ,  2-C ) :   1.1056 B(  1-N ,  4-C ) :   0.9106
B(  2-C ,  3-O ) :   1.9074 B(  2-C , 12-H ) :   0.9251 B(  4-C ,  5-C ) :   0.8935
B(  4-C ,  7-C ) :   0.8942 B(  4-C , 13-H ) :   0.9018 B(  5-C ,  6-N ) :   1.0040
B(  5-C , 14-H ) :   0.9270 B(  5-C , 15-H ) :   0.9258 B(  6-N , 16-H ) :   0.8793
B(  6-N , 17-H ) :   0.8881 B(  7-C ,  8-N ) :   2.8596

MP2 TOTAL ENERGY:     -434.572171520 Eh
FINAL SINGLE POINT ENERGY      -434.572171520082

DIPOLE MOMENT
-------------
                                X             Y             Z
Electronic contribution:      5.24046      -2.08167       1.11541
Nuclear contribution   :     -6.65035       2.26609      -1.89172
                        -----------------------------------------
Total Dipole Moment    :     -1.40989       0.18442      -0.77631
                        -----------------------------------------
Magnitude (a.u.)       :      1.62002
Magnitude (Debye)      :      4.11776

                             ****ORCA TERMINATED NORMALLY****
TOTAL RUN TIME: 0 days 0 hours 16 minutes 51 seconds 626 msec
