                         Program Version 3.0.3 - RELEASE   -
|  1> ! RI-MP2 RIJK def2-TZVP def2-TZVP/C def2-TZVP/JK TIGHTSCF
|  2> % maxcore 2000
|  3> % mp2 density relaxed end
|  4> *xyz 0 1
|  5>  C        0.0812362326     1.5144557003     0.0587892098
|  6>  C       -0.0825837439     0.0360386606     0.0653053968
|  7>  C       -1.1319631917    -0.8151507870    -0.0562601929
|  8>  C       -2.6060751968    -0.9741016349    -0.2378426902
|  9>  O       -2.7925270421    -2.3954484750    -0.3825758491
| 10>  C       -1.6087070723    -3.1420664190    -0.0649699618
| 11>  C       -0.5454748342    -2.0948894860     0.0444548221
| 12>  N        0.7462514970    -2.0701753107     0.2121228946
| 13>  O        1.0494486133    -0.6971622772     0.2257762406
| 14>  H        0.7697336673     1.8279845065    -0.7325188425
| 15>  H       -0.8821621239     2.0006665486    -0.1054714275
| 16>  H        0.4911589079     1.8679418681     1.0106571389
| 17>  H       -3.1830726413    -0.6092920424     0.6248177491
| 18>  H       -3.0022148890    -0.4859854891    -1.1365765889
| 19>  H       -1.7415809839    -3.6927063553     0.8772131566
| 20>  H       -1.4242825487    -3.8702064273    -0.8627523756
| 21> *
| 22>
| 23>                          ****END OF INPUT****

CARTESIAN COORDINATES (ANGSTROEM)
---------------------------------
  C      0.081236    1.514456    0.058789
  C     -0.082584    0.036039    0.065305
  C     -1.131963   -0.815151   -0.056260
  C     -2.606075   -0.974102   -0.237843
  O     -2.792527   -2.395448   -0.382576
  C     -1.608707   -3.142066   -0.064970
  C     -0.545475   -2.094889    0.044455
  N      0.746251   -2.070175    0.212123
  O      1.049449   -0.697162    0.225776
  H      0.769734    1.827985   -0.732519
  H     -0.882162    2.000667   -0.105471
  H      0.491159    1.867942    1.010657
  H     -3.183073   -0.609292    0.624818
  H     -3.002215   -0.485985   -1.136577
  H     -1.741581   -3.692706    0.877213
  H     -1.424283   -3.870206   -0.862752

 Total Charge           Charge          ....    0
 Multiplicity           Mult            ....    1
 Number of Electrons    NEL             ....   66
 Basis Dimension        Dim             ....  321

ORBITAL ENERGIES
----------------

  NO   OCC          E(Eh)            E(eV)
   0   2.0000     -20.636715      -561.5536
   1   2.0000     -20.569994      -559.7380
   2   2.0000     -15.617793      -424.9818
   3   2.0000     -11.325729      -308.1888
   4   2.0000     -11.303183      -307.5752
   5   2.0000     -11.302213      -307.5488
   6   2.0000     -11.278300      -306.8981
   7   2.0000     -11.253600      -306.2260
   8   2.0000     -11.234770      -305.7136
   9   2.0000      -1.482320       -40.3360
  10   2.0000      -1.388506       -37.7832
  11   2.0000      -1.170031       -31.8382
  12   2.0000      -1.103237       -30.0206
  13   2.0000      -1.012546       -27.5528
  14   2.0000      -0.985589       -26.8192
  15   2.0000      -0.903724       -24.5916
  16   2.0000      -0.792203       -21.5569
  17   2.0000      -0.788105       -21.4454
  18   2.0000      -0.693074       -18.8595
  19   2.0000      -0.679067       -18.4784
  20   2.0000      -0.651360       -17.7244
  21   2.0000      -0.639746       -17.4084
  22   2.0000      -0.598949       -16.2982
  23   2.0000      -0.596242       -16.2246
  24   2.0000      -0.586051       -15.9473
  25   2.0000      -0.579237       -15.7618
  26   2.0000      -0.570412       -15.5217
  27   2.0000      -0.547796       -14.9063
  28   2.0000      -0.499957       -13.6045
  29   2.0000      -0.467068       -12.7096
  30   2.0000      -0.456768       -12.4293
  31   2.0000      -0.403804       -10.9881
  32   2.0000      -0.354548        -9.6478
  33   0.0000       0.115119         3.1326
  34   0.0000       0.125540         3.4161
  35   0.0000       0.152496         4.1496
  36   0.0000       0.171929         4.6784
  37   0.0000       0.188285         5.1235

MULLIKEN ATOMIC CHARGES
-----------------------
   0 C :   -0.428239
   1 C :    0.186372
   2 C :   -0.162064
   3 C :   -0.006762
   4 O :   -0.322292
   5 C :   -0.014312
   6 C :   -0.000559
   7 N :   -0.109770
   8 O :   -0.102448
   9 H :    0.160245
  10 H :    0.149891
  11 H :    0.159584
  12 H :    0.115575
  13 H :    0.122684
  14 H :    0.121530
  15 H :    0.130567
Sum of atomic charges:    0.0000000

LOEWDIN ATOMIC CHARGES
----------------------
   0 C :   -0.266219
   1 C :   -0.264910
   2 C :   -0.151575
   3 C :   -0.243724
   4 O :    0.139786
   5 C :   -0.242169
   6 C :   -0.267451
   7 N :    0.059525
   8 O :    0.284219
   9 H :    0.140492
  10 H :    0.138693
  11 H :    0.140188
  12 H :    0.130526
  13 H :    0.132793
  14 H :    0.133613
  15 H :    0.136213

  Mayer bond orders larger than 0.1
B(  0-C ,  1-C ) :   0.8403 B(  0-C ,  9-H ) :   0.9308 B(  0-C , 10-H ) :   0.9524
B(  0-C , 11-H ) :   0.9293 B(  1-C ,  2-C ) :   1.4418 B(  1-C ,  7-N ) :   0.1186
B(  1-C ,  8-O ) :   1.1499 B(  2-C ,  3-C ) :   0.9473 B(  2-C ,  6-C ) :   1.1859
B(  3-C ,  4-O ) :   0.9570 B(  3-C , 12-H ) :   0.9129 B(  3-C , 13-H ) :   0.9130
B(  4-O ,  5-C ) :   0.9419 B(  5-C ,  6-C ) :   0.9421 B(  5-C , 14-H ) :   0.9227
B(  5-C , 15-H ) :   0.9155 B(  6-C ,  7-N ) :   1.6599 B(  7-N ,  8-O ) :   0.8838

MP2 TOTAL ENERGY:     -437.142871315 Eh
FINAL SINGLE POINT ENERGY      -437.142871314853

DIPOLE MOMENT
-------------
                                X             Y             Z
Electronic contribution:      2.73851      -3.97377       0.20371
Nuclear contribution   :     -3.30711       4.93293      -0.19211
                        -----------------------------------------
Total Dipole Moment    :     -0.56861       0.95916       0.01160
                        -----------------------------------------
Magnitude (a.u.)       :      1.11509
Magnitude (Debye)      :      2.83434

                             ****ORCA TERMINATED NORMALLY****
TOTAL RUN TIME: 0 days 0 hours 16 minutes 40 seconds 677 msec
