                         Program Version 3.0.3 - RELEASE   -
|  1> ! RI-MP2 RIJK def2-TZVP def2-TZVP/C def2-TZVP/JK TIGHTSCF
|  2> % maxcore 2000
|  3> % mp2 density relaxed end
|  4> *xyz 0 1
|  5>  O        0.0776455478     1.4456774510     0.2781148881
|  6>  C       -0.0103491295     0.0851841050     0.0678608427
|  7>  C       -1.2801132965    -0.7544372716    -0.0358617053
|  8>  C       -0.7386402701    -1.9022391931    -0.8832487049
|  9>  N        0.5394412624    -1.6934247965    -1.4832823110
| 10>  C        1.0051778126    -0.6640884291    -0.8655727108
| 11>  N        1.9878875034    -0.9874948244     0.1930783137
| 12>  C        0.6601062156    -0.9183701480     1.0123515760
| 13>  C       -0.5371526456    -1.8835391690     0.6652632855
| 14>  H        0.0574697167     1.8902865843    -0.5770992187
| 15>  H       -2.3156522224    -0.4492700865     0.0087280233
| 16>  H       -1.4069296193    -2.6432801250    -1.3059078019
| 17>  H        2.4780239726    -0.1413658866     0.4982495913
| 18>  H        0.7979170818    -0.7040466917     2.0727273331
| 19>  H       -0.9163665796    -2.6749668789     1.2954498689
| 20> *
| 21>
| 22>                          ****END OF INPUT****

CARTESIAN COORDINATES (ANGSTROEM)
---------------------------------
  O      0.077646    1.445677    0.278115
  C     -0.010349    0.085184    0.067861
  C     -1.280113   -0.754437   -0.035862
  C     -0.738640   -1.902239   -0.883249
  N      0.539441   -1.693425   -1.483282
  C      1.005178   -0.664088   -0.865573
  N      1.987888   -0.987495    0.193078
  C      0.660106   -0.918370    1.012352
  C     -0.537153   -1.883539    0.665263
  H      0.057470    1.890287   -0.577099
  H     -2.315652   -0.449270    0.008728
  H     -1.406930   -2.643280   -1.305908
  H      2.478024   -0.141366    0.498250
  H      0.797917   -0.704047    2.072727
  H     -0.916367   -2.674967    1.295450

 Total Charge           Charge          ....    0
 Multiplicity           Mult            ....    1
 Number of Electrons    NEL             ....   64
 Basis Dimension        Dim             ....  315

ORBITAL ENERGIES
----------------

  NO   OCC          E(Eh)            E(eV)
   0   2.0000     -20.592579      -560.3526
   1   2.0000     -15.585866      -424.1130
   2   2.0000     -15.555713      -423.2925
   3   2.0000     -11.314421      -307.8810
   4   2.0000     -11.311195      -307.7933
   5   2.0000     -11.294565      -307.3407
   6   2.0000     -11.286619      -307.1245
   7   2.0000     -11.258948      -306.3715
   8   2.0000     -11.255333      -306.2732
   9   2.0000      -1.408452       -38.3259
  10   2.0000      -1.328851       -36.1599
  11   2.0000      -1.189726       -32.3741
  12   2.0000      -1.144790       -31.1513
  13   2.0000      -0.973294       -26.4847
  14   2.0000      -0.897806       -24.4305
  15   2.0000      -0.832709       -22.6592
  16   2.0000      -0.791461       -21.5367
  17   2.0000      -0.758859       -20.6496
  18   2.0000      -0.705919       -19.2090
  19   2.0000      -0.684060       -18.6142
  20   2.0000      -0.656053       -17.8521
  21   2.0000      -0.624705       -16.9991
  22   2.0000      -0.611127       -16.6296
  23   2.0000      -0.579349       -15.7649
  24   2.0000      -0.529048       -14.3961
  25   2.0000      -0.525849       -14.3091
  26   2.0000      -0.496760       -13.5175
  27   2.0000      -0.473626       -12.8880
  28   2.0000      -0.437695       -11.9103
  29   2.0000      -0.413419       -11.2497
  30   2.0000      -0.395273       -10.7559
  31   2.0000      -0.328680        -8.9438
  32   0.0000       0.078293         2.1305
  33   0.0000       0.136414         3.7120
  34   0.0000       0.148299         4.0354
  35   0.0000       0.160869         4.3775
  36   0.0000       0.180684         4.9167

MULLIKEN ATOMIC CHARGES
-----------------------
   0 O :   -0.453796
   1 C :    0.283174
   2 C :   -0.211575
   3 C :   -0.050285
   4 N :   -0.175098
   5 C :   -0.061723
   6 N :   -0.286633
   7 C :   -0.032737
   8 C :   -0.179363
   9 H :    0.336773
  10 H :    0.159793
  11 H :    0.136956
  12 H :    0.220634
  13 H :    0.155032
  14 H :    0.158847
Sum of atomic charges:    0.0000000

LOEWDIN ATOMIC CHARGES
----------------------
   0 O :    0.041901
   1 C :   -0.317196
   2 C :   -0.124977
   3 C :   -0.205252
   4 N :    0.165501
   5 C :   -0.281258
   6 N :    0.023542
   7 C :   -0.138207
   8 C :   -0.112675
   9 H :    0.190884
  10 H :    0.143899
  11 H :    0.145811
  12 H :    0.173119
  13 H :    0.153629
  14 H :    0.141280

  Mayer bond orders larger than 0.1
B(  0-O ,  1-C ) :   1.0562 B(  0-O ,  9-H ) :   0.8273 B(  1-C ,  2-C ) :   0.9457
B(  1-C ,  5-C ) :   0.9400 B(  1-C ,  7-C ) :   0.9338 B(  2-C ,  3-C ) :   0.8182
B(  2-C ,  8-C ) :   0.8660 B(  2-C , 10-H ) :   0.9072 B(  3-C ,  4-N ) :   1.0387
B(  3-C ,  8-C ) :   0.8047 B(  3-C , 11-H ) :   0.9350 B(  4-N ,  5-C ) :   1.7372
B(  5-C ,  6-N ) :   1.0086 B(  6-N ,  7-C ) :   0.8865 B(  6-N , 12-H ) :   0.8610
B(  7-C ,  8-C ) :   0.9244 B(  7-C , 13-H ) :   0.8876 B(  8-C , 14-H ) :   0.9139

MP2 TOTAL ENERGY:     -415.965675961 Eh
FINAL SINGLE POINT ENERGY      -415.965675961146

DIPOLE MOMENT
-------------
                                X             Y             Z
Electronic contribution:      1.41155       0.82169      -1.97611
Nuclear contribution   :     -2.34442      -0.17811       2.42558
                        -----------------------------------------
Total Dipole Moment    :     -0.93287       0.64359       0.44947
                        -----------------------------------------
Magnitude (a.u.)       :      1.21921
Magnitude (Debye)      :      3.09898

                             ****ORCA TERMINATED NORMALLY****
TOTAL RUN TIME: 0 days 0 hours 19 minutes 25 seconds 922 msec
