                         Program Version 3.0.3 - RELEASE   -
|  1> ! RI-MP2 RIJK def2-TZVP def2-TZVP/C def2-TZVP/JK TIGHTSCF
|  2> % maxcore 2000
|  3> % mp2 density relaxed end
|  4> *xyz 0 1
|  5>  C       -0.7264930653     1.3631092902     0.2525625393
|  6>  C        0.0448332438     0.0863761591     0.0013716497
|  7>  N        0.4589912305    -0.5603106691     1.1217481874
|  8>  N        0.3656062168    -0.4505494978    -1.1291428452
|  9>  C        0.1022201505     0.1184823725    -2.3386020512
| 10>  N        0.2653921635    -0.5984034054    -3.4368659923
| 11>  O       -0.0610384290     0.2971471560    -4.4667365091
| 12>  C       -0.3755460246     1.4469578462    -3.8783550129
| 13>  N       -0.3042522268     1.4317836478    -2.5897706047
| 14>  H       -0.1387641381     2.2256239632    -0.0675536936
| 15>  H       -1.6417482842     1.3782616415    -0.3406305468
| 16>  H       -0.9776856886     1.4727346361     1.3107250059
| 17>  H        0.1113395077    -0.3082599613     2.0285229972
| 18>  H        0.9111915104    -1.4529863402     1.0057516825
| 19>  H       -0.6526430265     2.2703644410    -4.5216862162
| 20> *
| 21>
| 22>                          ****END OF INPUT****

CARTESIAN COORDINATES (ANGSTROEM)
---------------------------------
  C     -0.726493    1.363109    0.252563
  C      0.044833    0.086376    0.001372
  N      0.458991   -0.560311    1.121748
  N      0.365606   -0.450549   -1.129143
  C      0.102220    0.118482   -2.338602
  N      0.265392   -0.598403   -3.436866
  O     -0.061038    0.297147   -4.466737
  C     -0.375546    1.446958   -3.878355
  N     -0.304252    1.431784   -2.589771
  H     -0.138764    2.225624   -0.067554
  H     -1.641748    1.378262   -0.340631
  H     -0.977686    1.472735    1.310725
  H      0.111340   -0.308260    2.028523
  H      0.911192   -1.452986    1.005752
  H     -0.652643    2.270364   -4.521686

 Total Charge           Charge          ....    0
 Multiplicity           Mult            ....    1
 Number of Electrons    NEL             ....   66
 Basis Dimension        Dim             ....  315

ORBITAL ENERGIES
----------------

  NO   OCC          E(Eh)            E(eV)
   0   2.0000     -20.643145      -561.7285
   1   2.0000     -15.597519      -424.4301
   2   2.0000     -15.593844      -424.3301
   3   2.0000     -15.567624      -423.6166
   4   2.0000     -15.539573      -422.8533
   5   2.0000     -11.351742      -308.8966
   6   2.0000     -11.351524      -308.8907
   7   2.0000     -11.330239      -308.3115
   8   2.0000     -11.246756      -306.0398
   9   2.0000      -1.505591       -40.9692
  10   2.0000      -1.302816       -35.4514
  11   2.0000      -1.247663       -33.9506
  12   2.0000      -1.187593       -32.3160
  13   2.0000      -1.120223       -30.4828
  14   2.0000      -1.008637       -27.4464
  15   2.0000      -0.877308       -23.8728
  16   2.0000      -0.857034       -23.3211
  17   2.0000      -0.783408       -21.3176
  18   2.0000      -0.747229       -20.3331
  19   2.0000      -0.707323       -19.2472
  20   2.0000      -0.674257       -18.3475
  21   2.0000      -0.667613       -18.1667
  22   2.0000      -0.615196       -16.7403
  23   2.0000      -0.613304       -16.6889
  24   2.0000      -0.589140       -16.0313
  25   2.0000      -0.570659       -15.5284
  26   2.0000      -0.526654       -14.3310
  27   2.0000      -0.505905       -13.7664
  28   2.0000      -0.478280       -13.0146
  29   2.0000      -0.457035       -12.4366
  30   2.0000      -0.426849       -11.6152
  31   2.0000      -0.417210       -11.3529
  32   2.0000      -0.339942        -9.2503
  33   0.0000       0.116647         3.1741
  34   0.0000       0.121739         3.3127
  35   0.0000       0.154387         4.2011
  36   0.0000       0.158574         4.3150
  37   0.0000       0.172686         4.6990

MULLIKEN ATOMIC CHARGES
-----------------------
   0 C :   -0.346931
   1 C :    0.236715
   2 N :   -0.471818
   3 N :   -0.300570
   4 C :    0.211663
   5 N :   -0.117351
   6 O :   -0.094872
   7 C :    0.098110
   8 N :   -0.333820
   9 H :    0.161419
  10 H :    0.154136
  11 H :    0.117139
  12 H :    0.257655
  13 H :    0.264521
  14 H :    0.164003
Sum of atomic charges:    0.0000000

LOEWDIN ATOMIC CHARGES
----------------------
   0 C :   -0.272458
   1 C :   -0.351029
   2 N :    0.000830
   3 N :    0.119940
   4 C :   -0.437489
   5 N :    0.047711
   6 O :    0.269855
   7 C :   -0.362976
   8 N :    0.093525
   9 H :    0.144725
  10 H :    0.141548
  11 H :    0.123385
  12 H :    0.169714
  13 H :    0.177199
  14 H :    0.135521

  Mayer bond orders larger than 0.1
B(  0-C ,  1-C ) :   0.9421 B(  0-C ,  9-H ) :   0.9114 B(  0-C , 10-H ) :   0.9248
B(  0-C , 11-H ) :   0.9182 B(  1-C ,  2-N ) :   1.1733 B(  1-C ,  3-N ) :   1.6479
B(  2-N , 12-H ) :   0.8724 B(  2-N , 13-H ) :   0.8557 B(  3-N ,  4-C ) :   1.2154
B(  4-C ,  5-N ) :   1.6113 B(  4-C ,  8-N ) :   1.1293 B(  5-N ,  6-O ) :   0.8675
B(  6-O ,  7-C ) :   1.1571 B(  7-C ,  8-N ) :   1.6289 B(  7-C , 14-H ) :   0.9164

MP2 TOTAL ENERGY:     -449.395247371 Eh
FINAL SINGLE POINT ENERGY      -449.395247371483

DIPOLE MOMENT
-------------
                                X             Y             Z
Electronic contribution:      1.57276      -2.46625      -8.18244
Nuclear contribution   :     -2.06434       3.26216       9.60355
                        -----------------------------------------
Total Dipole Moment    :     -0.49158       0.79590       1.42111
                        -----------------------------------------
Magnitude (a.u.)       :      1.70137
Magnitude (Debye)      :      4.32454

                             ****ORCA TERMINATED NORMALLY****
TOTAL RUN TIME: 0 days 0 hours 14 minutes 25 seconds 38 msec
