                         Program Version 3.0.3 - RELEASE   -
|  1> ! RI-MP2 RIJK def2-TZVP def2-TZVP/C def2-TZVP/JK TIGHTSCF
|  2> % maxcore 2000
|  3> % mp2 density relaxed end
|  4> *xyz 0 1
|  5>  C        0.2572766854     0.8418845142    -0.9222362429
|  6>  C       -0.0315498969    -0.2607761128     0.0817372867
|  7>  O       -1.2792397338    -0.8486648046    -0.2500863984
|  8>  C       -1.6369513608    -1.9805585762     0.5169383967
|  9>  C       -2.1527999367    -1.6386682632     1.9182664788
| 10>  C       -2.6784635746    -2.7698138342    -0.2751615828
| 11>  O       -3.2932622564    -3.6861630544     0.2294026061
| 12>  C       -2.9236313953    -2.4125323894    -1.7304487528
| 13>  O       -3.8680168713    -3.2674695085    -2.3036750438
| 14>  H        1.2147869705     1.3196773369    -0.6951544166
| 15>  H        0.3016609430     0.4370743764    -1.9371366658
| 16>  H       -0.5263590763     1.6039985028    -0.8905706878
| 17>  H        0.7595352881    -1.0284338559     0.0560595293
| 18>  H       -0.0549774345     0.1491183169     1.1023605368
| 19>  H       -0.7665473947    -2.6558422617     0.6101357501
| 20>  H       -2.5292836932    -2.5453851995     2.3961398022
| 21>  H       -1.3595215741    -1.2171093484     2.5401299580
| 22>  H       -2.9676299596    -0.9118377566     1.8509307945
| 23>  H       -3.2419123595    -1.3595874223    -1.7731022545
| 24>  H       -1.9604652945    -2.4514234034    -2.2630918165
| 25>  H       -4.1298085946    -3.8717468460    -1.5907316174
| 26> *
| 27>
| 28>                          ****END OF INPUT****

CARTESIAN COORDINATES (ANGSTROEM)
---------------------------------
  C      0.257277    0.841885   -0.922236
  C     -0.031550   -0.260776    0.081737
  O     -1.279240   -0.848665   -0.250086
  C     -1.636951   -1.980559    0.516938
  C     -2.152800   -1.638668    1.918266
  C     -2.678464   -2.769814   -0.275162
  O     -3.293262   -3.686163    0.229403
  C     -2.923631   -2.412532   -1.730449
  O     -3.868017   -3.267470   -2.303675
  H      1.214787    1.319677   -0.695154
  H      0.301661    0.437074   -1.937137
  H     -0.526359    1.603999   -0.890571
  H      0.759535   -1.028434    0.056060
  H     -0.054977    0.149118    1.102361
  H     -0.766547   -2.655842    0.610136
  H     -2.529284   -2.545385    2.396140
  H     -1.359522   -1.217109    2.540130
  H     -2.967630   -0.911838    1.850931
  H     -3.241912   -1.359587   -1.773102
  H     -1.960465   -2.451423   -2.263092
  H     -4.129809   -3.871747   -1.590732

 Total Charge           Charge          ....    0
 Multiplicity           Mult            ....    1
 Number of Electrons    NEL             ....   72
 Basis Dimension        Dim             ....  351

ORBITAL ENERGIES
----------------

  NO   OCC          E(Eh)            E(eV)
   0   2.0000     -20.575059      -559.8758
   1   2.0000     -20.563024      -559.5483
   2   2.0000     -20.549046      -559.1680
   3   2.0000     -11.341760      -308.6250
   4   2.0000     -11.309023      -307.7342
   5   2.0000     -11.292679      -307.2894
   6   2.0000     -11.284683      -307.0718
   7   2.0000     -11.231689      -305.6298
   8   2.0000     -11.227814      -305.5244
   9   2.0000      -1.417942       -38.5842
  10   2.0000      -1.396622       -38.0040
  11   2.0000      -1.354460       -36.8567
  12   2.0000      -1.073702       -29.2169
  13   2.0000      -1.008377       -27.4393
  14   2.0000      -0.981845       -26.7174
  15   2.0000      -0.886590       -24.1253
  16   2.0000      -0.843982       -22.9659
  17   2.0000      -0.763886       -20.7864
  18   2.0000      -0.720689       -19.6109
  19   2.0000      -0.697282       -18.9740
  20   2.0000      -0.677917       -18.4471
  21   2.0000      -0.657366       -17.8878
  22   2.0000      -0.643012       -17.4972
  23   2.0000      -0.604254       -16.4426
  24   2.0000      -0.595732       -16.2107
  25   2.0000      -0.572268       -15.5722
  26   2.0000      -0.567075       -15.4309
  27   2.0000      -0.548168       -14.9164
  28   2.0000      -0.543453       -14.7881
  29   2.0000      -0.534224       -14.5370
  30   2.0000      -0.526194       -14.3185
  31   2.0000      -0.504018       -13.7150
  32   2.0000      -0.493882       -13.4392
  33   2.0000      -0.449730       -12.2378
  34   2.0000      -0.441721       -12.0198
  35   2.0000      -0.421052       -11.4574
  36   0.0000       0.115921         3.1544
  37   0.0000       0.133533         3.6336
  38   0.0000       0.157455         4.2846
  39   0.0000       0.159412         4.3378
  40   0.0000       0.162835         4.4310

MULLIKEN ATOMIC CHARGES
-----------------------
   0 C :   -0.369181
   1 C :   -0.053540
   2 O :   -0.303372
   3 C :    0.078400
   4 C :   -0.405737
   5 C :    0.178069
   6 O :   -0.330591
   7 C :   -0.009266
   8 O :   -0.485336
   9 H :    0.127745
  10 H :    0.132449
  11 H :    0.133877
  12 H :    0.096185
  13 H :    0.101048
  14 H :    0.099651
  15 H :    0.159304
  16 H :    0.137319
  17 H :    0.134368
  18 H :    0.127718
  19 H :    0.116917
  20 H :    0.333973
Sum of atomic charges:   -0.0000000

LOEWDIN ATOMIC CHARGES
----------------------
   0 C :   -0.314483
   1 C :   -0.344979
   2 O :    0.184742
   3 C :   -0.324228
   4 C :   -0.285797
   5 C :   -0.299826
   6 O :    0.142341
   7 C :   -0.338682
   8 O :   -0.036430
   9 H :    0.126459
  10 H :    0.124607
  11 H :    0.125616
  12 H :    0.118370
  13 H :    0.119180
  14 H :    0.152759
  15 H :    0.136799
  16 H :    0.123008
  17 H :    0.129848
  18 H :    0.141149
  19 H :    0.139183
  20 H :    0.180363

  Mayer bond orders larger than 0.1
B(  0-C ,  1-C ) :   0.9574 B(  0-C ,  9-H ) :   0.9321 B(  0-C , 10-H ) :   0.9367
B(  0-C , 11-H ) :   0.9355 B(  1-C ,  2-O ) :   0.9047 B(  1-C , 12-H ) :   0.9238
B(  1-C , 13-H ) :   0.9212 B(  2-O ,  3-C ) :   0.9484 B(  3-C ,  4-C ) :   0.9217
B(  3-C ,  5-C ) :   0.8947 B(  3-C , 14-H ) :   0.9144 B(  4-C , 15-H ) :   0.9233
B(  4-C , 16-H ) :   0.9345 B(  4-C , 17-H ) :   0.9293 B(  5-C ,  6-O ) :   1.8915
B(  5-C ,  7-C ) :   0.9666 B(  7-C ,  8-O ) :   1.0039 B(  7-C , 18-H ) :   0.8996
B(  7-C , 19-H ) :   0.8976 B(  8-O , 20-H ) :   0.8071

MP2 TOTAL ENERGY:     -460.635724528 Eh
FINAL SINGLE POINT ENERGY      -460.635724527513

DIPOLE MOMENT
-------------
                                X             Y             Z
Electronic contribution:     -6.66316      -7.56779      -2.34518
Nuclear contribution   :      7.83799       8.32784       3.06195
                        -----------------------------------------
Total Dipole Moment    :      1.17482       0.76005       0.71677
                        -----------------------------------------
Magnitude (a.u.)       :      1.57214
Magnitude (Debye)      :      3.99607

                             ****ORCA TERMINATED NORMALLY****
TOTAL RUN TIME: 0 days 0 hours 17 minutes 11 seconds 619 msec
