                         Program Version 3.0.3 - RELEASE   -
|  1> ! RI-MP2 RIJK def2-TZVP def2-TZVP/C def2-TZVP/JK TIGHTSCF
|  2> % maxcore 2000
|  3> % mp2 density relaxed end
|  4> *xyz 0 1
|  5>  C       -0.0217429983     1.4855633595    -0.1280059761
|  6>  O        1.3732548050     1.5904037630     0.2114370016
|  7>  C        1.4387176100     0.1976900327     0.5696272745
|  8>  C        0.0094403920    -0.0618804943     0.0163017183
|  9>  C       -0.9901299563    -0.7298974736     0.8755741927
| 10>  C       -1.8311573511    -1.7848478309     0.6880766095
| 11>  C       -2.5614792076    -1.9521136902     1.9099918452
| 12>  C       -2.1104525028    -0.9856981372     2.7490977974
| 13>  O       -1.1555203167    -0.2329519450     2.1387233370
| 14>  H       -0.6643125715     1.9855362768     0.6072897097
| 15>  H       -0.2364942166     1.8783319483    -1.1281298555
| 16>  H        2.2598108569    -0.3229731044     0.0643059350
| 17>  H        1.5262507361     0.0538348751     1.6536796919
| 18>  H        0.0276200269    -0.5655478228    -0.9515744682
| 19>  H       -1.9195977609    -2.3726795361    -0.2124200752
| 20>  H       -3.3165650423    -2.6908834876     2.1278830246
| 21>  H       -2.3479196227    -0.7063397434     3.7622213774
| 22> *
| 23>
| 24>                          ****END OF INPUT****

CARTESIAN COORDINATES (ANGSTROEM)
---------------------------------
  C     -0.021743    1.485563   -0.128006
  O      1.373255    1.590404    0.211437
  C      1.438718    0.197690    0.569627
  C      0.009440   -0.061880    0.016302
  C     -0.990130   -0.729897    0.875574
  C     -1.831157   -1.784848    0.688077
  C     -2.561479   -1.952114    1.909992
  C     -2.110453   -0.985698    2.749098
  O     -1.155520   -0.232952    2.138723
  H     -0.664313    1.985536    0.607290
  H     -0.236494    1.878332   -1.128130
  H      2.259811   -0.322973    0.064306
  H      1.526251    0.053835    1.653680
  H      0.027620   -0.565548   -0.951574
  H     -1.919598   -2.372680   -0.212420
  H     -3.316565   -2.690883    2.127883
  H     -2.347920   -0.706340    3.762221

 Total Charge           Charge          ....    0
 Multiplicity           Mult            ....    1
 Number of Electrons    NEL             ....   66
 Basis Dimension        Dim             ....  327

ORBITAL ENERGIES
----------------

  NO   OCC          E(Eh)            E(eV)
   0   2.0000     -20.622716      -561.1726
   1   2.0000     -20.548484      -559.1527
   2   2.0000     -11.294441      -307.3374
   3   2.0000     -11.289061      -307.1910
   4   2.0000     -11.281981      -306.9983
   5   2.0000     -11.281975      -306.9981
   6   2.0000     -11.250782      -306.1493
   7   2.0000     -11.232295      -305.6463
   8   2.0000     -11.230842      -305.6067
   9   2.0000      -1.460934       -39.7540
  10   2.0000      -1.379751       -37.5449
  11   2.0000      -1.089383       -29.6436
  12   2.0000      -1.066948       -29.0331
  13   2.0000      -0.969102       -26.3706
  14   2.0000      -0.935768       -25.4635
  15   2.0000      -0.816010       -22.2048
  16   2.0000      -0.808230       -21.9931
  17   2.0000      -0.757313       -20.6075
  18   2.0000      -0.724935       -19.7265
  19   2.0000      -0.683235       -18.5918
  20   2.0000      -0.648343       -17.6423
  21   2.0000      -0.646977       -17.6051
  22   2.0000      -0.595298       -16.1989
  23   2.0000      -0.586405       -15.9569
  24   2.0000      -0.567546       -15.4437
  25   2.0000      -0.563826       -15.3425
  26   2.0000      -0.552401       -15.0316
  27   2.0000      -0.548061       -14.9135
  28   2.0000      -0.481599       -13.1050
  29   2.0000      -0.467520       -12.7219
  30   2.0000      -0.415650       -11.3104
  31   2.0000      -0.400846       -10.9076
  32   2.0000      -0.314046        -8.5456
  33   0.0000       0.133018         3.6196
  34   0.0000       0.144843         3.9414
  35   0.0000       0.171859         4.6765
  36   0.0000       0.174604         4.7512
  37   0.0000       0.182021         4.9530

MULLIKEN ATOMIC CHARGES
-----------------------
   0 C :   -0.027119
   1 O :   -0.328970
   2 C :   -0.027101
   3 C :   -0.049574
   4 C :    0.185261
   5 C :   -0.306763
   6 C :   -0.125116
   7 C :   -0.058406
   8 O :   -0.227044
   9 H :    0.105327
  10 H :    0.101738
  11 H :    0.101739
  12 H :    0.105325
  13 H :    0.122121
  14 H :    0.139130
  15 H :    0.141689
  16 H :    0.147761
Sum of atomic charges:   -0.0000000

LOEWDIN ATOMIC CHARGES
----------------------
   0 C :   -0.243577
   1 O :    0.111944
   2 C :   -0.243573
   3 C :   -0.208960
   4 C :   -0.241587
   5 C :   -0.160046
   6 C :   -0.190143
   7 C :   -0.241561
   8 O :    0.359544
   9 H :    0.121163
  10 H :    0.116316
  11 H :    0.116318
  12 H :    0.121162
  13 H :    0.161639
  14 H :    0.145015
  15 H :    0.143592
  16 H :    0.132755

  Mayer bond orders larger than 0.1
B(  0-C ,  1-O ) :   0.9534 B(  0-C ,  3-C ) :   0.9287 B(  0-C ,  9-H ) :   0.9070
B(  0-C , 10-H ) :   0.9141 B(  1-O ,  2-C ) :   0.9534 B(  2-C ,  3-C ) :   0.9287
B(  2-C , 11-H ) :   0.9141 B(  2-C , 12-H ) :   0.9070 B(  3-C ,  4-C ) :   0.9429
B(  3-C , 13-H ) :   0.9271 B(  4-C ,  5-C ) :   1.4964 B(  4-C ,  8-O ) :   1.0009
B(  5-C ,  6-C ) :   1.2125 B(  5-C , 14-H ) :   0.9239 B(  6-C ,  7-C ) :   1.5437
B(  6-C , 15-H ) :   0.9236 B(  7-C ,  8-O ) :   1.0643 B(  7-C , 16-H ) :   0.9353

MP2 TOTAL ENERGY:     -421.112391938 Eh
FINAL SINGLE POINT ENERGY      -421.112391938297

DIPOLE MOMENT
-------------
                                X             Y             Z
Electronic contribution:     -0.67709       0.21286       1.80942
Nuclear contribution   :      0.11813      -0.90865      -1.92334
                        -----------------------------------------
Total Dipole Moment    :     -0.55896      -0.69579      -0.11392
                        -----------------------------------------
Magnitude (a.u.)       :      0.89975
Magnitude (Debye)      :      2.28697

                             ****ORCA TERMINATED NORMALLY****
TOTAL RUN TIME: 0 days 0 hours 14 minutes 39 seconds 568 msec
