                         Program Version 3.0.3 - RELEASE   -
|  1> ! RI-MP2 RIJK def2-TZVP def2-TZVP/C def2-TZVP/JK TIGHTSCF
|  2> % maxcore 2000
|  3> % mp2 density relaxed end
|  4> *xyz 0 1
|  5>  N       -0.0919845623     1.3027386988     0.3093957390
|  6>  C        0.0103546734     0.0996254568    -0.0522960644
|  7>  N       -1.1357436247    -0.6896220212    -0.1526425485
|  8>  C       -1.1934648038    -1.9939431523    -0.5258941460
|  9>  O       -2.1774522586    -2.6688113663    -0.6115206574
| 10>  N        0.1165003742    -2.5795678915    -0.8443940707
| 11>  N        1.1651395588    -1.9891446640    -0.7908235715
| 12>  O        1.1660628096    -0.5269627203    -0.3651332128
| 13>  H        0.8176325810     1.7581202527     0.3392492190
| 14>  H       -2.0044840074    -0.2259483028     0.0803281033
| 15> *
| 16>
| 17>                          ****END OF INPUT****

CARTESIAN COORDINATES (ANGSTROEM)
---------------------------------
  N     -0.091985    1.302739    0.309396
  C      0.010355    0.099625   -0.052296
  N     -1.135744   -0.689622   -0.152643
  C     -1.193465   -1.993943   -0.525894
  O     -2.177452   -2.668811   -0.611521
  N      0.116500   -2.579568   -0.844394
  N      1.165140   -1.989145   -0.790824
  O      1.166063   -0.526963   -0.365133
  H      0.817633    1.758120    0.339249
  H     -2.004484   -0.225948    0.080328

 Total Charge           Charge          ....    0
 Multiplicity           Mult            ....    1
 Number of Electrons    NEL             ....   58
 Basis Dimension        Dim             ....  260

ORBITAL ENERGIES
----------------

  NO   OCC          E(Eh)            E(eV)
   0   2.0000     -20.668247      -562.4116
   1   2.0000     -20.594926      -560.4164
   2   2.0000     -15.785536      -429.5463
   3   2.0000     -15.699168      -427.1961
   4   2.0000     -15.661076      -426.1596
   5   2.0000     -15.561860      -423.4597
   6   2.0000     -11.452889      -311.6490
   7   2.0000     -11.420129      -310.7575
   8   2.0000      -1.535918       -41.7945
   9   2.0000      -1.463152       -39.8144
  10   2.0000      -1.408006       -38.3138
  11   2.0000      -1.317569       -35.8529
  12   2.0000      -1.213848       -33.0305
  13   2.0000      -1.030009       -28.0280
  14   2.0000      -0.932897       -25.3854
  15   2.0000      -0.847358       -23.0578
  16   2.0000      -0.813336       -22.1320
  17   2.0000      -0.724584       -19.7169
  18   2.0000      -0.722882       -19.6706
  19   2.0000      -0.692023       -18.8309
  20   2.0000      -0.671614       -18.2755
  21   2.0000      -0.630384       -17.1536
  22   2.0000      -0.614103       -16.7106
  23   2.0000      -0.600006       -16.3270
  24   2.0000      -0.549017       -14.9395
  25   2.0000      -0.498684       -13.5699
  26   2.0000      -0.496016       -13.4973
  27   2.0000      -0.457574       -12.4512
  28   2.0000      -0.417814       -11.3693
  29   0.0000       0.034054         0.9267
  30   0.0000       0.129187         3.5153
  31   0.0000       0.148188         4.0324
  32   0.0000       0.150169         4.0863
  33   0.0000       0.175604         4.7784

MULLIKEN ATOMIC CHARGES
-----------------------
   0 N :   -0.415932
   1 C :    0.280105
   2 N :   -0.264229
   3 C :    0.284240
   4 O :   -0.248656
   5 N :   -0.038973
   6 N :    0.071026
   7 O :   -0.199665
   8 H :    0.245469
   9 H :    0.286615
Sum of atomic charges:   -0.0000000

LOEWDIN ATOMIC CHARGES
----------------------
   0 N :   -0.063034
   1 C :   -0.517084
   2 N :    0.185593
   3 C :   -0.496923
   4 O :    0.167884
   5 N :    0.095810
   6 N :    0.072387
   7 O :    0.152353
   8 H :    0.179107
   9 H :    0.223907

  Mayer bond orders larger than 0.1
B(  0-N ,  1-C ) :   1.9287 B(  0-N ,  8-H ) :   0.8473 B(  1-C ,  2-N ) :   0.9926
B(  1-C ,  7-O ) :   1.1285 B(  2-N ,  3-C ) :   1.1537 B(  2-N ,  9-H ) :   0.8345
B(  3-C ,  4-O ) :   2.0246 B(  3-C ,  5-N ) :   0.8931 B(  5-N ,  6-N ) :   1.7242
B(  5-N ,  7-O ) :   0.1043 B(  6-N ,  7-O ) :   0.6733

MP2 TOTAL ENERGY:     -446.049930746 Eh
FINAL SINGLE POINT ENERGY      -446.049930745568

DIPOLE MOMENT
-------------
                                X             Y             Z
Electronic contribution:      0.67236      -3.04523      -0.96224
Nuclear contribution   :     -0.60699       3.52758       1.09542
                        -----------------------------------------
Total Dipole Moment    :      0.06537       0.48235       0.13319
                        -----------------------------------------
Magnitude (a.u.)       :      0.50465
Magnitude (Debye)      :      1.28273

                             ****ORCA TERMINATED NORMALLY****
TOTAL RUN TIME: 0 days 0 hours 7 minutes 32 seconds 978 msec
