                         Program Version 3.0.3 - RELEASE   -
|  1> ! RI-MP2 RIJK def2-TZVP def2-TZVP/C def2-TZVP/JK TIGHTSCF
|  2> % maxcore 2000
|  3> % mp2 density relaxed end
|  4> *xyz 0 1
|  5>  C        0.0096150672     1.5772130084    -0.0258097713
|  6>  C        0.1200496955     0.0489120351    -0.0026941651
|  7>  C        0.6761095905    -0.5377048512    -1.2992220433
|  8>  C        0.6385378038    -2.0677168320    -1.3336429637
|  9>  C       -0.6774552915    -2.0867144527    -2.0130251253
| 10>  C       -0.3408752030    -0.6157157742    -2.4789775404
| 11>  C        0.4859978420    -1.2981985302    -3.5789279010
| 12>  N        0.5272809642    -2.5539366303    -2.7556213077
| 13>  H        0.9878739195     2.0417780397    -0.1915293111
| 14>  H       -0.6579213203     1.9205282991    -0.8232004753
| 15>  H       -0.3829342828     1.9587996379     0.9217550091
| 16>  H        0.7681525561    -0.2532395267     0.8306338471
| 17>  H       -0.8630814028    -0.3949236524     0.2013120949
| 18>  H        1.6361337763    -0.0623364171    -1.5437269297
| 19>  H        1.0559349700    -2.7707993806    -0.6236111708
| 20>  H       -1.5802354120    -2.6691026848    -1.8864316394
| 21>  H       -1.0336529404     0.2002953030    -2.6782619461
| 22>  H       -0.0788265489    -1.5075770808    -4.4910231283
| 23>  H        1.4627652267    -0.8699825802    -3.8356882426
| 24> *
| 25>
| 26>                          ****END OF INPUT****

CARTESIAN COORDINATES (ANGSTROEM)
---------------------------------
  C      0.009615    1.577213   -0.025810
  C      0.120050    0.048912   -0.002694
  C      0.676110   -0.537705   -1.299222
  C      0.638538   -2.067717   -1.333643
  C     -0.677455   -2.086714   -2.013025
  C     -0.340875   -0.615716   -2.478978
  C      0.485998   -1.298199   -3.578928
  N      0.527281   -2.553937   -2.755621
  H      0.987874    2.041778   -0.191529
  H     -0.657921    1.920528   -0.823200
  H     -0.382934    1.958800    0.921755
  H      0.768153   -0.253240    0.830634
  H     -0.863081   -0.394924    0.201312
  H      1.636134   -0.062336   -1.543727
  H      1.055935   -2.770799   -0.623611
  H     -1.580235   -2.669103   -1.886432
  H     -1.033653    0.200295   -2.678262
  H     -0.078827   -1.507577   -4.491023
  H      1.462765   -0.869983   -3.835688

 Total Charge           Charge          ....    0
 Multiplicity           Mult            ....    1
 Number of Electrons    NEL             ....   60
 Basis Dimension        Dim             ....  314

ORBITAL ENERGIES
----------------

  NO   OCC          E(Eh)            E(eV)
   0   2.0000     -15.557656      -423.3453
   1   2.0000     -11.258708      -306.3650
   2   2.0000     -11.255723      -306.2838
   3   2.0000     -11.251070      -306.1572
   4   2.0000     -11.241051      -305.8846
   5   2.0000     -11.235273      -305.7273
   6   2.0000     -11.225471      -305.4606
   7   2.0000     -11.217403      -305.2410
   8   2.0000      -1.311497       -35.6876
   9   2.0000      -1.075013       -29.2526
  10   2.0000      -0.987715       -26.8771
  11   2.0000      -0.979810       -26.6620
  12   2.0000      -0.883342       -24.0370
  13   2.0000      -0.828921       -22.5561
  14   2.0000      -0.763132       -20.7659
  15   2.0000      -0.724792       -19.7226
  16   2.0000      -0.695734       -18.9319
  17   2.0000      -0.631081       -17.1726
  18   2.0000      -0.619319       -16.8525
  19   2.0000      -0.595423       -16.2023
  20   2.0000      -0.571171       -15.5423
  21   2.0000      -0.558629       -15.2011
  22   2.0000      -0.520428       -14.1616
  23   2.0000      -0.499010       -13.5788
  24   2.0000      -0.484830       -13.1929
  25   2.0000      -0.459368       -12.5000
  26   2.0000      -0.445160       -12.1134
  27   2.0000      -0.428007       -11.6467
  28   2.0000      -0.409447       -11.1416
  29   2.0000      -0.366558        -9.9745
  30   0.0000       0.138124         3.7585
  31   0.0000       0.159314         4.3351
  32   0.0000       0.165694         4.5088
  33   0.0000       0.169289         4.6066
  34   0.0000       0.189058         5.1445

MULLIKEN ATOMIC CHARGES
-----------------------
   0 C :   -0.393368
   1 C :   -0.249770
   2 C :   -0.027156
   3 C :   -0.075975
   4 C :   -0.166656
   5 C :   -0.098142
   6 C :   -0.103788
   7 N :   -0.228816
   8 H :    0.126059
   9 H :    0.122377
  10 H :    0.135773
  11 H :    0.114677
  12 H :    0.119964
  13 H :    0.091764
  14 H :    0.131925
  15 H :    0.142776
  16 H :    0.133608
  17 H :    0.121001
  18 H :    0.103746
Sum of atomic charges:    0.0000000

LOEWDIN ATOMIC CHARGES
----------------------
   0 C :   -0.316664
   1 C :   -0.266640
   2 C :   -0.204413
   3 C :   -0.195565
   4 C :   -0.171714
   5 C :   -0.164935
   6 C :   -0.233752
   7 N :    0.120067
   8 H :    0.121278
   9 H :    0.119215
  10 H :    0.121629
  11 H :    0.139198
  12 H :    0.142562
  13 H :    0.141997
  14 H :    0.136223
  15 H :    0.128556
  16 H :    0.131545
  17 H :    0.131933
  18 H :    0.119480

  Mayer bond orders larger than 0.1
B(  0-C ,  1-C ) :   0.9108 B(  0-C ,  8-H ) :   0.9395 B(  0-C ,  9-H ) :   0.9408
B(  0-C , 10-H ) :   0.9405 B(  1-C ,  2-C ) :   0.8953 B(  1-C , 11-H ) :   0.9368
B(  1-C , 12-H ) :   0.9327 B(  2-C ,  3-C ) :   0.8733 B(  2-C ,  5-C ) :   0.9026
B(  2-C , 13-H ) :   0.9080 B(  3-C ,  4-C ) :   0.9014 B(  3-C ,  7-N ) :   0.9113
B(  3-C , 14-H ) :   0.9347 B(  4-C ,  5-C ) :   0.9070 B(  4-C ,  7-N ) :   0.8873
B(  4-C , 15-H ) :   0.9033 B(  5-C ,  6-C ) :   0.9349 B(  5-C , 16-H ) :   0.9089
B(  6-C ,  7-N ) :   0.9167 B(  6-C , 17-H ) :   0.9360 B(  6-C , 18-H ) :   0.9183

MP2 TOTAL ENERGY:     -327.268368493 Eh
FINAL SINGLE POINT ENERGY      -327.268368492731

DIPOLE MOMENT
-------------
                                X             Y             Z
Electronic contribution:      0.34739      -6.31932      -3.62898
Nuclear contribution   :     -0.62396       6.99816       3.92655
                        -----------------------------------------
Total Dipole Moment    :     -0.27658       0.67884       0.29757
                        -----------------------------------------
Magnitude (a.u.)       :      0.79111
Magnitude (Debye)      :      2.01085

                             ****ORCA TERMINATED NORMALLY****
TOTAL RUN TIME: 0 days 0 hours 14 minutes 36 seconds 796 msec
