                         Program Version 3.0.3 - RELEASE   -
|  1> ! RI-MP2 RIJK def2-TZVP def2-TZVP/C def2-TZVP/JK TIGHTSCF
|  2> % maxcore 2000
|  3> % mp2 density relaxed end
|  4> *xyz 0 1
|  5>  O       -0.4977874754     0.6022779240    -0.5486782969
|  6>  C        0.2974326485     0.8387088410     0.3239894987
|  7>  C        1.3725922885     1.8985860239     0.1937588843
|  8>  C        1.2018933630     3.0096037652    -0.8757309686
|  9>  C        1.4302304979     4.0492127302     0.2579465209
| 10>  C        0.2112127146     4.7051646111     0.9419584816
| 11>  C        0.1491467474     3.3998575912     1.7670477845
| 12>  O       -0.6560349509     2.8555796718     2.4636453499
| 13>  N        1.4129744618     2.9399693667     1.2876375123
| 14>  H        0.3095210743     0.2748105084     1.2789438950
| 15>  H        2.3403323195     1.3822780648     0.1514140507
| 16>  H        1.9373393174     3.0145539283    -1.6806982799
| 17>  H        0.1982628525     3.0170153872    -1.3076506749
| 18>  H        2.3489174382     4.6341038373     0.2001596556
| 19>  H        0.4347395902     5.6059788289     1.5188268274
| 20>  H       -0.6770191576     4.8796972401     0.3312803995
| 21> *
| 22>
| 23>                          ****END OF INPUT****

CARTESIAN COORDINATES (ANGSTROEM)
---------------------------------
  O     -0.497787    0.602278   -0.548678
  C      0.297433    0.838709    0.323989
  C      1.372592    1.898586    0.193759
  C      1.201893    3.009604   -0.875731
  C      1.430230    4.049213    0.257947
  C      0.211213    4.705165    0.941958
  C      0.149147    3.399858    1.767048
  O     -0.656035    2.855580    2.463645
  N      1.412974    2.939969    1.287638
  H      0.309521    0.274811    1.278944
  H      2.340332    1.382278    0.151414
  H      1.937339    3.014554   -1.680698
  H      0.198263    3.017015   -1.307651
  H      2.348917    4.634104    0.200160
  H      0.434740    5.605979    1.518827
  H     -0.677019    4.879697    0.331280

 Total Charge           Charge          ....    0
 Multiplicity           Mult            ....    1
 Number of Electrons    NEL             ....   66
 Basis Dimension        Dim             ....  321

ORBITAL ENERGIES
----------------

  NO   OCC          E(Eh)            E(eV)
   0   2.0000     -20.569925      -559.7361
   1   2.0000     -20.558568      -559.4271
   2   2.0000     -15.588121      -424.1743
   3   2.0000     -11.367866      -309.3353
   4   2.0000     -11.342671      -308.6498
   5   2.0000     -11.301343      -307.5252
   6   2.0000     -11.292865      -307.2945
   7   2.0000     -11.262760      -306.4753
   8   2.0000     -11.255833      -306.2868
   9   2.0000      -1.416971       -38.5577
  10   2.0000      -1.407711       -38.3058
  11   2.0000      -1.302583       -35.4451
  12   2.0000      -1.071997       -29.1705
  13   2.0000      -1.013762       -27.5859
  14   2.0000      -0.942478       -25.6461
  15   2.0000      -0.840313       -22.8661
  16   2.0000      -0.803935       -21.8762
  17   2.0000      -0.721542       -19.6342
  18   2.0000      -0.710045       -19.3213
  19   2.0000      -0.693725       -18.8772
  20   2.0000      -0.675646       -18.3853
  21   2.0000      -0.663568       -18.0566
  22   2.0000      -0.618393       -16.8273
  23   2.0000      -0.597497       -16.2587
  24   2.0000      -0.580469       -15.7954
  25   2.0000      -0.556043       -15.1307
  26   2.0000      -0.531859       -14.4726
  27   2.0000      -0.525551       -14.3010
  28   2.0000      -0.517066       -14.0701
  29   2.0000      -0.484961       -13.1964
  30   2.0000      -0.440760       -11.9937
  31   2.0000      -0.429284       -11.6814
  32   2.0000      -0.397176       -10.8077
  33   0.0000       0.118310         3.2194
  34   0.0000       0.122343         3.3291
  35   0.0000       0.137883         3.7520
  36   0.0000       0.156726         4.2647
  37   0.0000       0.164581         4.4785

MULLIKEN ATOMIC CHARGES
-----------------------
   0 O :   -0.260123
   1 C :    0.080052
   2 C :    0.009475
   3 C :   -0.263074
   4 C :   -0.022714
   5 C :   -0.275713
   6 C :    0.185445
   7 O :   -0.266013
   8 N :   -0.134723
   9 H :    0.108581
  10 H :    0.132789
  11 H :    0.139061
  12 H :    0.144802
  13 H :    0.125311
  14 H :    0.153331
  15 H :    0.143513
Sum of atomic charges:    0.0000000

LOEWDIN ATOMIC CHARGES
----------------------
   0 O :    0.147070
   1 C :   -0.270852
   2 C :   -0.230129
   3 C :   -0.191423
   4 C :   -0.196480
   5 C :   -0.193163
   6 C :   -0.396533
   7 O :    0.155222
   8 N :    0.184184
   9 H :    0.122740
  10 H :    0.158353
  11 H :    0.134554
  12 H :    0.145406
  13 H :    0.135122
  14 H :    0.148156
  15 H :    0.147773

  Mayer bond orders larger than 0.1
B(  0-O ,  1-C ) :   1.9852 B(  1-C ,  2-C ) :   0.8794 B(  1-C ,  9-H ) :   0.9342
B(  2-C ,  3-C ) :   0.9299 B(  2-C ,  8-N ) :   0.8754 B(  2-C , 10-H ) :   0.8898
B(  3-C ,  4-C ) :   0.9372 B(  3-C , 11-H ) :   0.9250 B(  3-C , 12-H ) :   0.9111
B(  4-C ,  5-C ) :   0.9580 B(  4-C ,  8-N ) :   0.9016 B(  4-C , 13-H ) :   0.9036
B(  5-C ,  6-C ) :   0.9217 B(  5-C , 14-H ) :   0.9005 B(  5-C , 15-H ) :   0.8950
B(  6-C ,  7-O ) :   2.0128 B(  6-C ,  8-N ) :   0.9957

MP2 TOTAL ENERGY:     -437.147626693 Eh
FINAL SINGLE POINT ENERGY      -437.147626693487

DIPOLE MOMENT
-------------
                                X             Y             Z
Electronic contribution:     -1.96117      -2.99370       3.07253
Nuclear contribution   :      3.06498       3.81559      -3.75064
                        -----------------------------------------
Total Dipole Moment    :      1.10381       0.82189      -0.67812
                        -----------------------------------------
Magnitude (a.u.)       :      1.53419
Magnitude (Debye)      :      3.89960

                             ****ORCA TERMINATED NORMALLY****
TOTAL RUN TIME: 0 days 0 hours 16 minutes 20 seconds 225 msec
