                         Program Version 3.0.3 - RELEASE   -
|  1> ! RI-MP2 RIJK def2-TZVP def2-TZVP/C def2-TZVP/JK TIGHTSCF
|  2> % maxcore 2000
|  3> % mp2 density relaxed end
|  4> *xyz 0 1
|  5>  C       -0.0192064937     1.4936612320    -0.0072466548
|  6>  C        0.0015166455    -0.0090419052    -0.0042385314
|  7>  N       -0.0211879825    -0.6140784033    -1.1599751922
|  8>  C       -0.0037568033    -1.9751128103    -1.2254491329
|  9>  N       -0.0240440649    -2.6557993014    -2.2879807104
| 10>  O        0.0400119768    -2.7096898840     0.0371806327
| 11>  C        0.0615905193    -2.0471432889     1.1871423564
| 12>  O        0.1011323965    -2.8392629555     2.2563860440
| 13>  C        0.0446798546    -0.6941304172     1.2507918535
| 14>  H        0.8704047362     1.8886796427     0.4963492553
| 15>  H       -0.0528051260     1.8651953825    -1.0310852888
| 16>  H       -0.8898063065     1.8645671876     0.5454853109
| 17>  H       -0.0050374727    -3.6528257380    -2.0846013166
| 18>  H        0.1056375067    -3.7571958201     1.9511664051
| 19>  H        0.0631200841    -0.1836782610     2.2014275593
| 20> *
| 21>
| 22>                          ****END OF INPUT****

CARTESIAN COORDINATES (ANGSTROEM)
---------------------------------
  C     -0.019206    1.493661   -0.007247
  C      0.001517   -0.009042   -0.004239
  N     -0.021188   -0.614078   -1.159975
  C     -0.003757   -1.975113   -1.225449
  N     -0.024044   -2.655799   -2.287981
  O      0.040012   -2.709690    0.037181
  C      0.061591   -2.047143    1.187142
  O      0.101132   -2.839263    2.256386
  C      0.044680   -0.694130    1.250792
  H      0.870405    1.888680    0.496349
  H     -0.052805    1.865195   -1.031085
  H     -0.889806    1.864567    0.545485
  H     -0.005037   -3.652826   -2.084601
  H      0.105638   -3.757196    1.951166
  H      0.063120   -0.183678    2.201428

 Total Charge           Charge          ....    0
 Multiplicity           Mult            ....    1
 Number of Electrons    NEL             ....   66
 Basis Dimension        Dim             ....  315

ORBITAL ENERGIES
----------------

  NO   OCC          E(Eh)            E(eV)
   0   2.0000     -20.646669      -561.8244
   1   2.0000     -20.643355      -561.7343
   2   2.0000     -15.555893      -423.2974
   3   2.0000     -15.532397      -422.6580
   4   2.0000     -11.416450      -310.6574
   5   2.0000     -11.377632      -309.6011
   6   2.0000     -11.324719      -308.1613
   7   2.0000     -11.239789      -305.8502
   8   2.0000     -11.233747      -305.6858
   9   2.0000      -1.518350       -41.3164
  10   2.0000      -1.432474       -38.9796
  11   2.0000      -1.267173       -34.4815
  12   2.0000      -1.199114       -32.6295
  13   2.0000      -1.073305       -29.2061
  14   2.0000      -1.014280       -27.6000
  15   2.0000      -0.895071       -24.3561
  16   2.0000      -0.867252       -23.5991
  17   2.0000      -0.808387       -21.9973
  18   2.0000      -0.742529       -20.2052
  19   2.0000      -0.698279       -19.0011
  20   2.0000      -0.690736       -18.7959
  21   2.0000      -0.669064       -18.2062
  22   2.0000      -0.643805       -17.5188
  23   2.0000      -0.604609       -16.4522
  24   2.0000      -0.602217       -16.3872
  25   2.0000      -0.589333       -16.0366
  26   2.0000      -0.563455       -15.3324
  27   2.0000      -0.557217       -15.1626
  28   2.0000      -0.500358       -13.6154
  29   2.0000      -0.450330       -12.2541
  30   2.0000      -0.435284       -11.8447
  31   2.0000      -0.431194       -11.7334
  32   2.0000      -0.330407        -8.9908
  33   0.0000       0.091763         2.4970
  34   0.0000       0.122243         3.3264
  35   0.0000       0.137968         3.7543
  36   0.0000       0.164618         4.4795
  37   0.0000       0.175720         4.7816

MULLIKEN ATOMIC CHARGES
-----------------------
   0 C :   -0.422308
   1 C :    0.195036
   2 N :   -0.243279
   3 C :    0.220522
   4 N :   -0.339123
   5 O :   -0.251219
   6 C :    0.378165
   7 O :   -0.384927
   8 C :   -0.338593
   9 H :    0.146654
  10 H :    0.164051
  11 H :    0.146623
  12 H :    0.223492
  13 H :    0.350997
  14 H :    0.153909
Sum of atomic charges:   -0.0000000

LOEWDIN ATOMIC CHARGES
----------------------
   0 C :   -0.255038
   1 C :   -0.234524
   2 N :    0.160486
   3 C :   -0.416375
   4 N :   -0.046615
   5 O :    0.286911
   6 C :   -0.396194
   7 O :    0.125257
   8 C :   -0.172999
   9 H :    0.137763
  10 H :    0.137835
  11 H :    0.137728
  12 H :    0.167401
  13 H :    0.208877
  14 H :    0.159486

  Mayer bond orders larger than 0.1
B(  0-C ,  1-C ) :   0.8868 B(  0-C ,  9-H ) :   0.9257 B(  0-C , 10-H ) :   0.9456
B(  0-C , 11-H ) :   0.9258 B(  1-C ,  2-N ) :   1.6011 B(  1-C ,  8-C ) :   1.0975
B(  2-N ,  3-C ) :   1.1912 B(  3-C ,  4-N ) :   1.9994 B(  3-C ,  5-O ) :   0.8536
B(  4-N , 12-H ) :   0.8503 B(  5-O ,  6-C ) :   1.1534 B(  6-C ,  7-O ) :   1.1737
B(  6-C ,  8-C ) :   1.5327 B(  7-O , 13-H ) :   0.8071 B(  8-C , 14-H ) :   0.9128

MP2 TOTAL ENERGY:     -453.240502375 Eh
FINAL SINGLE POINT ENERGY      -453.240502375380

DIPOLE MOMENT
-------------
                                X             Y             Z
Electronic contribution:      0.08256      -6.26745      -0.17115
Nuclear contribution   :     -0.03529       5.93151       1.74398
                        -----------------------------------------
Total Dipole Moment    :      0.04727      -0.33594       1.57283
                        -----------------------------------------
Magnitude (a.u.)       :      1.60900
Magnitude (Debye)      :      4.08975

                             ****ORCA TERMINATED NORMALLY****
TOTAL RUN TIME: 0 days 0 hours 14 minutes 9 seconds 586 msec
