                         Program Version 3.0.3 - RELEASE   -
|  1> ! RI-MP2 RIJK def2-TZVP def2-TZVP/C def2-TZVP/JK TIGHTSCF
|  2> % maxcore 2000
|  3> % mp2 density relaxed end
|  4> *xyz 0 1
|  5>  O        0.2689135872     0.1993386585    -0.5445571560
|  6>  C        0.2271062671     1.3456002256    -0.2001784651
|  7>  N        1.2830651923     1.9937162781     0.4639259482
|  8>  C        2.6761024543     1.9271375599     0.1000130289
|  9>  C        3.0985941707     1.3298299451    -1.1453831010
| 10>  N        3.4902758944     0.8566724074    -2.1235144099
| 11>  C        1.9033444027     3.2468117529     0.0902370447
| 12>  C        1.5747403680     3.8826383521    -1.1639306544
| 13>  N        1.2869941087     4.4213082620    -2.1449016505
| 14>  H       -0.6564169976     2.0012719865    -0.2873698054
| 15>  H        3.3651005513     1.7671178618     0.9255542200
| 16>  H        2.0885139409     3.9397442200     0.9073173804
| 17> *
| 18>
| 19>                          ****END OF INPUT****

CARTESIAN COORDINATES (ANGSTROEM)
---------------------------------
  O      0.268914    0.199339   -0.544557
  C      0.227106    1.345600   -0.200178
  N      1.283065    1.993716    0.463926
  C      2.676102    1.927138    0.100013
  C      3.098594    1.329830   -1.145383
  N      3.490276    0.856672   -2.123514
  C      1.903344    3.246812    0.090237
  C      1.574740    3.882638   -1.163931
  N      1.286994    4.421308   -2.144902
  H     -0.656417    2.001272   -0.287370
  H      3.365101    1.767118    0.925554
  H      2.088514    3.939744    0.907317

 Total Charge           Charge          ....    0
 Multiplicity           Mult            ....    1
 Number of Electrons    NEL             ....   62
 Basis Dimension        Dim             ....  297

ORBITAL ENERGIES
----------------

  NO   OCC          E(Eh)            E(eV)
   0   2.0000     -20.585761      -560.1670
   1   2.0000     -15.659265      -426.1103
   2   2.0000     -15.617812      -424.9823
   3   2.0000     -15.606366      -424.6708
   4   2.0000     -11.398954      -310.1813
   5   2.0000     -11.382699      -309.7390
   6   2.0000     -11.378879      -309.6350
   7   2.0000     -11.315124      -307.9002
   8   2.0000     -11.304319      -307.6062
   9   2.0000      -1.447799       -39.3966
  10   2.0000      -1.372787       -37.3554
  11   2.0000      -1.257578       -34.2204
  12   2.0000      -1.246224       -33.9115
  13   2.0000      -1.066822       -29.0297
  14   2.0000      -1.006138       -27.3784
  15   2.0000      -0.905059       -24.6279
  16   2.0000      -0.804089       -21.8804
  17   2.0000      -0.765522       -20.8309
  18   2.0000      -0.709282       -19.3005
  19   2.0000      -0.692510       -18.8442
  20   2.0000      -0.630392       -17.1538
  21   2.0000      -0.609928       -16.5970
  22   2.0000      -0.603458       -16.4209
  23   2.0000      -0.593776       -16.1575
  24   2.0000      -0.584002       -15.8915
  25   2.0000      -0.523439       -14.2435
  26   2.0000      -0.512315       -13.9408
  27   2.0000      -0.504880       -13.7385
  28   2.0000      -0.489640       -13.3238
  29   2.0000      -0.470711       -12.8087
  30   2.0000      -0.443226       -12.0608
  31   0.0000       0.091201         2.4817
  32   0.0000       0.096601         2.6287
  33   0.0000       0.109140         2.9698
  34   0.0000       0.130152         3.5416
  35   0.0000       0.149952         4.0804

MULLIKEN ATOMIC CHARGES
-----------------------
   0 O :   -0.250740
   1 C :    0.167089
   2 N :   -0.144040
   3 C :    0.067399
   4 C :   -0.164904
   5 N :   -0.021244
   6 C :    0.062991
   7 C :   -0.176623
   8 N :   -0.023337
   9 H :    0.120968
  10 H :    0.182326
  11 H :    0.180115
Sum of atomic charges:    0.0000000

LOEWDIN ATOMIC CHARGES
----------------------
   0 O :    0.154976
   1 C :   -0.362052
   2 N :    0.207580
   3 C :   -0.178501
   4 C :   -0.162699
   5 N :    0.110909
   6 C :   -0.182779
   7 C :   -0.167083
   8 N :    0.108254
   9 H :    0.125403
  10 H :    0.174000
  11 H :    0.171993

  Mayer bond orders larger than 0.1
B(  0-O ,  1-C ) :   1.9835 B(  1-C ,  2-N ) :   0.9702 B(  1-C ,  9-H ) :   0.9186
B(  2-N ,  3-C ) :   0.8816 B(  2-N ,  6-C ) :   0.8924 B(  3-C ,  4-C ) :   0.9816
B(  3-C ,  6-C ) :   0.8567 B(  3-C , 10-H ) :   0.8917 B(  4-C ,  5-N ) :   2.7942
B(  6-C ,  7-C ) :   0.9709 B(  6-C , 11-H ) :   0.8975 B(  7-C ,  8-N ) :   2.7951

MP2 TOTAL ENERGY:     -430.935445377 Eh
FINAL SINGLE POINT ENERGY      -430.935445377352

DIPOLE MOMENT
-------------
                                X             Y             Z
Electronic contribution:      0.46510      -0.39172      -1.45277
Nuclear contribution   :     -0.34742       1.31197       3.49602
                        -----------------------------------------
Total Dipole Moment    :      0.11768       0.92025       2.04325
                        -----------------------------------------
Magnitude (a.u.)       :      2.24401
Magnitude (Debye)      :      5.70383

                             ****ORCA TERMINATED NORMALLY****
TOTAL RUN TIME: 0 days 0 hours 12 minutes 31 seconds 908 msec
