                         Program Version 3.0.3 - RELEASE   -
|  1> ! RI-MP2 RIJK def2-TZVP def2-TZVP/C def2-TZVP/JK TIGHTSCF
|  2> % maxcore 2000
|  3> % mp2 density relaxed end
|  4> *xyz 0 1
|  5>  C        0.1205987745     1.4592427960     0.1513837018
|  6>  N       -0.0510171933     0.0308088618    -0.0519408526
|  7>  C        0.5252594034    -0.5843829179    -1.1301596442
|  8>  N        1.1221392033     0.0756222261    -2.0474165347
|  9>  C        1.5544946346    -0.7223997613    -3.1898857766
| 10>  C        2.1195287927    -2.0741393600    -2.8162162156
| 11>  N        3.1124172803    -2.5823018244    -3.4122567576
| 12>  O        1.5034537090    -2.7088003660    -1.7716899859
| 13>  C        0.3481118085    -2.0852363026    -1.2165310459
| 14>  H        1.1657388814     1.7327109774     0.3454511535
| 15>  H       -0.1962907910     1.9909648942    -0.7481601823
| 16>  H       -0.4991816662     1.7738440204     0.9938038293
| 17>  H       -0.1694056256    -0.5317396642     0.7748647729
| 18>  H        0.7115997132    -0.8769842720    -3.8840641874
| 19>  H        2.3216600753    -0.1872020113    -3.7504423262
| 20>  H        3.3300479316    -3.5004520983    -3.0184194017
| 21>  H        0.1967240624    -2.5477612306    -0.2369340025
| 22>  H       -0.5355942440    -2.3120951572    -1.8311801743
| 23> *
| 24>
| 25>                          ****END OF INPUT****

CARTESIAN COORDINATES (ANGSTROEM)
---------------------------------
  C      0.120599    1.459243    0.151384
  N     -0.051017    0.030809   -0.051941
  C      0.525259   -0.584383   -1.130160
  N      1.122139    0.075622   -2.047417
  C      1.554495   -0.722400   -3.189886
  C      2.119529   -2.074139   -2.816216
  N      3.112417   -2.582302   -3.412257
  O      1.503454   -2.708800   -1.771690
  C      0.348112   -2.085236   -1.216531
  H      1.165739    1.732711    0.345451
  H     -0.196291    1.990965   -0.748160
  H     -0.499182    1.773844    0.993804
  H     -0.169406   -0.531740    0.774865
  H      0.711600   -0.876984   -3.884064
  H      2.321660   -0.187202   -3.750442
  H      3.330048   -3.500452   -3.018419
  H      0.196724   -2.547761   -0.236934
  H     -0.535594   -2.312095   -1.831180

 Total Charge           Charge          ....    0
 Multiplicity           Mult            ....    1
 Number of Electrons    NEL             ....   68
 Basis Dimension        Dim             ....  333

ORBITAL ENERGIES
----------------

  NO   OCC          E(Eh)            E(eV)
   0   2.0000     -20.602377      -560.6192
   1   2.0000     -15.587759      -424.1645
   2   2.0000     -15.540115      -422.8680
   3   2.0000     -15.527563      -422.5265
   4   2.0000     -11.334307      -308.4222
   5   2.0000     -11.323690      -308.1333
   6   2.0000     -11.317892      -307.9755
   7   2.0000     -11.261613      -306.4441
   8   2.0000     -11.260796      -306.4218
   9   2.0000      -1.436210       -39.0813
  10   2.0000      -1.288688       -35.0670
  11   2.0000      -1.199123       -32.6298
  12   2.0000      -1.186708       -32.2920
  13   2.0000      -1.018663       -27.7192
  14   2.0000      -0.957161       -26.0457
  15   2.0000      -0.932528       -25.3754
  16   2.0000      -0.820162       -22.3177
  17   2.0000      -0.754247       -20.5241
  18   2.0000      -0.715053       -19.4576
  19   2.0000      -0.706060       -19.2129
  20   2.0000      -0.688131       -18.7250
  21   2.0000      -0.639668       -17.4063
  22   2.0000      -0.624980       -17.0066
  23   2.0000      -0.611924       -16.6513
  24   2.0000      -0.590497       -16.0682
  25   2.0000      -0.576722       -15.6934
  26   2.0000      -0.549005       -14.9392
  27   2.0000      -0.536900       -14.6098
  28   2.0000      -0.533391       -14.5143
  29   2.0000      -0.474860       -12.9216
  30   2.0000      -0.445801       -12.1309
  31   2.0000      -0.416652       -11.3377
  32   2.0000      -0.384603       -10.4656
  33   2.0000      -0.357786        -9.7359
  34   0.0000       0.118824         3.2334
  35   0.0000       0.142255         3.8710
  36   0.0000       0.155893         4.2421
  37   0.0000       0.162305         4.4165
  38   0.0000       0.183292         4.9876

MULLIKEN ATOMIC CHARGES
-----------------------
   0 C :   -0.257532
   1 N :   -0.344654
   2 C :    0.162097
   3 N :   -0.291630
   4 C :   -0.101328
   5 C :    0.108170
   6 N :   -0.368618
   7 O :   -0.257401
   8 C :   -0.066691
   9 H :    0.136319
  10 H :    0.151248
  11 H :    0.134725
  12 H :    0.234549
  13 H :    0.128723
  14 H :    0.153452
  15 H :    0.217129
  16 H :    0.127488
  17 H :    0.133952
Sum of atomic charges:   -0.0000000

LOEWDIN ATOMIC CHARGES
----------------------
   0 C :   -0.316238
   1 N :    0.065231
   2 C :   -0.367348
   3 N :    0.086224
   4 C :   -0.259972
   5 C :   -0.409538
   6 N :   -0.059294
   7 O :    0.237346
   8 C :   -0.255695
   9 H :    0.114790
  10 H :    0.125995
  11 H :    0.116561
  12 H :    0.182595
  13 H :    0.145647
  14 H :    0.150956
  15 H :    0.165446
  16 H :    0.136823
  17 H :    0.140474

  Mayer bond orders larger than 0.1
B(  0-C ,  1-N ) :   0.8829 B(  0-C ,  9-H ) :   0.9379 B(  0-C , 10-H ) :   0.9324
B(  0-C , 11-H ) :   0.9291 B(  1-N ,  2-C ) :   1.1057 B(  1-N , 12-H ) :   0.8749
B(  2-C ,  3-N ) :   1.7685 B(  2-C ,  8-C ) :   0.9170 B(  3-N ,  4-C ) :   0.9161
B(  4-C ,  5-C ) :   0.9113 B(  4-C , 13-H ) :   0.9091 B(  4-C , 14-H ) :   0.9266
B(  5-C ,  6-N ) :   2.0590 B(  5-C ,  7-O ) :   1.0536 B(  6-N , 15-H ) :   0.8565
B(  7-O ,  8-C ) :   0.9030 B(  8-C , 16-H ) :   0.9254 B(  8-C , 17-H ) :   0.9178

MP2 TOTAL ENERGY:     -434.555889472 Eh
FINAL SINGLE POINT ENERGY      -434.555889472037

DIPOLE MOMENT
-------------
                                X             Y             Z
Electronic contribution:      2.43039      -4.52374      -2.31437
Nuclear contribution   :     -3.69174       4.47090       3.65435
                        -----------------------------------------
Total Dipole Moment    :     -1.26135      -0.05283       1.33998
                        -----------------------------------------
Magnitude (a.u.)       :      1.84102
Magnitude (Debye)      :      4.67949

                             ****ORCA TERMINATED NORMALLY****
TOTAL RUN TIME: 0 days 0 hours 15 minutes 15 seconds 246 msec
