                         Program Version 3.0.3 - RELEASE   -
|  1> ! RI-MP2 RIJK def2-TZVP def2-TZVP/C def2-TZVP/JK TIGHTSCF
|  2> % maxcore 2000
|  3> % mp2 density relaxed end
|  4> *xyz 0 1
|  5>  O        0.0053200879     1.5114480981     0.0130931479
|  6>  C        0.0391613164     0.1418390737    -0.3230912408
|  7>  C       -1.2832681367    -0.5342066561    -0.0230168316
|  8>  C       -1.3210107626    -2.0701369934     0.0392783123
|  9>  C       -1.5893746788    -1.8433355545     1.5284250881
| 10>  O       -1.7760113373    -2.4936058085     2.5031719133
| 11>  O       -1.5591314218    -0.4711692606     1.4275237899
| 12>  H       -0.2149164051     1.5654170666     0.9506310324
| 13>  H        0.2462001501     0.0810444236    -1.3972943394
| 14>  H        0.8454974172    -0.3924500893     0.2057030353
| 15>  H       -2.1041883940    -0.0572650264    -0.5632951103
| 16>  H       -2.1364470244    -2.5608237639    -0.4934071300
| 17>  H       -0.3811013909    -2.5845673191    -0.1726365272
| 18> *
| 19>
| 20>                          ****END OF INPUT****

CARTESIAN COORDINATES (ANGSTROEM)
---------------------------------
  O      0.005320    1.511448    0.013093
  C      0.039161    0.141839   -0.323091
  C     -1.283268   -0.534207   -0.023017
  C     -1.321011   -2.070137    0.039278
  C     -1.589375   -1.843336    1.528425
  O     -1.776011   -2.493606    2.503172
  O     -1.559131   -0.471169    1.427524
  H     -0.214916    1.565417    0.950631
  H      0.246200    0.081044   -1.397294
  H      0.845497   -0.392450    0.205703
  H     -2.104188   -0.057265   -0.563295
  H     -2.136447   -2.560824   -0.493407
  H     -0.381101   -2.584567   -0.172637

 Total Charge           Charge          ....    0
 Multiplicity           Mult            ....    1
 Number of Electrons    NEL             ....   54
 Basis Dimension        Dim             ....  253

ORBITAL ENERGIES
----------------

  NO   OCC          E(Eh)            E(eV)
   0   2.0000     -20.610982      -560.8533
   1   2.0000     -20.573566      -559.8352
   2   2.0000     -20.562207      -559.5261
   3   2.0000     -11.395182      -310.0787
   4   2.0000     -11.321722      -308.0797
   5   2.0000     -11.301782      -307.5371
   6   2.0000     -11.275612      -306.8250
   7   2.0000      -1.473441       -40.0944
   8   2.0000      -1.393410       -37.9166
   9   2.0000      -1.376507       -37.4566
  10   2.0000      -1.075948       -29.2780
  11   2.0000      -0.991432       -26.9782
  12   2.0000      -0.866005       -23.5652
  13   2.0000      -0.766795       -20.8656
  14   2.0000      -0.741276       -20.1712
  15   2.0000      -0.706576       -19.2269
  16   2.0000      -0.692711       -18.8496
  17   2.0000      -0.667642       -18.1675
  18   2.0000      -0.622942       -16.9511
  19   2.0000      -0.610039       -16.6000
  20   2.0000      -0.578465       -15.7408
  21   2.0000      -0.572092       -15.5674
  22   2.0000      -0.531891       -14.4735
  23   2.0000      -0.514447       -13.9988
  24   2.0000      -0.487998       -13.2791
  25   2.0000      -0.458487       -12.4761
  26   2.0000      -0.451430       -12.2840
  27   0.0000       0.125609         3.4180
  28   0.0000       0.145037         3.9467
  29   0.0000       0.152654         4.1539
  30   0.0000       0.164044         4.4639
  31   0.0000       0.169621         4.6156

MULLIKEN ATOMIC CHARGES
-----------------------
   0 O :   -0.469254
   1 C :   -0.029117
   2 C :    0.069470
   3 C :   -0.310222
   4 C :    0.270783
   5 O :   -0.253336
   6 O :   -0.264265
   7 H :    0.330775
   8 H :    0.121366
   9 H :    0.105612
  10 H :    0.119471
  11 H :    0.156776
  12 H :    0.151943
Sum of atomic charges:    0.0000000

LOEWDIN ATOMIC CHARGES
----------------------
   0 O :   -0.033745
   1 C :   -0.338178
   2 C :   -0.258203
   3 C :   -0.193853
   4 C :   -0.456848
   5 O :    0.160684
   6 O :    0.232563
   7 H :    0.181849
   8 H :    0.137590
   9 H :    0.124642
  10 H :    0.143048
  11 H :    0.149785
  12 H :    0.150666

  Mayer bond orders larger than 0.1
B(  0-O ,  1-C ) :   0.9304 B(  0-O ,  7-H ) :   0.8333 B(  1-C ,  2-C ) :   0.9474
B(  1-C ,  8-H ) :   0.9243 B(  1-C ,  9-H ) :   0.9047 B(  2-C ,  3-C ) :   0.8976
B(  2-C ,  6-O ) :   0.8527 B(  2-C , 10-H ) :   0.9192 B(  3-C ,  4-C ) :   0.9305
B(  3-C , 11-H ) :   0.9079 B(  3-C , 12-H ) :   0.9055 B(  4-C ,  5-O ) :   2.0583
B(  4-C ,  6-O ) :   1.0773

MP2 TOTAL ENERGY:     -381.022725126 Eh
FINAL SINGLE POINT ENERGY      -381.022725125781

DIPOLE MOMENT
-------------
                                X             Y             Z
Electronic contribution:     -2.18633      -0.91241       4.40276
Nuclear contribution   :      2.38080       0.66147      -5.56061
                        -----------------------------------------
Total Dipole Moment    :      0.19447      -0.25095      -1.15784
                        -----------------------------------------
Magnitude (a.u.)       :      1.20058
Magnitude (Debye)      :      3.05164

                             ****ORCA TERMINATED NORMALLY****
TOTAL RUN TIME: 0 days 0 hours 6 minutes 17 seconds 778 msec
