                         Program Version 3.0.3 - RELEASE   -
|  1> ! RI-MP2 RIJK def2-TZVP def2-TZVP/C def2-TZVP/JK TIGHTSCF
|  2> % maxcore 2000
|  3> % mp2 density relaxed end
|  4> *xyz 0 1
|  5>  C       -0.0222387219     1.5672142416     0.0109749107
|  6>  C        1.5119167595     1.7414660071    -0.0035133597
|  7>  C        1.9207070993     0.8488889200     1.1903741686
|  8>  O        0.9515381178     0.7243826756     2.2407623957
|  9>  C        0.9547916733    -0.2568800805     1.1942341725
| 10>  C        0.0112276846     0.0235117752     0.0024981602
| 11>  C        0.9306321350    -0.2441999928    -1.2108435929
| 12>  O        0.9064866969     0.7480474500    -2.2466832754
| 13>  C        1.8965596904     0.8615583688    -1.2147027712
| 14>  H       -0.4773407510     1.9679191181     0.9131788519
| 15>  H       -0.4953265712     1.9773611452    -0.8776315023
| 16>  H        1.8995595181     2.7601174062    -0.0020378971
| 17>  H        2.9584459540     0.7446495356     1.4929385377
| 18>  H        1.1986125425    -1.2699874184     1.4999755319
| 19>  H       -0.9460720328    -0.4974965681     0.0093667268
| 20>  H        1.1681490745    -1.2540041245    -1.5320832237
| 21>  H        2.9280017610     0.7606143909    -1.5391249937
| 22> *
| 23>
| 24>                          ****END OF INPUT****

CARTESIAN COORDINATES (ANGSTROEM)
---------------------------------
  C     -0.022239    1.567214    0.010975
  C      1.511917    1.741466   -0.003513
  C      1.920707    0.848889    1.190374
  O      0.951538    0.724383    2.240762
  C      0.954792   -0.256880    1.194234
  C      0.011228    0.023512    0.002498
  C      0.930632   -0.244200   -1.210844
  O      0.906487    0.748047   -2.246683
  C      1.896560    0.861558   -1.214703
  H     -0.477341    1.967919    0.913179
  H     -0.495327    1.977361   -0.877632
  H      1.899560    2.760117   -0.002038
  H      2.958446    0.744650    1.492939
  H      1.198613   -1.269987    1.499976
  H     -0.946072   -0.497497    0.009367
  H      1.168149   -1.254004   -1.532083
  H      2.928002    0.760614   -1.539125

 Total Charge           Charge          ....    0
 Multiplicity           Mult            ....    1
 Number of Electrons    NEL             ....   66
 Basis Dimension        Dim             ....  327

ORBITAL ENERGIES
----------------

  NO   OCC          E(Eh)            E(eV)
   0   2.0000     -20.572947      -559.8183
   1   2.0000     -20.572944      -559.8183
   2   2.0000     -11.291339      -307.2530
   3   2.0000     -11.291330      -307.2527
   4   2.0000     -11.290523      -307.2308
   5   2.0000     -11.290516      -307.2306
   6   2.0000     -11.249201      -306.1063
   7   2.0000     -11.249195      -306.1061
   8   2.0000     -11.222954      -305.3921
   9   2.0000      -1.424143       -38.7529
  10   2.0000      -1.412969       -38.4488
  11   2.0000      -1.136214       -30.9180
  12   2.0000      -1.000704       -27.2305
  13   2.0000      -0.942851       -25.6563
  14   2.0000      -0.909741       -24.7553
  15   2.0000      -0.838549       -22.8181
  16   2.0000      -0.775524       -21.1031
  17   2.0000      -0.756833       -20.5945
  18   2.0000      -0.731231       -19.8978
  19   2.0000      -0.725840       -19.7511
  20   2.0000      -0.645686       -17.5700
  21   2.0000      -0.627187       -17.0666
  22   2.0000      -0.589944       -16.0532
  23   2.0000      -0.548676       -14.9302
  24   2.0000      -0.547772       -14.9056
  25   2.0000      -0.538356       -14.6494
  26   2.0000      -0.514640       -14.0041
  27   2.0000      -0.491123       -13.3641
  28   2.0000      -0.487880       -13.2759
  29   2.0000      -0.464151       -12.6302
  30   2.0000      -0.436129       -11.8677
  31   2.0000      -0.428375       -11.6567
  32   2.0000      -0.405320       -11.0293
  33   0.0000       0.140314         3.8181
  34   0.0000       0.154278         4.1981
  35   0.0000       0.160093         4.3564
  36   0.0000       0.178161         4.8480
  37   0.0000       0.190745         5.1904

MULLIKEN ATOMIC CHARGES
-----------------------
   0 C :   -0.325804
   1 C :    0.027186
   2 C :   -0.042675
   3 O :   -0.325687
   4 C :   -0.042670
   5 C :    0.027185
   6 C :   -0.042674
   7 O :   -0.325687
   8 C :   -0.042671
   9 H :    0.148350
  10 H :    0.148349
  11 H :    0.143068
  12 H :    0.127666
  13 H :    0.127665
  14 H :    0.143068
  15 H :    0.127666
  16 H :    0.127666
Sum of atomic charges:    0.0000000

LOEWDIN ATOMIC CHARGES
----------------------
   0 C :   -0.192482
   1 C :   -0.187341
   2 C :   -0.226179
   3 O :    0.172641
   4 C :   -0.226178
   5 C :   -0.187340
   6 C :   -0.226180
   7 O :    0.172641
   8 C :   -0.226177
   9 H :    0.145801
  10 H :    0.145801
  11 H :    0.145481
  12 H :    0.136008
  13 H :    0.136008
  14 H :    0.145481
  15 H :    0.136008
  16 H :    0.136008

  Mayer bond orders larger than 0.1
B(  0-C ,  1-C ) :   0.9562 B(  0-C ,  5-C ) :   0.9562 B(  0-C ,  9-H ) :   0.9134
B(  0-C , 10-H ) :   0.9134 B(  1-C ,  2-C ) :   0.8296 B(  1-C ,  8-C ) :   0.8296
B(  1-C , 11-H ) :   0.9061 B(  2-C ,  3-O ) :   0.9356 B(  2-C ,  4-C ) :   0.9835
B(  2-C , 12-H ) :   0.9328 B(  3-O ,  4-C ) :   0.9356 B(  4-C ,  5-C ) :   0.8296
B(  4-C , 13-H ) :   0.9328 B(  5-C ,  6-C ) :   0.8296 B(  5-C , 14-H ) :   0.9061
B(  6-C ,  7-O ) :   0.9356 B(  6-C ,  8-C ) :   0.9835 B(  6-C , 15-H ) :   0.9328
B(  7-O ,  8-C ) :   0.9356 B(  8-C , 16-H ) :   0.9328

MP2 TOTAL ENERGY:     -421.087421998 Eh
FINAL SINGLE POINT ENERGY      -421.087421997893

DIPOLE MOMENT
-------------
                                X             Y             Z
Electronic contribution:      0.28561      -0.24950      -0.00419
Nuclear contribution   :      0.19259      -0.16824      -0.00281
                        -----------------------------------------
Total Dipole Moment    :      0.47820      -0.41774      -0.00700
                        -----------------------------------------
Magnitude (a.u.)       :      0.63500
Magnitude (Debye)      :      1.61405

                             ****ORCA TERMINATED NORMALLY****
TOTAL RUN TIME: 0 days 0 hours 18 minutes 36 seconds 430 msec
