                         Program Version 3.0.3 - RELEASE   -
|  1> ! RI-MP2 RIJK def2-TZVP def2-TZVP/C def2-TZVP/JK TIGHTSCF
|  2> % maxcore 2000
|  3> % mp2 density relaxed end
|  4> *xyz 0 1
|  5>  O       -0.2988137177     1.4928017201     0.6572640295
|  6>  C       -0.0607427363     0.2007886958     0.1068440830
|  7>  C        0.8249942235    -0.6376637030     1.0412469816
|  8>  C        0.1588130407    -0.8305500204     2.4019177403
|  9>  O        0.7968706019    -1.0300013495     3.4072106589
| 10>  C       -1.3644885596    -0.7103231405     2.4345836966
| 11>  N       -2.0225342295    -1.0597841963     1.1708693597
| 12>  C       -2.6686987983     0.0215005015     0.4208159584
| 13>  C       -1.3792119609    -0.5381536070    -0.0473188244
| 14>  H        0.5531409432     1.8946995715     0.8576670094
| 15>  H        0.4124850052     0.2907635073    -0.8815486940
| 16>  H        0.9860186303    -1.6294330284     0.5979907783
| 17>  H        1.8150494122    -0.1967397097     1.1977598288
| 18>  H       -1.7371392797    -1.3605306567     3.2308410179
| 19>  H       -1.5647721417     0.3282625513     2.7381041227
| 20>  H       -3.5924300541    -0.2494791061    -0.0830440978
| 21>  H       -2.6451450665     1.0204580364     0.8469281413
| 22>  H       -1.3783115628    -1.2476582463    -0.8727378804
| 23> *
| 24>
| 25>                          ****END OF INPUT****

CARTESIAN COORDINATES (ANGSTROEM)
---------------------------------
  O     -0.298814    1.492802    0.657264
  C     -0.060743    0.200789    0.106844
  C      0.824994   -0.637664    1.041247
  C      0.158813   -0.830550    2.401918
  O      0.796871   -1.030001    3.407211
  C     -1.364489   -0.710323    2.434584
  N     -2.022534   -1.059784    1.170869
  C     -2.668699    0.021501    0.420816
  C     -1.379212   -0.538154   -0.047319
  H      0.553141    1.894700    0.857667
  H      0.412485    0.290764   -0.881549
  H      0.986019   -1.629433    0.597991
  H      1.815049   -0.196740    1.197760
  H     -1.737139   -1.360531    3.230841
  H     -1.564772    0.328263    2.738104
  H     -3.592430   -0.249479   -0.083044
  H     -2.645145    1.020458    0.846928
  H     -1.378312   -1.247658   -0.872738

 Total Charge           Charge          ....    0
 Multiplicity           Mult            ....    1
 Number of Electrons    NEL             ....   68
 Basis Dimension        Dim             ....  333

ORBITAL ENERGIES
----------------

  NO   OCC          E(Eh)            E(eV)
   0   2.0000     -20.578768      -559.9767
   1   2.0000     -20.546360      -559.0949
   2   2.0000     -15.567593      -423.6157
   3   2.0000     -11.333865      -308.4101
   4   2.0000     -11.308989      -307.7332
   5   2.0000     -11.270053      -306.6737
   6   2.0000     -11.262469      -306.4674
   7   2.0000     -11.261378      -306.4377
   8   2.0000     -11.249015      -306.1013
   9   2.0000      -1.394067       -37.9345
  10   2.0000      -1.386208       -37.7206
  11   2.0000      -1.282048       -34.8863
  12   2.0000      -1.068111       -29.0648
  13   2.0000      -1.030913       -28.0526
  14   2.0000      -0.914231       -24.8775
  15   2.0000      -0.854300       -23.2467
  16   2.0000      -0.814742       -22.1703
  17   2.0000      -0.749558       -20.3965
  18   2.0000      -0.705016       -19.1845
  19   2.0000      -0.677725       -18.4418
  20   2.0000      -0.667622       -18.1669
  21   2.0000      -0.649789       -17.6817
  22   2.0000      -0.636891       -17.3307
  23   2.0000      -0.608819       -16.5668
  24   2.0000      -0.586750       -15.9663
  25   2.0000      -0.575791       -15.6681
  26   2.0000      -0.544163       -14.8074
  27   2.0000      -0.518595       -14.1117
  28   2.0000      -0.502138       -13.6639
  29   2.0000      -0.487196       -13.2573
  30   2.0000      -0.477311       -12.9883
  31   2.0000      -0.458316       -12.4714
  32   2.0000      -0.402107       -10.9419
  33   2.0000      -0.376716       -10.2510
  34   0.0000       0.117195         3.1890
  35   0.0000       0.132371         3.6020
  36   0.0000       0.161046         4.3823
  37   0.0000       0.169358         4.6085
  38   0.0000       0.173298         4.7157

MULLIKEN ATOMIC CHARGES
-----------------------
   0 O :   -0.468362
   1 C :    0.099649
   2 C :   -0.264576
   3 C :    0.108605
   4 O :   -0.272704
   5 C :   -0.097781
   6 N :   -0.231162
   7 C :   -0.183776
   8 C :   -0.094902
   9 H :    0.318633
  10 H :    0.109529
  11 H :    0.142458
  12 H :    0.147714
  13 H :    0.146958
  14 H :    0.131486
  15 H :    0.128117
  16 H :    0.148055
  17 H :    0.132058
Sum of atomic charges:   -0.0000000

LOEWDIN ATOMIC CHARGES
----------------------
   0 O :   -0.008376
   1 C :   -0.328142
   2 C :   -0.218993
   3 C :   -0.317934
   4 O :    0.153711
   5 C :   -0.252014
   6 N :    0.110971
   7 C :   -0.232320
   8 C :   -0.236752
   9 H :    0.178645
  10 H :    0.140720
  11 H :    0.164001
  12 H :    0.148177
  13 H :    0.146131
  14 H :    0.148352
  15 H :    0.126039
  16 H :    0.131561
  17 H :    0.146222

  Mayer bond orders larger than 0.1
B(  0-O ,  1-C ) :   0.9996 B(  0-O ,  9-H ) :   0.8392 B(  1-C ,  2-C ) :   0.9027
B(  1-C ,  8-C ) :   0.9003 B(  1-C , 10-H ) :   0.9356 B(  2-C ,  3-C ) :   0.9041
B(  2-C , 11-H ) :   0.8924 B(  2-C , 12-H ) :   0.9229 B(  3-C ,  4-O ) :   2.0225
B(  3-C ,  5-C ) :   0.9002 B(  5-C ,  6-N ) :   0.8781 B(  5-C , 13-H ) :   0.9126
B(  5-C , 14-H ) :   0.9046 B(  6-N ,  7-C ) :   0.8837 B(  6-N ,  8-C ) :   0.9288
B(  7-C ,  8-C ) :   0.9660 B(  7-C , 15-H ) :   0.9252 B(  7-C , 16-H ) :   0.9028
B(  8-C , 17-H ) :   0.9067

MP2 TOTAL ENERGY:     -438.356006082 Eh
FINAL SINGLE POINT ENERGY      -438.356006081709

DIPOLE MOMENT
-------------
                                X             Y             Z
Electronic contribution:      1.50056      -0.96047       2.77277
Nuclear contribution   :     -1.27845       1.49379      -3.80906
                        -----------------------------------------
Total Dipole Moment    :      0.22211       0.53331      -1.03629
                        -----------------------------------------
Magnitude (a.u.)       :      1.18645
Magnitude (Debye)      :      3.01571

                             ****ORCA TERMINATED NORMALLY****
TOTAL RUN TIME: 0 days 0 hours 17 minutes 44 seconds 881 msec
