                         Program Version 3.0.3 - RELEASE   -
|  1> ! RI-MP2 RIJK def2-TZVP def2-TZVP/C def2-TZVP/JK TIGHTSCF
|  2> % maxcore 2000
|  3> % mp2 density relaxed end
|  4> *xyz 0 1
|  5>  C       -0.2653472460     1.5736946329     0.1694674052
|  6>  C       -0.0681496821     0.0573454636     0.0674499299
|  7>  C       -1.3785120446    -0.7221342488    -0.0668010079
|  8>  C       -2.1702729296    -0.4316325799    -1.3551028333
|  9>  O       -2.8730161484    -1.6352290783    -1.7063153782
| 10>  C       -2.5319433571    -2.6774135139    -0.8069128081
| 11>  C       -1.2100566444    -2.2488567030    -0.1484845631
| 12>  C       -3.6047995211    -2.8728740531     0.1958349599
| 13>  N       -4.4364033215    -3.0245641256     0.9838360586
| 14>  H        0.6930210167     2.0868021714     0.2916454425
| 15>  H       -0.7444894404     1.9792822186    -0.7279368102
| 16>  H       -0.8944406610     1.8336948738     1.0277437974
| 17>  H        0.5745845025    -0.1757241231    -0.7923515689
| 18>  H        0.4666698932    -0.3000730537     0.9558516424
| 19>  H       -2.0176211032    -0.4931716464     0.7956700104
| 20>  H       -2.8971352039     0.3777080455    -1.2375519452
| 21>  H       -1.4976441149    -0.1731085497    -2.1849376074
| 22>  H       -2.4377697623    -3.6066524872    -1.3786393549
| 23>  H       -0.3834441577    -2.5105132980    -0.8177706829
| 24>  H       -1.0392023444    -2.7243093549     0.8189965840
| 25> *
| 26>
| 27>                          ****END OF INPUT****

CARTESIAN COORDINATES (ANGSTROEM)
---------------------------------
  C     -0.265347    1.573695    0.169467
  C     -0.068150    0.057345    0.067450
  C     -1.378512   -0.722134   -0.066801
  C     -2.170273   -0.431633   -1.355103
  O     -2.873016   -1.635229   -1.706315
  C     -2.531943   -2.677414   -0.806913
  C     -1.210057   -2.248857   -0.148485
  C     -3.604800   -2.872874    0.195835
  N     -4.436403   -3.024564    0.983836
  H      0.693021    2.086802    0.291645
  H     -0.744489    1.979282   -0.727937
  H     -0.894441    1.833695    1.027744
  H      0.574585   -0.175724   -0.792352
  H      0.466670   -0.300073    0.955852
  H     -2.017621   -0.493172    0.795670
  H     -2.897135    0.377708   -1.237552
  H     -1.497644   -0.173109   -2.184938
  H     -2.437770   -3.606652   -1.378639
  H     -0.383444   -2.510513   -0.817771
  H     -1.039202   -2.724309    0.818997

 Total Charge           Charge          ....    0
 Multiplicity           Mult            ....    1
 Number of Electrons    NEL             ....   68
 Basis Dimension        Dim             ....  345

ORBITAL ENERGIES
----------------

  NO   OCC          E(Eh)            E(eV)
   0   2.0000     -20.578033      -559.9568
   1   2.0000     -15.572010      -423.7359
   2   2.0000     -11.336684      -308.4868
   3   2.0000     -11.289219      -307.1953
   4   2.0000     -11.270006      -306.6724
   5   2.0000     -11.254013      -306.2373
   6   2.0000     -11.249395      -306.1116
   7   2.0000     -11.240638      -305.8733
   8   2.0000     -11.228525      -305.5437
   9   2.0000      -1.403581       -38.1934
  10   2.0000      -1.217313       -33.1248
  11   2.0000      -1.113285       -30.2940
  12   2.0000      -1.055357       -28.7177
  13   2.0000      -1.002572       -27.2814
  14   2.0000      -0.880753       -23.9665
  15   2.0000      -0.871959       -23.7272
  16   2.0000      -0.798131       -21.7183
  17   2.0000      -0.739413       -20.1205
  18   2.0000      -0.696261       -18.9462
  19   2.0000      -0.653798       -17.7907
  20   2.0000      -0.636466       -17.3191
  21   2.0000      -0.603933       -16.4339
  22   2.0000      -0.597032       -16.2461
  23   2.0000      -0.592084       -16.1114
  24   2.0000      -0.562528       -15.3072
  25   2.0000      -0.540059       -14.6958
  26   2.0000      -0.529146       -14.3988
  27   2.0000      -0.518443       -14.1076
  28   2.0000      -0.493572       -13.4308
  29   2.0000      -0.487809       -13.2740
  30   2.0000      -0.476890       -12.9768
  31   2.0000      -0.465257       -12.6603
  32   2.0000      -0.452149       -12.3036
  33   2.0000      -0.444916       -12.1068
  34   0.0000       0.121584         3.3085
  35   0.0000       0.135708         3.6928
  36   0.0000       0.147850         4.0232
  37   0.0000       0.157355         4.2818
  38   0.0000       0.171304         4.6614

MULLIKEN ATOMIC CHARGES
-----------------------
   0 C :   -0.395389
   1 C :   -0.216759
   2 C :   -0.128292
   3 C :   -0.062092
   4 O :   -0.312656
   5 C :    0.260062
   6 C :   -0.258708
   7 C :   -0.229283
   8 N :   -0.056655
   9 H :    0.140466
  10 H :    0.130521
  11 H :    0.131186
  12 H :    0.113007
  13 H :    0.119867
  14 H :    0.121266
  15 H :    0.123232
  16 H :    0.102650
  17 H :    0.138669
  18 H :    0.128427
  19 H :    0.150484
Sum of atomic charges:   -0.0000000

LOEWDIN ATOMIC CHARGES
----------------------
   0 C :   -0.313134
   1 C :   -0.273134
   2 C :   -0.254695
   3 C :   -0.260900
   4 O :    0.180200
   5 C :   -0.304766
   6 C :   -0.198393
   7 C :   -0.163752
   8 N :    0.064418
   9 H :    0.123410
  10 H :    0.122112
  11 H :    0.123778
  12 H :    0.138673
  13 H :    0.140868
  14 H :    0.160453
  15 H :    0.128355
  16 H :    0.127295
  17 H :    0.163426
  18 H :    0.147160
  19 H :    0.148628

  Mayer bond orders larger than 0.1
B(  0-C ,  1-C ) :   0.9206 B(  0-C ,  9-H ) :   0.9406 B(  0-C , 10-H ) :   0.9380
B(  0-C , 11-H ) :   0.9371 B(  1-C ,  2-C ) :   0.9161 B(  1-C , 12-H ) :   0.9237
B(  1-C , 13-H ) :   0.9344 B(  2-C ,  3-C ) :   0.9332 B(  2-C ,  6-C ) :   0.9300
B(  2-C , 14-H ) :   0.9228 B(  3-C ,  4-O ) :   0.9180 B(  3-C , 15-H ) :   0.9187
B(  3-C , 16-H ) :   0.9243 B(  4-O ,  5-C ) :   0.9482 B(  5-C ,  6-C ) :   0.9079
B(  5-C ,  7-C ) :   0.9011 B(  5-C , 17-H ) :   0.9072 B(  6-C , 18-H ) :   0.9195
B(  6-C , 19-H ) :   0.9216 B(  7-C ,  8-N ) :   2.8589

MP2 TOTAL ENERGY:     -402.481215787 Eh
FINAL SINGLE POINT ENERGY      -402.481215786719

DIPOLE MOMENT
-------------
                                X             Y             Z
Electronic contribution:     -9.65222      -9.19893      -0.62130
Nuclear contribution   :     11.30448       9.71664       0.24853
                        -----------------------------------------
Total Dipole Moment    :      1.65227       0.51771      -0.37277
                        -----------------------------------------
Magnitude (a.u.)       :      1.77115
Magnitude (Debye)      :      4.50190

                             ****ORCA TERMINATED NORMALLY****
TOTAL RUN TIME: 0 days 0 hours 31 minutes 0 seconds 62 msec
