                         Program Version 3.0.3 - RELEASE   -
|  1> ! RI-MP2 RIJK def2-TZVP def2-TZVP/C def2-TZVP/JK TIGHTSCF
|  2> % maxcore 2000
|  3> % mp2 density relaxed end
|  4> *xyz 0 1
|  5>  C        0.1289111982     1.3714472521     0.3247847280
|  6>  N       -0.0376565963     0.0127853147    -0.1915569772
|  7>  C       -1.3428774486    -0.5053665596    -0.1577322992
|  8>  C       -1.9451444980    -1.0007202187     1.1354840326
|  9>  C       -1.8146919062    -1.9625114643    -0.0157820335
| 10>  O       -2.8860036472    -1.7761318730    -0.9398758927
| 11>  C       -2.4550586840    -0.4143516912    -1.2160433887
| 12>  C       -1.1070612392    -3.1986521333     0.0062681687
| 13>  N       -0.5168386471    -4.1941434775     0.0223037632
| 14>  H        1.1898313256     1.6334233421     0.2994959089
| 15>  H       -0.4303195566     2.1407644521    -0.2308677831
| 16>  H       -0.2005779112     1.4026269754     1.3675958710
| 17>  H        0.3827719678    -0.0897101797    -1.1077861459
| 18>  H       -1.2177514511    -1.1333692198     1.9289689612
| 19>  H       -2.9467699294    -0.7144728194     1.4428747726
| 20>  H       -3.2575582219     0.3143982998    -1.0592763723
| 21>  H       -2.0697256847    -0.3369552796    -2.2397706137
| 22> *
| 23>
| 24>                          ****END OF INPUT****

CARTESIAN COORDINATES (ANGSTROEM)
---------------------------------
  C      0.128911    1.371447    0.324785
  N     -0.037657    0.012785   -0.191557
  C     -1.342877   -0.505367   -0.157732
  C     -1.945144   -1.000720    1.135484
  C     -1.814692   -1.962511   -0.015782
  O     -2.886004   -1.776132   -0.939876
  C     -2.455059   -0.414352   -1.216043
  C     -1.107061   -3.198652    0.006268
  N     -0.516839   -4.194143    0.022304
  H      1.189831    1.633423    0.299496
  H     -0.430320    2.140764   -0.230868
  H     -0.200578    1.402627    1.367596
  H      0.382772   -0.089710   -1.107786
  H     -1.217751   -1.133369    1.928969
  H     -2.946770   -0.714473    1.442875
  H     -3.257558    0.314398   -1.059276
  H     -2.069726   -0.336955   -2.239771

 Total Charge           Charge          ....    0
 Multiplicity           Mult            ....    1
 Number of Electrons    NEL             ....   66
 Basis Dimension        Dim             ....  327

ORBITAL ENERGIES
----------------

  NO   OCC          E(Eh)            E(eV)
   0   2.0000     -20.585505      -560.1601
   1   2.0000     -15.577521      -423.8859
   2   2.0000     -15.575777      -423.8385
   3   2.0000     -11.337867      -308.5190
   4   2.0000     -11.307818      -307.7014
   5   2.0000     -11.306044      -307.6531
   6   2.0000     -11.277726      -306.8825
   7   2.0000     -11.268976      -306.6444
   8   2.0000     -11.266039      -306.5645
   9   2.0000      -1.425199       -38.7816
  10   2.0000      -1.247694       -33.9515
  11   2.0000      -1.218985       -33.1703
  12   2.0000      -1.128155       -30.6987
  13   2.0000      -0.992281       -27.0013
  14   2.0000      -0.935663       -25.4607
  15   2.0000      -0.892086       -24.2749
  16   2.0000      -0.811815       -22.0906
  17   2.0000      -0.752918       -20.4879
  18   2.0000      -0.690759       -18.7965
  19   2.0000      -0.678869       -18.4730
  20   2.0000      -0.639929       -17.4134
  21   2.0000      -0.617335       -16.7985
  22   2.0000      -0.599508       -16.3135
  23   2.0000      -0.579488       -15.7687
  24   2.0000      -0.576743       -15.6940
  25   2.0000      -0.560100       -15.2411
  26   2.0000      -0.544570       -14.8185
  27   2.0000      -0.535311       -14.5666
  28   2.0000      -0.493911       -13.4400
  29   2.0000      -0.470509       -12.8032
  30   2.0000      -0.440098       -11.9757
  31   2.0000      -0.420130       -11.4323
  32   2.0000      -0.370840       -10.0911
  33   0.0000       0.114080         3.1043
  34   0.0000       0.138982         3.7819
  35   0.0000       0.143048         3.8925
  36   0.0000       0.162034         4.4092
  37   0.0000       0.165603         4.5063

MULLIKEN ATOMIC CHARGES
-----------------------
   0 C :   -0.281393
   1 N :   -0.354065
   2 C :   -0.003541
   3 C :   -0.264673
   4 C :    0.329845
   5 O :   -0.303703
   6 C :    0.003358
   7 C :   -0.239454
   8 N :   -0.045959
   9 H :    0.144949
  10 H :    0.121039
  11 H :    0.137694
  12 H :    0.221610
  13 H :    0.160979
  14 H :    0.151110
  15 H :    0.117456
  16 H :    0.104748
Sum of atomic charges:   -0.0000000

LOEWDIN ATOMIC CHARGES
----------------------
   0 C :   -0.328822
   1 N :    0.016724
   2 C :   -0.271342
   3 C :   -0.135823
   4 C :   -0.266493
   5 O :    0.187073
   6 C :   -0.212274
   7 C :   -0.144640
   8 N :    0.083694
   9 H :    0.119117
  10 H :    0.102723
  11 H :    0.119708
  12 H :    0.179395
  13 H :    0.157046
  14 H :    0.143137
  15 H :    0.123184
  16 H :    0.127595

  Mayer bond orders larger than 0.1
B(  0-C ,  1-N ) :   0.8989 B(  0-C ,  9-H ) :   0.9363 B(  0-C , 10-H ) :   0.9337
B(  0-C , 11-H ) :   0.9387 B(  1-N ,  2-C ) :   1.0775 B(  1-N , 12-H ) :   0.8769
B(  2-C ,  3-C ) :   0.8837 B(  2-C ,  4-C ) :   0.8113 B(  2-C ,  6-C ) :   0.9781
B(  3-C ,  4-C ) :   0.8579 B(  3-C , 13-H ) :   0.9170 B(  3-C , 14-H ) :   0.9054
B(  4-C ,  5-O ) :   0.9943 B(  4-C ,  7-C ) :   0.9304 B(  5-O ,  6-C ) :   0.9276
B(  6-C , 15-H ) :   0.9085 B(  6-C , 16-H ) :   0.9032 B(  7-C ,  8-N ) :   2.8447

MP2 TOTAL ENERGY:     -417.248935281 Eh
FINAL SINGLE POINT ENERGY      -417.248935280566

DIPOLE MOMENT
-------------
                                X             Y             Z
Electronic contribution:     -2.02654     -10.00151      -1.36287
Nuclear contribution   :      1.94766      12.20955       1.33703
                        -----------------------------------------
Total Dipole Moment    :     -0.07888       2.20804      -0.02584
                        -----------------------------------------
Magnitude (a.u.)       :      2.20960
Magnitude (Debye)      :      5.61636

                             ****ORCA TERMINATED NORMALLY****
TOTAL RUN TIME: 0 days 0 hours 16 minutes 23 seconds 899 msec
