                         Program Version 3.0.3 - RELEASE   -
|  1> ! RI-MP2 RIJK def2-TZVP def2-TZVP/C def2-TZVP/JK TIGHTSCF
|  2> % maxcore 2000
|  3> % mp2 density relaxed end
|  4> *xyz 0 1
|  5>  N        0.6456695409     0.6088207893    -0.9619039849
|  6>  C       -0.2326986334     0.5195337001     0.0731645022
|  7>  O       -0.3114048657     1.3672678556     0.9461389493
|  8>  C       -1.1386054632    -0.6939077106     0.0776664946
|  9>  C       -1.2777633246    -1.3686733643     1.4052262439
| 10>  N       -2.3589960534    -0.5363294979     0.8838652908
| 11>  C       -1.2984707012    -1.4769111306    -1.1933571760
| 12>  C       -0.3798391816    -2.5755875819    -1.5538951188
| 13>  O       -1.6936279204    -2.8376121726    -1.0701251776
| 14>  H        1.3002722357     1.3739004899    -0.9602592606
| 15>  H        0.7711375512    -0.1402176223    -1.6194611147
| 16>  H       -1.4810911859    -2.4343129488     1.4112086411
| 17>  H       -0.6723176715    -0.9797514085     2.2184617878
| 18>  H       -2.2945178972     0.3832471060     1.3236114879
| 19>  H       -1.8032884911    -0.9456509300    -2.0016591357
| 20>  H       -0.2086761597    -2.8197356309    -2.6014686940
| 21>  H        0.4269005813    -2.8415313525    -0.8716970253
| 22> *
| 23>
| 24>                          ****END OF INPUT****

CARTESIAN COORDINATES (ANGSTROEM)
---------------------------------
  N      0.645670    0.608821   -0.961904
  C     -0.232699    0.519534    0.073165
  O     -0.311405    1.367268    0.946139
  C     -1.138605   -0.693908    0.077666
  C     -1.277763   -1.368673    1.405226
  N     -2.358996   -0.536329    0.883865
  C     -1.298471   -1.476911   -1.193357
  C     -0.379839   -2.575588   -1.553895
  O     -1.693628   -2.837612   -1.070125
  H      1.300272    1.373900   -0.960259
  H      0.771138   -0.140218   -1.619461
  H     -1.481091   -2.434313    1.411209
  H     -0.672318   -0.979751    2.218462
  H     -2.294518    0.383247    1.323611
  H     -1.803288   -0.945651   -2.001659
  H     -0.208676   -2.819736   -2.601469
  H      0.426901   -2.841531   -0.871697

 Total Charge           Charge          ....    0
 Multiplicity           Mult            ....    1
 Number of Electrons    NEL             ....   68
 Basis Dimension        Dim             ....  327

ORBITAL ENERGIES
----------------

  NO   OCC          E(Eh)            E(eV)
   0   2.0000     -20.587605      -560.2172
   1   2.0000     -20.530719      -558.6693
   2   2.0000     -15.599912      -424.4952
   3   2.0000     -15.567698      -423.6186
   4   2.0000     -11.368648      -309.3566
   5   2.0000     -11.309481      -307.7466
   6   2.0000     -11.302671      -307.5613
   7   2.0000     -11.286452      -307.1200
   8   2.0000     -11.268503      -306.6316
   9   2.0000      -1.434137       -39.0248
  10   2.0000      -1.398936       -38.0670
  11   2.0000      -1.275849       -34.7176
  12   2.0000      -1.228905       -33.4402
  13   2.0000      -0.995453       -27.0877
  14   2.0000      -0.922482       -25.1020
  15   2.0000      -0.888691       -24.1825
  16   2.0000      -0.867035       -23.5932
  17   2.0000      -0.782312       -21.2878
  18   2.0000      -0.757869       -20.6227
  19   2.0000      -0.718473       -19.5506
  20   2.0000      -0.701752       -19.0956
  21   2.0000      -0.675488       -18.3810
  22   2.0000      -0.638829       -17.3834
  23   2.0000      -0.606168       -16.4947
  24   2.0000      -0.583352       -15.8738
  25   2.0000      -0.568612       -15.4727
  26   2.0000      -0.554366       -15.0851
  27   2.0000      -0.514567       -14.0021
  28   2.0000      -0.494414       -13.4537
  29   2.0000      -0.477651       -12.9975
  30   2.0000      -0.450383       -12.2555
  31   2.0000      -0.436856       -11.8874
  32   2.0000      -0.432933       -11.7807
  33   2.0000      -0.400003       -10.8846
  34   0.0000       0.116277         3.1641
  35   0.0000       0.151895         4.1333
  36   0.0000       0.159949         4.3524
  37   0.0000       0.166283         4.5248
  38   0.0000       0.175157         4.7663

MULLIKEN ATOMIC CHARGES
-----------------------
   0 N :   -0.459681
   1 C :    0.240223
   2 O :   -0.375994
   3 C :    0.159320
   4 C :   -0.181717
   5 N :   -0.376031
   6 C :   -0.082685
   7 C :   -0.078086
   8 O :   -0.308841
   9 H :    0.260975
  10 H :    0.265752
  11 H :    0.147650
  12 H :    0.145683
  13 H :    0.241043
  14 H :    0.148160
  15 H :    0.126167
  16 H :    0.128062
Sum of atomic charges:   -0.0000000

LOEWDIN ATOMIC CHARGES
----------------------
   0 N :    0.001519
   1 C :   -0.447011
   2 O :    0.079075
   3 C :   -0.274426
   4 C :   -0.220951
   5 N :    0.037884
   6 C :   -0.264340
   7 C :   -0.272651
   8 O :    0.176231
   9 H :    0.177257
  10 H :    0.173003
  11 H :    0.133810
  12 H :    0.130457
  13 H :    0.178939
  14 H :    0.146737
  15 H :    0.120824
  16 H :    0.123644

  Mayer bond orders larger than 0.1
B(  0-N ,  1-C ) :   1.1869 B(  0-N ,  9-H ) :   0.8567 B(  0-N , 10-H ) :   0.8623
B(  1-C ,  2-O ) :   1.9001 B(  1-C ,  3-C ) :   0.9120 B(  3-C ,  4-C ) :   0.9040
B(  3-C ,  5-N ) :   0.8943 B(  3-C ,  6-C ) :   0.8447 B(  4-C ,  5-N ) :   0.9481
B(  4-C , 11-H ) :   0.9135 B(  4-C , 12-H ) :   0.9052 B(  5-N , 13-H ) :   0.8550
B(  6-C ,  7-C ) :   0.9928 B(  6-C ,  8-O ) :   0.9188 B(  6-C , 14-H ) :   0.9280
B(  7-C ,  8-O ) :   0.9069 B(  7-C , 15-H ) :   0.9189 B(  7-C , 16-H ) :   0.9040

MP2 TOTAL ENERGY:     -454.393570044 Eh
FINAL SINGLE POINT ENERGY      -454.393570043933

DIPOLE MOMENT
-------------
                                X             Y             Z
Electronic contribution:     -1.40753       1.90451       0.70011
Nuclear contribution   :      2.84299      -2.12325      -1.70389
                        -----------------------------------------
Total Dipole Moment    :      1.43546      -0.21874      -1.00377
                        -----------------------------------------
Magnitude (a.u.)       :      1.76521
Magnitude (Debye)      :      4.48680

                             ****ORCA TERMINATED NORMALLY****
TOTAL RUN TIME: 0 days 0 hours 17 minutes 6 seconds 27 msec
