                         Program Version 3.0.3 - RELEASE   -
|  1> ! RI-MP2 RIJK def2-TZVP def2-TZVP/C def2-TZVP/JK TIGHTSCF
|  2> % maxcore 2000
|  3> % mp2 density relaxed end
|  4> *xyz 0 1
|  5>  C       -0.1222046429     1.6579731245    -0.1896840407
|  6>  C       -0.0448767993     0.2125215495     0.3128383322
|  7>  C       -1.3319198054    -0.5503003483     0.0687356888
|  8>  O       -1.5907961860    -0.7386327228    -1.3790636435
|  9>  C       -1.5974794004    -2.1012240782    -1.2342784846
| 10>  N       -1.6692487075    -3.0316678631    -2.0780546432
| 11>  C       -1.3913451959    -2.0916901393     0.2602828308
| 12>  C       -0.1856256997    -2.9265114587     0.7045237926
| 13>  O       -0.4320865336    -4.2907323801     0.4428669103
| 14>  H        0.8208850098     2.1835902850    -0.0164099232
| 15>  H       -0.3336332207     1.6817371573    -1.2624389122
| 16>  H       -0.9153312534     2.2137400028     0.3221681943
| 17>  H        0.7861539182    -0.3078122004    -0.1749721124
| 18>  H        0.1584936641     0.1955049782     1.3914585897
| 19>  H       -2.1848178104    -0.0236611654     0.5092209338
| 20>  H       -1.7457189456    -2.6843559159    -3.0348718449
| 21>  H       -2.2750520700    -2.4249409511     0.8101403511
| 22>  H        0.7271875743    -2.5761423765     0.1987816657
| 23>  H       -0.0226418638    -2.8307840422     1.7832160155
| 24>  H       -0.6898544018    -4.3571315751    -0.4891305202
| 25> *
| 26>
| 27>                          ****END OF INPUT****

CARTESIAN COORDINATES (ANGSTROEM)
---------------------------------
  C     -0.122205    1.657973   -0.189684
  C     -0.044877    0.212522    0.312838
  C     -1.331920   -0.550300    0.068736
  O     -1.590796   -0.738633   -1.379064
  C     -1.597479   -2.101224   -1.234278
  N     -1.669249   -3.031668   -2.078055
  C     -1.391345   -2.091690    0.260283
  C     -0.185626   -2.926511    0.704524
  O     -0.432087   -4.290732    0.442867
  H      0.820885    2.183590   -0.016410
  H     -0.333633    1.681737   -1.262439
  H     -0.915331    2.213740    0.322168
  H      0.786154   -0.307812   -0.174972
  H      0.158494    0.195505    1.391459
  H     -2.184818   -0.023661    0.509221
  H     -1.745719   -2.684356   -3.034872
  H     -2.275052   -2.424941    0.810140
  H      0.727188   -2.576142    0.198782
  H     -0.022642   -2.830784    1.783216
  H     -0.689854   -4.357132   -0.489131

 Total Charge           Charge          ....    0
 Multiplicity           Mult            ....    1
 Number of Electrons    NEL             ....   70
 Basis Dimension        Dim             ....  345

ORBITAL ENERGIES
----------------

  NO   OCC          E(Eh)            E(eV)
   0   2.0000     -20.597908      -560.4976
   1   2.0000     -20.550314      -559.2025
   2   2.0000     -15.545904      -423.0256
   3   2.0000     -11.347089      -308.7700
   4   2.0000     -11.313900      -307.8669
   5   2.0000     -11.289047      -307.1906
   6   2.0000     -11.256340      -306.3006
   7   2.0000     -11.244921      -305.9899
   8   2.0000     -11.228512      -305.5433
   9   2.0000      -1.441014       -39.2120
  10   2.0000      -1.359472       -36.9931
  11   2.0000      -1.205053       -32.7911
  12   2.0000      -1.088805       -29.6279
  13   2.0000      -1.044335       -28.4178
  14   2.0000      -0.927505       -25.2387
  15   2.0000      -0.894816       -24.3492
  16   2.0000      -0.827349       -22.5133
  17   2.0000      -0.737393       -20.0655
  18   2.0000      -0.718865       -19.5613
  19   2.0000      -0.715915       -19.4810
  20   2.0000      -0.675723       -18.3874
  21   2.0000      -0.647748       -17.6261
  22   2.0000      -0.623052       -16.9541
  23   2.0000      -0.601790       -16.3755
  24   2.0000      -0.583129       -15.8677
  25   2.0000      -0.576747       -15.6941
  26   2.0000      -0.547682       -14.9032
  27   2.0000      -0.530956       -14.4480
  28   2.0000      -0.515346       -14.0233
  29   2.0000      -0.503662       -13.7053
  30   2.0000      -0.493053       -13.4167
  31   2.0000      -0.480306       -13.0698
  32   2.0000      -0.446712       -12.1557
  33   2.0000      -0.438960       -11.9447
  34   2.0000      -0.408462       -11.1148
  35   0.0000       0.125671         3.4197
  36   0.0000       0.146370         3.9829
  37   0.0000       0.152644         4.1537
  38   0.0000       0.163780         4.4567
  39   0.0000       0.174589         4.7508

MULLIKEN ATOMIC CHARGES
-----------------------
   0 C :   -0.400497
   1 C :   -0.211858
   2 C :    0.047087
   3 O :   -0.268681
   4 C :    0.170749
   5 N :   -0.435441
   6 C :   -0.080236
   7 C :   -0.022354
   8 O :   -0.473307
   9 H :    0.140375
  10 H :    0.147687
  11 H :    0.124573
  12 H :    0.119494
  13 H :    0.120384
  14 H :    0.112430
  15 H :    0.228303
  16 H :    0.130229
  17 H :    0.097672
  18 H :    0.116314
  19 H :    0.337077
Sum of atomic charges:   -0.0000000

LOEWDIN ATOMIC CHARGES
----------------------
   0 C :   -0.311303
   1 C :   -0.276239
   2 C :   -0.211274
   3 O :    0.234340
   4 C :   -0.390158
   5 N :   -0.069402
   6 C :   -0.190915
   7 C :   -0.323022
   8 O :   -0.034939
   9 H :    0.123773
  10 H :    0.127703
  11 H :    0.122466
  12 H :    0.142500
  13 H :    0.146604
  14 H :    0.143039
  15 H :    0.172356
  16 H :    0.164831
  17 H :    0.119975
  18 H :    0.129385
  19 H :    0.180280

  Mayer bond orders larger than 0.1
B(  0-C ,  1-C ) :   0.9194 B(  0-C ,  9-H ) :   0.9398 B(  0-C , 10-H ) :   0.9367
B(  0-C , 11-H ) :   0.9363 B(  1-C ,  2-C ) :   0.9213 B(  1-C , 12-H ) :   0.9311
B(  1-C , 13-H ) :   0.9217 B(  2-C ,  3-O ) :   0.8507 B(  2-C ,  6-C ) :   0.9064
B(  2-C , 14-H ) :   0.9134 B(  3-O ,  4-C ) :   1.0919 B(  4-C ,  5-N ) :   1.9380
B(  4-C ,  6-C ) :   0.9096 B(  5-N , 15-H ) :   0.8456 B(  6-C ,  7-C ) :   0.9251
B(  6-C , 16-H ) :   0.9069 B(  7-C ,  8-O ) :   0.9509 B(  7-C , 17-H ) :   0.9148
B(  7-C , 18-H ) :   0.9342 B(  8-O , 19-H ) :   0.8164

MP2 TOTAL ENERGY:     -439.569358493 Eh
FINAL SINGLE POINT ENERGY      -439.569358492571

DIPOLE MOMENT
-------------
                                X             Y             Z
Electronic contribution:     -3.93055      -6.42060      -3.29311
Nuclear contribution   :      4.06550       7.69244       3.61574
                        -----------------------------------------
Total Dipole Moment    :      0.13495       1.27183       0.32263
                        -----------------------------------------
Magnitude (a.u.)       :      1.31904
Magnitude (Debye)      :      3.35272

                             ****ORCA TERMINATED NORMALLY****
TOTAL RUN TIME: 0 days 0 hours 28 minutes 14 seconds 905 msec
