                         Program Version 3.0.3 - RELEASE   -
|  1> ! RI-MP2 RIJK def2-TZVP def2-TZVP/C def2-TZVP/JK TIGHTSCF
|  2> % maxcore 2000
|  3> % mp2 density relaxed end
|  4> *xyz 0 1
|  5>  C       -0.0400288248     1.4191307583    -0.2780660747
|  6>  O       -0.1335924191     0.1922645484     0.4143081708
|  7>  C       -1.3222844410    -0.5027398388     0.1594176815
|  8>  C       -1.3959715068    -1.3380052835    -1.1407264043
|  9>  O       -1.5079897129    -2.5630691090    -0.3885970883
| 10>  C       -1.3974086957    -1.8715901215     0.8747050520
| 11>  C       -0.1650703826    -2.2887126874     1.6829283718
| 12>  C       -0.2694158460    -3.6545494977     2.1792215882
| 13>  C       -0.3758712098    -4.7786928846     2.5902197595
| 14>  H        0.9029787876     1.8851797605     0.0155640617
| 15>  H       -0.0400277761     1.2774524862    -1.3689378806
| 16>  H       -0.8703064488     2.0930479142    -0.0164839571
| 17>  H       -2.1927801064     0.1463205751     0.3295592248
| 18>  H       -2.2681991766    -1.1691206820    -1.7831778718
| 19>  H       -0.4815644041    -1.3031625223    -1.7467695420
| 20>  H       -2.3014332619    -2.0180723999     1.4780302369
| 21>  H        0.7265816277    -2.1718928007     1.0591722618
| 22>  H       -0.0507232343    -1.5895335383     2.5208940978
| 23>  H       -0.4597991784    -5.7743640770     2.9485819621
| 24> *
| 25>
| 26>                          ****END OF INPUT****

CARTESIAN COORDINATES (ANGSTROEM)
---------------------------------
  C     -0.040029    1.419131   -0.278066
  O     -0.133592    0.192265    0.414308
  C     -1.322284   -0.502740    0.159418
  C     -1.395972   -1.338005   -1.140726
  O     -1.507990   -2.563069   -0.388597
  C     -1.397409   -1.871590    0.874705
  C     -0.165070   -2.288713    1.682928
  C     -0.269416   -3.654549    2.179222
  C     -0.375871   -4.778693    2.590220
  H      0.902979    1.885180    0.015564
  H     -0.040028    1.277452   -1.368938
  H     -0.870306    2.093048   -0.016484
  H     -2.192780    0.146321    0.329559
  H     -2.268199   -1.169121   -1.783178
  H     -0.481564   -1.303163   -1.746770
  H     -2.301433   -2.018072    1.478030
  H      0.726582   -2.171893    1.059172
  H     -0.050723   -1.589534    2.520894
  H     -0.459799   -5.774364    2.948582

 Total Charge           Charge          ....    0
 Multiplicity           Mult            ....    1
 Number of Electrons    NEL             ....   68
 Basis Dimension        Dim             ....  339

ORBITAL ENERGIES
----------------

  NO   OCC          E(Eh)            E(eV)
   0   2.0000     -20.573344      -559.8292
   1   2.0000     -20.551426      -559.2327
   2   2.0000     -11.294569      -307.3408
   3   2.0000     -11.291662      -307.2617
   4   2.0000     -11.285486      -307.0937
   5   2.0000     -11.281999      -306.9988
   6   2.0000     -11.247726      -306.0662
   7   2.0000     -11.226556      -305.4901
   8   2.0000     -11.212584      -305.1099
   9   2.0000      -1.405955       -38.2580
  10   2.0000      -1.373359       -37.3710
  11   2.0000      -1.074197       -29.2304
  12   2.0000      -1.018136       -27.7049
  13   2.0000      -0.978993       -26.6398
  14   2.0000      -0.928092       -25.2547
  15   2.0000      -0.890597       -24.2344
  16   2.0000      -0.767850       -20.8943
  17   2.0000      -0.725093       -19.7308
  18   2.0000      -0.707185       -19.2435
  19   2.0000      -0.685600       -18.6561
  20   2.0000      -0.665516       -18.1096
  21   2.0000      -0.635764       -17.3000
  22   2.0000      -0.611597       -16.6424
  23   2.0000      -0.607202       -16.5228
  24   2.0000      -0.596535       -16.2326
  25   2.0000      -0.562297       -15.3009
  26   2.0000      -0.550013       -14.9666
  27   2.0000      -0.517495       -14.0817
  28   2.0000      -0.496920       -13.5219
  29   2.0000      -0.463826       -12.6213
  30   2.0000      -0.433253       -11.7894
  31   2.0000      -0.419520       -11.4157
  32   2.0000      -0.378382       -10.2963
  33   2.0000      -0.375625       -10.2213
  34   0.0000       0.133671         3.6374
  35   0.0000       0.154453         4.2029
  36   0.0000       0.163619         4.4523
  37   0.0000       0.172158         4.6847
  38   0.0000       0.174411         4.7460

MULLIKEN ATOMIC CHARGES
-----------------------
   0 C :   -0.236039
   1 O :   -0.290188
   2 C :    0.024783
   3 C :   -0.031798
   4 O :   -0.321417
   5 C :    0.122731
   6 C :   -0.401513
   7 C :   -0.004443
   8 C :   -0.115103
   9 H :    0.145578
  10 H :    0.117620
  11 H :    0.117188
  12 H :    0.093975
  13 H :    0.100937
  14 H :    0.096826
  15 H :    0.097139
  16 H :    0.150335
  17 H :    0.144919
  18 H :    0.188468
Sum of atomic charges:    0.0000000

LOEWDIN ATOMIC CHARGES
----------------------
   0 C :   -0.348883
   1 O :    0.163971
   2 C :   -0.299974
   3 C :   -0.257864
   4 O :    0.143387
   5 C :   -0.245870
   6 C :   -0.230055
   7 C :   -0.107707
   8 C :   -0.104972
   9 H :    0.115993
  10 H :    0.103601
  11 H :    0.104098
  12 H :    0.131071
  13 H :    0.117181
  14 H :    0.121561
  15 H :    0.141239
  16 H :    0.163285
  17 H :    0.164522
  18 H :    0.125416

  Mayer bond orders larger than 0.1
B(  0-C ,  1-O ) :   0.9067 B(  0-C ,  9-H ) :   0.9403 B(  0-C , 10-H ) :   0.9337
B(  0-C , 11-H ) :   0.9354 B(  1-O ,  2-C ) :   0.9799 B(  2-C ,  3-C ) :   0.9812
B(  2-C ,  5-C ) :   0.9316 B(  2-C , 12-H ) :   0.9309 B(  3-C ,  4-O ) :   0.9641
B(  3-C , 13-H ) :   0.9116 B(  3-C , 14-H ) :   0.8945 B(  4-O ,  5-C ) :   0.9664
B(  5-C ,  6-C ) :   0.9150 B(  5-C , 15-H ) :   0.9186 B(  6-C ,  7-C ) :   1.1035
B(  6-C ,  8-C ) :  -0.1246 B(  6-C , 16-H ) :   0.9213 B(  6-C , 17-H ) :   0.9272
B(  7-C ,  8-C ) :   2.6149 B(  8-C , 18-H ) :   0.8932

MP2 TOTAL ENERGY:     -422.239041347 Eh
FINAL SINGLE POINT ENERGY      -422.239041346793

DIPOLE MOMENT
-------------
                                X             Y             Z
Electronic contribution:     -0.47545      -5.82112       2.24995
Nuclear contribution   :      0.31351       7.01423      -2.50163
                        -----------------------------------------
Total Dipole Moment    :     -0.16193       1.19312      -0.25168
                        -----------------------------------------
Magnitude (a.u.)       :      1.23008
Magnitude (Debye)      :      3.12661

                             ****ORCA TERMINATED NORMALLY****
TOTAL RUN TIME: 0 days 0 hours 17 minutes 22 seconds 387 msec
