                         Program Version 3.0.3 - RELEASE   -
|  1> ! RI-MP2 RIJK def2-TZVP def2-TZVP/C def2-TZVP/JK TIGHTSCF
|  2> % maxcore 2000
|  3> % mp2 density relaxed end
|  4> *xyz 0 1
|  5>  N        0.1003336370    -1.1445799070     0.0732973356
|  6>  C        0.0195957530     0.0110964266     0.0284488195
|  7>  C       -0.0392329227     1.4208242628    -0.0616371425
|  8>  C       -1.1318395615     2.2112398906     0.0423467937
|  9>  C       -0.7308009262     3.6223211247    -0.0112076108
| 10>  C        0.5416068660     4.0077877208     0.8676430824
| 11>  O        1.2292588782     2.8760401775     1.3234845109
| 12>  C        1.1775838595     2.3242528264    -0.0570850108
| 13>  C        0.6748734657     3.7037280717    -0.5750072618
| 14>  H       -2.1410742497     1.8667501524     0.2265563607
| 15>  H       -1.4362015870     4.4225488668    -0.1932438702
| 16>  H        0.5636233497     4.9063931244     1.4704942926
| 17>  H        2.1392244676     1.9126424490    -0.3526367762
| 18>  H        0.9915804905     4.2730003234    -1.4386079531
| 19> *
| 20>
| 21>                          ****END OF INPUT****

CARTESIAN COORDINATES (ANGSTROEM)
---------------------------------
  N      0.100334   -1.144580    0.073297
  C      0.019596    0.011096    0.028449
  C     -0.039233    1.420824   -0.061637
  C     -1.131840    2.211240    0.042347
  C     -0.730801    3.622321   -0.011208
  C      0.541607    4.007788    0.867643
  O      1.229259    2.876040    1.323485
  C      1.177584    2.324253   -0.057085
  C      0.674873    3.703728   -0.575007
  H     -2.141074    1.866750    0.226556
  H     -1.436202    4.422549   -0.193244
  H      0.563623    4.906393    1.470494
  H      2.139224    1.912642   -0.352637
  H      0.991580    4.273000   -1.438608

 Total Charge           Charge          ....    0
 Multiplicity           Mult            ....    1
 Number of Electrons    NEL             ....   62
 Basis Dimension        Dim             ....  309

ORBITAL ENERGIES
----------------

  NO   OCC          E(Eh)            E(eV)
   0   2.0000     -20.581357      -560.0472
   1   2.0000     -15.569574      -423.6696
   2   2.0000     -11.328594      -308.2667
   3   2.0000     -11.325651      -308.1866
   4   2.0000     -11.285549      -307.0954
   5   2.0000     -11.277015      -306.8632
   6   2.0000     -11.275005      -306.8085
   7   2.0000     -11.270940      -306.6979
   8   2.0000     -11.270290      -306.6802
   9   2.0000      -1.427632       -38.8478
  10   2.0000      -1.218075       -33.1455
  11   2.0000      -1.181979       -32.1633
  12   2.0000      -1.086315       -29.5601
  13   2.0000      -0.980024       -26.6678
  14   2.0000      -0.895105       -24.3570
  15   2.0000      -0.812796       -22.1173
  16   2.0000      -0.783376       -21.3167
  17   2.0000      -0.759632       -20.6706
  18   2.0000      -0.711198       -19.3527
  19   2.0000      -0.658339       -17.9143
  20   2.0000      -0.618906       -16.8413
  21   2.0000      -0.596286       -16.2258
  22   2.0000      -0.575466       -15.6592
  23   2.0000      -0.557985       -15.1835
  24   2.0000      -0.552666       -15.0388
  25   2.0000      -0.515788       -14.0353
  26   2.0000      -0.501386       -13.6434
  27   2.0000      -0.463979       -12.6255
  28   2.0000      -0.450553       -12.2602
  29   2.0000      -0.408042       -11.1034
  30   2.0000      -0.355041        -9.6612
  31   0.0000       0.074608         2.0302
  32   0.0000       0.137264         3.7351
  33   0.0000       0.155296         4.2258
  34   0.0000       0.159289         4.3345
  35   0.0000       0.169895         4.6231

MULLIKEN ATOMIC CHARGES
-----------------------
   0 N :   -0.047039
   1 C :   -0.256373
   2 C :    0.102754
   3 C :   -0.163268
   4 C :   -0.111750
   5 C :    0.031026
   6 O :   -0.293422
   7 C :    0.136245
   8 C :   -0.181025
   9 H :    0.159496
  10 H :    0.149610
  11 H :    0.151344
  12 H :    0.158645
  13 H :    0.163758
Sum of atomic charges:   -0.0000000

LOEWDIN ATOMIC CHARGES
----------------------
   0 N :    0.074707
   1 C :   -0.160035
   2 C :   -0.143420
   3 C :   -0.055307
   4 C :   -0.159474
   5 C :   -0.221897
   6 O :    0.195824
   7 C :   -0.133804
   8 C :   -0.129334
   9 H :    0.151966
  10 H :    0.153184
  11 H :    0.138056
  12 H :    0.147486
  13 H :    0.142050

  Mayer bond orders larger than 0.1
B(  0-N ,  1-C ) :   2.8510 B(  1-C ,  2-C ) :   0.9197 B(  2-C ,  3-C ) :   1.6264
B(  2-C ,  7-C ) :   0.9272 B(  3-C ,  4-C ) :   1.0197 B(  3-C ,  9-H ) :   0.9138
B(  4-C ,  5-C ) :   0.7715 B(  4-C ,  8-C ) :   0.8760 B(  4-C , 10-H ) :   0.9216
B(  5-C ,  6-O ) :   1.0175 B(  5-C ,  8-C ) :   0.9477 B(  5-C , 11-H ) :   0.9179
B(  6-O ,  7-C ) :   0.8523 B(  7-C ,  8-C ) :   0.9417 B(  7-C , 12-H ) :   0.9156
B(  8-C , 13-H ) :   0.8932

MP2 TOTAL ENERGY:     -398.816450456 Eh
FINAL SINGLE POINT ENERGY      -398.816450455695

DIPOLE MOMENT
-------------
                                X             Y             Z
Electronic contribution:      0.68211      -4.16661       0.68319
Nuclear contribution   :     -0.95252       6.24588      -1.22718
                        -----------------------------------------
Total Dipole Moment    :     -0.27041       2.07927      -0.54399
                        -----------------------------------------
Magnitude (a.u.)       :      2.16620
Magnitude (Debye)      :      5.50603

                             ****ORCA TERMINATED NORMALLY****
TOTAL RUN TIME: 0 days 0 hours 16 minutes 14 seconds 411 msec
