                         Program Version 3.0.3 - RELEASE   -
|  1> ! RI-MP2 RIJK def2-TZVP def2-TZVP/C def2-TZVP/JK TIGHTSCF
|  2> % maxcore 2000
|  3> % mp2 density relaxed end
|  4> *xyz 0 1
|  5>  C        0.0650048562     1.5664417029    -0.0501119074
|  6>  C        0.2348699941     0.0463883579    -0.0795869086
|  7>  C        0.5454556455    -0.5411453246     1.3113097467
|  8>  C        0.6812698735    -2.0380738268     1.2787810322
|  9>  C        1.9188987079    -2.6902497585     1.1868270427
| 10>  N        2.0039401505    -4.0101761221     1.1286799021
| 11>  C        0.8251381834    -4.6422417091     1.1636540700
| 12>  N       -0.3776609457    -4.0800555760     1.2558497179
| 13>  N       -0.4468069188    -2.7533400644     1.3157272294
| 14>  H        0.9745333084     2.0624630044     0.3066687773
| 15>  H       -0.1581299382     1.9570169536    -1.0474243071
| 16>  H       -0.7548930883     1.8592553290     0.6145918323
| 17>  H       -0.6770249173    -0.4283935584    -0.4590589212
| 18>  H        1.0389028957    -0.2261957580    -0.7750487216
| 19>  H        1.4678998896    -0.0963982872     1.7033285196
| 20>  H       -0.2652237378    -0.2829351170     2.0003855837
| 21>  H        2.8492662976    -2.1252742373     1.1667115635
| 22>  H        0.8374737938    -5.7271750485     1.1169824385
| 23> *
| 24>
| 25>                          ****END OF INPUT****

CARTESIAN COORDINATES (ANGSTROEM)
---------------------------------
  C      0.065005    1.566442   -0.050112
  C      0.234870    0.046388   -0.079587
  C      0.545456   -0.541145    1.311310
  C      0.681270   -2.038074    1.278781
  C      1.918899   -2.690250    1.186827
  N      2.003940   -4.010176    1.128680
  C      0.825138   -4.642242    1.163654
  N     -0.377661   -4.080056    1.255850
  N     -0.446807   -2.753340    1.315727
  H      0.974533    2.062463    0.306669
  H     -0.158130    1.957017   -1.047424
  H     -0.754893    1.859255    0.614592
  H     -0.677025   -0.428394   -0.459059
  H      1.038903   -0.226196   -0.775049
  H      1.467900   -0.096398    1.703329
  H     -0.265224   -0.282935    2.000386
  H      2.849266   -2.125274    1.166712
  H      0.837474   -5.727175    1.116982

 Total Charge           Charge          ....    0
 Multiplicity           Mult            ....    1
 Number of Electrons    NEL             ....   66
 Basis Dimension        Dim             ....  333

ORBITAL ENERGIES
----------------

  NO   OCC          E(Eh)            E(eV)
   0   2.0000     -15.628812      -425.2816
   1   2.0000     -15.615223      -424.9118
   2   2.0000     -15.600924      -424.5227
   3   2.0000     -11.314939      -307.8951
   4   2.0000     -11.307688      -307.6978
   5   2.0000     -11.293113      -307.3012
   6   2.0000     -11.244799      -305.9865
   7   2.0000     -11.235693      -305.7388
   8   2.0000     -11.223419      -305.4048
   9   2.0000      -1.376032       -37.4437
  10   2.0000      -1.252014       -34.0690
  11   2.0000      -1.148312       -31.2472
  12   2.0000      -1.065098       -28.9828
  13   2.0000      -0.972187       -26.4545
  14   2.0000      -0.939271       -25.5589
  15   2.0000      -0.884927       -24.0801
  16   2.0000      -0.817947       -22.2575
  17   2.0000      -0.746231       -20.3060
  18   2.0000      -0.730592       -19.8804
  19   2.0000      -0.642747       -17.4900
  20   2.0000      -0.637814       -17.3558
  21   2.0000      -0.612701       -16.6725
  22   2.0000      -0.606608       -16.5066
  23   2.0000      -0.574458       -15.6318
  24   2.0000      -0.550704       -14.9854
  25   2.0000      -0.529179       -14.3997
  26   2.0000      -0.514618       -14.0035
  27   2.0000      -0.497313       -13.5326
  28   2.0000      -0.487542       -13.2667
  29   2.0000      -0.477675       -12.9982
  30   2.0000      -0.453740       -12.3469
  31   2.0000      -0.402432       -10.9507
  32   2.0000      -0.380955       -10.3663
  33   0.0000       0.063584         1.7302
  34   0.0000       0.103265         2.8100
  35   0.0000       0.129165         3.5148
  36   0.0000       0.155271         4.2251
  37   0.0000       0.171939         4.6787

MULLIKEN ATOMIC CHARGES
-----------------------
   0 C :   -0.386300
   1 C :   -0.221668
   2 C :   -0.244789
   3 C :    0.148792
   4 C :   -0.057263
   5 N :   -0.223807
   6 C :    0.059240
   7 N :   -0.148450
   8 N :   -0.128312
   9 H :    0.122627
  10 H :    0.138791
  11 H :    0.129993
  12 H :    0.136722
  13 H :    0.112099
  14 H :    0.128386
  15 H :    0.137127
  16 H :    0.146607
  17 H :    0.150204
Sum of atomic charges:    0.0000000

LOEWDIN ATOMIC CHARGES
----------------------
   0 C :   -0.317689
   1 C :   -0.283488
   2 C :   -0.225199
   3 C :   -0.231899
   4 C :   -0.171198
   5 N :    0.141583
   6 C :   -0.295665
   7 N :    0.055521
   8 N :    0.096532
   9 H :    0.120749
  10 H :    0.123674
  11 H :    0.123140
  12 H :    0.142546
  13 H :    0.135685
  14 H :    0.145987
  15 H :    0.153950
  16 H :    0.146866
  17 H :    0.138906

  Mayer bond orders larger than 0.1
B(  0-C ,  1-C ) :   0.9165 B(  0-C ,  9-H ) :   0.9371 B(  0-C , 10-H ) :   0.9403
B(  0-C , 11-H ) :   0.9396 B(  1-C ,  2-C ) :   0.9144 B(  1-C , 12-H ) :   0.9341
B(  1-C , 13-H ) :   0.9294 B(  2-C ,  3-C ) :   0.8916 B(  2-C , 14-H ) :   0.9391
B(  2-C , 15-H ) :   0.9163 B(  3-C ,  4-C ) :   1.2609 B(  3-C ,  8-N ) :   1.4587
B(  4-C ,  5-N ) :   1.4399 B(  4-C , 16-H ) :   0.9310 B(  5-N ,  6-C ) :   1.3269
B(  6-C ,  7-N ) :   1.4392 B(  6-C , 17-H ) :   0.9301 B(  7-N ,  8-N ) :   1.0870

MP2 TOTAL ENERGY:     -397.445034421 Eh
FINAL SINGLE POINT ENERGY      -397.445034420746

DIPOLE MOMENT
-------------
                                X             Y             Z
Electronic contribution:      0.78696     -13.73954       3.36845
Nuclear contribution   :     -0.03545      14.60741      -3.48854
                        -----------------------------------------
Total Dipole Moment    :      0.75151       0.86787      -0.12008
                        -----------------------------------------
Magnitude (a.u.)       :      1.15429
Magnitude (Debye)      :      2.93398

                             ****ORCA TERMINATED NORMALLY****
TOTAL RUN TIME: 0 days 0 hours 17 minutes 31 seconds 308 msec
