                         Program Version 3.0.3 - RELEASE   -
|  1> ! RI-MP2 RIJK def2-TZVP def2-TZVP/C def2-TZVP/JK TIGHTSCF
|  2> % maxcore 2000
|  3> % mp2 density relaxed end
|  4> *xyz 0 1
|  5>  O       -0.0764430034     0.1226941582     0.7433087951
|  6>  C       -0.0662658784     1.1615773986     0.1462150985
|  7>  C       -1.3524119741     1.9406351539    -0.1190024609
|  8>  O       -1.2529849229     3.0386732508    -1.0016178882
|  9>  C       -0.0781379731     3.7765181104    -0.7660871265
| 10>  C        1.1400371681     2.9010302012    -1.0616603770
| 11>  O        1.1138336544     1.7065628278    -0.2390876777
| 12>  C        1.2375269048     2.5367705705    -2.4721264569
| 13>  C        1.3265010665     2.2532328911    -3.6353356891
| 14>  H       -2.0828192708     1.2443751969    -0.5356564711
| 15>  H       -1.7222302000     2.2600396724     0.8694529684
| 16>  H       -0.0921941886     4.6398251882    -1.4346320451
| 17>  H       -0.0256952408     4.1307903010     0.2762828119
| 18>  H        2.0519618826     3.4238205195    -0.7524697611
| 19>  H        1.4034107257     1.9967334394    -4.6635102304
| 20> *
| 21>
| 22>                          ****END OF INPUT****

CARTESIAN COORDINATES (ANGSTROEM)
---------------------------------
  O     -0.076443    0.122694    0.743309
  C     -0.066266    1.161577    0.146215
  C     -1.352412    1.940635   -0.119002
  O     -1.252985    3.038673   -1.001618
  C     -0.078138    3.776518   -0.766087
  C      1.140037    2.901030   -1.061660
  O      1.113834    1.706563   -0.239088
  C      1.237527    2.536771   -2.472126
  C      1.326501    2.253233   -3.635336
  H     -2.082819    1.244375   -0.535656
  H     -1.722230    2.260040    0.869453
  H     -0.092194    4.639825   -1.434632
  H     -0.025695    4.130790    0.276283
  H      2.051962    3.423821   -0.752470
  H      1.403411    1.996733   -4.663510

 Total Charge           Charge          ....    0
 Multiplicity           Mult            ....    1
 Number of Electrons    NEL             ....   66
 Basis Dimension        Dim             ....  315

ORBITAL ENERGIES
----------------

  NO   OCC          E(Eh)            E(eV)
   0   2.0000     -20.617289      -561.0250
   1   2.0000     -20.593155      -560.3682
   2   2.0000     -20.547499      -559.1259
   3   2.0000     -11.391992      -309.9919
   4   2.0000     -11.346106      -308.7432
   5   2.0000     -11.315435      -307.9086
   6   2.0000     -11.314154      -307.8738
   7   2.0000     -11.251911      -306.1801
   8   2.0000     -11.247329      -306.0554
   9   2.0000      -1.473886       -40.1065
  10   2.0000      -1.414322       -38.4857
  11   2.0000      -1.373679       -37.3797
  12   2.0000      -1.101781       -29.9810
  13   2.0000      -1.031242       -28.0615
  14   2.0000      -0.983656       -26.7666
  15   2.0000      -0.920523       -25.0487
  16   2.0000      -0.806069       -21.9342
  17   2.0000      -0.745709       -20.2918
  18   2.0000      -0.731701       -19.9106
  19   2.0000      -0.716014       -19.4837
  20   2.0000      -0.697002       -18.9664
  21   2.0000      -0.682444       -18.5702
  22   2.0000      -0.652660       -17.7598
  23   2.0000      -0.622522       -16.9397
  24   2.0000      -0.600125       -16.3302
  25   2.0000      -0.582406       -15.8481
  26   2.0000      -0.558792       -15.2055
  27   2.0000      -0.515369       -14.0239
  28   2.0000      -0.498028       -13.5520
  29   2.0000      -0.465646       -12.6709
  30   2.0000      -0.436047       -11.8654
  31   2.0000      -0.416240       -11.3265
  32   2.0000      -0.407223       -11.0811
  33   0.0000       0.122537         3.3344
  34   0.0000       0.145958         3.9717
  35   0.0000       0.151202         4.1144
  36   0.0000       0.154921         4.2156
  37   0.0000       0.156564         4.2603

MULLIKEN ATOMIC CHARGES
-----------------------
   0 O :   -0.280733
   1 C :    0.228999
   2 C :   -0.079162
   3 O :   -0.303960
   4 C :   -0.080769
   5 C :    0.028925
   6 O :   -0.207611
   7 C :   -0.081363
   8 C :   -0.128211
   9 H :    0.160569
  10 H :    0.129302
  11 H :    0.144504
  12 H :    0.130818
  13 H :    0.138532
  14 H :    0.200160
Sum of atomic charges:    0.0000000

LOEWDIN ATOMIC CHARGES
----------------------
   0 O :    0.148276
   1 C :   -0.479270
   2 C :   -0.285607
   3 O :    0.173433
   4 C :   -0.289283
   5 C :   -0.277904
   6 O :    0.286599
   7 C :   -0.084850
   8 C :   -0.063789
   9 H :    0.152050
  10 H :    0.143737
  11 H :    0.145408
  12 H :    0.131721
  13 H :    0.168238
  14 H :    0.131241

  Mayer bond orders larger than 0.1
B(  0-O ,  1-C ) :   2.0100 B(  1-C ,  2-C ) :   0.9160 B(  1-C ,  6-O ) :   1.1187
B(  2-C ,  3-O ) :   0.9232 B(  2-C ,  9-H ) :   0.9120 B(  2-C , 10-H ) :   0.9144
B(  3-O ,  4-C ) :   0.9305 B(  4-C ,  5-C ) :   0.9393 B(  4-C , 11-H ) :   0.9181
B(  4-C , 12-H ) :   0.9404 B(  5-C ,  6-O ) :   0.8256 B(  5-C ,  7-C ) :   1.1100
B(  5-C , 13-H ) :   0.9063 B(  7-C ,  8-C ) :   2.6131 B(  8-C , 14-H ) :   0.8911

MP2 TOTAL ENERGY:     -457.001959728 Eh
FINAL SINGLE POINT ENERGY      -457.001959728051

DIPOLE MOMENT
-------------
                                X             Y             Z
Electronic contribution:      1.41351      -3.16492       0.46223
Nuclear contribution   :     -1.45815       4.49469      -0.94803
                        -----------------------------------------
Total Dipole Moment    :     -0.04464       1.32977      -0.48580
                        -----------------------------------------
Magnitude (a.u.)       :      1.41643
Magnitude (Debye)      :      3.60029

                             ****ORCA TERMINATED NORMALLY****
TOTAL RUN TIME: 0 days 0 hours 15 minutes 32 seconds 177 msec
