                         Program Version 3.0.3 - RELEASE   -
|  1> ! RI-MP2 RIJK def2-TZVP def2-TZVP/C def2-TZVP/JK TIGHTSCF
|  2> % maxcore 2000
|  3> % mp2 density relaxed end
|  4> *xyz 0 1
|  5>  C       -0.1870559000     1.5685226240     0.0307370354
|  6>  C       -0.1010353501     0.0389227087     0.0133034902
|  7>  C        0.7465029854    -0.5119678387    -1.1419374819
|  8>  C        2.2385736560    -0.2530166716    -1.0706836256
|  9>  C        2.9601964499    -1.2799432867    -1.5320659651
| 10>  C        4.4476831981    -1.3646352770    -1.6660481930
| 11>  C        2.0450537743    -2.4027487243    -1.9856428096
| 12>  C        0.7052797484    -2.0627033435    -1.2945586298
| 13>  O        0.5914478344    -2.7284845463    -0.0426478131
| 14>  H        0.7988949455     2.0304968277     0.1493173839
| 15>  H       -0.6201731316     1.9527896521    -0.8998116454
| 16>  H       -0.8139021454     1.9176467811     0.8573205313
| 17>  H        0.2991319332    -0.3205180519     0.9675420396
| 18>  H       -1.1108536118    -0.3820478077    -0.0628581530
| 19>  H        0.3562139893    -0.0734453197    -2.0758601796
| 20>  H        2.6610518886     0.6835443494    -0.7211064690
| 21>  H        4.9403416463    -0.4617237664    -1.2946797607
| 22>  H        4.8490536007    -2.2254838598    -1.1159502169
| 23>  H        4.7423865813    -1.5054830233    -2.7141358393
| 24>  H        1.9468476198    -2.4012069272    -3.0810827603
| 25>  H        2.3893279350    -3.4032464458    -1.6993819722
| 26>  H       -0.1652453700    -2.3947761285    -1.8665657632
| 27>  H        1.3612067526    -2.4789532747     0.4820987473
| 28> *
| 29>
| 30>                          ****END OF INPUT****

CARTESIAN COORDINATES (ANGSTROEM)
---------------------------------
  C     -0.187056    1.568523    0.030737
  C     -0.101035    0.038923    0.013303
  C      0.746503   -0.511968   -1.141937
  C      2.238574   -0.253017   -1.070684
  C      2.960196   -1.279943   -1.532066
  C      4.447683   -1.364635   -1.666048
  C      2.045054   -2.402749   -1.985643
  C      0.705280   -2.062703   -1.294559
  O      0.591448   -2.728485   -0.042648
  H      0.798895    2.030497    0.149317
  H     -0.620173    1.952790   -0.899812
  H     -0.813902    1.917647    0.857321
  H      0.299132   -0.320518    0.967542
  H     -1.110854   -0.382048   -0.062858
  H      0.356214   -0.073445   -2.075860
  H      2.661052    0.683544   -0.721106
  H      4.940342   -0.461724   -1.294680
  H      4.849054   -2.225484   -1.115950
  H      4.742387   -1.505483   -2.714136
  H      1.946848   -2.401207   -3.081083
  H      2.389328   -3.403246   -1.699382
  H     -0.165245   -2.394776   -1.866566
  H      1.361207   -2.478953    0.482099

 Total Charge           Charge          ....    0
 Multiplicity           Mult            ....    1
 Number of Electrons    NEL             ....   70
 Basis Dimension        Dim             ....  363

ORBITAL ENERGIES
----------------

  NO   OCC          E(Eh)            E(eV)
   0   2.0000     -20.546725      -559.1048
   1   2.0000     -11.274772      -306.8021
   2   2.0000     -11.233736      -305.6855
   3   2.0000     -11.225865      -305.4713
   4   2.0000     -11.225773      -305.4688
   5   2.0000     -11.222772      -305.3872
   6   2.0000     -11.216997      -305.2300
   7   2.0000     -11.215809      -305.1977
   8   2.0000     -11.211635      -305.0841
   9   2.0000      -1.355169       -36.8760
  10   2.0000      -1.135689       -30.9037
  11   2.0000      -1.049213       -28.5505
  12   2.0000      -0.991115       -26.9696
  13   2.0000      -0.948942       -25.8220
  14   2.0000      -0.907101       -24.6835
  15   2.0000      -0.832138       -22.6436
  16   2.0000      -0.773105       -21.0372
  17   2.0000      -0.716644       -19.5009
  18   2.0000      -0.677289       -18.4300
  19   2.0000      -0.642985       -17.4965
  20   2.0000      -0.614228       -16.7140
  21   2.0000      -0.604744       -16.4559
  22   2.0000      -0.582710       -15.8563
  23   2.0000      -0.574026       -15.6200
  24   2.0000      -0.569540       -15.4980
  25   2.0000      -0.556098       -15.1322
  26   2.0000      -0.526388       -14.3237
  27   2.0000      -0.513169       -13.9640
  28   2.0000      -0.503953       -13.7133
  29   2.0000      -0.493437       -13.4271
  30   2.0000      -0.477315       -12.9884
  31   2.0000      -0.463207       -12.6045
  32   2.0000      -0.455176       -12.3860
  33   2.0000      -0.416511       -11.3338
  34   2.0000      -0.338931        -9.2228
  35   0.0000       0.132194         3.5972
  36   0.0000       0.143173         3.8959
  37   0.0000       0.153931         4.1887
  38   0.0000       0.162348         4.4177
  39   0.0000       0.169391         4.6094

MULLIKEN ATOMIC CHARGES
-----------------------
   0 C :   -0.400025
   1 C :   -0.152946
   2 C :   -0.038461
   3 C :   -0.311739
   4 C :    0.037311
   5 C :   -0.430207
   6 C :   -0.217549
   7 C :    0.096288
   8 O :   -0.468136
   9 H :    0.122284
  10 H :    0.123229
  11 H :    0.135051
  12 H :    0.091183
  13 H :    0.115109
  14 H :    0.090256
  15 H :    0.120175
  16 H :    0.137289
  17 H :    0.138071
  18 H :    0.138028
  19 H :    0.116195
  20 H :    0.136650
  21 H :    0.105341
  22 H :    0.316603
Sum of atomic charges:   -0.0000000

LOEWDIN ATOMIC CHARGES
----------------------
   0 C :   -0.319039
   1 C :   -0.270479
   2 C :   -0.226549
   3 C :   -0.130190
   4 C :   -0.196377
   5 C :   -0.276003
   6 C :   -0.203987
   7 C :   -0.291683
   8 O :   -0.014362
   9 H :    0.118108
  10 H :    0.120208
  11 H :    0.121084
  12 H :    0.134624
  13 H :    0.141599
  14 H :    0.160285
  15 H :    0.138184
  16 H :    0.130006
  17 H :    0.130569
  18 H :    0.131923
  19 H :    0.145548
  20 H :    0.141457
  21 H :    0.138690
  22 H :    0.176384

  Mayer bond orders larger than 0.1
B(  0-C ,  1-C ) :   0.9091 B(  0-C ,  9-H ) :   0.9401 B(  0-C , 10-H ) :   0.9378
B(  0-C , 11-H ) :   0.9435 B(  1-C ,  2-C ) :   0.9277 B(  1-C , 12-H ) :   0.9192
B(  1-C , 13-H ) :   0.9380 B(  2-C ,  3-C ) :   0.9088 B(  2-C ,  7-C ) :   0.9259
B(  2-C , 14-H ) :   0.9012 B(  3-C ,  4-C ) :   1.7331 B(  3-C , 15-H ) :   0.9236
B(  4-C ,  5-C ) :   0.8938 B(  4-C ,  6-C ) :   0.9315 B(  5-C , 16-H ) :   0.9497
B(  5-C , 17-H ) :   0.9362 B(  5-C , 18-H ) :   0.9259 B(  6-C ,  7-C ) :   0.9461
B(  6-C , 19-H ) :   0.8932 B(  6-C , 20-H ) :   0.9297 B(  7-C ,  8-O ) :   0.9166
B(  7-C , 21-H ) :   0.9297 B(  8-O , 22-H ) :   0.8400

MP2 TOTAL ENERGY:     -387.635910838 Eh
FINAL SINGLE POINT ENERGY      -387.635910837621

DIPOLE MOMENT
-------------
                                X             Y             Z
Electronic contribution:     -0.44674      -4.46425      -0.25278
Nuclear contribution   :      0.95931       4.80148      -0.00164
                        -----------------------------------------
Total Dipole Moment    :      0.51258       0.33723      -0.25443
                        -----------------------------------------
Magnitude (a.u.)       :      0.66422
Magnitude (Debye)      :      1.68831

                             ****ORCA TERMINATED NORMALLY****
TOTAL RUN TIME: 0 days 0 hours 34 minutes 23 seconds 267 msec
