                         Program Version 3.0.3 - RELEASE   -
|  1> ! RI-MP2 RIJK def2-TZVP def2-TZVP/C def2-TZVP/JK TIGHTSCF
|  2> % maxcore 2000
|  3> % mp2 density relaxed end
|  4> *xyz 0 1
|  5>  C        0.0046704342     1.5696259522    -0.1098133154
|  6>  C        0.0240888892     0.0505050914     0.0922100672
|  7>  C       -1.3679848896    -0.5679121290     0.0744565657
|  8>  C       -2.1521020660    -0.6032805988    -1.2742311988
|  9>  C       -2.6002858248    -2.0591669637    -0.9579475819
| 10>  C       -1.5289171634    -2.1007336672     0.1391873397
| 11>  C       -0.4154925865    -3.1071878664     0.2195368593
| 12>  C       -1.4437199311    -3.0102009054     1.3254913937
| 13>  H        1.0165712463     1.9865000163    -0.1015672583
| 14>  H       -0.4569371197     1.8351027918    -1.0669825079
| 15>  H       -0.5677558526     2.0667797863     0.6813075010
| 16>  H        0.6351361308    -0.4179257447    -0.6902069878
| 17>  H        0.5163452465    -0.1830474715     1.0463867186
| 18>  H       -1.9835277881    -0.0972487725     0.8530384540
| 19>  H       -2.9390201846     0.1405494257    -1.4171836793
| 20>  H       -1.4737911439    -0.5621244739    -2.1323154312
| 21>  H       -3.6174357945    -2.1049672198    -0.5548050112
| 22>  H       -2.5147544633    -2.7914969144    -1.7657802078
| 23>  H       -0.4564758271    -3.9656624871    -0.4441859071
| 24>  H        0.5904782186    -2.7577454381     0.4290100313
| 25>  H       -1.1283647696    -2.5877336514     2.2751752466
| 26>  H       -2.1779406808    -3.8050444798     1.4160227497
| 27> *
| 28>
| 29>                          ****END OF INPUT****

CARTESIAN COORDINATES (ANGSTROEM)
---------------------------------
  C      0.004670    1.569626   -0.109813
  C      0.024089    0.050505    0.092210
  C     -1.367985   -0.567912    0.074457
  C     -2.152102   -0.603281   -1.274231
  C     -2.600286   -2.059167   -0.957948
  C     -1.528917   -2.100734    0.139187
  C     -0.415493   -3.107188    0.219537
  C     -1.443720   -3.010201    1.325491
  H      1.016571    1.986500   -0.101567
  H     -0.456937    1.835103   -1.066983
  H     -0.567756    2.066780    0.681308
  H      0.635136   -0.417926   -0.690207
  H      0.516345   -0.183047    1.046387
  H     -1.983528   -0.097249    0.853038
  H     -2.939020    0.140549   -1.417184
  H     -1.473791   -0.562124   -2.132315
  H     -3.617436   -2.104967   -0.554805
  H     -2.514754   -2.791497   -1.765780
  H     -0.456476   -3.965662   -0.444186
  H      0.590478   -2.757745    0.429010
  H     -1.128365   -2.587734    2.275175
  H     -2.177941   -3.805044    1.416023

 Total Charge           Charge          ....    0
 Multiplicity           Mult            ....    1
 Number of Electrons    NEL             ....   62
 Basis Dimension        Dim             ....  332

ORBITAL ENERGIES
----------------

  NO   OCC          E(Eh)            E(eV)
   0   2.0000     -11.226840      -305.4979
   1   2.0000     -11.220813      -305.3338
   2   2.0000     -11.217546      -305.2449
   3   2.0000     -11.216005      -305.2030
   4   2.0000     -11.215974      -305.2022
   5   2.0000     -11.215427      -305.1873
   6   2.0000     -11.214826      -305.1709
   7   2.0000     -11.210547      -305.0545
   8   2.0000      -1.161357       -31.6021
   9   2.0000      -1.072091       -29.1731
  10   2.0000      -1.020637       -27.7730
  11   2.0000      -0.901394       -24.5282
  12   2.0000      -0.838708       -22.8224
  13   2.0000      -0.820549       -22.3283
  14   2.0000      -0.800845       -21.7921
  15   2.0000      -0.709177       -19.2977
  16   2.0000      -0.652611       -17.7584
  17   2.0000      -0.641484       -17.4557
  18   2.0000      -0.621639       -16.9157
  19   2.0000      -0.597306       -16.2535
  20   2.0000      -0.552393       -15.0314
  21   2.0000      -0.533043       -14.5048
  22   2.0000      -0.519815       -14.1449
  23   2.0000      -0.503328       -13.6963
  24   2.0000      -0.501007       -13.6331
  25   2.0000      -0.492123       -13.3913
  26   2.0000      -0.471687       -12.8353
  27   2.0000      -0.451719       -12.2919
  28   2.0000      -0.419192       -11.4068
  29   2.0000      -0.391337       -10.6488
  30   2.0000      -0.384126       -10.4526
  31   0.0000       0.138509         3.7690
  32   0.0000       0.153549         4.1783
  33   0.0000       0.159383         4.3370
  34   0.0000       0.161465         4.3937
  35   0.0000       0.185142         5.0380

MULLIKEN ATOMIC CHARGES
-----------------------
   0 C :   -0.388032
   1 C :   -0.262067
   2 C :    0.010420
   3 C :   -0.276480
   4 C :   -0.180669
   5 C :    0.038933
   6 C :   -0.297665
   7 C :   -0.281176
   8 H :    0.133528
   9 H :    0.128124
  10 H :    0.121452
  11 H :    0.115829
  12 H :    0.109397
  13 H :    0.088396
  14 H :    0.118055
  15 H :    0.108241
  16 H :    0.109198
  17 H :    0.106736
  18 H :    0.123346
  19 H :    0.127303
  20 H :    0.123433
  21 H :    0.123696
Sum of atomic charges:    0.0000000

LOEWDIN ATOMIC CHARGES
----------------------
   0 C :   -0.315971
   1 C :   -0.278691
   2 C :   -0.195783
   3 C :   -0.210368
   4 C :   -0.197131
   5 C :   -0.213824
   6 C :   -0.209417
   7 C :   -0.214859
   8 H :    0.120035
   9 H :    0.121648
  10 H :    0.120576
  11 H :    0.137840
  12 H :    0.136790
  13 H :    0.152361
  14 H :    0.122689
  15 H :    0.134572
  16 H :    0.134461
  17 H :    0.126474
  18 H :    0.131427
  19 H :    0.131699
  20 H :    0.132843
  21 H :    0.132630

  Mayer bond orders larger than 0.1
B(  0-C ,  1-C ) :   0.9180 B(  0-C ,  8-H ) :   0.9427 B(  0-C ,  9-H ) :   0.9403
B(  0-C , 10-H ) :   0.9381 B(  1-C ,  2-C ) :   0.8959 B(  1-C , 11-H ) :   0.9333
B(  1-C , 12-H ) :   0.9367 B(  2-C ,  3-C ) :   0.9427 B(  2-C ,  5-C ) :   0.8939
B(  2-C , 13-H ) :   0.9188 B(  3-C ,  4-C ) :   0.9611 B(  3-C , 14-H ) :   0.9314
B(  3-C , 15-H ) :   0.9121 B(  4-C ,  5-C ) :   0.8936 B(  4-C , 16-H ) :   0.9186
B(  4-C , 17-H ) :   0.9179 B(  5-C ,  6-C ) :   0.8421 B(  5-C ,  7-C ) :   0.8484
B(  6-C ,  7-C ) :   0.9452 B(  6-C , 18-H ) :   0.9240 B(  6-C , 19-H ) :   0.9220
B(  7-C , 20-H ) :   0.9230 B(  7-C , 21-H ) :   0.9235

MP2 TOTAL ENERGY:     -312.468536557 Eh
FINAL SINGLE POINT ENERGY      -312.468536557435

DIPOLE MOMENT
-------------
                                X             Y             Z
Electronic contribution:     -1.65711      -3.17763       0.48630
Nuclear contribution   :      1.66231       3.23578      -0.50116
                        -----------------------------------------
Total Dipole Moment    :      0.00520       0.05815      -0.01487
                        -----------------------------------------
Magnitude (a.u.)       :      0.06024
Magnitude (Debye)      :      0.15312

                             ****ORCA TERMINATED NORMALLY****
TOTAL RUN TIME: 0 days 0 hours 15 minutes 25 seconds 831 msec
