                         Program Version 3.0.3 - RELEASE   -
|  1> ! RI-MP2 RIJK def2-TZVP def2-TZVP/C def2-TZVP/JK TIGHTSCF
|  2> % maxcore 2000
|  3> % mp2 density relaxed end
|  4> *xyz 0 1
|  5>  O       -0.4975347294     0.7052432144     0.7344754775
|  6>  C        0.2075418442     0.9768047998    -0.2052867048
|  7>  C        1.3530437299     1.9219416890    -0.1293317372
|  8>  C        1.7921566666     2.4671023451     1.2242359108
|  9>  N        2.3950808014     3.7459209268     0.8847471523
| 10>  C        2.1461458665     4.1921485581    -0.3906948699
| 11>  O        2.3624723996     5.2987219233    -0.8271594652
| 12>  C        1.5617567967     3.0144864118    -1.1491664212
| 13>  N        2.3573043934     1.7898436891    -1.1902053326
| 14>  H        0.0580000948     0.5383976864    -1.2139425461
| 15>  H        0.9146464150     2.5700147194     1.8725678143
| 16>  H        2.5054459488     1.7996987591     1.7228229962
| 17>  H        2.7739813920     4.3748056648     1.5747128001
| 18>  H        0.9151858328     3.2097384885    -1.9964675579
| 19>  H        3.2942224576     1.9438334843    -0.8209095263
| 20> *
| 21>
| 22>                          ****END OF INPUT****

CARTESIAN COORDINATES (ANGSTROEM)
---------------------------------
  O     -0.497535    0.705243    0.734475
  C      0.207542    0.976805   -0.205287
  C      1.353044    1.921942   -0.129332
  C      1.792157    2.467102    1.224236
  N      2.395081    3.745921    0.884747
  C      2.146146    4.192149   -0.390695
  O      2.362472    5.298722   -0.827159
  C      1.561757    3.014486   -1.149166
  N      2.357304    1.789844   -1.190205
  H      0.058000    0.538398   -1.213943
  H      0.914646    2.570015    1.872568
  H      2.505446    1.799699    1.722823
  H      2.773981    4.374806    1.574713
  H      0.915186    3.209738   -1.996468
  H      3.294222    1.943833   -0.820910

 Total Charge           Charge          ....    0
 Multiplicity           Mult            ....    1
 Number of Electrons    NEL             ....   66
 Basis Dimension        Dim             ....  315

ORBITAL ENERGIES
----------------

  NO   OCC          E(Eh)            E(eV)
   0   2.0000     -20.577107      -559.9315
   1   2.0000     -20.540725      -558.9415
   2   2.0000     -15.608556      -424.7304
   3   2.0000     -15.603950      -424.6051
   4   2.0000     -11.371930      -309.4459
   5   2.0000     -11.353382      -308.9412
   6   2.0000     -11.310064      -307.7625
   7   2.0000     -11.305921      -307.6498
   8   2.0000     -11.301416      -307.5272
   9   2.0000      -1.417345       -38.5679
  10   2.0000      -1.406194       -38.2645
  11   2.0000      -1.330896       -36.2155
  12   2.0000      -1.245490       -33.8915
  13   2.0000      -1.023150       -27.8413
  14   2.0000      -0.969172       -26.3725
  15   2.0000      -0.928150       -25.2562
  16   2.0000      -0.828673       -22.5493
  17   2.0000      -0.789699       -21.4888
  18   2.0000      -0.733506       -19.9597
  19   2.0000      -0.690764       -18.7966
  20   2.0000      -0.675692       -18.3865
  21   2.0000      -0.663329       -18.0501
  22   2.0000      -0.647086       -17.6081
  23   2.0000      -0.628580       -17.1045
  24   2.0000      -0.610671       -16.6172
  25   2.0000      -0.586584       -15.9618
  26   2.0000      -0.561131       -15.2691
  27   2.0000      -0.524952       -14.2847
  28   2.0000      -0.502150       -13.6642
  29   2.0000      -0.456678       -12.4268
  30   2.0000      -0.435838       -11.8598
  31   2.0000      -0.431273       -11.7355
  32   2.0000      -0.413611       -11.2549
  33   0.0000       0.103281         2.8104
  34   0.0000       0.121066         3.2944
  35   0.0000       0.142184         3.8690
  36   0.0000       0.158198         4.3048
  37   0.0000       0.161630         4.3982

MULLIKEN ATOMIC CHARGES
-----------------------
   0 O :   -0.268148
   1 C :    0.044595
   2 C :    0.132831
   3 C :   -0.106675
   4 N :   -0.333557
   5 C :    0.201174
   6 O :   -0.316567
   7 C :   -0.070844
   8 N :   -0.335559
   9 H :    0.111129
  10 H :    0.153892
  11 H :    0.139381
  12 H :    0.249804
  13 H :    0.160286
  14 H :    0.238257
Sum of atomic charges:    0.0000000

LOEWDIN ATOMIC CHARGES
----------------------
   0 O :    0.141216
   1 C :   -0.256274
   2 C :   -0.273121
   3 C :   -0.221941
   4 N :    0.117805
   5 C :   -0.443066
   6 O :    0.105195
   7 C :   -0.170477
   8 N :    0.068783
   9 H :    0.127183
  10 H :    0.146514
  11 H :    0.139290
  12 H :    0.186788
  13 H :    0.152562
  14 H :    0.179544

  Mayer bond orders larger than 0.1
B(  0-O ,  1-C ) :   1.9871 B(  1-C ,  2-C ) :   0.8506 B(  1-C ,  9-H ) :   0.9589
B(  2-C ,  3-C ) :   0.9487 B(  2-C ,  7-C ) :   0.8154 B(  2-C ,  8-N ) :   0.8971
B(  3-C ,  4-N ) :   0.8829 B(  3-C , 10-H ) :   0.9127 B(  3-C , 11-H ) :   0.9217
B(  4-N ,  5-C ) :   1.1610 B(  4-N , 12-H ) :   0.8660 B(  5-C ,  6-O ) :   2.0019
B(  5-C ,  7-C ) :   0.9126 B(  7-C ,  8-N ) :   0.9120 B(  7-C , 13-H ) :   0.9137
B(  8-N , 14-H ) :   0.8615

MP2 TOTAL ENERGY:     -453.232143733 Eh
FINAL SINGLE POINT ENERGY      -453.232143732568

DIPOLE MOMENT
-------------
                                X             Y             Z
Electronic contribution:     -0.74157       1.17681      -0.96242
Nuclear contribution   :      1.24792      -1.58396       1.62384
                        -----------------------------------------
Total Dipole Moment    :      0.50635      -0.40714       0.66142
                        -----------------------------------------
Magnitude (a.u.)       :      0.92716
Magnitude (Debye)      :      2.35667

                             ****ORCA TERMINATED NORMALLY****
TOTAL RUN TIME: 0 days 0 hours 14 minutes 30 seconds 294 msec
