                         Program Version 3.0.3 - RELEASE   -
|  1> ! RI-MP2 RIJK def2-TZVP def2-TZVP/C def2-TZVP/JK TIGHTSCF
|  2> % maxcore 2000
|  3> % mp2 density relaxed end
|  4> *xyz 0 1
|  5>  N       -0.0747969625     1.2152354654     0.0623945519
|  6>  C       -0.0712782332    -0.0411717979     0.0105905768
|  7>  O        1.0364460211    -0.8740853212     0.0099037859
|  8>  C        0.4192954807    -2.1864398169    -0.0639113550
|  9>  C       -0.6624649922    -1.9934975971    -1.1458257496
| 10>  C       -1.2224042159    -1.0103148916    -0.0595925012
| 11>  C       -0.7065525440    -2.0623587318     1.0162381062
| 12>  C       -1.5448881542    -3.2195376961     1.2314993933
| 13>  C       -2.2373405017    -4.1828271481     1.4288423396
| 14>  H        0.8799516223     1.5778537165     0.0998303252
| 15>  H        1.1832623360    -2.9596457361    -0.0602338547
| 16>  H       -0.3413217985    -1.5721252852    -2.0997570520
| 17>  H       -1.2967053850    -2.8682121212    -1.2834074671
| 18>  H       -2.2290269293    -0.6049689705    -0.0568352036
| 19>  H       -0.3703475795    -1.6344505115     1.9649617587
| 20>  H       -2.8497949241    -5.0322266668     1.6058322056
| 21> *
| 22>
| 23>                          ****END OF INPUT****

CARTESIAN COORDINATES (ANGSTROEM)
---------------------------------
  N     -0.074797    1.215235    0.062395
  C     -0.071278   -0.041172    0.010591
  O      1.036446   -0.874085    0.009904
  C      0.419295   -2.186440   -0.063911
  C     -0.662465   -1.993498   -1.145826
  C     -1.222404   -1.010315   -0.059593
  C     -0.706553   -2.062359    1.016238
  C     -1.544888   -3.219538    1.231499
  C     -2.237341   -4.182827    1.428842
  H      0.879952    1.577854    0.099830
  H      1.183262   -2.959646   -0.060234
  H     -0.341322   -1.572125   -2.099757
  H     -1.296705   -2.868212   -1.283407
  H     -2.229027   -0.604969   -0.056835
  H     -0.370348   -1.634451    1.964962
  H     -2.849795   -5.032227    1.605832

 Total Charge           Charge          ....    0
 Multiplicity           Mult            ....    1
 Number of Electrons    NEL             ....   64
 Basis Dimension        Dim             ....  321

ORBITAL ENERGIES
----------------

  NO   OCC          E(Eh)            E(eV)
   0   2.0000     -20.597240      -560.4794
   1   2.0000     -15.539699      -422.8567
   2   2.0000     -11.340950      -308.6029
   3   2.0000     -11.320349      -308.0424
   4   2.0000     -11.283327      -307.0349
   5   2.0000     -11.272109      -306.7297
   6   2.0000     -11.253974      -306.2362
   7   2.0000     -11.250123      -306.1314
   8   2.0000     -11.239272      -305.8361
   9   2.0000      -1.441843       -39.2346
  10   2.0000      -1.201174       -32.6856
  11   2.0000      -1.167475       -31.7686
  12   2.0000      -1.047045       -28.4916
  13   2.0000      -0.952407       -25.9163
  14   2.0000      -0.947337       -25.7783
  15   2.0000      -0.834116       -22.6975
  16   2.0000      -0.765900       -20.8412
  17   2.0000      -0.740311       -20.1449
  18   2.0000      -0.717665       -19.5287
  19   2.0000      -0.686373       -18.6772
  20   2.0000      -0.665974       -18.1221
  21   2.0000      -0.641880       -17.4664
  22   2.0000      -0.583562       -15.8795
  23   2.0000      -0.552529       -15.0351
  24   2.0000      -0.539933       -14.6923
  25   2.0000      -0.536129       -14.5888
  26   2.0000      -0.496764       -13.5176
  27   2.0000      -0.487458       -13.2644
  28   2.0000      -0.438683       -11.9372
  29   2.0000      -0.414168       -11.2701
  30   2.0000      -0.400628       -10.9017
  31   2.0000      -0.380678       -10.3588
  32   0.0000       0.144077         3.9205
  33   0.0000       0.146235         3.9793
  34   0.0000       0.153238         4.1698
  35   0.0000       0.160893         4.3781
  36   0.0000       0.168348         4.5810

MULLIKEN ATOMIC CHARGES
-----------------------
   0 N :   -0.354134
   1 C :    0.051958
   2 O :   -0.273997
   3 C :    0.089900
   4 C :   -0.262204
   5 C :    0.018192
   6 C :   -0.317183
   7 C :   -0.011907
   8 C :   -0.103827
   9 H :    0.228775
  10 H :    0.149034
  11 H :    0.136039
  12 H :    0.151762
  13 H :    0.155075
  14 H :    0.146077
  15 H :    0.196441
Sum of atomic charges:    0.0000000

LOEWDIN ATOMIC CHARGES
----------------------
   0 N :   -0.046766
   1 C :   -0.382767
   2 O :    0.235607
   3 C :   -0.204494
   4 C :   -0.178809
   5 C :   -0.126765
   6 C :   -0.161232
   7 C :   -0.092283
   8 C :   -0.084901
   9 H :    0.172221
  10 H :    0.136740
  11 H :    0.136041
  12 H :    0.148805
  13 H :    0.149970
  14 H :    0.169590
  15 H :    0.129043

  Mayer bond orders larger than 0.1
B(  0-N ,  1-C ) :   2.1007 B(  0-N ,  9-H ) :   0.8503 B(  1-C ,  2-O ) :   1.0579
B(  1-C ,  5-C ) :   0.9175 B(  2-O ,  3-C ) :   0.8669 B(  3-C ,  4-C ) :   0.9510
B(  3-C ,  6-C ) :   0.8953 B(  3-C , 10-H ) :   0.9063 B(  4-C ,  5-C ) :   0.9201
B(  4-C , 11-H ) :   0.9148 B(  4-C , 12-H ) :   0.9204 B(  5-C ,  6-C ) :   0.8487
B(  5-C , 13-H ) :   0.9042 B(  6-C ,  7-C ) :   1.1504 B(  6-C ,  8-C ) :  -0.1506
B(  6-C , 14-H ) :   0.9229 B(  7-C ,  8-C ) :   2.6043 B(  8-C , 15-H ) :   0.8821

MP2 TOTAL ENERGY:     -400.005066166 Eh
FINAL SINGLE POINT ENERGY      -400.005066166394

DIPOLE MOMENT
-------------
                                X             Y             Z
Electronic contribution:      1.29039       1.09272       1.33931
Nuclear contribution   :     -1.33215      -2.13904      -1.48437
                        -----------------------------------------
Total Dipole Moment    :     -0.04176      -1.04632      -0.14506
                        -----------------------------------------
Magnitude (a.u.)       :      1.05715
Magnitude (Debye)      :      2.68707

                             ****ORCA TERMINATED NORMALLY****
TOTAL RUN TIME: 0 days 0 hours 22 minutes 1 seconds 809 msec
