                         Program Version 3.0.3 - RELEASE   -
|  1> ! RI-MP2 RIJK def2-TZVP def2-TZVP/C def2-TZVP/JK TIGHTSCF
|  2> % maxcore 2000
|  3> % mp2 density relaxed end
|  4> *xyz 0 1
|  5>  C       -0.1907820833     1.5786443325    -0.1328420496
|  6>  C        0.0514926052     0.0752497788     0.0790028766
|  7>  O       -1.1533461552    -0.6308433008     0.3390393244
|  8>  C        0.7864826753    -0.4988745806    -1.0527013532
|  9>  C        1.3395760653    -0.9693927670    -2.0190367010
| 10>  C        2.0384018577    -1.5205064262    -3.1515290812
| 11>  O        1.5140960523    -2.1621276774    -4.0326596871
| 12>  H        0.7551461230     2.1188735731    -0.2294057183
| 13>  H       -0.7771060549     1.7488350416    -1.0411622210
| 14>  H       -0.7436222905     1.9721236139     0.7235467681
| 15>  H        0.6522541051    -0.0593007132     0.9866923783
| 16>  H       -1.6690812923    -0.6467834448    -0.4754168452
| 17>  H        3.1265747223    -1.3068392598    -3.1587343308
| 18> *
| 19>
| 20>                          ****END OF INPUT****

CARTESIAN COORDINATES (ANGSTROEM)
---------------------------------
  C     -0.190782    1.578644   -0.132842
  C      0.051493    0.075250    0.079003
  O     -1.153346   -0.630843    0.339039
  C      0.786483   -0.498875   -1.052701
  C      1.339576   -0.969393   -2.019037
  C      2.038402   -1.520506   -3.151529
  O      1.514096   -2.162128   -4.032660
  H      0.755146    2.118874   -0.229406
  H     -0.777106    1.748835   -1.041162
  H     -0.743622    1.972124    0.723547
  H      0.652254   -0.059301    0.986692
  H     -1.669081   -0.646783   -0.475417
  H      3.126575   -1.306839   -3.158734

 Total Charge           Charge          ....    0
 Multiplicity           Mult            ....    1
 Number of Electrons    NEL             ....   52
 Basis Dimension        Dim             ....  253

ORBITAL ENERGIES
----------------

  NO   OCC          E(Eh)            E(eV)
   0   2.0000     -20.578708      -559.9751
   1   2.0000     -20.573635      -559.8371
   2   2.0000     -11.364019      -309.2307
   3   2.0000     -11.330183      -308.3099
   4   2.0000     -11.271793      -306.7211
   5   2.0000     -11.254485      -306.2501
   6   2.0000     -11.243239      -305.9441
   7   2.0000      -1.408983       -38.3404
   8   2.0000      -1.387230       -37.7484
   9   2.0000      -1.094401       -29.7802
  10   2.0000      -1.032261       -28.0892
  11   2.0000      -0.925791       -25.1921
  12   2.0000      -0.875131       -23.8135
  13   2.0000      -0.752312       -20.4714
  14   2.0000      -0.720129       -19.5957
  15   2.0000      -0.665079       -18.0977
  16   2.0000      -0.659545       -17.9471
  17   2.0000      -0.637038       -17.3347
  18   2.0000      -0.583014       -15.8646
  19   2.0000      -0.559126       -15.2146
  20   2.0000      -0.555340       -15.1116
  21   2.0000      -0.530446       -14.4342
  22   2.0000      -0.484887       -13.1944
  23   2.0000      -0.459454       -12.5024
  24   2.0000      -0.421153       -11.4601
  25   2.0000      -0.409415       -11.1407
  26   0.0000       0.073961         2.0126
  27   0.0000       0.122429         3.3315
  28   0.0000       0.145967         3.9720
  29   0.0000       0.160932         4.3792
  30   0.0000       0.170550         4.6409

MULLIKEN ATOMIC CHARGES
-----------------------
   0 C :   -0.363435
   1 C :    0.081017
   2 O :   -0.452008
   3 C :   -0.067690
   4 C :    0.059466
   5 C :    0.030410
   6 O :   -0.252446
   7 H :    0.134087
   8 H :    0.125759
   9 H :    0.149283
  10 H :    0.123727
  11 H :    0.323655
  12 H :    0.108177
Sum of atomic charges:    0.0000000

LOEWDIN ATOMIC CHARGES
----------------------
   0 C :   -0.279569
   1 C :   -0.361306
   2 O :   -0.003241
   3 C :   -0.015135
   4 C :   -0.055381
   5 C :   -0.292615
   6 O :    0.149659
   7 H :    0.130617
   8 H :    0.126362
   9 H :    0.129817
  10 H :    0.163725
  11 H :    0.181812
  12 H :    0.125256

  Mayer bond orders larger than 0.1
B(  0-C ,  1-C ) :   0.9647 B(  0-C ,  7-H ) :   0.9265 B(  0-C ,  8-H ) :   0.9201
B(  0-C ,  9-H ) :   0.9377 B(  1-C ,  2-O ) :   0.9240 B(  1-C ,  3-C ) :   0.9926
B(  1-C , 10-H ) :   0.9037 B(  2-O , 11-H ) :   0.8366 B(  3-C ,  4-C ) :   2.6899
B(  4-C ,  5-C ) :   0.8546 B(  4-C , 12-H ) :  -0.1089 B(  5-C ,  6-O ) :   2.0111
B(  5-C , 12-H ) :   1.0076

MP2 TOTAL ENERGY:     -343.852385632 Eh
FINAL SINGLE POINT ENERGY      -343.852385631544

DIPOLE MOMENT
-------------
                                X             Y             Z
Electronic contribution:      2.18992      -5.80723      -4.38817
Nuclear contribution   :     -1.93337       6.82882       4.89166
                        -----------------------------------------
Total Dipole Moment    :      0.25654       1.02159       0.50349
                        -----------------------------------------
Magnitude (a.u.)       :      1.16746
Magnitude (Debye)      :      2.96744

                             ****ORCA TERMINATED NORMALLY****
TOTAL RUN TIME: 0 days 0 hours 5 minutes 53 seconds 403 msec
