                         Program Version 3.0.3 - RELEASE   -
|  1> ! RI-MP2 RIJK def2-TZVP def2-TZVP/C def2-TZVP/JK TIGHTSCF
|  2> % maxcore 2000
|  3> % mp2 density relaxed end
|  4> *xyz 0 1
|  5>  O       -0.1250604898     1.4282492877    -0.1546211829
|  6>  C        0.0222741274     0.0240953348    -0.0227249050
|  7>  C        0.6001649410    -0.5898436738    -1.2255447049
|  8>  C        1.0711301749    -1.0942143778    -2.2094029849
|  9>  C        0.8635318516    -0.2987166975     1.2344476096
| 10>  O        2.0768134990     0.4334636017     1.0624599636
| 11>  C        0.1484937571     0.1034701006     2.5015611432
| 12>  C       -0.6843341818    -0.9010055374     3.2531318878
| 13>  C        0.6303965015    -0.4387294868     3.8288311679
| 14>  H        0.7729988049     1.7798539288    -0.0813226419
| 15>  H       -0.9861999828    -0.3759880895     0.1316164739
| 16>  H        1.4860061830    -1.5348777549    -3.0819929981
| 17>  H        1.0703887571    -1.3799382297     1.2542612083
| 18>  H        2.4682122111     0.5520658055     1.9336563090
| 19>  H       -0.2119245410     1.1272394219     2.4880454921
| 20>  H       -1.6017527093    -0.5577014251     3.7170446749
| 21>  H       -0.7341041339    -1.9134089340     2.8656125299
| 22>  H        1.4537755314    -1.1469505468     3.8241380823
| 23>  H        0.6160491786     0.2200169322     4.6897586453
| 24> *
| 25>
| 26>                          ****END OF INPUT****

CARTESIAN COORDINATES (ANGSTROEM)
---------------------------------
  O     -0.125060    1.428249   -0.154621
  C      0.022274    0.024095   -0.022725
  C      0.600165   -0.589844   -1.225545
  C      1.071130   -1.094214   -2.209403
  C      0.863532   -0.298717    1.234448
  O      2.076813    0.433464    1.062460
  C      0.148494    0.103470    2.501561
  C     -0.684334   -0.901006    3.253132
  C      0.630397   -0.438729    3.828831
  H      0.772999    1.779854   -0.081323
  H     -0.986200   -0.375988    0.131616
  H      1.486006   -1.534878   -3.081993
  H      1.070389   -1.379938    1.254261
  H      2.468212    0.552066    1.933656
  H     -0.211925    1.127239    2.488045
  H     -1.601753   -0.557701    3.717045
  H     -0.734104   -1.913409    2.865613
  H      1.453776   -1.146951    3.824138
  H      0.616049    0.220017    4.689759

 Total Charge           Charge          ....    0
 Multiplicity           Mult            ....    1
 Number of Electrons    NEL             ....   68
 Basis Dimension        Dim             ....  339

ORBITAL ENERGIES
----------------

  NO   OCC          E(Eh)            E(eV)
   0   2.0000     -20.568670      -559.7020
   1   2.0000     -20.557390      -559.3950
   2   2.0000     -11.308064      -307.7081
   3   2.0000     -11.297186      -307.4121
   4   2.0000     -11.242963      -305.9366
   5   2.0000     -11.241307      -305.8915
   6   2.0000     -11.240110      -305.8589
   7   2.0000     -11.229722      -305.5763
   8   2.0000     -11.223000      -305.3934
   9   2.0000      -1.388702       -37.7885
  10   2.0000      -1.355575       -36.8871
  11   2.0000      -1.157827       -31.5061
  12   2.0000      -1.055919       -28.7330
  13   2.0000      -0.991179       -26.9714
  14   2.0000      -0.890374       -24.2283
  15   2.0000      -0.837586       -22.7919
  16   2.0000      -0.803257       -21.8577
  17   2.0000      -0.739400       -20.1201
  18   2.0000      -0.726479       -19.7685
  19   2.0000      -0.682819       -18.5805
  20   2.0000      -0.667858       -18.1734
  21   2.0000      -0.652460       -17.7543
  22   2.0000      -0.638717       -17.3804
  23   2.0000      -0.598609       -16.2890
  24   2.0000      -0.578699       -15.7472
  25   2.0000      -0.535118       -14.5613
  26   2.0000      -0.527149       -14.3444
  27   2.0000      -0.523570       -14.2471
  28   2.0000      -0.469545       -12.7770
  29   2.0000      -0.463599       -12.6152
  30   2.0000      -0.435030       -11.8378
  31   2.0000      -0.429474       -11.6866
  32   2.0000      -0.392840       -10.6897
  33   2.0000      -0.384021       -10.4498
  34   0.0000       0.132826         3.6144
  35   0.0000       0.146706         3.9921
  36   0.0000       0.154693         4.2094
  37   0.0000       0.161190         4.3862
  38   0.0000       0.169772         4.6197

MULLIKEN ATOMIC CHARGES
-----------------------
   0 O :   -0.470594
   1 C :    0.017923
   2 C :   -0.038555
   3 C :   -0.121241
   4 C :    0.026558
   5 O :   -0.489406
   6 C :   -0.155478
   7 C :   -0.275636
   8 C :   -0.266452
   9 H :    0.330647
  10 H :    0.126159
  11 H :    0.190958
  12 H :    0.103438
  13 H :    0.326656
  14 H :    0.139940
  15 H :    0.137399
  16 H :    0.136539
  17 H :    0.141274
  18 H :    0.139869
Sum of atomic charges:    0.0000000

LOEWDIN ATOMIC CHARGES
----------------------
   0 O :    0.000262
   1 C :   -0.317659
   2 C :   -0.085969
   3 C :   -0.088879
   4 C :   -0.310562
   5 O :   -0.014755
   6 C :   -0.224464
   7 C :   -0.221507
   8 C :   -0.232912
   9 H :    0.183607
  10 H :    0.166482
  11 H :    0.126953
  12 H :    0.147815
  13 H :    0.179455
  14 H :    0.155731
  15 H :    0.134383
  16 H :    0.134907
  17 H :    0.134226
  18 H :    0.132887

  Mayer bond orders larger than 0.1
B(  0-O ,  1-C ) :   0.8965 B(  0-O ,  9-H ) :   0.8217 B(  1-C ,  2-C ) :   1.1260
B(  1-C ,  4-C ) :   0.9023 B(  1-C , 10-H ) :   0.9284 B(  2-C ,  3-C ) :   2.6101
B(  3-C , 11-H ) :   0.8902 B(  4-C ,  5-O ) :   0.9570 B(  4-C ,  6-C ) :   0.9024
B(  4-C , 12-H ) :   0.9404 B(  5-O , 13-H ) :   0.8382 B(  6-C ,  7-C ) :   0.8750
B(  6-C ,  8-C ) :   0.8583 B(  6-C , 14-H ) :   0.9250 B(  7-C ,  8-C ) :   0.9060
B(  7-C , 15-H ) :   0.9269 B(  7-C , 16-H ) :   0.9260 B(  8-C , 17-H ) :   0.9261
B(  8-C , 18-H ) :   0.9313

MP2 TOTAL ENERGY:     -422.262973124 Eh
FINAL SINGLE POINT ENERGY      -422.262973123857

DIPOLE MOMENT
-------------
                                X             Y             Z
Electronic contribution:      1.20647       1.68642      -6.69392
Nuclear contribution   :     -0.93696      -2.11887       7.64471
                        -----------------------------------------
Total Dipole Moment    :      0.26951      -0.43245       0.95079
                        -----------------------------------------
Magnitude (a.u.)       :      1.07873
Magnitude (Debye)      :      2.74191

                             ****ORCA TERMINATED NORMALLY****
TOTAL RUN TIME: 0 days 0 hours 18 minutes 55 seconds 319 msec
