                         Program Version 3.0.3 - RELEASE   -
|  1> ! RI-MP2 RIJK def2-TZVP def2-TZVP/C def2-TZVP/JK TIGHTSCF
|  2> % maxcore 2000
|  3> % mp2 density relaxed end
|  4> *xyz 0 1
|  5>  C       -0.1427154443     1.5493684844     0.0376084525
|  6>  C        0.0967196169     0.0333844228     0.0179618713
|  7>  C        0.7512850726    -0.4784822513    -1.2482100398
|  8>  C        0.0804595666    -0.4085430656    -2.6641824523
|  9>  C        1.1664506963    -1.4631646726    -2.9677536190
| 10>  O        2.3945451751    -0.7221282655    -2.8391462356
| 11>  C        2.1547619016     0.0264022107    -1.6270536409
| 12>  C        0.9280926787    -2.0199539617    -1.5400781756
| 13>  C        1.9984051579    -2.8557089318    -0.8578618024
| 14>  H        0.7967914642     2.1090537984    -0.0098011225
| 15>  H       -0.7595296390     1.8628933693    -0.8111078193
| 16>  H       -0.6596149175     1.8502248276     0.9538453575
| 17>  H        0.7157449226    -0.2492967926     0.8805415812
| 18>  H       -0.8615601052    -0.4847464513     0.1510339104
| 19>  H       -0.9351823652    -0.8093716462    -2.6698553618
| 20>  H        0.1349825816     0.5306795080    -3.2200364009
| 21>  H        1.2023908299    -2.0724431388    -3.8699260528
| 22>  H        2.1874678916     1.1011248137    -1.8397994255
| 23>  H        2.9201515230    -0.2071514620    -0.8771064102
| 24>  H       -0.0504470817    -2.5057664615    -1.4738491121
| 25>  H        3.0007216789    -2.4904385128    -1.0947961546
| 26>  H        1.8761347587    -2.8521182432     0.2312124970
| 27>  H        1.9411355066    -3.8982110278    -1.1891099843
| 28> *
| 29>
| 30>                          ****END OF INPUT****

CARTESIAN COORDINATES (ANGSTROEM)
---------------------------------
  C     -0.142715    1.549368    0.037608
  C      0.096720    0.033384    0.017962
  C      0.751285   -0.478482   -1.248210
  C      0.080460   -0.408543   -2.664182
  C      1.166451   -1.463165   -2.967754
  O      2.394545   -0.722128   -2.839146
  C      2.154762    0.026402   -1.627054
  C      0.928093   -2.019954   -1.540078
  C      1.998405   -2.855709   -0.857862
  H      0.796791    2.109054   -0.009801
  H     -0.759530    1.862893   -0.811108
  H     -0.659615    1.850225    0.953845
  H      0.715745   -0.249297    0.880542
  H     -0.861560   -0.484746    0.151034
  H     -0.935182   -0.809372   -2.669855
  H      0.134983    0.530680   -3.220036
  H      1.202391   -2.072443   -3.869926
  H      2.187468    1.101125   -1.839799
  H      2.920152   -0.207151   -0.877106
  H     -0.050447   -2.505766   -1.473849
  H      3.000722   -2.490439   -1.094796
  H      1.876135   -2.852118    0.231212
  H      1.941136   -3.898211   -1.189110

 Total Charge           Charge          ....    0
 Multiplicity           Mult            ....    1
 Number of Electrons    NEL             ....   70
 Basis Dimension        Dim             ....  363

ORBITAL ENERGIES
----------------

  NO   OCC          E(Eh)            E(eV)
   0   2.0000     -20.543659      -559.0214
   1   2.0000     -11.276870      -306.8592
   2   2.0000     -11.266529      -306.5778
   3   2.0000     -11.239846      -305.8518
   4   2.0000     -11.227585      -305.5181
   5   2.0000     -11.226064      -305.4767
   6   2.0000     -11.221202      -305.3444
   7   2.0000     -11.217984      -305.2569
   8   2.0000     -11.210145      -305.0436
   9   2.0000      -1.374472       -37.4013
  10   2.0000      -1.131425       -30.7876
  11   2.0000      -1.038802       -28.2672
  12   2.0000      -0.984972       -26.8024
  13   2.0000      -0.960045       -26.1241
  14   2.0000      -0.867616       -23.6090
  15   2.0000      -0.843399       -22.9501
  16   2.0000      -0.774454       -21.0740
  17   2.0000      -0.741941       -20.1892
  18   2.0000      -0.671395       -18.2696
  19   2.0000      -0.651547       -17.7295
  20   2.0000      -0.623835       -16.9754
  21   2.0000      -0.603859       -16.4318
  22   2.0000      -0.587108       -15.9760
  23   2.0000      -0.553981       -15.0746
  24   2.0000      -0.551665       -15.0116
  25   2.0000      -0.542651       -14.7663
  26   2.0000      -0.524794       -14.2804
  27   2.0000      -0.519103       -14.1255
  28   2.0000      -0.505159       -13.7461
  29   2.0000      -0.493603       -13.4316
  30   2.0000      -0.484739       -13.1904
  31   2.0000      -0.457654       -12.4534
  32   2.0000      -0.427698       -11.6382
  33   2.0000      -0.416304       -11.3282
  34   2.0000      -0.388629       -10.5751
  35   0.0000       0.130348         3.5469
  36   0.0000       0.148364         4.0372
  37   0.0000       0.162357         4.4179
  38   0.0000       0.170739         4.6461
  39   0.0000       0.193942         5.2774

MULLIKEN ATOMIC CHARGES
-----------------------
   0 C :   -0.412047
   1 C :   -0.178868
   2 C :    0.036035
   3 C :   -0.268160
   4 C :    0.064088
   5 O :   -0.341373
   6 C :   -0.102950
   7 C :   -0.071586
   8 C :   -0.465161
   9 H :    0.128857
  10 H :    0.132038
  11 H :    0.137815
  12 H :    0.113949
  13 H :    0.110050
  14 H :    0.118855
  15 H :    0.121696
  16 H :    0.124146
  17 H :    0.113032
  18 H :    0.111840
  19 H :    0.104043
  20 H :    0.155858
  21 H :    0.132694
  22 H :    0.135148
Sum of atomic charges:    0.0000000

LOEWDIN ATOMIC CHARGES
----------------------
   0 C :   -0.311041
   1 C :   -0.255246
   2 C :   -0.234896
   3 C :   -0.183729
   4 C :   -0.253359
   5 O :    0.149636
   6 C :   -0.245853
   7 C :   -0.202367
   8 C :   -0.297177
   9 H :    0.120789
  10 H :    0.123085
  11 H :    0.121764
  12 H :    0.142449
  13 H :    0.142358
  14 H :    0.138958
  15 H :    0.130635
  16 H :    0.129030
  17 H :    0.124002
  18 H :    0.123541
  19 H :    0.155115
  20 H :    0.130923
  21 H :    0.124855
  22 H :    0.126527

  Mayer bond orders larger than 0.1
B(  0-C ,  1-C ) :   0.9177 B(  0-C ,  9-H ) :   0.9395 B(  0-C , 10-H ) :   0.9386
B(  0-C , 11-H ) :   0.9411 B(  1-C ,  2-C ) :   0.8797 B(  1-C , 12-H ) :   0.9311
B(  1-C , 13-H ) :   0.9302 B(  2-C ,  3-C ) :   0.9068 B(  2-C ,  6-C ) :   0.9403
B(  2-C ,  7-C ) :   0.8539 B(  3-C ,  4-C ) :   0.9234 B(  3-C , 14-H ) :   0.9248
B(  3-C , 15-H ) :   0.9164 B(  4-C ,  5-O ) :   0.9190 B(  4-C ,  7-C ) :   0.9317
B(  4-C , 16-H ) :   0.9161 B(  5-O ,  6-C ) :   0.9330 B(  6-C , 17-H ) :   0.9188
B(  6-C , 18-H ) :   0.9324 B(  7-C ,  8-C ) :   0.9003 B(  7-C , 19-H ) :   0.9188
B(  8-C , 20-H ) :   0.9354 B(  8-C , 21-H ) :   0.9376 B(  8-C , 22-H ) :   0.9385

MP2 TOTAL ENERGY:     -387.608143621 Eh
FINAL SINGLE POINT ENERGY      -387.608143620659

DIPOLE MOMENT
-------------
                                X             Y             Z
Electronic contribution:      2.58168      -1.47800      -5.42917
Nuclear contribution   :     -3.16970       1.46084       5.90605
                        -----------------------------------------
Total Dipole Moment    :     -0.58802      -0.01716       0.47688
                        -----------------------------------------
Magnitude (a.u.)       :      0.75728
Magnitude (Debye)      :      1.92487

                             ****ORCA TERMINATED NORMALLY****
TOTAL RUN TIME: 0 days 0 hours 21 minutes 7 seconds 685 msec
