                         Program Version 3.0.3 - RELEASE   -
|  1> ! RI-MP2 RIJK def2-TZVP def2-TZVP/C def2-TZVP/JK TIGHTSCF
|  2> % maxcore 2000
|  3> % mp2 density relaxed end
|  4> *xyz 0 1
|  5>  C       -0.1415284332     1.5017459376    -0.0624459481
|  6>  C        0.0366084736    -0.0073718072     0.0216867714
|  7>  O        0.6795911737    -0.4203628201    -1.1809521354
|  8>  C        0.6601327552    -1.8227831183    -1.3554784823
|  9>  C        0.9509323838    -2.5875630022    -0.0959066948
| 10>  C        1.0416746282    -2.0103152306     1.1031452117
| 11>  C        1.3218465344    -2.7904004509     2.3586317561
| 12>  C        0.8441978294    -0.5087447962     1.2377479396
| 13>  C        2.1917439520     0.2201022056     1.4024824703
| 14>  H        0.8176568428     2.0021869194    -0.2172149091
| 15>  H       -0.7925815333     1.7542944668    -0.9036171164
| 16>  H       -0.5941118665     1.8899362563     0.8555543895
| 17>  H       -0.9604486832    -0.4780329112     0.0731298607
| 18>  H       -0.3167093784    -2.1445681687    -1.7650868382
| 19>  H        1.4087252440    -2.0462066806    -2.1261127218
| 20>  H        1.0658818681    -3.6640544033    -0.2051998120
| 21>  H        1.4670956057    -3.8533680966     2.1474081953
| 22>  H        2.2192759958    -2.4237577217     2.8719336694
| 23>  H        0.4947151161    -2.6945839294     3.0742260854
| 24>  H        0.2392654167    -0.3241713769     2.1377601899
| 25>  H        2.7533655339     0.1833683851     0.4648539457
| 26>  H        2.0520509041     1.2685410174     1.6818684080
| 27>  H        2.8012922969    -0.2470785143     2.1813305951
| 28> *
| 29>
| 30>                          ****END OF INPUT****

CARTESIAN COORDINATES (ANGSTROEM)
---------------------------------
  C     -0.141528    1.501746   -0.062446
  C      0.036608   -0.007372    0.021687
  O      0.679591   -0.420363   -1.180952
  C      0.660133   -1.822783   -1.355478
  C      0.950932   -2.587563   -0.095907
  C      1.041675   -2.010315    1.103145
  C      1.321847   -2.790400    2.358632
  C      0.844198   -0.508745    1.237748
  C      2.191744    0.220102    1.402482
  H      0.817657    2.002187   -0.217215
  H     -0.792582    1.754294   -0.903617
  H     -0.594112    1.889936    0.855554
  H     -0.960449   -0.478033    0.073130
  H     -0.316709   -2.144568   -1.765087
  H      1.408725   -2.046207   -2.126113
  H      1.065882   -3.664054   -0.205200
  H      1.467096   -3.853368    2.147408
  H      2.219276   -2.423758    2.871934
  H      0.494715   -2.694584    3.074226
  H      0.239265   -0.324171    2.137760
  H      2.753366    0.183368    0.464854
  H      2.052051    1.268541    1.681868
  H      2.801292   -0.247079    2.181331

 Total Charge           Charge          ....    0
 Multiplicity           Mult            ....    1
 Number of Electrons    NEL             ....   70
 Basis Dimension        Dim             ....  363

ORBITAL ENERGIES
----------------

  NO   OCC          E(Eh)            E(eV)
   0   2.0000     -20.546419      -559.0965
   1   2.0000     -11.274201      -306.7866
   2   2.0000     -11.272670      -306.7450
   3   2.0000     -11.231207      -305.6167
   4   2.0000     -11.229202      -305.5621
   5   2.0000     -11.221073      -305.3409
   6   2.0000     -11.217109      -305.2331
   7   2.0000     -11.210720      -305.0592
   8   2.0000     -11.209854      -305.0356
   9   2.0000      -1.371457       -37.3192
  10   2.0000      -1.107413       -30.1342
  11   2.0000      -1.055352       -28.7176
  12   2.0000      -0.973139       -26.4804
  13   2.0000      -0.964725       -26.2515
  14   2.0000      -0.899551       -24.4780
  15   2.0000      -0.848331       -23.0843
  16   2.0000      -0.793933       -21.6040
  17   2.0000      -0.698117       -18.9967
  18   2.0000      -0.665991       -18.1225
  19   2.0000      -0.653320       -17.7777
  20   2.0000      -0.630813       -17.1653
  21   2.0000      -0.606753       -16.5106
  22   2.0000      -0.577931       -15.7263
  23   2.0000      -0.562583       -15.3087
  24   2.0000      -0.559389       -15.2218
  25   2.0000      -0.544701       -14.8221
  26   2.0000      -0.534054       -14.5323
  27   2.0000      -0.526418       -14.3246
  28   2.0000      -0.518283       -14.1032
  29   2.0000      -0.501923       -13.6580
  30   2.0000      -0.489700       -13.3254
  31   2.0000      -0.470007       -12.7895
  32   2.0000      -0.441591       -12.0163
  33   2.0000      -0.402871       -10.9627
  34   2.0000      -0.338572        -9.2130
  35   0.0000       0.133363         3.6290
  36   0.0000       0.155947         4.2435
  37   0.0000       0.160415         4.3651
  38   0.0000       0.168871         4.5952
  39   0.0000       0.170260         4.6330

MULLIKEN ATOMIC CHARGES
-----------------------
   0 C :   -0.394592
   1 C :    0.101744
   2 O :   -0.318727
   3 C :   -0.024946
   4 C :   -0.208213
   5 C :   -0.011008
   6 C :   -0.431678
   7 C :    0.033304
   8 C :   -0.470025
   9 H :    0.140118
  10 H :    0.138821
  11 H :    0.123519
  12 H :    0.074246
  13 H :    0.100755
  14 H :    0.126564
  15 H :    0.115138
  16 H :    0.132698
  17 H :    0.133096
  18 H :    0.136500
  19 H :    0.090121
  20 H :    0.148360
  21 H :    0.134397
  22 H :    0.129807
Sum of atomic charges:    0.0000000

LOEWDIN ATOMIC CHARGES
----------------------
   0 C :   -0.289418
   1 C :   -0.315580
   2 O :    0.181168
   3 C :   -0.310521
   4 C :   -0.158863
   5 C :   -0.176339
   6 C :   -0.270393
   7 C :   -0.224605
   8 C :   -0.282921
   9 H :    0.127563
  10 H :    0.126566
  11 H :    0.126692
  12 H :    0.142061
  13 H :    0.126342
  14 H :    0.135611
  15 H :    0.144322
  16 H :    0.128197
  17 H :    0.127935
  18 H :    0.129123
  19 H :    0.158673
  20 H :    0.130302
  21 H :    0.121728
  22 H :    0.122357

  Mayer bond orders larger than 0.1
B(  0-C ,  1-C ) :   0.8869 B(  0-C ,  9-H ) :   0.9404 B(  0-C , 10-H ) :   0.9390
B(  0-C , 11-H ) :   0.9369 B(  1-C ,  2-O ) :   0.9091 B(  1-C ,  7-C ) :   0.9146
B(  1-C , 12-H ) :   0.9361 B(  2-O ,  3-C ) :   0.9527 B(  3-C ,  4-C ) :   0.9371
B(  3-C , 13-H ) :   0.9382 B(  3-C , 14-H ) :   0.9204 B(  4-C ,  5-C ) :   1.7825
B(  4-C , 15-H ) :   0.9122 B(  5-C ,  6-C ) :   0.9026 B(  5-C ,  7-C ) :   0.9049
B(  6-C , 16-H ) :   0.9483 B(  6-C , 17-H ) :   0.9259 B(  6-C , 18-H ) :   0.9369
B(  7-C ,  8-C ) :   0.8470 B(  7-C , 19-H ) :   0.9121 B(  8-C , 20-H ) :   0.9386
B(  8-C , 21-H ) :   0.9385 B(  8-C , 22-H ) :   0.9361

MP2 TOTAL ENERGY:     -387.630568301 Eh
FINAL SINGLE POINT ENERGY      -387.630568301064

DIPOLE MOMENT
-------------
                                X             Y             Z
Electronic contribution:     -0.95371      -1.99605      -4.32780
Nuclear contribution   :      0.77881       1.73381       4.73916
                        -----------------------------------------
Total Dipole Moment    :     -0.17490      -0.26225       0.41136
                        -----------------------------------------
Magnitude (a.u.)       :      0.51825
Magnitude (Debye)      :      1.31728

                             ****ORCA TERMINATED NORMALLY****
TOTAL RUN TIME: 0 days 0 hours 22 minutes 30 seconds 681 msec
