                         Program Version 3.0.3 - RELEASE   -
|  1> ! RI-MP2 RIJK def2-TZVP def2-TZVP/C def2-TZVP/JK TIGHTSCF
|  2> % maxcore 2000
|  3> % mp2 density relaxed end
|  4> *xyz 0 1
|  5>  C       -0.3946224957     1.5561990530     0.1255601596
|  6>  C       -0.0240343900     0.0726676511     0.0457683105
|  7>  C        1.2607795235    -0.2949930814    -0.7916155994
|  8>  C        1.7480133286    -1.2238642236     0.3561884724
|  9>  C        0.7258589800    -0.5448795375     1.2632429998
| 10>  C        0.9206696142     0.0487355878     2.5871696090
| 11>  O        0.1139484886    -1.1237533075     2.3889913306
| 12>  C       -1.1711600261    -0.7386840974    -0.3390790083
| 13>  C       -2.1183254269    -1.4041321489    -0.6643943073
| 14>  H        0.4740724136     2.1535470408     0.4190976643
| 15>  H       -0.7497543474     1.9151716120    -0.8450598434
| 16>  H       -1.1940554799     1.7203992916     0.8545272756
| 17>  H        1.0773527448    -0.7593489777    -1.7600901797
| 18>  H        1.9016176075     0.5802089668    -0.9235776595
| 19>  H        1.4841803435    -2.2699545553     0.1800798605
| 20>  H        2.7986786996    -1.1635982576     0.6473218655
| 21>  H        1.8590858167    -0.1135658953     3.1167346787
| 22>  H        0.3729812380     0.9448023543     2.8742903554
| 23>  H       -2.9557522625    -1.9956074151    -0.9406537845
| 24> *
| 25>
| 26>                          ****END OF INPUT****

CARTESIAN COORDINATES (ANGSTROEM)
---------------------------------
  C     -0.394622    1.556199    0.125560
  C     -0.024034    0.072668    0.045768
  C      1.260780   -0.294993   -0.791616
  C      1.748013   -1.223864    0.356188
  C      0.725859   -0.544880    1.263243
  C      0.920670    0.048736    2.587170
  O      0.113948   -1.123753    2.388991
  C     -1.171160   -0.738684   -0.339079
  C     -2.118325   -1.404132   -0.664394
  H      0.474072    2.153547    0.419098
  H     -0.749754    1.915172   -0.845060
  H     -1.194055    1.720399    0.854527
  H      1.077353   -0.759349   -1.760090
  H      1.901618    0.580209   -0.923578
  H      1.484180   -2.269955    0.180080
  H      2.798679   -1.163598    0.647322
  H      1.859086   -0.113566    3.116735
  H      0.372981    0.944802    2.874290
  H     -2.955752   -1.995607   -0.940654

 Total Charge           Charge          ....    0
 Multiplicity           Mult            ....    1
 Number of Electrons    NEL             ....   66
 Basis Dimension        Dim             ....  339

ORBITAL ENERGIES
----------------

  NO   OCC          E(Eh)            E(eV)
   0   2.0000     -20.569241      -559.7175
   1   2.0000     -11.296622      -307.3967
   2   2.0000     -11.284347      -307.0627
   3   2.0000     -11.268043      -306.6190
   4   2.0000     -11.237632      -305.7915
   5   2.0000     -11.232112      -305.6413
   6   2.0000     -11.229248      -305.5634
   7   2.0000     -11.228225      -305.5355
   8   2.0000     -11.218432      -305.2690
   9   2.0000      -1.417242       -38.5651
  10   2.0000      -1.152777       -31.3686
  11   2.0000      -1.032388       -28.0927
  12   2.0000      -0.988585       -26.9008
  13   2.0000      -0.920959       -25.0606
  14   2.0000      -0.875118       -23.8132
  15   2.0000      -0.868622       -23.6364
  16   2.0000      -0.773276       -21.0419
  17   2.0000      -0.710749       -19.3405
  18   2.0000      -0.682429       -18.5698
  19   2.0000      -0.675497       -18.3812
  20   2.0000      -0.642508       -17.4835
  21   2.0000      -0.595351       -16.2003
  22   2.0000      -0.582140       -15.8408
  23   2.0000      -0.572538       -15.5796
  24   2.0000      -0.547502       -14.8983
  25   2.0000      -0.519571       -14.1383
  26   2.0000      -0.509650       -13.8683
  27   2.0000      -0.477149       -12.9839
  28   2.0000      -0.473392       -12.8816
  29   2.0000      -0.437883       -11.9154
  30   2.0000      -0.430503       -11.7146
  31   2.0000      -0.380152       -10.3445
  32   2.0000      -0.375641       -10.2217
  33   0.0000       0.134320         3.6550
  34   0.0000       0.156469         4.2577
  35   0.0000       0.158689         4.3181
  36   0.0000       0.167476         4.5572
  37   0.0000       0.173771         4.7285

MULLIKEN ATOMIC CHARGES
-----------------------
   0 C :   -0.442270
   1 C :    0.135094
   2 C :   -0.264056
   3 C :   -0.224921
   4 C :    0.085399
   5 C :   -0.092236
   6 O :   -0.319102
   7 C :   -0.092876
   8 C :   -0.148339
   9 H :    0.134336
  10 H :    0.145198
  11 H :    0.147640
  12 H :    0.132867
  13 H :    0.119938
  14 H :    0.135696
  15 H :    0.121463
  16 H :    0.115187
  17 H :    0.121432
  18 H :    0.189549
Sum of atomic charges:    0.0000000

LOEWDIN ATOMIC CHARGES
----------------------
   0 C :   -0.251580
   1 C :   -0.227002
   2 C :   -0.167209
   3 C :   -0.191754
   4 C :   -0.279405
   5 C :   -0.229851
   6 O :    0.187036
   7 C :   -0.060832
   8 C :   -0.089876
   9 H :    0.126083
  10 H :    0.132618
  11 H :    0.132907
  12 H :    0.133946
  13 H :    0.136838
  14 H :    0.147429
  15 H :    0.130295
  16 H :    0.121288
  17 H :    0.122276
  18 H :    0.126793

  Mayer bond orders larger than 0.1
B(  0-C ,  1-C ) :   0.8925 B(  0-C ,  9-H ) :   0.9332 B(  0-C , 10-H ) :   0.9341
B(  0-C , 11-H ) :   0.9371 B(  1-C ,  2-C ) :   0.8457 B(  1-C ,  4-C ) :   0.8186
B(  1-C ,  7-C ) :   1.2447 B(  1-C ,  8-C ) :  -0.1050 B(  2-C ,  3-C ) :   0.9632
B(  2-C , 12-H ) :   0.9268 B(  2-C , 13-H ) :   0.9131 B(  3-C ,  4-C ) :   0.9237
B(  3-C , 14-H ) :   0.9081 B(  3-C , 15-H ) :   0.9193 B(  4-C ,  5-C ) :   0.9804
B(  4-C ,  6-O ) :   0.9143 B(  5-C ,  6-O ) :   0.9037 B(  5-C , 16-H ) :   0.9137
B(  5-C , 17-H ) :   0.9066 B(  7-C ,  8-C ) :   2.5689 B(  8-C , 18-H ) :   0.8837

MP2 TOTAL ENERGY:     -385.139481806 Eh
FINAL SINGLE POINT ENERGY      -385.139481805641

DIPOLE MOMENT
-------------
                                X             Y             Z
Electronic contribution:     -2.77497      -3.98737       1.90558
Nuclear contribution   :      3.34853       4.57359      -2.17278
                        -----------------------------------------
Total Dipole Moment    :      0.57356       0.58622      -0.26720
                        -----------------------------------------
Magnitude (a.u.)       :      0.86257
Magnitude (Debye)      :      2.19247

                             ****ORCA TERMINATED NORMALLY****
TOTAL RUN TIME: 0 days 0 hours 19 minutes 50 seconds 399 msec
