                         Program Version 3.0.3 - RELEASE   -
|  1> ! RI-MP2 RIJK def2-TZVP def2-TZVP/C def2-TZVP/JK TIGHTSCF
|  2> % maxcore 2000
|  3> % mp2 density relaxed end
|  4> *xyz 0 1
|  5>  N       -0.8476054646     1.2703816949    -2.4638137719
|  6>  C       -0.4521944147     1.2397007377    -1.3783811638
|  7>  C        0.0706590596     1.2204893834    -0.0115142764
|  8>  C        1.4418731189     1.8996741660     0.0801688475
|  9>  C        1.4987114160     3.4607076902    -0.0719457801
| 10>  C        1.0925328026     3.5471666473     1.4352273288
| 11>  C        1.9826526918     2.2822486217     1.4904462383
| 12>  O        3.2891716202     2.7878182249     1.1863941074
| 13>  C        3.0126811007     3.6607347523     0.0592380974
| 14>  H       -0.6700641006     1.6900508646     0.6424843793
| 15>  H        0.1527527866     0.1757623021     0.3112209139
| 16>  H        2.1598110955     1.3455015029    -0.5311743117
| 17>  H        0.9770737429     3.9937723878    -0.8654651510
| 18>  H        1.4368146791     4.4096017406     2.0097570174
| 19>  H        0.0331388687     3.3719523100     1.6188424502
| 20>  H        2.0382778548     1.5958384960     2.3345233017
| 21>  H        3.5771763837     3.3277676912    -0.8186186728
| 22>  H        3.2991688790     4.6899215862     0.3024685659
| 23> *
| 24>
| 25>                          ****END OF INPUT****

CARTESIAN COORDINATES (ANGSTROEM)
---------------------------------
  N     -0.847605    1.270382   -2.463814
  C     -0.452194    1.239701   -1.378381
  C      0.070659    1.220489   -0.011514
  C      1.441873    1.899674    0.080169
  C      1.498711    3.460708   -0.071946
  C      1.092533    3.547167    1.435227
  C      1.982653    2.282249    1.490446
  O      3.289172    2.787818    1.186394
  C      3.012681    3.660735    0.059238
  H     -0.670064    1.690051    0.642484
  H      0.152753    0.175762    0.311221
  H      2.159811    1.345502   -0.531174
  H      0.977074    3.993772   -0.865465
  H      1.436815    4.409602    2.009757
  H      0.033139    3.371952    1.618842
  H      2.038278    1.595838    2.334523
  H      3.577176    3.327768   -0.818619
  H      3.299169    4.689922    0.302469

 Total Charge           Charge          ....    0
 Multiplicity           Mult            ....    1
 Number of Electrons    NEL             ....   66
 Basis Dimension        Dim             ....  333

ORBITAL ENERGIES
----------------

  NO   OCC          E(Eh)            E(eV)
   0   2.0000     -20.562453      -559.5328
   1   2.0000     -15.571727      -423.7282
   2   2.0000     -11.302410      -307.5542
   3   2.0000     -11.290232      -307.2228
   4   2.0000     -11.285752      -307.1009
   5   2.0000     -11.276527      -306.8499
   6   2.0000     -11.262183      -306.4596
   7   2.0000     -11.257623      -306.3355
   8   2.0000     -11.243124      -305.9410
   9   2.0000      -1.394584       -37.9486
  10   2.0000      -1.222222       -33.2584
  11   2.0000      -1.151176       -31.3251
  12   2.0000      -1.048983       -28.5443
  13   2.0000      -0.988877       -26.9087
  14   2.0000      -0.910140       -24.7662
  15   2.0000      -0.806435       -21.9442
  16   2.0000      -0.777491       -21.1566
  17   2.0000      -0.720016       -19.5926
  18   2.0000      -0.707877       -19.2623
  19   2.0000      -0.677300       -18.4303
  20   2.0000      -0.656510       -17.8646
  21   2.0000      -0.612526       -16.6677
  22   2.0000      -0.568260       -15.4632
  23   2.0000      -0.564351       -15.3568
  24   2.0000      -0.552938       -15.0462
  25   2.0000      -0.538268       -14.6470
  26   2.0000      -0.534896       -14.5552
  27   2.0000      -0.508094       -13.8259
  28   2.0000      -0.472977       -12.8704
  29   2.0000      -0.460738       -12.5373
  30   2.0000      -0.458136       -12.4665
  31   2.0000      -0.450688       -12.2638
  32   2.0000      -0.410981       -11.1834
  33   0.0000       0.121897         3.3170
  34   0.0000       0.148771         4.0483
  35   0.0000       0.151717         4.1284
  36   0.0000       0.161972         4.4075
  37   0.0000       0.174585         4.7507

MULLIKEN ATOMIC CHARGES
-----------------------
   0 N :   -0.058265
   1 C :   -0.186501
   2 C :   -0.141682
   3 C :   -0.137182
   4 C :   -0.103720
   5 C :   -0.283958
   6 C :    0.082943
   7 O :   -0.328925
   8 C :   -0.071765
   9 H :    0.154468
  10 H :    0.164070
  11 H :    0.129003
  12 H :    0.155169
  13 H :    0.128234
  14 H :    0.127214
  15 H :    0.133592
  16 H :    0.119706
  17 H :    0.117601
Sum of atomic charges:    0.0000000

LOEWDIN ATOMIC CHARGES
----------------------
   0 N :    0.057127
   1 C :   -0.189171
   2 C :   -0.223349
   3 C :   -0.174888
   4 C :   -0.193513
   5 C :   -0.199411
   6 C :   -0.255642
   7 O :    0.151554
   8 C :   -0.255550
   9 H :    0.164802
  10 H :    0.168302
  11 H :    0.156401
  12 H :    0.142840
  13 H :    0.133626
  14 H :    0.133927
  15 H :    0.132752
  16 H :    0.125510
  17 H :    0.124684

  Mayer bond orders larger than 0.1
B(  0-N ,  1-C ) :   2.8732 B(  1-C ,  2-C ) :   0.9314 B(  2-C ,  3-C ) :   0.8952
B(  2-C ,  9-H ) :   0.9038 B(  2-C , 10-H ) :   0.9122 B(  3-C ,  4-C ) :   0.8892
B(  3-C ,  6-C ) :   0.9043 B(  3-C , 11-H ) :   0.9152 B(  4-C ,  5-C ) :   0.8995
B(  4-C ,  8-C ) :   0.9376 B(  4-C , 12-H ) :   0.9017 B(  5-C ,  6-C ) :   0.9163
B(  5-C , 13-H ) :   0.9215 B(  5-C , 14-H ) :   0.9265 B(  6-C ,  7-O ) :   0.9350
B(  6-C , 15-H ) :   0.9148 B(  7-O ,  8-C ) :   0.9085 B(  8-C , 16-H ) :   0.9314
B(  8-C , 17-H ) :   0.9264

MP2 TOTAL ENERGY:     -401.249155423 Eh
FINAL SINGLE POINT ENERGY      -401.249155423263

DIPOLE MOMENT
-------------
                                X             Y             Z
Electronic contribution:     -1.34946      -2.61219      -2.98399
Nuclear contribution   :      1.40497       2.84578       4.09585
                        -----------------------------------------
Total Dipole Moment    :      0.05551       0.23359       1.11187
                        -----------------------------------------
Magnitude (a.u.)       :      1.13750
Magnitude (Debye)      :      2.89129

                             ****ORCA TERMINATED NORMALLY****
TOTAL RUN TIME: 0 days 0 hours 17 minutes 14 seconds 343 msec
