                         Program Version 3.0.3 - RELEASE   -
|  1> ! RI-MP2 RIJK def2-TZVP def2-TZVP/C def2-TZVP/JK TIGHTSCF
|  2> % maxcore 2000
|  3> % mp2 density relaxed end
|  4> *xyz 0 1
|  5>  O       -0.4021822362     0.4020327655    -0.7491970371
|  6>  C        0.6098533554     0.6137120215    -0.1291674597
|  7>  C        1.3530584126     1.9188334639    -0.1138549875
|  8>  C        0.7688815004     3.1012926725    -0.9101201914
|  9>  N        0.8817086278     3.9914309572     0.2774950207
| 10>  C       -0.3705577302     4.6208887626     0.7297143166
| 11>  C       -0.9251320906     3.6632796081     1.7616983206
| 12>  C       -0.0786927809     2.6617600673     1.9953386174
| 13>  C        1.1660380789     2.8234374446     1.1639458567
| 14>  H        1.0615897479    -0.1803866742     0.5098379602
| 15>  H        2.4144257790     1.7252089237    -0.2985360620
| 16>  H        1.3472826605     3.4428082280    -1.7734043681
| 17>  H       -0.2630568158     2.9024108328    -1.2241486319
| 18>  H       -0.1877663369     5.6145571223     1.1648250668
| 19>  H       -1.0486288233     4.7718270044    -0.1210397648
| 20>  H       -1.8770814960     3.8158178191     2.2571275140
| 21>  H       -0.2199680337     1.8633902418     2.7141583941
| 22>  H        2.0696705811     2.9149264088     1.7800347655
| 23> *
| 24>
| 25>                          ****END OF INPUT****

CARTESIAN COORDINATES (ANGSTROEM)
---------------------------------
  O     -0.402182    0.402033   -0.749197
  C      0.609853    0.613712   -0.129167
  C      1.353058    1.918833   -0.113855
  C      0.768882    3.101293   -0.910120
  N      0.881709    3.991431    0.277495
  C     -0.370558    4.620889    0.729714
  C     -0.925132    3.663280    1.761698
  C     -0.078693    2.661760    1.995339
  C      1.166038    2.823437    1.163946
  H      1.061590   -0.180387    0.509838
  H      2.414426    1.725209   -0.298536
  H      1.347283    3.442808   -1.773404
  H     -0.263057    2.902411   -1.224149
  H     -0.187766    5.614557    1.164825
  H     -1.048629    4.771827   -0.121040
  H     -1.877081    3.815818    2.257128
  H     -0.219968    1.863390    2.714158
  H      2.069671    2.914926    1.780035

 Total Charge           Charge          ....    0
 Multiplicity           Mult            ....    1
 Number of Electrons    NEL             ....   66
 Basis Dimension        Dim             ....  333

ORBITAL ENERGIES
----------------

  NO   OCC          E(Eh)            E(eV)
   0   2.0000     -20.558143      -559.4155
   1   2.0000     -15.550452      -423.1493
   2   2.0000     -11.332993      -308.3864
   3   2.0000     -11.275705      -306.8275
   4   2.0000     -11.256944      -306.3170
   5   2.0000     -11.254788      -306.2583
   6   2.0000     -11.247908      -306.0711
   7   2.0000     -11.238497      -305.8151
   8   2.0000     -11.234053      -305.6941
   9   2.0000      -1.396651       -38.0048
  10   2.0000      -1.266967       -34.4759
  11   2.0000      -1.080937       -29.4138
  12   2.0000      -1.036208       -28.1967
  13   2.0000      -0.945439       -25.7267
  14   2.0000      -0.903145       -24.5758
  15   2.0000      -0.809670       -22.0322
  16   2.0000      -0.771789       -21.0015
  17   2.0000      -0.724133       -19.7046
  18   2.0000      -0.704317       -19.1655
  19   2.0000      -0.669633       -18.2216
  20   2.0000      -0.659700       -17.9514
  21   2.0000      -0.636720       -17.3260
  22   2.0000      -0.601128       -16.3575
  23   2.0000      -0.560394       -15.2491
  24   2.0000      -0.552382       -15.0311
  25   2.0000      -0.543981       -14.8025
  26   2.0000      -0.515397       -14.0247
  27   2.0000      -0.501662       -13.6509
  28   2.0000      -0.475911       -12.9502
  29   2.0000      -0.469176       -12.7669
  30   2.0000      -0.423603       -11.5268
  31   2.0000      -0.381135       -10.3712
  32   2.0000      -0.351589        -9.5672
  33   0.0000       0.124505         3.3880
  34   0.0000       0.138309         3.7636
  35   0.0000       0.149742         4.0747
  36   0.0000       0.156266         4.2522
  37   0.0000       0.167934         4.5697

MULLIKEN ATOMIC CHARGES
-----------------------
   0 O :   -0.267256
   1 C :    0.067125
   2 C :    0.006391
   3 C :   -0.227079
   4 N :   -0.136790
   5 C :   -0.123157
   6 C :   -0.164872
   7 C :   -0.237548
   8 C :   -0.011115
   9 H :    0.080261
  10 H :    0.129106
  11 H :    0.116356
  12 H :    0.137077
  13 H :    0.122395
  14 H :    0.123260
  15 H :    0.133280
  16 H :    0.136075
  17 H :    0.116490
Sum of atomic charges:   -0.0000000

LOEWDIN ATOMIC CHARGES
----------------------
   0 O :    0.136961
   1 C :   -0.282268
   2 C :   -0.210385
   3 C :   -0.218585
   4 N :    0.116361
   5 C :   -0.264928
   6 C :   -0.150419
   7 C :   -0.149732
   8 C :   -0.194262
   9 H :    0.112480
  10 H :    0.158676
  11 H :    0.122743
  12 H :    0.133467
  13 H :    0.132891
  14 H :    0.135224
  15 H :    0.139336
  16 H :    0.141379
  17 H :    0.141062

  Mayer bond orders larger than 0.1
B(  0-O ,  1-C ) :   1.9892 B(  1-C ,  2-C ) :   0.8527 B(  1-C ,  9-H ) :   0.9424
B(  2-C ,  3-C ) :   0.9090 B(  2-C ,  8-C ) :   0.9010 B(  2-C , 10-H ) :   0.8958
B(  3-C ,  4-N ) :   0.9263 B(  3-C , 11-H ) :   0.9148 B(  3-C , 12-H ) :   0.9185
B(  4-N ,  5-C ) :   0.9343 B(  4-N ,  8-C ) :   0.9922 B(  5-C ,  6-C ) :   0.9655
B(  5-C , 13-H ) :   0.9103 B(  5-C , 14-H ) :   0.9300 B(  6-C ,  7-C ) :   1.7885
B(  6-C , 15-H ) :   0.9205 B(  7-C ,  8-C ) :   0.9552 B(  7-C , 16-H ) :   0.9157
B(  8-C , 17-H ) :   0.8985

MP2 TOTAL ENERGY:     -401.235420927 Eh
FINAL SINGLE POINT ENERGY      -401.235420927030

DIPOLE MOMENT
-------------
                                X             Y             Z
Electronic contribution:     -0.00606      -2.94159      -0.64789
Nuclear contribution   :      0.37365       3.07484       1.18673
                        -----------------------------------------
Total Dipole Moment    :      0.36759       0.13325       0.53884
                        -----------------------------------------
Magnitude (a.u.)       :      0.66576
Magnitude (Debye)      :      1.69222

                             ****ORCA TERMINATED NORMALLY****
TOTAL RUN TIME: 0 days 0 hours 17 minutes 43 seconds 538 msec
