                         Program Version 3.0.3 - RELEASE   -
|  1> ! RI-MP2 RIJK def2-TZVP def2-TZVP/C def2-TZVP/JK TIGHTSCF
|  2> % maxcore 2000
|  3> % mp2 density relaxed end
|  4> *xyz 0 1
|  5>  C        0.3685413683     1.1217519666     0.2738840374
|  6>  O       -0.2357441430     0.0155622743    -0.3725046771
|  7>  C        0.5806977086    -0.6605838346    -1.3024977613
|  8>  C        0.7662977038     0.0531322250    -2.6204918613
|  9>  C        1.6835340666    -1.5350301324    -0.7194025575
| 10>  C        0.3814557402    -2.1518880426    -1.2080362463
| 11>  O       -0.5353829909    -2.6001232363    -0.2540414152
| 12>  C        0.3381648055    -3.0735326281    -2.4203243229
| 13>  O        1.4721688095    -2.9948503483    -3.2683939880
| 14>  H        1.2960638294     0.8331696565     0.7863327070
| 15>  H        0.5950899030     1.9311782094    -0.4320040672
| 16>  H       -0.3494646883     1.4896066416     1.0104358989
| 17>  H        1.3518400555     0.9713282897    -2.4984423278
| 18>  H        1.2881930910    -0.5936705963    -3.3276442223
| 19>  H       -0.2063437510     0.3234926941    -3.0447698793
| 20>  H        2.5890801235    -1.6507887412    -1.3060592631
| 21>  H        1.8247865118    -1.5200052054     0.3560687272
| 22>  H       -0.9009733390    -1.8020989288     0.1541227928
| 23>  H        0.1868010260    -4.0940249833    -2.0412456693
| 24>  H       -0.5271998744    -2.8275747772    -3.0443649274
| 25>  H        2.2171103439    -3.3762593229    -2.7935545273
| 26> *
| 27>
| 28>                          ****END OF INPUT****

CARTESIAN COORDINATES (ANGSTROEM)
---------------------------------
  C      0.368541    1.121752    0.273884
  O     -0.235744    0.015562   -0.372505
  C      0.580698   -0.660584   -1.302498
  C      0.766298    0.053132   -2.620492
  C      1.683534   -1.535030   -0.719403
  C      0.381456   -2.151888   -1.208036
  O     -0.535383   -2.600123   -0.254041
  C      0.338165   -3.073533   -2.420324
  O      1.472169   -2.994850   -3.268394
  H      1.296064    0.833170    0.786333
  H      0.595090    1.931178   -0.432004
  H     -0.349465    1.489607    1.010436
  H      1.351840    0.971328   -2.498442
  H      1.288193   -0.593671   -3.327644
  H     -0.206344    0.323493   -3.044770
  H      2.589080   -1.650789   -1.306059
  H      1.824787   -1.520005    0.356069
  H     -0.900973   -1.802099    0.154123
  H      0.186801   -4.094025   -2.041246
  H     -0.527200   -2.827575   -3.044365
  H      2.217110   -3.376259   -2.793555

 Total Charge           Charge          ....    0
 Multiplicity           Mult            ....    1
 Number of Electrons    NEL             ....   72
 Basis Dimension        Dim             ....  351

ORBITAL ENERGIES
----------------

  NO   OCC          E(Eh)            E(eV)
   0   2.0000     -20.572308      -559.8010
   1   2.0000     -20.561527      -559.5076
   2   2.0000     -20.553261      -559.2827
   3   2.0000     -11.290734      -307.2365
   4   2.0000     -11.287161      -307.1393
   5   2.0000     -11.279986      -306.9440
   6   2.0000     -11.277405      -306.8738
   7   2.0000     -11.225176      -305.4526
   8   2.0000     -11.217748      -305.2504
   9   2.0000      -1.402702       -38.1695
  10   2.0000      -1.369002       -37.2524
  11   2.0000      -1.356587       -36.9146
  12   2.0000      -1.127186       -30.6723
  13   2.0000      -0.977643       -26.6030
  14   2.0000      -0.951461       -25.8906
  15   2.0000      -0.937275       -25.5045
  16   2.0000      -0.797752       -21.7079
  17   2.0000      -0.771363       -20.9899
  18   2.0000      -0.721883       -19.6434
  19   2.0000      -0.683676       -18.6038
  20   2.0000      -0.669281       -18.2121
  21   2.0000      -0.646483       -17.5917
  22   2.0000      -0.631179       -17.1753
  23   2.0000      -0.620538       -16.8857
  24   2.0000      -0.599398       -16.3104
  25   2.0000      -0.569975       -15.5098
  26   2.0000      -0.562366       -15.3027
  27   2.0000      -0.550018       -14.9667
  28   2.0000      -0.542763       -14.7693
  29   2.0000      -0.528042       -14.3688
  30   2.0000      -0.511881       -13.9290
  31   2.0000      -0.504081       -13.7167
  32   2.0000      -0.467294       -12.7157
  33   2.0000      -0.453767       -12.3476
  34   2.0000      -0.391859       -10.6630
  35   2.0000      -0.379073       -10.3151
  36   0.0000       0.133186         3.6242
  37   0.0000       0.148178         4.0321
  38   0.0000       0.164938         4.4882
  39   0.0000       0.179072         4.8728
  40   0.0000       0.186427         5.0729

MULLIKEN ATOMIC CHARGES
-----------------------
   0 C :   -0.213409
   1 O :   -0.361283
   2 C :    0.262965
   3 C :   -0.448370
   4 C :   -0.375815
   5 C :    0.114764
   6 O :   -0.465419
   7 C :   -0.022535
   8 O :   -0.482546
   9 H :    0.120119
  10 H :    0.122681
  11 H :    0.143523
  12 H :    0.126933
  13 H :    0.173437
  14 H :    0.137004
  15 H :    0.128296
  16 H :    0.139846
  17 H :    0.336497
  18 H :    0.129018
  19 H :    0.113802
  20 H :    0.320492
Sum of atomic charges:   -0.0000000

LOEWDIN ATOMIC CHARGES
----------------------
   0 C :   -0.340684
   1 O :    0.172205
   2 C :   -0.335460
   3 C :   -0.269573
   4 C :   -0.191448
   5 C :   -0.341732
   6 O :    0.028732
   7 C :   -0.300841
   8 O :   -0.040278
   9 H :    0.105062
  10 H :    0.106127
  11 H :    0.114187
  12 H :    0.124959
  13 H :    0.140265
  14 H :    0.131612
  15 H :    0.132884
  16 H :    0.140046
  17 H :    0.184136
  18 H :    0.129882
  19 H :    0.136277
  20 H :    0.173641

  Mayer bond orders larger than 0.1
B(  0-C ,  1-O ) :   0.8885 B(  0-C ,  9-H ) :   0.9347 B(  0-C , 10-H ) :   0.9357
B(  0-C , 11-H ) :   0.9388 B(  1-O ,  2-C ) :   0.8482 B(  2-C ,  3-C ) :   0.9035
B(  2-C ,  4-C ) :   0.8647 B(  2-C ,  5-C ) :   0.8617 B(  3-C , 12-H ) :   0.9269
B(  3-C , 13-H ) :   0.9208 B(  3-C , 14-H ) :   0.9362 B(  4-C ,  5-C ) :   0.8534
B(  4-C , 15-H ) :   0.9076 B(  4-C , 16-H ) :   0.9120 B(  5-C ,  6-O ) :   1.0690
B(  5-C ,  7-C ) :   0.9057 B(  6-O , 17-H ) :   0.8076 B(  7-C ,  8-O ) :   0.9045
B(  7-C , 18-H ) :   0.9340 B(  7-C , 19-H ) :   0.9274 B(  8-O , 20-H ) :   0.8429

MP2 TOTAL ENERGY:     -460.600361019 Eh
FINAL SINGLE POINT ENERGY      -460.600361019266

DIPOLE MOMENT
-------------
                                X             Y             Z
Electronic contribution:     -2.23295      -4.54722       0.67002
Nuclear contribution   :      2.79911       5.17903      -0.29973
                        -----------------------------------------
Total Dipole Moment    :      0.56616       0.63181       0.37030
                        -----------------------------------------
Magnitude (a.u.)       :      0.92566
Magnitude (Debye)      :      2.35283

                             ****ORCA TERMINATED NORMALLY****
TOTAL RUN TIME: 0 days 0 hours 17 minutes 20 seconds 694 msec
