                         Program Version 3.0.3 - RELEASE   -
|  1> ! RI-MP2 RIJK def2-TZVP def2-TZVP/C def2-TZVP/JK TIGHTSCF
|  2> % maxcore 2000
|  3> % mp2 density relaxed end
|  4> *xyz 0 1
|  5>  O        0.4473396144     0.1669559783     0.6102559077
|  6>  C        0.3129674105     1.3070649743     0.2552790061
|  7>  N        1.2690199134     2.0353874323    -0.4495017389
|  8>  C        1.8823066085     3.2897700506    -0.1049355512
|  9>  C        1.9141711386     3.6455107188     1.3740896649
| 10>  O        2.5230219799     2.5351365696     2.0450743216
| 11>  C        3.1473193464     1.6857413287     1.1666838106
| 12>  O        3.9283838286     0.8558374774     1.5139910875
| 13>  C        2.6991005687     2.0291659082    -0.2347745908
| 14>  H       -0.6246641758     1.8836598476     0.3701902327
| 15>  H        1.8783682774     4.0778190112    -0.8506800403
| 16>  H        2.5227508388     4.5416656549     1.5392492841
| 17>  H        0.9236641438     3.8085966919     1.8084149893
| 18>  H        3.3427934970     1.7724583662    -1.0670235930
| 19> *
| 20>
| 21>                          ****END OF INPUT****

CARTESIAN COORDINATES (ANGSTROEM)
---------------------------------
  O      0.447340    0.166956    0.610256
  C      0.312967    1.307065    0.255279
  N      1.269020    2.035387   -0.449502
  C      1.882307    3.289770   -0.104936
  C      1.914171    3.645511    1.374090
  O      2.523022    2.535137    2.045074
  C      3.147319    1.685741    1.166684
  O      3.928384    0.855837    1.513991
  C      2.699101    2.029166   -0.234775
  H     -0.624664    1.883660    0.370190
  H      1.878368    4.077819   -0.850680
  H      2.522751    4.541666    1.539249
  H      0.923664    3.808597    1.808415
  H      3.342793    1.772458   -1.067024

 Total Charge           Charge          ....    0
 Multiplicity           Mult            ....    1
 Number of Electrons    NEL             ....   66
 Basis Dimension        Dim             ....  309

ORBITAL ENERGIES
----------------

  NO   OCC          E(Eh)            E(eV)
   0   2.0000     -20.619897      -561.0959
   1   2.0000     -20.563244      -559.5543
   2   2.0000     -20.560183      -559.4710
   3   2.0000     -15.624191      -425.1559
   4   2.0000     -11.398467      -310.1681
   5   2.0000     -11.376944      -309.5824
   6   2.0000     -11.331868      -308.3558
   7   2.0000     -11.326457      -308.2086
   8   2.0000     -11.318235      -307.9848
   9   2.0000      -1.479560       -40.2609
  10   2.0000      -1.421155       -38.6716
  11   2.0000      -1.388657       -37.7873
  12   2.0000      -1.330931       -36.2165
  13   2.0000      -1.050306       -28.5803
  14   2.0000      -1.018552       -27.7162
  15   2.0000      -0.898236       -24.4423
  16   2.0000      -0.855662       -23.2837
  17   2.0000      -0.783059       -21.3081
  18   2.0000      -0.748864       -20.3776
  19   2.0000      -0.711282       -19.3550
  20   2.0000      -0.699447       -19.0329
  21   2.0000      -0.683559       -18.6006
  22   2.0000      -0.665076       -18.0976
  23   2.0000      -0.613247       -16.6873
  24   2.0000      -0.604698       -16.4547
  25   2.0000      -0.594321       -16.1723
  26   2.0000      -0.558454       -15.1963
  27   2.0000      -0.540655       -14.7120
  28   2.0000      -0.519141       -14.1266
  29   2.0000      -0.484422       -13.1818
  30   2.0000      -0.469839       -12.7850
  31   2.0000      -0.446160       -12.1406
  32   2.0000      -0.426947       -11.6178
  33   0.0000       0.110047         2.9945
  34   0.0000       0.132617         3.6087
  35   0.0000       0.141993         3.8638
  36   0.0000       0.151956         4.1349
  37   0.0000       0.166987         4.5439

MULLIKEN ATOMIC CHARGES
-----------------------
   0 O :   -0.268970
   1 C :    0.149647
   2 N :   -0.152308
   3 C :   -0.099979
   4 C :   -0.026850
   5 O :   -0.235373
   6 C :    0.263439
   7 O :   -0.249075
   8 C :   -0.081269
   9 H :    0.097501
  10 H :    0.159802
  11 H :    0.137909
  12 H :    0.135910
  13 H :    0.169617
Sum of atomic charges:    0.0000000

LOEWDIN ATOMIC CHARGES
----------------------
   0 O :    0.133370
   1 C :   -0.384585
   2 N :    0.197049
   3 C :   -0.207976
   4 C :   -0.252478
   5 O :    0.255511
   6 C :   -0.445333
   7 O :    0.174185
   8 C :   -0.165244
   9 H :    0.116547
  10 H :    0.148899
  11 H :    0.138067
  12 H :    0.136073
  13 H :    0.155914

  Mayer bond orders larger than 0.1
B(  0-O ,  1-C ) :   1.9816 B(  1-C ,  2-N ) :   0.9918 B(  1-C ,  9-H ) :   0.9277
B(  2-N ,  3-C ) :   0.8947 B(  2-N ,  8-C ) :   0.8541 B(  3-C ,  4-C ) :   0.9550
B(  3-C ,  8-C ) :   0.8660 B(  3-C , 10-H ) :   0.9099 B(  4-C ,  5-O ) :   0.8908
B(  4-C , 11-H ) :   0.9237 B(  4-C , 12-H ) :   0.9117 B(  5-O ,  6-C ) :   1.0657
B(  6-C ,  7-O ) :   2.0438 B(  6-C ,  8-C ) :   0.9299 B(  8-C , 13-H ) :   0.9068

MP2 TOTAL ENERGY:     -473.090359178 Eh
FINAL SINGLE POINT ENERGY      -473.090359177647

DIPOLE MOMENT
-------------
                                X             Y             Z
Electronic contribution:      1.39732      -3.78919       0.80489
Nuclear contribution   :     -1.88790       6.00535      -1.67333
                        -----------------------------------------
Total Dipole Moment    :     -0.49058       2.21616      -0.86844
                        -----------------------------------------
Magnitude (a.u.)       :      2.43027
Magnitude (Debye)      :      6.17726

                             ****ORCA TERMINATED NORMALLY****
TOTAL RUN TIME: 0 days 0 hours 14 minutes 27 seconds 553 msec
