                         Program Version 3.0.3 - RELEASE   -
|  1> ! RI-MP2 RIJK def2-TZVP def2-TZVP/C def2-TZVP/JK TIGHTSCF
|  2> % maxcore 2000
|  3> % mp2 density relaxed end
|  4> *xyz 0 1
|  5>  C       -0.1417546959     1.5578756528     0.0529434136
|  6>  C       -0.0457265111     0.0270441607     0.0433706167
|  7>  C       -1.4708697560    -0.5158246546    -0.1258046614
|  8>  O       -2.0220451549    -0.1814769445    -1.3975430213
|  9>  C        1.1121976046    -0.5790471265    -0.8739414913
| 10>  C        2.0984458407    -0.1842505236     0.2800293332
| 11>  C        0.8798435930    -0.6335660273     1.1569732990
| 12>  C        0.8271580763    -2.1135082847     0.7525905936
| 13>  C        0.9813433316    -2.0778034927    -0.5754141545
| 14>  H        0.8162138916     2.0730588092    -0.0208832891
| 15>  H       -0.7630824015     1.8760323129    -0.7889796704
| 16>  H       -0.6342175696     1.8990392858     0.9714654635
| 17>  H       -1.5103327326    -1.5959453396     0.0433419435
| 18>  H       -2.1273430928    -0.0394950515     0.6114294818
| 19>  H       -1.5360916386    -0.6838107687    -2.0594502611
| 20>  H        1.2636062190    -0.2554892031    -1.9047750314
| 21>  H        3.0015903007    -0.7912526324     0.3659863771
| 22>  H        2.3469952225     0.8753714268     0.3406561940
| 23>  H        0.7884182544    -0.3729162198     2.2120802792
| 24>  H        0.6866338566    -2.9566991327     1.4140616555
| 25>  H        1.0023038819    -2.8844320763    -1.2949036799
| 26> *
| 27>
| 28>                          ****END OF INPUT****

CARTESIAN COORDINATES (ANGSTROEM)
---------------------------------
  C     -0.141755    1.557876    0.052943
  C     -0.045727    0.027044    0.043371
  C     -1.470870   -0.515825   -0.125805
  O     -2.022045   -0.181477   -1.397543
  C      1.112198   -0.579047   -0.873941
  C      2.098446   -0.184251    0.280029
  C      0.879844   -0.633566    1.156973
  C      0.827158   -2.113508    0.752591
  C      0.981343   -2.077803   -0.575414
  H      0.816214    2.073059   -0.020883
  H     -0.763082    1.876032   -0.788980
  H     -0.634218    1.899039    0.971465
  H     -1.510333   -1.595945    0.043342
  H     -2.127343   -0.039495    0.611429
  H     -1.536092   -0.683811   -2.059450
  H      1.263606   -0.255489   -1.904775
  H      3.001590   -0.791253    0.365986
  H      2.346995    0.875371    0.340656
  H      0.788418   -0.372916    2.212080
  H      0.686634   -2.956699    1.414062
  H      1.002304   -2.884432   -1.294904

 Total Charge           Charge          ....    0
 Multiplicity           Mult            ....    1
 Number of Electrons    NEL             ....   68
 Basis Dimension        Dim             ....  351

ORBITAL ENERGIES
----------------

  NO   OCC          E(Eh)            E(eV)
   0   2.0000     -20.549641      -559.1842
   1   2.0000     -11.262552      -306.4696
   2   2.0000     -11.242881      -305.9343
   3   2.0000     -11.241274      -305.8906
   4   2.0000     -11.240913      -305.8808
   5   2.0000     -11.227116      -305.5053
   6   2.0000     -11.226925      -305.5002
   7   2.0000     -11.224821      -305.4429
   8   2.0000     -11.208084      -304.9875
   9   2.0000      -1.352563       -36.8051
  10   2.0000      -1.196899       -32.5693
  11   2.0000      -1.028562       -27.9886
  12   2.0000      -0.966401       -26.2971
  13   2.0000      -0.918686       -24.9987
  14   2.0000      -0.909425       -24.7467
  15   2.0000      -0.832731       -22.6598
  16   2.0000      -0.722460       -19.6591
  17   2.0000      -0.719174       -19.5697
  18   2.0000      -0.693982       -18.8842
  19   2.0000      -0.677066       -18.4239
  20   2.0000      -0.651763       -17.7354
  21   2.0000      -0.605296       -16.4710
  22   2.0000      -0.568906       -15.4807
  23   2.0000      -0.553965       -15.0742
  24   2.0000      -0.546151       -14.8615
  25   2.0000      -0.533595       -14.5199
  26   2.0000      -0.520470       -14.1627
  27   2.0000      -0.492976       -13.4146
  28   2.0000      -0.484424       -13.1819
  29   2.0000      -0.460236       -12.5237
  30   2.0000      -0.451674       -12.2907
  31   2.0000      -0.424920       -11.5626
  32   2.0000      -0.417194       -11.3524
  33   2.0000      -0.331618        -9.0238
  34   0.0000       0.126936         3.4541
  35   0.0000       0.141206         3.8424
  36   0.0000       0.159322         4.3354
  37   0.0000       0.169624         4.6157
  38   0.0000       0.174708         4.7540

MULLIKEN ATOMIC CHARGES
-----------------------
   0 C :   -0.447318
   1 C :    0.016156
   2 C :   -0.036114
   3 O :   -0.476643
   4 C :   -0.068779
   5 C :   -0.239980
   6 C :   -0.007481
   7 C :   -0.252453
   8 C :   -0.219106
   9 H :    0.125354
  10 H :    0.158696
  11 H :    0.130688
  12 H :    0.132975
  13 H :    0.105848
  14 H :    0.313465
  15 H :    0.133877
  16 H :    0.117960
  17 H :    0.118159
  18 H :    0.130387
  19 H :    0.132055
  20 H :    0.132253
Sum of atomic charges:    0.0000000

LOEWDIN ATOMIC CHARGES
----------------------
   0 C :   -0.271722
   1 C :   -0.220272
   2 C :   -0.303827
   3 O :   -0.046905
   4 C :   -0.158120
   5 C :   -0.178774
   6 C :   -0.148430
   7 C :   -0.133872
   8 C :   -0.141041
   9 H :    0.120946
  10 H :    0.134930
  11 H :    0.127910
  12 H :    0.124965
  13 H :    0.132845
  14 H :    0.172977
  15 H :    0.132986
  16 H :    0.128884
  17 H :    0.127380
  18 H :    0.133701
  19 H :    0.133064
  20 H :    0.132376

  Mayer bond orders larger than 0.1
B(  0-C ,  1-C ) :   0.9106 B(  0-C ,  9-H ) :   0.9307 B(  0-C , 10-H ) :   0.9350
B(  0-C , 11-H ) :   0.9342 B(  1-C ,  2-C ) :   0.9270 B(  1-C ,  4-C ) :   0.8782
B(  1-C ,  6-C ) :   0.8667 B(  2-C ,  3-O ) :   0.8994 B(  2-C , 12-H ) :   0.9337
B(  2-C , 13-H ) :   0.9169 B(  3-O , 14-H ) :   0.8493 B(  4-C ,  5-C ) :   0.9289
B(  4-C ,  8-C ) :   0.8975 B(  4-C , 15-H ) :   0.9055 B(  5-C ,  6-C ) :   0.9192
B(  5-C , 16-H ) :   0.9193 B(  5-C , 17-H ) :   0.9289 B(  6-C ,  7-C ) :   0.8952
B(  6-C , 18-H ) :   0.9021 B(  7-C ,  8-C ) :   1.7466 B(  7-C , 19-H ) :   0.9427
B(  8-C , 20-H ) :   0.9416

MP2 TOTAL ENERGY:     -386.377339364 Eh
FINAL SINGLE POINT ENERGY      -386.377339363746

DIPOLE MOMENT
-------------
                                X             Y             Z
Electronic contribution:     -0.60844      -3.02237      -1.02604
Nuclear contribution   :      1.10654       2.76956       1.14098
                        -----------------------------------------
Total Dipole Moment    :      0.49809      -0.25282       0.11494
                        -----------------------------------------
Magnitude (a.u.)       :      0.57029
Magnitude (Debye)      :      1.44955

                             ****ORCA TERMINATED NORMALLY****
TOTAL RUN TIME: 0 days 0 hours 20 minutes 1 seconds 104 msec
