                         Program Version 3.0.3 - RELEASE   -
|  1> ! RI-MP2 RIJK def2-TZVP def2-TZVP/C def2-TZVP/JK TIGHTSCF
|  2> % maxcore 2000
|  3> % mp2 density relaxed end
|  4> *xyz 0 1
|  5>  C       -0.2797616336     1.3142809911    -0.3221757867
|  6>  N        0.9810299041     1.2617592563     0.4197107074
|  7>  C        0.2602217963    -0.0040912414     0.1312504361
|  8>  C       -0.3079122986    -0.7141973382     1.2419083656
|  9>  C       -0.8005889780    -1.3223461431     2.1585553262
| 10>  C       -1.3668748954    -2.0653366590     3.2495671874
| 11>  C       -1.8657045679    -1.3971271689     4.4683155276
| 12>  O       -2.7751091921    -1.9124177485     3.5057528966
| 13>  H       -1.1096112806     1.7544290935     0.2212662879
| 14>  H       -0.2653131298     1.5202070510    -1.3893058700
| 15>  H        1.7671185628     1.3456002168    -0.2203081943
| 16>  H        0.6739291935    -0.6387967409    -0.6496375249
| 17>  H       -1.0163769750    -3.0922747191     3.3479688525
| 18>  H       -1.8264085907    -1.9300261363     5.4177264645
| 19>  H       -1.8103496651    -0.3121497933     4.5312392641
| 20> *
| 21>
| 22>                          ****END OF INPUT****

CARTESIAN COORDINATES (ANGSTROEM)
---------------------------------
  C     -0.279762    1.314281   -0.322176
  N      0.981030    1.261759    0.419711
  C      0.260222   -0.004091    0.131250
  C     -0.307912   -0.714197    1.241908
  C     -0.800589   -1.322346    2.158555
  C     -1.366875   -2.065337    3.249567
  C     -1.865705   -1.397127    4.468316
  O     -2.775109   -1.912418    3.505753
  H     -1.109611    1.754429    0.221266
  H     -0.265313    1.520207   -1.389306
  H      1.767119    1.345600   -0.220308
  H      0.673929   -0.638797   -0.649638
  H     -1.016377   -3.092275    3.347969
  H     -1.826409   -1.930026    5.417726
  H     -1.810350   -0.312150    4.531239

 Total Charge           Charge          ....    0
 Multiplicity           Mult            ....    1
 Number of Electrons    NEL             ....   58
 Basis Dimension        Dim             ....  290

ORBITAL ENERGIES
----------------

  NO   OCC          E(Eh)            E(eV)
   0   2.0000     -20.577621      -559.9455
   1   2.0000     -15.575283      -423.8250
   2   2.0000     -11.312663      -307.8332
   3   2.0000     -11.292983      -307.2977
   4   2.0000     -11.291607      -307.2602
   5   2.0000     -11.272160      -306.7311
   6   2.0000     -11.237240      -305.7808
   7   2.0000     -11.231087      -305.6134
   8   2.0000      -1.419703       -38.6321
   9   2.0000      -1.276686       -34.7404
  10   2.0000      -1.056860       -28.7586
  11   2.0000      -0.962611       -26.1940
  12   2.0000      -0.914653       -24.8890
  13   2.0000      -0.886629       -24.1264
  14   2.0000      -0.858160       -23.3517
  15   2.0000      -0.733245       -19.9526
  16   2.0000      -0.721643       -19.6369
  17   2.0000      -0.686495       -18.6805
  18   2.0000      -0.672440       -18.2980
  19   2.0000      -0.580258       -15.7896
  20   2.0000      -0.565366       -15.3844
  21   2.0000      -0.563436       -15.3319
  22   2.0000      -0.520921       -14.1750
  23   2.0000      -0.510148       -13.8818
  24   2.0000      -0.482717       -13.1354
  25   2.0000      -0.463781       -12.6201
  26   2.0000      -0.427067       -11.6211
  27   2.0000      -0.380310       -10.3488
  28   2.0000      -0.361571        -9.8389
  29   0.0000       0.126533         3.4431
  30   0.0000       0.148803         4.0491
  31   0.0000       0.157185         4.2772
  32   0.0000       0.179410         4.8820
  33   0.0000       0.182153         4.9566

MULLIKEN ATOMIC CHARGES
-----------------------
   0 C :   -0.130781
   1 N :   -0.343393
   2 C :   -0.256967
   3 C :    0.114197
   4 C :    0.069044
   5 C :   -0.141124
   6 C :   -0.028097
   7 O :   -0.308785
   8 H :    0.137363
   9 H :    0.130156
  10 H :    0.222496
  11 H :    0.146013
  12 H :    0.142355
  13 H :    0.118291
  14 H :    0.129233
Sum of atomic charges:   -0.0000000

LOEWDIN ATOMIC CHARGES
----------------------
   0 C :   -0.245798
   1 N :   -0.005520
   2 C :   -0.266698
   3 C :   -0.036622
   4 C :   -0.044728
   5 C :   -0.277778
   6 C :   -0.249568
   7 O :    0.156098
   8 H :    0.131614
   9 H :    0.121453
  10 H :    0.167814
  11 H :    0.152749
  12 H :    0.151838
  13 H :    0.119776
  14 H :    0.125371

  Mayer bond orders larger than 0.1
B(  0-C ,  1-N ) :   0.9209 B(  0-C ,  2-C ) :   0.9116 B(  0-C ,  8-H ) :   0.9291
B(  0-C ,  9-H ) :   0.9210 B(  1-N ,  2-C ) :   1.0078 B(  1-N , 10-H ) :   0.8689
B(  2-C ,  3-C ) :   1.0417 B(  2-C ,  4-C ) :  -0.1358 B(  2-C , 11-H ) :   0.9393
B(  3-C ,  4-C ) :   2.6487 B(  3-C ,  5-C ) :  -0.1175 B(  4-C ,  5-C ) :   1.0368
B(  5-C ,  6-C ) :   0.9762 B(  5-C ,  7-O ) :   0.9694 B(  5-C , 12-H ) :   0.9361
B(  6-C ,  7-O ) :   0.8999 B(  6-C , 13-H ) :   0.9168 B(  6-C , 14-H ) :   0.9182

MP2 TOTAL ENERGY:     -361.938180550 Eh
FINAL SINGLE POINT ENERGY      -361.938180550074

DIPOLE MOMENT
-------------
                                X             Y             Z
Electronic contribution:     -1.19089      -2.55660       1.24732
Nuclear contribution   :      1.82968       2.60883      -1.73161
                        -----------------------------------------
Total Dipole Moment    :      0.63879       0.05223      -0.48429
                        -----------------------------------------
Magnitude (a.u.)       :      0.80331
Magnitude (Debye)      :      2.04186

                             ****ORCA TERMINATED NORMALLY****
TOTAL RUN TIME: 0 days 0 hours 9 minutes 4 seconds 501 msec
