                         Program Version 3.0.3 - RELEASE   -
|  1> ! RI-MP2 RIJK def2-TZVP def2-TZVP/C def2-TZVP/JK TIGHTSCF
|  2> % maxcore 2000
|  3> % mp2 density relaxed end
|  4> *xyz 0 1
|  5>  C       -0.0328912414     1.4301058938     0.0324648270
|  6>  N       -0.0137816790    -0.0228003982     0.0009380652
|  7>  C       -0.1171509603    -0.7281621078     1.2705527412
|  8>  C        0.0068364518    -0.6899352625    -1.1811519476
|  9>  C        0.0347758970    -0.0195656599    -2.4372281686
| 10>  N        0.0696858372    -0.6754668453    -3.5785353305
| 11>  N        0.0769274700    -2.0161136613    -3.5744896413
| 12>  C        0.0404210054    -2.6036773761    -2.3822117547
| 13>  N        0.0029800504    -2.0283789023    -1.1822944689
| 14>  H        0.8135487442     1.8566385541    -0.5170502650
| 15>  H       -0.9603931488     1.8425770306    -0.3856620434
| 16>  H        0.0441119954     1.7553922349     1.0707082692
| 17>  H       -1.0670229666    -0.4970115617     1.7689184185
| 18>  H       -0.0642852406    -1.7984150058     1.0836091204
| 19>  H        0.7030140247    -0.4349728893     1.9357482197
| 20>  H        0.0237343307     1.0612408874    -2.5180858383
| 21>  H        0.0404125799    -3.6911082106    -2.3984492929
| 22> *
| 23>
| 24>                          ****END OF INPUT****

CARTESIAN COORDINATES (ANGSTROEM)
---------------------------------
  C     -0.032891    1.430106    0.032465
  N     -0.013782   -0.022800    0.000938
  C     -0.117151   -0.728162    1.270553
  C      0.006836   -0.689935   -1.181152
  C      0.034776   -0.019566   -2.437228
  N      0.069686   -0.675467   -3.578535
  N      0.076927   -2.016114   -3.574490
  C      0.040421   -2.603677   -2.382212
  N      0.002980   -2.028379   -1.182294
  H      0.813549    1.856639   -0.517050
  H     -0.960393    1.842577   -0.385662
  H      0.044112    1.755392    1.070708
  H     -1.067023   -0.497012    1.768918
  H     -0.064285   -1.798415    1.083609
  H      0.703014   -0.434973    1.935748
  H      0.023734    1.061241   -2.518086
  H      0.040413   -3.691108   -2.398449

 Total Charge           Charge          ....    0
 Multiplicity           Mult            ....    1
 Number of Electrons    NEL             ....   66
 Basis Dimension        Dim             ....  327

ORBITAL ENERGIES
----------------

  NO   OCC          E(Eh)            E(eV)
   0   2.0000     -15.623607      -425.1400
   1   2.0000     -15.604377      -424.6167
   2   2.0000     -15.582748      -424.0281
   3   2.0000     -15.570824      -423.7037
   4   2.0000     -11.346981      -308.7670
   5   2.0000     -11.309165      -307.7380
   6   2.0000     -11.282843      -307.0218
   7   2.0000     -11.274375      -306.7914
   8   2.0000     -11.269447      -306.6572
   9   2.0000      -1.363371       -37.0992
  10   2.0000      -1.298702       -35.3395
  11   2.0000      -1.218128       -33.1469
  12   2.0000      -1.111741       -30.2520
  13   2.0000      -0.996825       -27.1250
  14   2.0000      -0.971262       -26.4294
  15   2.0000      -0.904974       -24.6256
  16   2.0000      -0.849736       -23.1225
  17   2.0000      -0.740172       -20.1411
  18   2.0000      -0.732425       -19.9303
  19   2.0000      -0.669301       -18.2126
  20   2.0000      -0.668341       -18.1865
  21   2.0000      -0.638996       -17.3880
  22   2.0000      -0.619191       -16.8490
  23   2.0000      -0.591319       -16.0906
  24   2.0000      -0.579972       -15.7818
  25   2.0000      -0.574036       -15.6203
  26   2.0000      -0.555455       -15.1147
  27   2.0000      -0.497078       -13.5262
  28   2.0000      -0.476715       -12.9721
  29   2.0000      -0.470550       -12.8043
  30   2.0000      -0.420982       -11.4555
  31   2.0000      -0.393829       -10.7166
  32   2.0000      -0.334846        -9.1116
  33   0.0000       0.086302         2.3484
  34   0.0000       0.119377         3.2484
  35   0.0000       0.127552         3.4709
  36   0.0000       0.156134         4.2486
  37   0.0000       0.179112         4.8739

MULLIKEN ATOMIC CHARGES
-----------------------
   0 C :   -0.358970
   1 N :   -0.071606
   2 C :   -0.332980
   3 C :    0.263715
   4 C :   -0.148067
   5 N :   -0.113678
   6 N :   -0.164269
   7 C :    0.028170
   8 N :   -0.313979
   9 H :    0.154466
  10 H :    0.154619
  11 H :    0.158834
  12 H :    0.140342
  13 H :    0.182913
  14 H :    0.140674
  15 H :    0.144337
  16 H :    0.135479
Sum of atomic charges:    0.0000000

LOEWDIN ATOMIC CHARGES
----------------------
   0 C :   -0.288696
   1 N :    0.155826
   2 C :   -0.288379
   3 C :   -0.292084
   4 C :   -0.212391
   5 N :    0.054843
   6 N :    0.025912
   7 C :   -0.320750
   8 N :    0.136994
   9 H :    0.123549
  10 H :    0.121363
  11 H :    0.129594
  12 H :    0.119010
  13 H :    0.134276
  14 H :    0.119430
  15 H :    0.145226
  16 H :    0.136276

  Mayer bond orders larger than 0.1
B(  0-C ,  1-N ) :   0.8757 B(  0-C ,  9-H ) :   0.9292 B(  0-C , 10-H ) :   0.9278
B(  0-C , 11-H ) :   0.9322 B(  1-N ,  2-C ) :   0.8589 B(  1-N ,  3-C ) :   1.2108
B(  2-C , 12-H ) :   0.9312 B(  2-C , 13-H ) :   0.9225 B(  2-C , 14-H ) :   0.9316
B(  3-C ,  4-C ) :   1.1435 B(  3-C ,  8-N ) :   1.2878 B(  4-C ,  5-N ) :   1.6058
B(  4-C , 15-H ) :   0.9369 B(  5-N ,  6-N ) :   1.0415 B(  6-N ,  7-C ) :   1.4702
B(  7-C ,  8-N ) :   1.3883 B(  7-C , 16-H ) :   0.9338

MP2 TOTAL ENERGY:     -413.478482918 Eh
FINAL SINGLE POINT ENERGY      -413.478482918474

DIPOLE MOMENT
-------------
                                X             Y             Z
Electronic contribution:      0.39862      -4.92569      -8.47368
Nuclear contribution   :     -0.47455       5.98628      10.48835
                        -----------------------------------------
Total Dipole Moment    :     -0.07593       1.06059       2.01467
                        -----------------------------------------
Magnitude (a.u.)       :      2.27805
Magnitude (Debye)      :      5.79035

                             ****ORCA TERMINATED NORMALLY****
TOTAL RUN TIME: 0 days 0 hours 19 minutes 0 seconds 960 msec
