                         Program Version 3.0.3 - RELEASE   -
|  1> ! RI-MP2 RIJK def2-TZVP def2-TZVP/C def2-TZVP/JK TIGHTSCF
|  2> % maxcore 2000
|  3> % mp2 density relaxed end
|  4> *xyz 0 1
|  5>  O       -0.0973203270     0.0073471793     0.1423574289
|  6>  C       -0.0418030289     1.2024314280     0.0958534136
|  7>  N       -0.9920817192     2.2031791369     0.1277309243
|  8>  C       -0.0692641205     3.3418956623     0.0661932053
|  9>  C        1.0523903883     2.2853731929    -0.0300013586
| 10>  O        2.2718572037     2.3178274444     0.6534120089
| 11>  C        2.3138744249     2.2894550960    -0.7931493574
| 12>  C        2.8367042834     1.1127260520    -1.4265696275
| 13>  C        3.2971936004     0.1555929314    -1.9873874404
| 14>  H       -1.9980938813     2.1617580315     0.1695787644
| 15>  H       -0.1959885020     3.9856535341    -0.8097412572
| 16>  H       -0.0297184269     3.9454949181     0.9782549397
| 17>  H        2.6207333014     3.2374803409    -1.2342409699
| 18>  H        3.6865769339    -0.7065592778    -2.4707019242
| 19> *
| 20>
| 21>                          ****END OF INPUT****

CARTESIAN COORDINATES (ANGSTROEM)
---------------------------------
  O     -0.097320    0.007347    0.142357
  C     -0.041803    1.202431    0.095853
  N     -0.992082    2.203179    0.127731
  C     -0.069264    3.341896    0.066193
  C      1.052390    2.285373   -0.030001
  O      2.271857    2.317827    0.653412
  C      2.313874    2.289455   -0.793149
  C      2.836704    1.112726   -1.426570
  C      3.297194    0.155593   -1.987387
  H     -1.998094    2.161758    0.169579
  H     -0.195989    3.985654   -0.809741
  H     -0.029718    3.945495    0.978255
  H      2.620733    3.237480   -1.234241
  H      3.686577   -0.706559   -2.470702

 Total Charge           Charge          ....    0
 Multiplicity           Mult            ....    1
 Number of Electrons    NEL             ....   64
 Basis Dimension        Dim             ....  309

ORBITAL ENERGIES
----------------

  NO   OCC          E(Eh)            E(eV)
   0   2.0000     -20.605766      -560.7114
   1   2.0000     -20.539265      -558.9018
   2   2.0000     -15.600805      -424.5195
   3   2.0000     -11.365976      -309.2839
   4   2.0000     -11.337868      -308.5191
   5   2.0000     -11.330876      -308.3288
   6   2.0000     -11.298603      -307.4506
   7   2.0000     -11.247595      -306.0626
   8   2.0000     -11.243116      -305.9407
   9   2.0000      -1.454676       -39.5838
  10   2.0000      -1.398921       -38.0666
  11   2.0000      -1.281687       -34.8765
  12   2.0000      -1.062777       -28.9196
  13   2.0000      -0.997190       -27.1349
  14   2.0000      -0.948631       -25.8136
  15   2.0000      -0.914781       -24.8925
  16   2.0000      -0.797502       -21.7011
  17   2.0000      -0.751941       -20.4613
  18   2.0000      -0.710782       -19.3414
  19   2.0000      -0.691035       -18.8040
  20   2.0000      -0.676809       -18.4169
  21   2.0000      -0.662214       -18.0198
  22   2.0000      -0.636395       -17.3172
  23   2.0000      -0.582088       -15.8394
  24   2.0000      -0.566468       -15.4144
  25   2.0000      -0.552378       -15.0310
  26   2.0000      -0.506572       -13.7845
  27   2.0000      -0.499229       -13.5847
  28   2.0000      -0.425979       -11.5915
  29   2.0000      -0.412946       -11.2368
  30   2.0000      -0.409057       -11.1310
  31   2.0000      -0.390583       -10.6283
  32   0.0000       0.129004         3.5104
  33   0.0000       0.136817         3.7230
  34   0.0000       0.138550         3.7701
  35   0.0000       0.153755         4.1839
  36   0.0000       0.165075         4.4919

MULLIKEN ATOMIC CHARGES
-----------------------
   0 O :   -0.288791
   1 C :    0.210891
   2 N :   -0.322299
   3 C :   -0.075346
   4 C :    0.186803
   5 O :   -0.290931
   6 C :   -0.251157
   7 C :    0.050098
   8 C :   -0.070575
   9 H :    0.245984
  10 H :    0.128330
  11 H :    0.132549
  12 H :    0.143931
  13 H :    0.200513
Sum of atomic charges:    0.0000000

LOEWDIN ATOMIC CHARGES
----------------------
   0 O :    0.130535
   1 C :   -0.406195
   2 N :    0.127720
   3 C :   -0.203551
   4 C :   -0.247969
   5 O :    0.228562
   6 C :   -0.215184
   7 C :   -0.082260
   8 C :   -0.053244
   9 H :    0.173256
  10 H :    0.127814
  11 H :    0.131194
  12 H :    0.158208
  13 H :    0.131117

  Mayer bond orders larger than 0.1
B(  0-O ,  1-C ) :   2.0357 B(  1-C ,  2-N ) :   1.1593 B(  1-C ,  4-C ) :   0.8060
B(  2-N ,  3-C ) :   0.9078 B(  2-N ,  9-H ) :   0.8583 B(  3-C ,  4-C ) :   0.8740
B(  3-C , 10-H ) :   0.9203 B(  3-C , 11-H ) :   0.9210 B(  4-C ,  5-O ) :   0.9366
B(  4-C ,  6-C ) :   0.9360 B(  5-O ,  6-C ) :   0.9293 B(  6-C ,  7-C ) :   1.1375
B(  6-C ,  8-C ) :  -0.1238 B(  6-C , 12-H ) :   0.9437 B(  7-C ,  8-C ) :   2.5941
B(  8-C , 13-H ) :   0.8853

MP2 TOTAL ENERGY:     -435.899910632 Eh
FINAL SINGLE POINT ENERGY      -435.899910631523

DIPOLE MOMENT
-------------
                                X             Y             Z
Electronic contribution:      0.86744      -2.62923       1.05569
Nuclear contribution   :     -1.43144       3.99931      -1.69445
                        -----------------------------------------
Total Dipole Moment    :     -0.56400       1.37007      -0.63876
                        -----------------------------------------
Magnitude (a.u.)       :      1.61345
Magnitude (Debye)      :      4.10106

                             ****ORCA TERMINATED NORMALLY****
TOTAL RUN TIME: 0 days 0 hours 13 minutes 56 seconds 903 msec
