                         Program Version 3.0.3 - RELEASE   -
|  1> ! RI-MP2 RIJK def2-TZVP def2-TZVP/C def2-TZVP/JK TIGHTSCF
|  2> % maxcore 2000
|  3> % mp2 density relaxed end
|  4> *xyz 0 1
|  5>  C       -0.1230660049     1.5120224626     0.1330416595
|  6>  C        0.1321885535     0.0263774501    -0.0144224399
|  7>  C        1.4681281244    -0.6135534433    -0.2860598358
|  8>  C        2.6089284186     0.0753326778     0.4687674219
|  9>  C        1.8388829830    -0.1800718542     1.8216228900
| 10>  C        0.7267599957    -0.8754922536     1.0334512690
| 11>  C        2.6255336923    -1.0789238407     2.7535843493
| 12>  C        3.7003424067    -0.3930896733     3.5815026454
| 13>  O        2.4211416061    -2.2696444315     2.8308612111
| 14>  H        0.6847866411     2.0280865673     0.6588352507
| 15>  H       -0.2285638268     1.9863814372    -0.8488097857
| 16>  H       -1.0477659239     1.6951532459     0.6914245686
| 17>  H       -0.6610846237    -0.4837365749    -0.5589320788
| 18>  H        1.6158207144    -1.2879121971    -1.1210704032
| 19>  H        3.5400335698    -0.4951069476     0.4188947462
| 20>  H        2.8265024848     1.1177965699     0.2152837365
| 21>  H        1.5565219003     0.7317276105     2.3618144888
| 22>  H        0.2480884293    -1.7859439642     1.3690783201
| 23>  H        4.3097414922     0.2756031353     2.9645377278
| 24>  H        3.2266696425     0.2279516246     4.3512215297
| 25>  H        4.3321995846    -1.1392041607     4.0648196589
| 26> *
| 27>
| 28>                          ****END OF INPUT****

CARTESIAN COORDINATES (ANGSTROEM)
---------------------------------
  C     -0.123066    1.512022    0.133042
  C      0.132189    0.026377   -0.014422
  C      1.468128   -0.613553   -0.286060
  C      2.608928    0.075333    0.468767
  C      1.838883   -0.180072    1.821623
  C      0.726760   -0.875492    1.033451
  C      2.625534   -1.078924    2.753584
  C      3.700342   -0.393090    3.581503
  O      2.421142   -2.269644    2.830861
  H      0.684787    2.028087    0.658835
  H     -0.228564    1.986381   -0.848810
  H     -1.047766    1.695153    0.691425
  H     -0.661085   -0.483737   -0.558932
  H      1.615821   -1.287912   -1.121070
  H      3.540034   -0.495107    0.418895
  H      2.826502    1.117797    0.215284
  H      1.556522    0.731728    2.361814
  H      0.248088   -1.785944    1.369078
  H      4.309741    0.275603    2.964538
  H      3.226670    0.227952    4.351222
  H      4.332200   -1.139204    4.064820

 Total Charge           Charge          ....    0
 Multiplicity           Mult            ....    1
 Number of Electrons    NEL             ....   68
 Basis Dimension        Dim             ....  351

ORBITAL ENERGIES
----------------

  NO   OCC          E(Eh)            E(eV)
   0   2.0000     -20.539572      -558.9102
   1   2.0000     -11.326037      -308.1971
   2   2.0000     -11.242500      -305.9240
   3   2.0000     -11.240077      -305.8581
   4   2.0000     -11.236252      -305.7540
   5   2.0000     -11.233131      -305.6690
   6   2.0000     -11.232173      -305.6430
   7   2.0000     -11.229736      -305.5766
   8   2.0000     -11.219414      -305.2958
   9   2.0000      -1.383558       -37.6485
  10   2.0000      -1.195083       -32.5199
  11   2.0000      -1.041761       -28.3478
  12   2.0000      -0.996711       -27.1219
  13   2.0000      -0.945990       -25.7417
  14   2.0000      -0.911872       -24.8133
  15   2.0000      -0.783272       -21.3139
  16   2.0000      -0.754186       -20.5224
  17   2.0000      -0.718576       -19.5535
  18   2.0000      -0.687670       -18.7125
  19   2.0000      -0.647605       -17.6222
  20   2.0000      -0.620304       -16.8793
  21   2.0000      -0.613282       -16.6883
  22   2.0000      -0.592114       -16.1122
  23   2.0000      -0.574170       -15.6240
  24   2.0000      -0.568348       -15.4655
  25   2.0000      -0.552620       -15.0376
  26   2.0000      -0.537744       -14.6328
  27   2.0000      -0.518791       -14.1170
  28   2.0000      -0.494365       -13.4524
  29   2.0000      -0.470765       -12.8102
  30   2.0000      -0.461310       -12.5529
  31   2.0000      -0.417986       -11.3740
  32   2.0000      -0.393937       -10.7196
  33   2.0000      -0.375929       -10.2295
  34   0.0000       0.125564         3.4168
  35   0.0000       0.147811         4.0222
  36   0.0000       0.153160         4.1677
  37   0.0000       0.159147         4.3306
  38   0.0000       0.169884         4.6228

MULLIKEN ATOMIC CHARGES
-----------------------
   0 C :   -0.396577
   1 C :   -0.056418
   2 C :   -0.124210
   3 C :   -0.289070
   4 C :   -0.023556
   5 C :   -0.142365
   6 C :    0.142643
   7 C :   -0.425152
   8 O :   -0.290895
   9 H :    0.128296
  10 H :    0.134492
  11 H :    0.134338
  12 H :    0.117326
  13 H :    0.131601
  14 H :    0.130766
  15 H :    0.124545
  16 H :    0.114312
  17 H :    0.142914
  18 H :    0.145842
  19 H :    0.146734
  20 H :    0.154436
Sum of atomic charges:    0.0000000

LOEWDIN ATOMIC CHARGES
----------------------
   0 C :   -0.291736
   1 C :   -0.217969
   2 C :   -0.162881
   3 C :   -0.185190
   4 C :   -0.183599
   5 C :   -0.138679
   6 C :   -0.332771
   7 C :   -0.278082
   8 O :    0.150905
   9 H :    0.124052
  10 H :    0.126475
  11 H :    0.126688
  12 H :    0.159068
  13 H :    0.135027
  14 H :    0.141531
  15 H :    0.126801
  16 H :    0.152252
  17 H :    0.142458
  18 H :    0.134470
  19 H :    0.138427
  20 H :    0.132753

  Mayer bond orders larger than 0.1
B(  0-C ,  1-C ) :   0.9122 B(  0-C ,  9-H ) :   0.9351 B(  0-C , 10-H ) :   0.9384
B(  0-C , 11-H ) :   0.9385 B(  1-C ,  2-C ) :   0.8791 B(  1-C ,  5-C ) :   0.8530
B(  1-C , 12-H ) :   0.9351 B(  2-C ,  3-C ) :   0.9399 B(  2-C ,  5-C ) :   0.8610
B(  2-C , 13-H ) :   0.9198 B(  3-C ,  4-C ) :   0.9022 B(  3-C , 14-H ) :   0.9184
B(  3-C , 15-H ) :   0.9228 B(  4-C ,  5-C ) :   0.8943 B(  4-C ,  6-C ) :   0.8518
B(  4-C ,  8-O ) :  -0.1280 B(  4-C , 16-H ) :   0.9069 B(  5-C , 17-H ) :   0.9136
B(  6-C ,  7-C ) :   0.9412 B(  6-C ,  8-O ) :   2.0329 B(  7-C , 18-H ) :   0.9206
B(  7-C , 19-H ) :   0.9151 B(  7-C , 20-H ) :   0.9398

MP2 TOTAL ENERGY:     -386.400045261 Eh
FINAL SINGLE POINT ENERGY      -386.400045261216

DIPOLE MOMENT
-------------
                                X             Y             Z
Electronic contribution:      0.46553      -6.37777       1.88005
Nuclear contribution   :     -0.35567       7.35869      -2.08465
                        -----------------------------------------
Total Dipole Moment    :      0.10986       0.98092      -0.20460
                        -----------------------------------------
Magnitude (a.u.)       :      1.00803
Magnitude (Debye)      :      2.56222

                             ****ORCA TERMINATED NORMALLY****
TOTAL RUN TIME: 0 days 0 hours 19 minutes 20 seconds 261 msec
