                         Program Version 3.0.3 - RELEASE   -
|  1> ! RI-MP2 RIJK def2-TZVP def2-TZVP/C def2-TZVP/JK TIGHTSCF
|  2> % maxcore 2000
|  3> % mp2 density relaxed end
|  4> *xyz 0 1
|  5>  N        0.0872719493     1.5280549434    -0.1617244197
|  6>  C        0.0159788672     0.1045602316    -0.0227134764
|  7>  C       -1.2873538365    -0.6074995662     0.2073751339
|  8>  C       -2.6307846985     0.1034433152     0.2428870604
|  9>  O       -3.6387822792    -0.6295058560    -0.4259488980
| 10>  C       -0.5988352462    -0.7722307253    -1.1406174374
| 11>  O       -1.2436066906    -0.0958344970    -2.1891323507
| 12>  C        0.0154853390    -2.0221554518    -1.5003901561
| 13>  N        0.5514862056    -3.0049351931    -1.7969516890
| 14>  H        0.9990189655     1.7975147474    -0.5176251503
| 15>  H       -0.6030266899     1.8607571687    -0.8269928706
| 16>  H        0.8817955524    -0.3130824792     0.4806631739
| 17>  H       -1.2363534108    -1.4875924391     0.8403930942
| 18>  H       -2.9521363416     0.1931328130     1.2850652246
| 19>  H       -2.5460006848     1.1232426961    -0.1517173963
| 20>  H       -3.3968261110    -0.6459899740    -1.3589516352
| 21>  H       -0.5957328498     0.1045399963    -2.8749672574
| 22> *
| 23>
| 24>                          ****END OF INPUT****

CARTESIAN COORDINATES (ANGSTROEM)
---------------------------------
  N      0.087272    1.528055   -0.161724
  C      0.015979    0.104560   -0.022713
  C     -1.287354   -0.607500    0.207375
  C     -2.630785    0.103443    0.242887
  O     -3.638782   -0.629506   -0.425949
  C     -0.598835   -0.772231   -1.140617
  O     -1.243607   -0.095834   -2.189132
  C      0.015485   -2.022155   -1.500390
  N      0.551486   -3.004935   -1.796952
  H      0.999019    1.797515   -0.517625
  H     -0.603027    1.860757   -0.826993
  H      0.881796   -0.313082    0.480663
  H     -1.236353   -1.487592    0.840393
  H     -2.952136    0.193133    1.285065
  H     -2.546001    1.123243   -0.151717
  H     -3.396826   -0.645990   -1.358952
  H     -0.595733    0.104540   -2.874967

 Total Charge           Charge          ....    0
 Multiplicity           Mult            ....    1
 Number of Electrons    NEL             ....   68
 Basis Dimension        Dim             ....  327

ORBITAL ENERGIES
----------------

  NO   OCC          E(Eh)            E(eV)
   0   2.0000     -20.614448      -560.9477
   1   2.0000     -20.560072      -559.4680
   2   2.0000     -15.583123      -424.0383
   3   2.0000     -15.576812      -423.8666
   4   2.0000     -11.343965      -308.6850
   5   2.0000     -11.304682      -307.6160
   6   2.0000     -11.293312      -307.3067
   7   2.0000     -11.284068      -307.0551
   8   2.0000     -11.266113      -306.5665
   9   2.0000      -1.426334       -38.8125
  10   2.0000      -1.366757       -37.1914
  11   2.0000      -1.240336       -33.7513
  12   2.0000      -1.224667       -33.3249
  13   2.0000      -1.133106       -30.8334
  14   2.0000      -0.972642       -26.4669
  15   2.0000      -0.897232       -24.4149
  16   2.0000      -0.821224       -22.3466
  17   2.0000      -0.790916       -21.5219
  18   2.0000      -0.730647       -19.8819
  19   2.0000      -0.702157       -19.1067
  20   2.0000      -0.674946       -18.3662
  21   2.0000      -0.652097       -17.7445
  22   2.0000      -0.627690       -17.0803
  23   2.0000      -0.602647       -16.3989
  24   2.0000      -0.594080       -16.1657
  25   2.0000      -0.573252       -15.5990
  26   2.0000      -0.566959       -15.4277
  27   2.0000      -0.526702       -14.3323
  28   2.0000      -0.513295       -13.9675
  29   2.0000      -0.498442       -13.5633
  30   2.0000      -0.484089       -13.1727
  31   2.0000      -0.458980       -12.4895
  32   2.0000      -0.439977       -11.9724
  33   2.0000      -0.379335       -10.3222
  34   0.0000       0.095919         2.6101
  35   0.0000       0.138102         3.7579
  36   0.0000       0.147735         4.0201
  37   0.0000       0.158865         4.3229
  38   0.0000       0.170072         4.6279

MULLIKEN ATOMIC CHARGES
-----------------------
   0 N :   -0.511238
   1 C :   -0.098369
   2 C :   -0.109375
   3 C :   -0.009513
   4 O :   -0.473202
   5 C :    0.303131
   6 O :   -0.484293
   7 C :   -0.238008
   8 N :   -0.051973
   9 H :    0.240403
  10 H :    0.240397
  11 H :    0.145623
  12 H :    0.152399
  13 H :    0.129191
  14 H :    0.097709
  15 H :    0.331091
  16 H :    0.336028
Sum of atomic charges:   -0.0000000

LOEWDIN ATOMIC CHARGES
----------------------
   0 N :   -0.123922
   1 C :   -0.241119
   2 C :   -0.162974
   3 C :   -0.318169
   4 O :   -0.036718
   5 C :   -0.332394
   6 O :    0.038714
   7 C :   -0.164544
   8 N :    0.071931
   9 H :    0.163931
  10 H :    0.158962
  11 H :    0.154446
  12 H :    0.163682
  13 H :    0.138161
  14 H :    0.120817
  15 H :    0.177623
  16 H :    0.191572

  Mayer bond orders larger than 0.1
B(  0-N ,  1-C ) :   1.0048 B(  0-N ,  9-H ) :   0.8811 B(  0-N , 10-H ) :   0.8733
B(  1-C ,  2-C ) :   0.8698 B(  1-C ,  5-C ) :   0.8110 B(  1-C , 11-H ) :   0.9190
B(  2-C ,  3-C ) :   0.9430 B(  2-C ,  5-C ) :   0.8215 B(  2-C , 12-H ) :   0.9152
B(  3-C ,  4-O ) :   0.9347 B(  3-C , 13-H ) :   0.9300 B(  3-C , 14-H ) :   0.9216
B(  4-O , 15-H ) :   0.8360 B(  5-C ,  6-O ) :   0.9081 B(  5-C ,  7-C ) :   0.9602
B(  6-O , 16-H ) :   0.8292 B(  7-C ,  8-N ) :   2.8462

MP2 TOTAL ENERGY:     -454.393763456 Eh
FINAL SINGLE POINT ENERGY      -454.393763455620

DIPOLE MOMENT
-------------
                                X             Y             Z
Electronic contribution:      1.70883      -4.99229      -3.11036
Nuclear contribution   :     -1.12654       6.45560       2.85047
                        -----------------------------------------
Total Dipole Moment    :      0.58229       1.46331      -0.25989
                        -----------------------------------------
Magnitude (a.u.)       :      1.59621
Magnitude (Debye)      :      4.05724

                             ****ORCA TERMINATED NORMALLY****
TOTAL RUN TIME: 0 days 0 hours 15 minutes 51 seconds 323 msec
