                         Program Version 3.0.3 - RELEASE   -
|  1> ! RI-MP2 RIJK def2-TZVP def2-TZVP/C def2-TZVP/JK TIGHTSCF
|  2> % maxcore 2000
|  3> % mp2 density relaxed end
|  4> *xyz 0 1
|  5>  C        0.0383177478     1.4439400720    -0.1352416164
|  6>  N        0.3715322683     0.0444760234     0.1127310181
|  7>  C        0.7140736630    -0.7551742574    -0.9633731917
|  8>  C        0.5557424278    -2.0867614270    -1.2128363316
|  9>  C        1.2312507133    -2.3305079318    -2.4621047602
| 10>  N        1.2471951831    -3.5703871786    -3.1260740101
| 11>  C        1.7403450081    -1.1400866059    -2.8838798598
| 12>  C        2.4926699397    -0.6930777065    -4.0813909940
| 13>  O        1.4114724310    -0.1572400481    -1.9512361736
| 14>  H        0.8896679423     1.9407398328    -0.6039911232
| 15>  H       -0.8381406960     1.5802528981    -0.7870409600
| 16>  H       -0.1561399723     1.9309439295     0.8232161110
| 17>  H       -0.2885594778    -0.4211259155     0.7186826206
| 18>  H        0.0205756281    -2.8033322103    -0.6099838063
| 19>  H        1.4186347581    -4.3386445054    -2.4883801283
| 20>  H        1.9389247138    -3.6047060034    -3.8646202599
| 21>  H        2.8153898559    -1.5605016979    -4.6658880600
| 22>  H        1.8963070797    -0.0563402752    -4.7493839874
| 23>  H        3.3922686661    -0.1265253225    -3.8102238173
| 24> *
| 25>
| 26>                          ****END OF INPUT****

CARTESIAN COORDINATES (ANGSTROEM)
---------------------------------
  C      0.038318    1.443940   -0.135242
  N      0.371532    0.044476    0.112731
  C      0.714074   -0.755174   -0.963373
  C      0.555742   -2.086761   -1.212836
  C      1.231251   -2.330508   -2.462105
  N      1.247195   -3.570387   -3.126074
  C      1.740345   -1.140087   -2.883880
  C      2.492670   -0.693078   -4.081391
  O      1.411472   -0.157240   -1.951236
  H      0.889668    1.940740   -0.603991
  H     -0.838141    1.580253   -0.787041
  H     -0.156140    1.930944    0.823216
  H     -0.288559   -0.421126    0.718683
  H      0.020576   -2.803332   -0.609984
  H      1.418635   -4.338645   -2.488380
  H      1.938925   -3.604706   -3.864620
  H      2.815390   -1.560502   -4.665888
  H      1.896307   -0.056340   -4.749384
  H      3.392269   -0.126525   -3.810224

 Total Charge           Charge          ....    0
 Multiplicity           Mult            ....    1
 Number of Electrons    NEL             ....   68
 Basis Dimension        Dim             ....  339

ORBITAL ENERGIES
----------------

  NO   OCC          E(Eh)            E(eV)
   0   2.0000     -20.598099      -560.5028
   1   2.0000     -15.570879      -423.7051
   2   2.0000     -15.555562      -423.2884
   3   2.0000     -11.319814      -308.0278
   4   2.0000     -11.255213      -306.2699
   5   2.0000     -11.253206      -306.2153
   6   2.0000     -11.250200      -306.1335
   7   2.0000     -11.223166      -305.3979
   8   2.0000     -11.198162      -304.7175
   9   2.0000      -1.442070       -39.2407
  10   2.0000      -1.228674       -33.4339
  11   2.0000      -1.201117       -32.6840
  12   2.0000      -1.043823       -28.4039
  13   2.0000      -1.022373       -27.8202
  14   2.0000      -0.941384       -25.6164
  15   2.0000      -0.879005       -23.9190
  16   2.0000      -0.799311       -21.7504
  17   2.0000      -0.750442       -20.4206
  18   2.0000      -0.704039       -19.1579
  19   2.0000      -0.666742       -18.1430
  20   2.0000      -0.645564       -17.5667
  21   2.0000      -0.637386       -17.3442
  22   2.0000      -0.603120       -16.4117
  23   2.0000      -0.594194       -16.1688
  24   2.0000      -0.579575       -15.7710
  25   2.0000      -0.552739       -15.0408
  26   2.0000      -0.543610       -14.7924
  27   2.0000      -0.542485       -14.7618
  28   2.0000      -0.532979       -14.5031
  29   2.0000      -0.511593       -13.9211
  30   2.0000      -0.481647       -13.1063
  31   2.0000      -0.438005       -11.9187
  32   2.0000      -0.341290        -9.2870
  33   2.0000      -0.258853        -7.0437
  34   0.0000       0.133142         3.6230
  35   0.0000       0.140578         3.8253
  36   0.0000       0.160812         4.3759
  37   0.0000       0.168888         4.5957
  38   0.0000       0.188405         5.1268

MULLIKEN ATOMIC CHARGES
-----------------------
   0 C :   -0.278222
   1 N :   -0.329150
   2 C :    0.294803
   3 C :   -0.369620
   4 C :    0.157394
   5 N :   -0.522605
   6 C :    0.086487
   7 C :   -0.439840
   8 O :   -0.253803
   9 H :    0.150571
  10 H :    0.121310
  11 H :    0.135397
  12 H :    0.227701
  13 H :    0.130302
  14 H :    0.246621
  15 H :    0.230711
  16 H :    0.119829
  17 H :    0.145022
  18 H :    0.147092
Sum of atomic charges:   -0.0000000

LOEWDIN ATOMIC CHARGES
----------------------
   0 C :   -0.327094
   1 N :    0.033039
   2 C :   -0.343492
   3 C :   -0.180498
   4 C :   -0.271335
   5 N :   -0.096630
   6 C :   -0.268083
   7 C :   -0.287119
   8 O :    0.350116
   9 H :    0.122138
  10 H :    0.105782
  11 H :    0.116425
  12 H :    0.185918
  13 H :    0.138821
  14 H :    0.166515
  15 H :    0.162235
  16 H :    0.131418
  17 H :    0.129744
  18 H :    0.132098

  Mayer bond orders larger than 0.1
B(  0-C ,  1-N ) :   0.8982 B(  0-C ,  9-H ) :   0.9366 B(  0-C , 10-H ) :   0.9288
B(  0-C , 11-H ) :   0.9363 B(  1-N ,  2-C ) :   1.1202 B(  1-N , 12-H ) :   0.8786
B(  2-C ,  3-C ) :   1.5298 B(  2-C ,  8-O ) :   1.0521 B(  3-C ,  4-C ) :   1.2016
B(  3-C , 13-H ) :   0.9040 B(  4-C ,  5-N ) :   0.9760 B(  4-C ,  6-C ) :   1.5545
B(  5-N , 14-H ) :   0.8799 B(  5-N , 15-H ) :   0.8867 B(  6-C ,  7-C ) :   0.8706
B(  6-C ,  8-O ) :   0.9632 B(  7-C , 16-H ) :   0.9482 B(  7-C , 17-H ) :   0.9384
B(  7-C , 18-H ) :   0.9399

MP2 TOTAL ENERGY:     -418.514303709 Eh
FINAL SINGLE POINT ENERGY      -418.514303709462

DIPOLE MOMENT
-------------
                                X             Y             Z
Electronic contribution:     -0.17296      -2.47875       1.57348
Nuclear contribution   :      0.15928       2.39253      -1.34896
                        -----------------------------------------
Total Dipole Moment    :     -0.01368      -0.08621       0.22452
                        -----------------------------------------
Magnitude (a.u.)       :      0.24090
Magnitude (Debye)      :      0.61231

                             ****ORCA TERMINATED NORMALLY****
TOTAL RUN TIME: 0 days 0 hours 16 minutes 54 seconds 549 msec
