                         Program Version 3.0.3 - RELEASE   -
|  1> ! RI-MP2 RIJK def2-TZVP def2-TZVP/C def2-TZVP/JK TIGHTSCF
|  2> % maxcore 2000
|  3> % mp2 density relaxed end
|  4> *xyz 0 1
|  5>  O       -0.0637471524    -0.0226282261    -0.0019276839
|  6>  C        0.0180213432     1.1785643443     0.0066993678
|  7>  C        1.2835445723     1.9327422570    -0.0008445311
|  8>  N        2.4780633275     1.4047159392    -0.0180149520
|  9>  N        3.3175579140     2.4671175086    -0.0184244720
| 10>  C        2.6860684533     3.7093349366    -0.0017005652
| 11>  O        3.1656891076     4.8166888493     0.0021338722
| 12>  N        1.3475950291     3.3120831984     0.0094987225
| 13>  H       -0.8839627169     1.8309212949     0.0215067760
| 14>  H        4.3139328944     2.3242808021    -0.0303625662
| 15>  H        0.5817941580     3.9641209559     0.0233074719
| 16> *
| 17>
| 18>                          ****END OF INPUT****

CARTESIAN COORDINATES (ANGSTROEM)
---------------------------------
  O     -0.063747   -0.022628   -0.001928
  C      0.018021    1.178564    0.006699
  C      1.283545    1.932742   -0.000845
  N      2.478063    1.404716   -0.018015
  N      3.317558    2.467118   -0.018424
  C      2.686068    3.709335   -0.001701
  O      3.165689    4.816689    0.002134
  N      1.347595    3.312083    0.009499
  H     -0.883963    1.830921    0.021507
  H      4.313933    2.324281   -0.030363
  H      0.581794    3.964121    0.023307

 Total Charge           Charge          ....    0
 Multiplicity           Mult            ....    1
 Number of Electrons    NEL             ....   58
 Basis Dimension        Dim             ....  266

ORBITAL ENERGIES
----------------

  NO   OCC          E(Eh)            E(eV)
   0   2.0000     -20.592986      -560.3636
   1   2.0000     -20.540349      -558.9313
   2   2.0000     -15.655414      -426.0055
   3   2.0000     -15.648145      -425.8077
   4   2.0000     -15.646349      -425.7588
   5   2.0000     -11.410615      -310.4986
   6   2.0000     -11.374489      -309.5156
   7   2.0000     -11.347792      -308.7891
   8   2.0000      -1.461588       -39.7718
   9   2.0000      -1.428239       -38.8644
  10   2.0000      -1.383195       -37.6387
  11   2.0000      -1.261765       -34.3344
  12   2.0000      -1.139482       -31.0069
  13   2.0000      -0.970598       -26.4113
  14   2.0000      -0.909371       -24.7452
  15   2.0000      -0.819584       -22.3020
  16   2.0000      -0.782317       -21.2879
  17   2.0000      -0.715873       -19.4799
  18   2.0000      -0.693316       -18.8661
  19   2.0000      -0.686375       -18.6772
  20   2.0000      -0.677978       -18.4487
  21   2.0000      -0.647814       -17.6279
  22   2.0000      -0.577504       -15.7147
  23   2.0000      -0.544151       -14.8071
  24   2.0000      -0.530947       -14.4478
  25   2.0000      -0.498732       -13.5712
  26   2.0000      -0.476764       -12.9734
  27   2.0000      -0.456403       -12.4194
  28   2.0000      -0.362764        -9.8713
  29   0.0000       0.049390         1.3440
  30   0.0000       0.110750         3.0137
  31   0.0000       0.138314         3.7637
  32   0.0000       0.174962         4.7610
  33   0.0000       0.180679         4.9165

MULLIKEN ATOMIC CHARGES
-----------------------
   0 O :   -0.228822
   1 C :    0.019336
   2 C :    0.260587
   3 N :   -0.156628
   4 N :   -0.157636
   5 C :    0.293695
   6 O :   -0.343683
   7 N :   -0.320569
   8 H :    0.086246
   9 H :    0.275981
  10 H :    0.271492
Sum of atomic charges:   -0.0000000

LOEWDIN ATOMIC CHARGES
----------------------
   0 O :    0.166796
   1 C :   -0.278453
   2 C :   -0.341591
   3 N :    0.090883
   4 N :    0.118435
   5 C :   -0.523066
   6 O :    0.070052
   7 N :    0.183180
   8 H :    0.117129
   9 H :    0.195005
  10 H :    0.201631

  Mayer bond orders larger than 0.1
B(  0-O ,  1-C ) :   2.0350 B(  1-C ,  2-C ) :   0.8048 B(  1-C ,  8-H ) :   0.9915
B(  2-C ,  3-N ) :   1.6247 B(  2-C ,  7-N ) :   1.0606 B(  2-C ,  8-H ) :  -0.1116
B(  3-N ,  4-N ) :   0.9898 B(  4-N ,  5-C ) :   1.0778 B(  4-N ,  9-H ) :   0.8647
B(  5-C ,  6-O ) :   2.0107 B(  5-C ,  7-N ) :   1.0487 B(  7-N , 10-H ) :   0.8575

MP2 TOTAL ENERGY:     -430.078403149 Eh
FINAL SINGLE POINT ENERGY      -430.078403148943

DIPOLE MOMENT
-------------
                                X             Y             Z
Electronic contribution:      0.76283      -0.50913      -0.01232
Nuclear contribution   :     -1.25174       0.96224       0.02125
                        -----------------------------------------
Total Dipole Moment    :     -0.48892       0.45311       0.00893
                        -----------------------------------------
Magnitude (a.u.)       :      0.66665
Magnitude (Debye)      :      1.69450

                             ****ORCA TERMINATED NORMALLY****
TOTAL RUN TIME: 0 days 0 hours 7 minutes 51 seconds 408 msec
