                         Program Version 3.0.3 - RELEASE   -
|  1> ! RI-MP2 RIJK def2-TZVP def2-TZVP/C def2-TZVP/JK TIGHTSCF
|  2> % maxcore 2000
|  3> % mp2 density relaxed end
|  4> *xyz 0 1
|  5>  C        0.0763443272     1.5415858519    -0.0732414937
|  6>  C        0.0226336056     0.0173231005     0.0038910837
|  7>  C       -1.4193670401    -0.4557490084    -0.2216408730
|  8>  C        0.9973333307    -0.7843007211    -0.9227980922
|  9>  C        1.4127141907    -1.6963249349     0.2670790342
| 10>  C        2.7748397499    -1.3406193070     0.8933495128
| 11>  C        2.1006940286    -0.1574752466     1.6469224467
| 12>  C        0.6823303167    -0.6944657380     1.2412960390
| 13>  C       -0.1720275672    -1.1228492548     2.4187760200
| 14>  H        1.0957977697     1.9287027935     0.0068020958
| 15>  H       -0.3303056499     1.8930382593    -1.0289764213
| 16>  H       -0.5198437369     2.0012585454     0.7243065127
| 17>  H       -1.7696955544    -0.1286473967    -1.2073450308
| 18>  H       -1.5012124237    -1.5471754737    -0.1899677660
| 19>  H       -2.1042228238    -0.0457019145     0.5287288438
| 20>  H        0.5162907673    -1.2884104932    -1.7654189467
| 21>  H        1.8277973926    -0.1881666391    -1.3152068119
| 22>  H        1.1370098586    -2.7493244273     0.1816705987
| 23>  H        3.1345519003    -2.1133153881     1.5788886465
| 24>  H        3.5852305319    -1.0955854489     0.1995410709
| 25>  H        2.2750596569    -0.1366602719     2.7258222153
| 26>  H        2.3514743035     0.8296517964     1.2536694598
| 27>  H       -0.5141386010    -0.2531584638     2.9946937381
| 28>  H       -1.0568541612    -1.6888924541     2.1143874084
| 29>  H        0.4041739781    -1.7562446648     3.1032941393
| 30> *
| 31>
| 32>                          ****END OF INPUT****

CARTESIAN COORDINATES (ANGSTROEM)
---------------------------------
  C      0.076344    1.541586   -0.073241
  C      0.022634    0.017323    0.003891
  C     -1.419367   -0.455749   -0.221641
  C      0.997333   -0.784301   -0.922798
  C      1.412714   -1.696325    0.267079
  C      2.774840   -1.340619    0.893350
  C      2.100694   -0.157475    1.646922
  C      0.682330   -0.694466    1.241296
  C     -0.172028   -1.122849    2.418776
  H      1.095798    1.928703    0.006802
  H     -0.330306    1.893038   -1.028976
  H     -0.519844    2.001259    0.724307
  H     -1.769696   -0.128647   -1.207345
  H     -1.501212   -1.547175   -0.189968
  H     -2.104223   -0.045702    0.528729
  H      0.516291   -1.288410   -1.765419
  H      1.827797   -0.188167   -1.315207
  H      1.137010   -2.749324    0.181671
  H      3.134552   -2.113315    1.578889
  H      3.585231   -1.095585    0.199541
  H      2.275060   -0.136660    2.725822
  H      2.351474    0.829652    1.253669
  H     -0.514139   -0.253158    2.994694
  H     -1.056854   -1.688892    2.114387
  H      0.404174   -1.756245    3.103294

 Total Charge           Charge          ....    0
 Multiplicity           Mult            ....    1
 Number of Electrons    NEL             ....   70
 Basis Dimension        Dim             ....  375

ORBITAL ENERGIES
----------------

  NO   OCC          E(Eh)            E(eV)
   0   2.0000     -11.227716      -305.5217
   1   2.0000     -11.223615      -305.4101
   2   2.0000     -11.215079      -305.1778
   3   2.0000     -11.212902      -305.1186
   4   2.0000     -11.212235      -305.1004
   5   2.0000     -11.210607      -305.0561
   6   2.0000     -11.208556      -305.0003
   7   2.0000     -11.208332      -304.9942
   8   2.0000     -11.206507      -304.9445
   9   2.0000      -1.165448       -31.7135
  10   2.0000      -1.049133       -28.5484
  11   2.0000      -0.981459       -26.7068
  12   2.0000      -0.951662       -25.8960
  13   2.0000      -0.922271       -25.0963
  14   2.0000      -0.862495       -23.4697
  15   2.0000      -0.822177       -22.3726
  16   2.0000      -0.762076       -20.7371
  17   2.0000      -0.668020       -18.1778
  18   2.0000      -0.646504       -17.5923
  19   2.0000      -0.629505       -17.1297
  20   2.0000      -0.608515       -16.5585
  21   2.0000      -0.576045       -15.6750
  22   2.0000      -0.568336       -15.4652
  23   2.0000      -0.558256       -15.1909
  24   2.0000      -0.546385       -14.8679
  25   2.0000      -0.542576       -14.7642
  26   2.0000      -0.523738       -14.2516
  27   2.0000      -0.512972       -13.9587
  28   2.0000      -0.490759       -13.3542
  29   2.0000      -0.477427       -12.9915
  30   2.0000      -0.456887       -12.4325
  31   2.0000      -0.428615       -11.6632
  32   2.0000      -0.417241       -11.3537
  33   2.0000      -0.393902       -10.7186
  34   2.0000      -0.378203       -10.2914
  35   0.0000       0.131705         3.5839
  36   0.0000       0.157647         4.2898
  37   0.0000       0.162757         4.4289
  38   0.0000       0.166460         4.5296
  39   0.0000       0.188000         5.1158

MULLIKEN ATOMIC CHARGES
-----------------------
   0 C :   -0.402293
   1 C :    0.069349
   2 C :   -0.481022
   3 C :   -0.245936
   4 C :   -0.146460
   5 C :   -0.240505
   6 C :   -0.307870
   7 C :    0.220777
   8 C :   -0.425745
   9 H :    0.119797
  10 H :    0.129559
  11 H :    0.128655
  12 H :    0.134291
  13 H :    0.138181
  14 H :    0.134100
  15 H :    0.115403
  16 H :    0.107862
  17 H :    0.105109
  18 H :    0.113789
  19 H :    0.106451
  20 H :    0.117029
  21 H :    0.112404
  22 H :    0.132199
  23 H :    0.132694
  24 H :    0.132182
Sum of atomic charges:   -0.0000000

LOEWDIN ATOMIC CHARGES
----------------------
   0 C :   -0.276426
   1 C :   -0.264145
   2 C :   -0.271353
   3 C :   -0.172892
   4 C :   -0.165727
   5 C :   -0.228122
   6 C :   -0.191597
   7 C :   -0.192587
   8 C :   -0.278632
   9 H :    0.120127
  10 H :    0.126686
  11 H :    0.126362
  12 H :    0.125948
  13 H :    0.126964
  14 H :    0.124873
  15 H :    0.130058
  16 H :    0.134342
  17 H :    0.130753
  18 H :    0.132359
  19 H :    0.123676
  20 H :    0.129416
  21 H :    0.128967
  22 H :    0.128058
  23 H :    0.124953
  24 H :    0.127939

  Mayer bond orders larger than 0.1
B(  0-C ,  1-C ) :   0.9014 B(  0-C ,  9-H ) :   0.9340 B(  0-C , 10-H ) :   0.9374
B(  0-C , 11-H ) :   0.9368 B(  1-C ,  2-C ) :   0.8680 B(  1-C ,  3-C ) :   0.9228
B(  1-C ,  7-C ) :   0.8884 B(  2-C , 12-H ) :   0.9371 B(  2-C , 13-H ) :   0.9386
B(  2-C , 14-H ) :   0.9425 B(  3-C ,  4-C ) :   0.9325 B(  3-C , 15-H ) :   0.9178
B(  3-C , 16-H ) :   0.9013 B(  4-C ,  5-C ) :   0.9361 B(  4-C ,  7-C ) :   0.9218
B(  4-C , 17-H ) :   0.9074 B(  5-C ,  6-C ) :   0.9655 B(  5-C , 18-H ) :   0.9230
B(  5-C , 19-H ) :   0.9210 B(  6-C ,  7-C ) :   0.8711 B(  6-C , 20-H ) :   0.9228
B(  6-C , 21-H ) :   0.9184 B(  7-C ,  8-C ) :   0.8748 B(  8-C , 22-H ) :   0.9385
B(  8-C , 23-H ) :   0.9404 B(  8-C , 24-H ) :   0.9367

MP2 TOTAL ENERGY:     -351.695895298 Eh
FINAL SINGLE POINT ENERGY      -351.695895297966

DIPOLE MOMENT
-------------
                                X             Y             Z
Electronic contribution:      2.38325      -1.64649      -0.42675
Nuclear contribution   :     -2.43352       1.63623       0.46133
                        -----------------------------------------
Total Dipole Moment    :     -0.05026      -0.01026       0.03458
                        -----------------------------------------
Magnitude (a.u.)       :      0.06186
Magnitude (Debye)      :      0.15725

                             ****ORCA TERMINATED NORMALLY****
TOTAL RUN TIME: 0 days 0 hours 24 minutes 44 seconds 77 msec
