                         Program Version 3.0.3 - RELEASE   -
|  1> ! RI-MP2 RIJK def2-TZVP def2-TZVP/C def2-TZVP/JK TIGHTSCF
|  2> % maxcore 2000
|  3> % mp2 density relaxed end
|  4> *xyz 0 1
|  5>  C       -0.1326669564     1.3616994361    -0.4424711370
|  6>  N       -0.0940477293    -0.0883905928    -0.3324325666
|  7>  C       -1.0345190853    -0.6688561750     0.2758785676
|  8>  N       -2.2179924322    -0.3006433786     0.9223000143
|  9>  C       -2.7680015006    -1.6556115379     0.8136409183
| 10>  C       -3.8094231206    -2.2821028678     1.6723262448
| 11>  C       -4.0568575386    -2.0583934130     0.1828530586
| 12>  C       -1.3592662683    -2.1566623281     0.4041395087
| 13>  O       -1.2335076942    -2.9218814783    -0.7608686514
| 14>  H        0.4520462796     1.6760837748    -1.3114088815
| 15>  H       -1.1494808955     1.7717919441    -0.5537258394
| 16>  H        0.3173007179     1.8301827631     0.4426127470
| 17>  H       -2.7324830732     0.5523980240     0.7459172081
| 18>  H       -3.6452591280    -3.2956845201     2.0242821909
| 19>  H       -4.3469576635    -1.6474016308     2.3697467262
| 20>  H       -4.7644695707    -1.2835347001    -0.0960446424
| 21>  H       -4.0336501443    -2.9128202706    -0.4853974795
| 22>  H       -0.8417403220    -2.6548912568     1.2323472894
| 23>  H       -0.8456308348    -2.3468991620    -1.4313994662
| 24> *
| 25>
| 26>                          ****END OF INPUT****

CARTESIAN COORDINATES (ANGSTROEM)
---------------------------------
  C     -0.132667    1.361699   -0.442471
  N     -0.094048   -0.088391   -0.332433
  C     -1.034519   -0.668856    0.275879
  N     -2.217992   -0.300643    0.922300
  C     -2.768002   -1.655612    0.813641
  C     -3.809423   -2.282103    1.672326
  C     -4.056858   -2.058393    0.182853
  C     -1.359266   -2.156662    0.404140
  O     -1.233508   -2.921881   -0.760869
  H      0.452046    1.676084   -1.311409
  H     -1.149481    1.771792   -0.553726
  H      0.317301    1.830183    0.442613
  H     -2.732483    0.552398    0.745917
  H     -3.645259   -3.295685    2.024282
  H     -4.346958   -1.647402    2.369747
  H     -4.764470   -1.283535   -0.096045
  H     -4.033650   -2.912820   -0.485397
  H     -0.841740   -2.654891    1.232347
  H     -0.845631   -2.346899   -1.431399

 Total Charge           Charge          ....    0
 Multiplicity           Mult            ....    1
 Number of Electrons    NEL             ....   68
 Basis Dimension        Dim             ....  339

ORBITAL ENERGIES
----------------

  NO   OCC          E(Eh)            E(eV)
   0   2.0000     -20.564033      -559.5758
   1   2.0000     -15.583427      -424.0466
   2   2.0000     -15.540029      -422.8657
   3   2.0000     -11.313304      -307.8507
   4   2.0000     -11.296511      -307.3937
   5   2.0000     -11.282064      -307.0006
   6   2.0000     -11.248233      -306.0800
   7   2.0000     -11.234299      -305.7008
   8   2.0000     -11.233573      -305.6810
   9   2.0000      -1.379216       -37.5304
  10   2.0000      -1.294922       -35.2366
  11   2.0000      -1.201367       -32.6909
  12   2.0000      -1.121904       -30.5286
  13   2.0000      -0.982943       -26.7472
  14   2.0000      -0.929398       -25.2902
  15   2.0000      -0.838448       -22.8153
  16   2.0000      -0.784008       -21.3339
  17   2.0000      -0.782042       -21.2804
  18   2.0000      -0.691701       -18.8221
  19   2.0000      -0.680091       -18.5062
  20   2.0000      -0.657208       -17.8835
  21   2.0000      -0.655784       -17.8448
  22   2.0000      -0.616455       -16.7746
  23   2.0000      -0.592511       -16.1230
  24   2.0000      -0.580336       -15.7917
  25   2.0000      -0.556769       -15.1504
  26   2.0000      -0.537923       -14.6376
  27   2.0000      -0.521444       -14.1892
  28   2.0000      -0.501246       -13.6396
  29   2.0000      -0.453641       -12.3442
  30   2.0000      -0.435517       -11.8510
  31   2.0000      -0.419642       -11.4190
  32   2.0000      -0.404877       -11.0173
  33   2.0000      -0.352202        -9.5839
  34   0.0000       0.128000         3.4831
  35   0.0000       0.150646         4.0993
  36   0.0000       0.161030         4.3818
  37   0.0000       0.164657         4.4805
  38   0.0000       0.176159         4.7935

MULLIKEN ATOMIC CHARGES
-----------------------
   0 C :   -0.277657
   1 N :   -0.265015
   2 C :   -0.005317
   3 N :   -0.337526
   4 C :    0.133402
   5 C :   -0.279994
   6 C :   -0.274922
   7 C :    0.183695
   8 O :   -0.480295
   9 H :    0.144944
  10 H :    0.088695
  11 H :    0.144618
  12 H :    0.231297
  13 H :    0.139494
  14 H :    0.130467
  15 H :    0.130975
  16 H :    0.144012
  17 H :    0.115503
  18 H :    0.333624
Sum of atomic charges:    0.0000000

LOEWDIN ATOMIC CHARGES
----------------------
   0 C :   -0.335134
   1 N :    0.056099
   2 C :   -0.332928
   3 N :    0.132634
   4 C :   -0.251738
   5 C :   -0.206500
   6 C :   -0.206232
   7 C :   -0.244511
   8 O :    0.000745
   9 H :    0.116766
  10 H :    0.100582
  11 H :    0.119115
  12 H :    0.171503
  13 H :    0.137184
  14 H :    0.135955
  15 H :    0.133226
  16 H :    0.140562
  17 H :    0.146158
  18 H :    0.186514

  Mayer bond orders larger than 0.1
B(  0-C ,  1-N ) :   0.8743 B(  0-C ,  9-H ) :   0.9452 B(  0-C , 10-H ) :   0.9239
B(  0-C , 11-H ) :   0.9319 B(  1-N ,  2-C ) :   1.9726 B(  2-C ,  3-N ) :   1.1454
B(  2-C ,  7-C ) :   0.8913 B(  3-N ,  4-C ) :   0.9293 B(  3-N , 12-H ) :   0.8594
B(  4-C ,  5-C ) :   0.8422 B(  4-C ,  6-C ) :   0.8817 B(  4-C ,  7-C ) :   0.8479
B(  5-C ,  6-C ) :   0.9044 B(  5-C , 13-H ) :   0.9203 B(  5-C , 14-H ) :   0.9190
B(  6-C , 15-H ) :   0.9227 B(  6-C , 16-H ) :   0.9105 B(  7-C ,  8-O ) :   1.0547
B(  7-C , 17-H ) :   0.9331 B(  8-O , 18-H ) :   0.8248

MP2 TOTAL ENERGY:     -418.457391560 Eh
FINAL SINGLE POINT ENERGY      -418.457391560453

DIPOLE MOMENT
-------------
                                X             Y             Z
Electronic contribution:      2.16120      -2.57687      -0.07117
Nuclear contribution   :     -2.98973       3.35608       0.21514
                        -----------------------------------------
Total Dipole Moment    :     -0.82853       0.77921       0.14397
                        -----------------------------------------
Magnitude (a.u.)       :      1.14645
Magnitude (Debye)      :      2.91405

                             ****ORCA TERMINATED NORMALLY****
TOTAL RUN TIME: 0 days 0 hours 16 minutes 28 seconds 83 msec
