                         Program Version 3.0.3 - RELEASE   -
|  1> ! RI-MP2 RIJK def2-TZVP def2-TZVP/C def2-TZVP/JK TIGHTSCF
|  2> % maxcore 2000
|  3> % mp2 density relaxed end
|  4> *xyz 0 1
|  5>  O        0.0864546341     1.3475718920    -0.0341435406
|  6>  C        0.0549021073    -0.0130480111    -0.0045398161
|  7>  C        0.0455466894    -0.8283708115    -1.1094401117
|  8>  N        0.0824420738    -2.1848839039    -0.7005016892
|  9>  C        0.0206077232    -2.1660082858     0.6611084910
| 10>  C        0.0417880581    -0.8720504470     1.1421157620
| 11>  N        0.0824529087    -0.8623680233     2.5229430724
| 12>  C        0.0807149072    -2.1313892703     2.8519840650
| 13>  N        0.0568097331    -2.9901928971     1.7562894642
| 14>  H        0.1009009193     1.6581044859     0.8767198571
| 15>  H        0.0511653194    -0.5753995663    -2.1557113530
| 16>  H       -0.2184249513    -2.9374561183    -1.2951971388
| 17>  H        0.0876272310    -2.5236926502     3.8579339966
| 18>  H        0.0245853069    -3.9939419330     1.7911967813
| 19> *
| 20>
| 21>                          ****END OF INPUT****

CARTESIAN COORDINATES (ANGSTROEM)
---------------------------------
  O      0.086455    1.347572   -0.034144
  C      0.054902   -0.013048   -0.004540
  C      0.045547   -0.828371   -1.109440
  N      0.082442   -2.184884   -0.700502
  C      0.020608   -2.166008    0.661108
  C      0.041788   -0.872050    1.142116
  N      0.082453   -0.862368    2.522943
  C      0.080715   -2.131389    2.851984
  N      0.056810   -2.990193    1.756289
  H      0.100901    1.658104    0.876720
  H      0.051165   -0.575400   -2.155711
  H     -0.218425   -2.937456   -1.295197
  H      0.087627   -2.523693    3.857934
  H      0.024585   -3.993942    1.791197

 Total Charge           Charge          ....    0
 Multiplicity           Mult            ....    1
 Number of Electrons    NEL             ....   64
 Basis Dimension        Dim             ....  309

ORBITAL ENERGIES
----------------

  NO   OCC          E(Eh)            E(eV)
   0   2.0000     -20.574654      -559.8648
   1   2.0000     -15.626849      -425.2282
   2   2.0000     -15.604540      -424.6211
   3   2.0000     -15.555104      -423.2759
   4   2.0000     -11.302534      -307.5576
   5   2.0000     -11.293357      -307.3079
   6   2.0000     -11.283168      -307.0306
   7   2.0000     -11.239712      -305.8481
   8   2.0000     -11.227719      -305.5218
   9   2.0000      -1.390169       -37.8284
  10   2.0000      -1.349577       -36.7238
  11   2.0000      -1.266842       -34.4725
  12   2.0000      -1.175901       -31.9979
  13   2.0000      -1.029863       -28.0240
  14   2.0000      -0.972716       -26.4689
  15   2.0000      -0.841533       -22.8993
  16   2.0000      -0.818322       -22.2677
  17   2.0000      -0.785196       -21.3663
  18   2.0000      -0.771130       -20.9835
  19   2.0000      -0.682165       -18.5627
  20   2.0000      -0.643790       -17.5184
  21   2.0000      -0.636615       -17.3232
  22   2.0000      -0.617996       -16.8165
  23   2.0000      -0.614011       -16.7081
  24   2.0000      -0.583525       -15.8785
  25   2.0000      -0.567952       -15.4548
  26   2.0000      -0.518777       -14.1166
  27   2.0000      -0.513321       -13.9682
  28   2.0000      -0.439154       -11.9500
  29   2.0000      -0.423775       -11.5315
  30   2.0000      -0.309559        -8.4235
  31   2.0000      -0.275480        -7.4962
  32   0.0000       0.114371         3.1122
  33   0.0000       0.141589         3.8528
  34   0.0000       0.160531         4.3683
  35   0.0000       0.161234         4.3874
  36   0.0000       0.181270         4.9326

MULLIKEN ATOMIC CHARGES
-----------------------
   0 O :   -0.443317
   1 C :    0.075812
   2 C :   -0.126111
   3 N :   -0.312426
   4 C :    0.151631
   5 C :    0.066945
   6 N :   -0.300310
   7 C :    0.053555
   8 N :   -0.298212
   9 H :    0.343921
  10 H :    0.143809
  11 H :    0.246799
  12 H :    0.148482
  13 H :    0.249422
Sum of atomic charges:    0.0000000

LOEWDIN ATOMIC CHARGES
----------------------
   0 O :    0.058819
   1 C :   -0.292252
   2 C :   -0.211006
   3 N :    0.154554
   4 C :   -0.281601
   5 C :   -0.236499
   6 N :    0.096236
   7 C :   -0.301688
   8 N :    0.173094
   9 H :    0.200136
  10 H :    0.133582
  11 H :    0.187372
  12 H :    0.128808
  13 H :    0.190443

  Mayer bond orders larger than 0.1
B(  0-O ,  1-C ) :   1.1463 B(  0-O ,  9-H ) :   0.8299 B(  1-C ,  2-C ) :   1.6261
B(  1-C ,  5-C ) :   1.0911 B(  2-C ,  3-N ) :   1.0111 B(  2-C , 10-H ) :   0.9119
B(  3-N ,  4-C ) :   1.1533 B(  3-N , 11-H ) :   0.8640 B(  4-C ,  5-C ) :   1.2690
B(  4-C ,  8-N ) :   1.1074 B(  5-C ,  6-N ) :   1.2661 B(  6-N ,  7-C ) :   1.5871
B(  7-C ,  8-N ) :   1.1026 B(  7-C , 12-H ) :   0.9272 B(  8-N , 13-H ) :   0.8652

MP2 TOTAL ENERGY:     -432.175113091 Eh
FINAL SINGLE POINT ENERGY      -432.175113090761

DIPOLE MOMENT
-------------
                                X             Y             Z
Electronic contribution:      0.05124       0.44384       0.53133
Nuclear contribution   :     -0.24063      -2.35855      -0.74799
                        -----------------------------------------
Total Dipole Moment    :     -0.18939      -1.91471      -0.21666
                        -----------------------------------------
Magnitude (a.u.)       :      1.93621
Magnitude (Debye)      :      4.92147

                             ****ORCA TERMINATED NORMALLY****
TOTAL RUN TIME: 0 days 0 hours 14 minutes 9 seconds 834 msec
