                         Program Version 3.0.3 - RELEASE   -
|  1> ! RI-MP2 RIJK def2-TZVP def2-TZVP/C def2-TZVP/JK TIGHTSCF
|  2> % maxcore 2000
|  3> % mp2 density relaxed end
|  4> *xyz 0 1
|  5>  C       -0.0782804989     1.4293320046     0.0110204518
|  6>  C        0.0546456707    -0.0554680417     0.0905357172
|  7>  C        0.9905458254    -0.9307320320    -0.6677789135
|  8>  C        1.0297695109    -2.1875553564     0.2250679953
|  9>  C        1.0421144741    -1.6924813226     1.6945799036
| 10>  C       -0.2727033150    -0.9761615005     1.2911826954
| 11>  O       -1.1934345034    -0.4530675437     2.1826352447
| 12>  C       -0.5256770238    -2.0396883243     0.1613683981
| 13>  N       -0.4885770667    -0.9921136959    -0.9570260710
| 14>  H        0.6698698652     1.9282577444     0.6370764161
| 15>  H        0.0580463379     1.7647716560    -1.0215528317
| 16>  H       -1.0697297671     1.7469027163     0.3475786120
| 17>  H        1.7039540432    -0.5855553685    -1.4074524339
| 18>  H        1.5766153651    -3.0674083216    -0.1038395352
| 19>  H        0.8569160994    -2.5150555672     2.3962070372
| 20>  H        1.8844281674    -1.0855667580     2.0403320136
| 21>  H       -1.3973718307    -1.1215488106     2.8447418897
| 22>  H       -1.2614979137    -2.8414876585     0.1549000706
| 23> *
| 24>
| 25>                          ****END OF INPUT****

CARTESIAN COORDINATES (ANGSTROEM)
---------------------------------
  C     -0.078280    1.429332    0.011020
  C      0.054646   -0.055468    0.090536
  C      0.990546   -0.930732   -0.667779
  C      1.029770   -2.187555    0.225068
  C      1.042114   -1.692481    1.694580
  C     -0.272703   -0.976162    1.291183
  O     -1.193435   -0.453068    2.182635
  C     -0.525677   -2.039688    0.161368
  N     -0.488577   -0.992114   -0.957026
  H      0.669870    1.928258    0.637076
  H      0.058046    1.764772   -1.021553
  H     -1.069730    1.746903    0.347579
  H      1.703954   -0.585555   -1.407452
  H      1.576615   -3.067408   -0.103840
  H      0.856916   -2.515056    2.396207
  H      1.884428   -1.085567    2.040332
  H     -1.397372   -1.121549    2.844742
  H     -1.261498   -2.841488    0.154900

 Total Charge           Charge          ....    0
 Multiplicity           Mult            ....    1
 Number of Electrons    NEL             ....   66
 Basis Dimension        Dim             ....  333

ORBITAL ENERGIES
----------------

  NO   OCC          E(Eh)            E(eV)
   0   2.0000     -20.573200      -559.8252
   1   2.0000     -15.552486      -423.2047
   2   2.0000     -11.296712      -307.3992
   3   2.0000     -11.262545      -306.4694
   4   2.0000     -11.262108      -306.4575
   5   2.0000     -11.259191      -306.3782
   6   2.0000     -11.244198      -305.9702
   7   2.0000     -11.232977      -305.6648
   8   2.0000     -11.218208      -305.2630
   9   2.0000      -1.388239       -37.7759
  10   2.0000      -1.318045       -35.8658
  11   2.0000      -1.088068       -29.6078
  12   2.0000      -1.003325       -27.3019
  13   2.0000      -0.935860       -25.4660
  14   2.0000      -0.894070       -24.3289
  15   2.0000      -0.850223       -23.1357
  16   2.0000      -0.744999       -20.2725
  17   2.0000      -0.738724       -20.1017
  18   2.0000      -0.691326       -18.8119
  19   2.0000      -0.658473       -17.9180
  20   2.0000      -0.610331       -16.6079
  21   2.0000      -0.608870       -16.5682
  22   2.0000      -0.585825       -15.9411
  23   2.0000      -0.570296       -15.5185
  24   2.0000      -0.558762       -15.2047
  25   2.0000      -0.539909       -14.6917
  26   2.0000      -0.534095       -14.5335
  27   2.0000      -0.495924       -13.4948
  28   2.0000      -0.465899       -12.6777
  29   2.0000      -0.432442       -11.7673
  30   2.0000      -0.410627       -11.1737
  31   2.0000      -0.381712       -10.3869
  32   2.0000      -0.353894        -9.6299
  33   0.0000       0.127441         3.4678
  34   0.0000       0.154010         4.1908
  35   0.0000       0.158842         4.3223
  36   0.0000       0.176192         4.7944
  37   0.0000       0.188993         5.1428

MULLIKEN ATOMIC CHARGES
-----------------------
   0 C :   -0.439715
   1 C :    0.054151
   2 C :   -0.090211
   3 C :   -0.107675
   4 C :   -0.242389
   5 C :    0.212509
   6 O :   -0.443177
   7 C :   -0.099383
   8 N :   -0.227592
   9 H :    0.131232
  10 H :    0.143117
  11 H :    0.150565
  12 H :    0.132111
  13 H :    0.138148
  14 H :    0.104468
  15 H :    0.117603
  16 H :    0.325699
  17 H :    0.140538
Sum of atomic charges:    0.0000000

LOEWDIN ATOMIC CHARGES
----------------------
   0 C :   -0.265727
   1 C :   -0.219031
   2 C :   -0.156287
   3 C :   -0.165210
   4 C :   -0.189660
   5 C :   -0.307400
   6 O :    0.038088
   7 C :   -0.122842
   8 N :    0.138243
   9 H :    0.131407
  10 H :    0.136767
  11 H :    0.136200
  12 H :    0.134447
  13 H :    0.135927
  14 H :    0.135538
  15 H :    0.128146
  16 H :    0.183882
  17 H :    0.127513

  Mayer bond orders larger than 0.1
B(  0-C ,  1-C ) :   0.8616 B(  0-C ,  9-H ) :   0.9340 B(  0-C , 10-H ) :   0.9369
B(  0-C , 11-H ) :   0.9439 B(  1-C ,  2-C ) :   0.9455 B(  1-C ,  5-C ) :   0.8337
B(  1-C ,  8-N ) :   0.8826 B(  2-C ,  3-C ) :   0.8349 B(  2-C ,  8-N ) :   0.9035
B(  2-C , 12-H ) :   0.9189 B(  3-C ,  4-C ) :   0.9342 B(  3-C ,  7-C ) :   0.9125
B(  3-C , 13-H ) :   0.9126 B(  4-C ,  5-C ) :   0.9709 B(  4-C , 14-H ) :   0.9066
B(  4-C , 15-H ) :   0.9107 B(  5-C ,  6-O ) :   1.0822 B(  5-C ,  7-C ) :   0.8867
B(  6-O , 16-H ) :   0.8335 B(  7-C ,  8-N ) :   0.9706 B(  7-C , 17-H ) :   0.8933

MP2 TOTAL ENERGY:     -401.181418022 Eh
FINAL SINGLE POINT ENERGY      -401.181418022387

DIPOLE MOMENT
-------------
                                X             Y             Z
Electronic contribution:     -1.97746      -2.28129      -0.59028
Nuclear contribution   :      2.53798       1.74817       1.34824
                        -----------------------------------------
Total Dipole Moment    :      0.56052      -0.53311       0.75797
                        -----------------------------------------
Magnitude (a.u.)       :      1.08301
Magnitude (Debye)      :      2.75279

                             ****ORCA TERMINATED NORMALLY****
TOTAL RUN TIME: 0 days 0 hours 18 minutes 42 seconds 576 msec
