                         Program Version 3.0.3 - RELEASE   -
|  1> ! RI-MP2 RIJK def2-TZVP def2-TZVP/C def2-TZVP/JK TIGHTSCF
|  2> % maxcore 2000
|  3> % mp2 density relaxed end
|  4> *xyz 0 1
|  5>  C       -0.0087998932     1.3553033661    -0.2567695853
|  6>  C        1.4544786745     1.5216114173     0.1980855518
|  7>  C        1.2852395887     0.0943376352     0.7696806062
|  8>  O       -0.0379157293    -0.0184059619     0.1813586038
|  9>  C        2.2143900081    -0.9916533344     0.2800892540
| 10>  C        3.6764300367    -1.0452901405     0.8668120280
| 11>  C        3.3613587330    -2.4533339993     1.3904157013
| 12>  O        2.2348474064    -2.3327253011     2.2666289093
| 13>  C        1.9912808963    -2.4052481945     0.8568425402
| 14>  H       -0.7341021401     1.9726901423     0.2891343750
| 15>  H       -0.2054487763     1.4488715452    -1.3312498153
| 16>  H        2.1771523264     1.5921814472    -0.6182831853
| 17>  H        1.6526500509     2.3129845172     0.9220879266
| 18>  H        1.2276059707     0.0577689657     1.8649435009
| 19>  H        2.2265804532    -1.0069763079    -0.8140881381
| 20>  H        4.4390169775    -1.0246629337     0.0852993097
| 21>  H        3.9263759524    -0.3147303179     1.6408652232
| 22>  H        4.0306282040    -3.2887956796     1.5591397698
| 23>  H        1.3285402199    -3.1875383657     0.5072233043
| 24> *
| 25>
| 26>                          ****END OF INPUT****

CARTESIAN COORDINATES (ANGSTROEM)
---------------------------------
  C     -0.008800    1.355303   -0.256770
  C      1.454479    1.521611    0.198086
  C      1.285240    0.094338    0.769681
  O     -0.037916   -0.018406    0.181359
  C      2.214390   -0.991653    0.280089
  C      3.676430   -1.045290    0.866812
  C      3.361359   -2.453334    1.390416
  O      2.234847   -2.332725    2.266629
  C      1.991281   -2.405248    0.856843
  H     -0.734102    1.972690    0.289134
  H     -0.205449    1.448872   -1.331250
  H      2.177152    1.592181   -0.618283
  H      1.652650    2.312985    0.922088
  H      1.227606    0.057769    1.864944
  H      2.226580   -1.006976   -0.814088
  H      4.439017   -1.024663    0.085299
  H      3.926376   -0.314730    1.640865
  H      4.030628   -3.288796    1.559140
  H      1.328540   -3.187538    0.507223

 Total Charge           Charge          ....    0
 Multiplicity           Mult            ....    1
 Number of Electrons    NEL             ....   68
 Basis Dimension        Dim             ....  339

ORBITAL ENERGIES
----------------

  NO   OCC          E(Eh)            E(eV)
   0   2.0000     -20.566680      -559.6478
   1   2.0000     -20.542676      -558.9946
   2   2.0000     -11.286972      -307.1341
   3   2.0000     -11.284395      -307.0640
   4   2.0000     -11.278825      -306.9124
   5   2.0000     -11.277286      -306.8706
   6   2.0000     -11.240137      -305.8597
   7   2.0000     -11.238579      -305.8173
   8   2.0000     -11.229938      -305.5821
   9   2.0000      -1.418011       -38.5860
  10   2.0000      -1.372878       -37.3579
  11   2.0000      -1.095532       -29.8109
  12   2.0000      -1.010690       -27.5023
  13   2.0000      -0.960559       -26.1381
  14   2.0000      -0.894497       -24.3405
  15   2.0000      -0.853910       -23.2361
  16   2.0000      -0.777650       -21.1609
  17   2.0000      -0.749962       -20.4075
  18   2.0000      -0.721861       -19.6428
  19   2.0000      -0.672467       -18.2987
  20   2.0000      -0.659480       -17.9454
  21   2.0000      -0.624948       -17.0057
  22   2.0000      -0.602302       -16.3895
  23   2.0000      -0.590398       -16.0656
  24   2.0000      -0.553469       -15.0607
  25   2.0000      -0.539471       -14.6797
  26   2.0000      -0.520081       -14.1521
  27   2.0000      -0.510882       -13.9018
  28   2.0000      -0.490010       -13.3339
  29   2.0000      -0.463693       -12.6177
  30   2.0000      -0.449235       -12.2243
  31   2.0000      -0.442470       -12.0402
  32   2.0000      -0.415509       -11.3066
  33   2.0000      -0.391734       -10.6596
  34   0.0000       0.138741         3.7753
  35   0.0000       0.157197         4.2775
  36   0.0000       0.158724         4.3191
  37   0.0000       0.172774         4.7014
  38   0.0000       0.178791         4.8651

MULLIKEN ATOMIC CHARGES
-----------------------
   0 C :   -0.011461
   1 C :   -0.275588
   2 C :    0.041591
   3 O :   -0.337960
   4 C :   -0.020869
   5 C :   -0.208013
   6 C :   -0.042524
   7 O :   -0.330607
   8 C :    0.005391
   9 H :    0.093906
  10 H :    0.097712
  11 H :    0.118793
  12 H :    0.129175
  13 H :    0.109720
  14 H :    0.109285
  15 H :    0.121648
  16 H :    0.119522
  17 H :    0.135539
  18 H :    0.144739
Sum of atomic charges:    0.0000000

LOEWDIN ATOMIC CHARGES
----------------------
   0 C :   -0.277056
   1 C :   -0.227846
   2 C :   -0.265069
   3 O :    0.129063
   4 C :   -0.197851
   5 C :   -0.192420
   6 C :   -0.246279
   7 O :    0.173450
   8 C :   -0.217605
   9 H :    0.115774
  10 H :    0.114367
  11 H :    0.132527
  12 H :    0.129079
  13 H :    0.142817
  14 H :    0.155272
  15 H :    0.136271
  16 H :    0.134688
  17 H :    0.128426
  18 H :    0.132392

  Mayer bond orders larger than 0.1
B(  0-C ,  1-C ) :   0.9842 B(  0-C ,  3-O ) :   0.9500 B(  0-C ,  9-H ) :   0.9183
B(  0-C , 10-H ) :   0.9154 B(  1-C ,  2-C ) :   0.8963 B(  1-C , 11-H ) :   0.9242
B(  1-C , 12-H ) :   0.9292 B(  2-C ,  3-O ) :   0.9386 B(  2-C ,  4-C ) :   0.9003
B(  2-C , 13-H ) :   0.9112 B(  4-C ,  5-C ) :   0.9445 B(  4-C ,  8-C ) :   0.8794
B(  4-C , 14-H ) :   0.9100 B(  5-C ,  6-C ) :   0.9219 B(  5-C , 15-H ) :   0.9115
B(  5-C , 16-H ) :   0.9051 B(  6-C ,  7-O ) :   0.9417 B(  6-C ,  8-C ) :   0.8956
B(  6-C , 17-H ) :   0.9324 B(  7-O ,  8-C ) :   0.8756 B(  8-C , 18-H ) :   0.9284

MP2 TOTAL ENERGY:     -422.250326097 Eh
FINAL SINGLE POINT ENERGY      -422.250326097258

DIPOLE MOMENT
-------------
                                X             Y             Z
Electronic contribution:     -1.41124      -4.58097       2.38013
Nuclear contribution   :      2.20789       5.04657      -3.02137
                        -----------------------------------------
Total Dipole Moment    :      0.79665       0.46560      -0.64125
                        -----------------------------------------
Magnitude (a.u.)       :      1.12367
Magnitude (Debye)      :      2.85614

                             ****ORCA TERMINATED NORMALLY****
TOTAL RUN TIME: 0 days 0 hours 17 minutes 2 seconds 253 msec
