                         Program Version 3.0.3 - RELEASE   -
|  1> ! RI-MP2 RIJK def2-TZVP def2-TZVP/C def2-TZVP/JK TIGHTSCF
|  2> % maxcore 2000
|  3> % mp2 density relaxed end
|  4> *xyz 0 1
|  5>  O       -0.1275774195     1.4670527420     0.0608971179
|  6>  C       -0.0646608352     0.0640928461    -0.1001437438
|  7>  C       -1.4032091397    -0.6114169897     0.0277790844
|  8>  C       -1.8531106239    -1.7832723575    -0.7522104368
|  9>  N       -2.4799912073    -0.4666560287    -1.0144671186
| 10>  C       -3.4462335871    -0.1002158163     0.0972179541
| 11>  C       -3.6076773073    -1.0696303509     1.2533813953
| 12>  C       -2.3919877574    -0.1955639511     1.1545255034
| 13>  O       -2.0340964851     0.7500599949     2.1097181970
| 14>  H       -0.5787725833     1.6328055512     0.8986266594
| 15>  H        0.3339021307    -0.1223865692    -1.1029344698
| 16>  H        0.6359013193    -0.3959151672     0.6202129909
| 17>  H       -1.2226018826    -2.0965041377    -1.5804246591
| 18>  H       -2.4173054014    -2.5937597925    -0.3057214251
| 19>  H       -4.1777671152     0.6657286267    -0.1225877455
| 20>  H       -4.3254283049    -0.6963606582     1.9788406595
| 21>  H       -3.5965104563    -2.1509269240     1.1675163993
| 22>  H       -1.7410453139     0.2883661620     2.9039111575
| 23> *
| 24>
| 25>                          ****END OF INPUT****

CARTESIAN COORDINATES (ANGSTROEM)
---------------------------------
  O     -0.127577    1.467053    0.060897
  C     -0.064661    0.064093   -0.100144
  C     -1.403209   -0.611417    0.027779
  C     -1.853111   -1.783272   -0.752210
  N     -2.479991   -0.466656   -1.014467
  C     -3.446234   -0.100216    0.097218
  C     -3.607677   -1.069630    1.253381
  C     -2.391988   -0.195564    1.154526
  O     -2.034096    0.750060    2.109718
  H     -0.578773    1.632806    0.898627
  H      0.333902   -0.122387   -1.102934
  H      0.635901   -0.395915    0.620213
  H     -1.222602   -2.096504   -1.580425
  H     -2.417305   -2.593760   -0.305721
  H     -4.177767    0.665729   -0.122588
  H     -4.325428   -0.696361    1.978841
  H     -3.596510   -2.150927    1.167516
  H     -1.741045    0.288366    2.903911

 Total Charge           Charge          ....    0
 Multiplicity           Mult            ....    1
 Number of Electrons    NEL             ....   68
 Basis Dimension        Dim             ....  333

ORBITAL ENERGIES
----------------

  NO   OCC          E(Eh)            E(eV)
   0   2.0000     -20.594677      -560.4097
   1   2.0000     -20.542536      -558.9908
   2   2.0000     -15.565599      -423.5615
   3   2.0000     -11.306341      -307.6612
   4   2.0000     -11.279145      -306.9211
   5   2.0000     -11.275117      -306.8115
   6   2.0000     -11.271334      -306.7086
   7   2.0000     -11.267852      -306.6138
   8   2.0000     -11.248658      -306.0915
   9   2.0000      -1.405478       -38.2450
  10   2.0000      -1.351189       -36.7677
  11   2.0000      -1.303506       -35.4702
  12   2.0000      -1.117130       -30.3986
  13   2.0000      -0.976904       -26.5829
  14   2.0000      -0.917576       -24.9685
  15   2.0000      -0.867314       -23.6008
  16   2.0000      -0.791877       -21.5481
  17   2.0000      -0.755017       -20.5451
  18   2.0000      -0.726740       -19.7756
  19   2.0000      -0.703355       -19.1393
  20   2.0000      -0.659670       -17.9505
  21   2.0000      -0.651604       -17.7310
  22   2.0000      -0.623730       -16.9725
  23   2.0000      -0.597746       -16.2655
  24   2.0000      -0.578706       -15.7474
  25   2.0000      -0.565670       -15.3927
  26   2.0000      -0.552437       -15.0326
  27   2.0000      -0.516144       -14.0450
  28   2.0000      -0.484103       -13.1731
  29   2.0000      -0.472659       -12.8617
  30   2.0000      -0.457389       -12.4462
  31   2.0000      -0.443758       -12.0753
  32   2.0000      -0.379832       -10.3358
  33   2.0000      -0.350799        -9.5457
  34   0.0000       0.120492         3.2788
  35   0.0000       0.156476         4.2579
  36   0.0000       0.164269         4.4700
  37   0.0000       0.173191         4.7128
  38   0.0000       0.196030         5.3342

MULLIKEN ATOMIC CHARGES
-----------------------
   0 O :   -0.475489
   1 C :   -0.038961
   2 C :    0.029915
   3 C :   -0.160641
   4 N :   -0.234715
   5 C :   -0.068568
   6 C :   -0.286149
   7 C :    0.171900
   8 O :   -0.492100
   9 H :    0.331371
  10 H :    0.113377
  11 H :    0.093831
  12 H :    0.132137
  13 H :    0.118858
  14 H :    0.150995
  15 H :    0.140591
  16 H :    0.133804
  17 H :    0.339845
Sum of atomic charges:   -0.0000000

LOEWDIN ATOMIC CHARGES
----------------------
   0 O :   -0.037924
   1 C :   -0.314445
   2 C :   -0.229157
   3 C :   -0.215797
   4 N :    0.145220
   5 C :   -0.173235
   6 C :   -0.199543
   7 C :   -0.308660
   8 O :    0.026441
   9 H :    0.171277
  10 H :    0.139753
  11 H :    0.123393
  12 H :    0.137485
  13 H :    0.125196
  14 H :    0.140729
  15 H :    0.151953
  16 H :    0.127492
  17 H :    0.189822

  Mayer bond orders larger than 0.1
B(  0-O ,  1-C ) :   0.9608 B(  0-O ,  9-H ) :   0.8275 B(  1-C ,  2-C ) :   0.8826
B(  1-C , 10-H ) :   0.9261 B(  1-C , 11-H ) :   0.9325 B(  2-C ,  3-C ) :   0.9619
B(  2-C ,  4-N ) :   0.7741 B(  2-C ,  7-C ) :   0.8986 B(  3-C ,  4-N ) :   0.9286
B(  3-C , 12-H ) :   0.9076 B(  3-C , 13-H ) :   0.8981 B(  4-N ,  5-C ) :   0.9066
B(  5-C ,  6-C ) :   0.8840 B(  5-C ,  7-C ) :   0.8917 B(  5-C , 14-H ) :   0.9116
B(  6-C ,  7-C ) :   0.9165 B(  6-C , 15-H ) :   0.9170 B(  6-C , 16-H ) :   0.8923
B(  7-C ,  8-O ) :   0.9454 B(  8-O , 17-H ) :   0.8279

MP2 TOTAL ENERGY:     -438.267344070 Eh
FINAL SINGLE POINT ENERGY      -438.267344070217

DIPOLE MOMENT
-------------
                                X             Y             Z
Electronic contribution:     -0.19412       2.50300       0.00549
Nuclear contribution   :     -0.08130      -3.70219       1.19442
                        -----------------------------------------
Total Dipole Moment    :     -0.27542      -1.19920       1.19991
                        -----------------------------------------
Magnitude (a.u.)       :      1.71864
Magnitude (Debye)      :      4.36843

                             ****ORCA TERMINATED NORMALLY****
TOTAL RUN TIME: 0 days 0 hours 17 minutes 8 seconds 138 msec
