                         Program Version 3.0.3 - RELEASE   -
|  1> ! RI-MP2 RIJK def2-TZVP def2-TZVP/C def2-TZVP/JK TIGHTSCF
|  2> % maxcore 2000
|  3> % mp2 density relaxed end
|  4> *xyz 0 1
|  5>  O        0.0147118007     1.5110887159    -0.1452626714
|  6>  C        0.0574695575     0.0989294655     0.0129545612
|  7>  C       -1.3270378220    -0.5057698486     0.0508228182
|  8>  C       -2.2067583063    -0.3601601924     1.3236539688
|  9>  N       -2.6242406841    -1.7854418471     1.2173723434
| 10>  C       -1.6650072167    -2.0323237767     0.1061457953
| 11>  C       -2.4068868349    -1.8110960086    -1.2389947762
| 12>  O       -3.0746598290    -2.4614598208    -1.9905822615
| 13>  N       -2.0564118106    -0.4623966783    -1.2273333669
| 14>  H       -0.2369732784     1.6924116919    -1.0566964851
| 15>  H        0.6429414701    -0.3794803528    -0.7856887492
| 16>  H        0.5705743470    -0.0845606335     0.9626342438
| 17>  H       -1.6036499355    -0.1334922020     2.2106473962
| 18>  H       -3.0357688923     0.3524008805     1.2694987147
| 19>  H       -2.4283072399    -2.3325570249     2.0456921786
| 20>  H       -0.9438082624    -2.8430856816     0.2102227451
| 21>  H       -2.5733504333     0.3051707337    -1.6366180249
| 22> *
| 23>
| 24>                          ****END OF INPUT****

CARTESIAN COORDINATES (ANGSTROEM)
---------------------------------
  O      0.014712    1.511089   -0.145263
  C      0.057470    0.098929    0.012955
  C     -1.327038   -0.505770    0.050823
  C     -2.206758   -0.360160    1.323654
  N     -2.624241   -1.785442    1.217372
  C     -1.665007   -2.032324    0.106146
  C     -2.406887   -1.811096   -1.238995
  O     -3.074660   -2.461460   -1.990582
  N     -2.056412   -0.462397   -1.227333
  H     -0.236973    1.692412   -1.056696
  H      0.642941   -0.379480   -0.785689
  H      0.570574   -0.084561    0.962634
  H     -1.603650   -0.133492    2.210647
  H     -3.035769    0.352401    1.269499
  H     -2.428307   -2.332557    2.045692
  H     -0.943808   -2.843086    0.210223
  H     -2.573350    0.305171   -1.636618

 Total Charge           Charge          ....    0
 Multiplicity           Mult            ....    1
 Number of Electrons    NEL             ....   68
 Basis Dimension        Dim             ....  327

ORBITAL ENERGIES
----------------

  NO   OCC          E(Eh)            E(eV)
   0   2.0000     -20.575812      -559.8963
   1   2.0000     -20.533515      -558.7454
   2   2.0000     -15.590335      -424.2346
   3   2.0000     -15.566368      -423.5824
   4   2.0000     -11.354942      -308.9837
   5   2.0000     -11.296303      -307.3880
   6   2.0000     -11.292605      -307.2874
   7   2.0000     -11.288108      -307.1650
   8   2.0000     -11.271663      -306.7175
   9   2.0000      -1.396291       -37.9950
  10   2.0000      -1.379681       -37.5430
  11   2.0000      -1.301329       -35.4109
  12   2.0000      -1.204917       -32.7874
  13   2.0000      -1.015101       -27.6223
  14   2.0000      -0.968537       -26.3552
  15   2.0000      -0.915556       -24.9135
  16   2.0000      -0.814636       -22.1674
  17   2.0000      -0.764308       -20.7979
  18   2.0000      -0.727739       -19.8028
  19   2.0000      -0.696055       -18.9406
  20   2.0000      -0.686914       -18.6919
  21   2.0000      -0.671835       -18.2816
  22   2.0000      -0.617694       -16.8083
  23   2.0000      -0.606999       -16.5173
  24   2.0000      -0.595140       -16.1946
  25   2.0000      -0.585898       -15.9431
  26   2.0000      -0.538803       -14.6616
  27   2.0000      -0.534892       -14.5552
  28   2.0000      -0.513377       -13.9697
  29   2.0000      -0.481006       -13.0888
  30   2.0000      -0.471351       -12.8261
  31   2.0000      -0.443905       -12.0793
  32   2.0000      -0.400169       -10.8891
  33   2.0000      -0.382560       -10.4100
  34   0.0000       0.115420         3.1407
  35   0.0000       0.124055         3.3757
  36   0.0000       0.152510         4.1500
  37   0.0000       0.163701         4.4545
  38   0.0000       0.166110         4.5201

MULLIKEN ATOMIC CHARGES
-----------------------
   0 O :   -0.472853
   1 C :   -0.024009
   2 C :    0.095234
   3 C :   -0.143412
   4 N :   -0.352489
   5 C :   -0.013822
   6 C :    0.193265
   7 O :   -0.291165
   8 N :   -0.352244
   9 H :    0.317075
  10 H :    0.116556
  11 H :    0.113637
  12 H :    0.120549
  13 H :    0.103309
  14 H :    0.214203
  15 H :    0.137080
  16 H :    0.239088
Sum of atomic charges:   -0.0000000

LOEWDIN ATOMIC CHARGES
----------------------
   0 O :   -0.041675
   1 C :   -0.312854
   2 C :   -0.270836
   3 C :   -0.223844
   4 N :   -0.002885
   5 C :   -0.168467
   6 C :   -0.406992
   7 O :    0.124150
   8 N :    0.146387
   9 H :    0.174454
  10 H :    0.126279
  11 H :    0.135315
  12 H :    0.127543
  13 H :    0.124411
  14 H :    0.161913
  15 H :    0.134959
  16 H :    0.172142

  Mayer bond orders larger than 0.1
B(  0-O ,  1-C ) :   0.9128 B(  0-O ,  9-H ) :   0.8454 B(  1-C ,  2-C ) :   0.9301
B(  1-C , 10-H ) :   0.9363 B(  1-C , 11-H ) :   0.9192 B(  2-C ,  3-C ) :   0.9411
B(  2-C ,  5-C ) :   0.8457 B(  2-C ,  8-N ) :   0.9013 B(  3-C ,  4-N ) :   0.9569
B(  3-C , 12-H ) :   0.9118 B(  3-C , 13-H ) :   0.9050 B(  4-N ,  5-C ) :   0.9534
B(  4-N , 14-H ) :   0.8734 B(  5-C ,  6-C ) :   0.8277 B(  5-C ,  8-N ) :  -0.1000
B(  5-C , 15-H ) :   0.8924 B(  6-C ,  7-O ) :   2.0426 B(  6-C ,  8-N ) :   1.1467
B(  8-N , 16-H ) :   0.8495

MP2 TOTAL ENERGY:     -454.388724940 Eh
FINAL SINGLE POINT ENERGY      -454.388724940445

DIPOLE MOMENT
-------------
                                X             Y             Z
Electronic contribution:     -2.68729      -2.36889      -3.93357
Nuclear contribution   :      3.56866       2.97620       4.63845
                        -----------------------------------------
Total Dipole Moment    :      0.88137       0.60731       0.70487
                        -----------------------------------------
Magnitude (a.u.)       :      1.28160
Magnitude (Debye)      :      3.25756

                             ****ORCA TERMINATED NORMALLY****
TOTAL RUN TIME: 0 days 0 hours 18 minutes 16 seconds 255 msec
