                         Program Version 3.0.3 - RELEASE   -
|  1> ! RI-MP2 RIJK def2-TZVP def2-TZVP/C def2-TZVP/JK TIGHTSCF
|  2> % maxcore 2000
|  3> % mp2 density relaxed end
|  4> *xyz 0 1
|  5>  C       -0.0913289182    -1.2152963704    -0.0088301368
|  6>  C       -0.0478065052    -0.0127293334     0.0024140453
|  7>  C        0.0214911623     1.4183544991     0.0122101960
|  8>  C        0.5106464728     2.1630045409     1.2783819493
|  9>  C        1.3471392229     2.1168507218     0.0631706939
| 10>  C        2.7823722009     1.7215281733    -0.2741940336
| 11>  C        2.4047616070     2.2040385638    -1.6944006106
| 12>  N        1.7526213739     3.2916391518    -0.8082671767
| 13>  C        3.0726870506     3.2182671515    -0.0066925050
| 14>  H       -0.1373727470    -2.2758059174    -0.0185100016
| 15>  H       -0.7559530692     1.9328490969    -0.5469270067
| 16>  H       -0.0029102010     3.0884279123     1.5171106357
| 17>  H        0.7872249107     1.5510584024     2.1300290313
| 18>  H        3.3418677090     0.8345881283     0.0358329690
| 19>  H        3.2038856759     2.5939052826    -2.3301269251
| 20>  H        1.6824443051     1.6146282276    -2.2623429434
| 21>  H        2.9807898720     3.5880854661     1.0168539074
| 22>  H        3.9162695575     3.6752175728    -0.5304891486
| 23> *
| 24>
| 25>                          ****END OF INPUT****

CARTESIAN COORDINATES (ANGSTROEM)
---------------------------------
  C     -0.091329   -1.215296   -0.008830
  C     -0.047807   -0.012729    0.002414
  C      0.021491    1.418354    0.012210
  C      0.510646    2.163005    1.278382
  C      1.347139    2.116851    0.063171
  C      2.782372    1.721528   -0.274194
  C      2.404762    2.204039   -1.694401
  N      1.752621    3.291639   -0.808267
  C      3.072687    3.218267   -0.006693
  H     -0.137373   -2.275806   -0.018510
  H     -0.755953    1.932849   -0.546927
  H     -0.002910    3.088428    1.517111
  H      0.787225    1.551058    2.130029
  H      3.341868    0.834588    0.035833
  H      3.203886    2.593905   -2.330127
  H      1.682444    1.614628   -2.262343
  H      2.980790    3.588085    1.016854
  H      3.916270    3.675218   -0.530489

 Total Charge           Charge          ....    0
 Multiplicity           Mult            ....    1
 Number of Electrons    NEL             ....   64
 Basis Dimension        Dim             ....  333

ORBITAL ENERGIES
----------------

  NO   OCC          E(Eh)            E(eV)
   0   2.0000     -15.575116      -423.8205
   1   2.0000     -11.282457      -307.0113
   2   2.0000     -11.265459      -306.5487
   3   2.0000     -11.263888      -306.5060
   4   2.0000     -11.257083      -306.3208
   5   2.0000     -11.256592      -306.3074
   6   2.0000     -11.239990      -305.8557
   7   2.0000     -11.236322      -305.7559
   8   2.0000     -11.220974      -305.3382
   9   2.0000      -1.307253       -35.5722
  10   2.0000      -1.147399       -31.2223
  11   2.0000      -1.022722       -27.8297
  12   2.0000      -0.936862       -25.4933
  13   2.0000      -0.926617       -25.2145
  14   2.0000      -0.871872       -23.7248
  15   2.0000      -0.854215       -23.2444
  16   2.0000      -0.745831       -20.2951
  17   2.0000      -0.708664       -19.2837
  18   2.0000      -0.672710       -18.3054
  19   2.0000      -0.665655       -18.1134
  20   2.0000      -0.651508       -17.7284
  21   2.0000      -0.604520       -16.4498
  22   2.0000      -0.557550       -15.1717
  23   2.0000      -0.530762       -14.4428
  24   2.0000      -0.497702       -13.5431
  25   2.0000      -0.492670       -13.4062
  26   2.0000      -0.487189       -13.2571
  27   2.0000      -0.459391       -12.5007
  28   2.0000      -0.436883       -11.8882
  29   2.0000      -0.384417       -10.4605
  30   2.0000      -0.379786       -10.3345
  31   2.0000      -0.357848        -9.7375
  32   0.0000       0.148624         4.0443
  33   0.0000       0.157221         4.2782
  34   0.0000       0.160136         4.3575
  35   0.0000       0.163392         4.4461
  36   0.0000       0.174009         4.7350

MULLIKEN ATOMIC CHARGES
-----------------------
   0 C :   -0.146593
   1 C :   -0.035007
   2 C :   -0.260505
   3 C :   -0.274929
   4 C :    0.018260
   5 C :   -0.043657
   6 C :   -0.162774
   7 N :   -0.179385
   8 C :   -0.150853
   9 H :    0.189291
  10 H :    0.149685
  11 H :    0.142994
  12 H :    0.142911
  13 H :    0.120674
  14 H :    0.119419
  15 H :    0.128462
  16 H :    0.121129
  17 H :    0.120879
Sum of atomic charges:   -0.0000000

LOEWDIN ATOMIC CHARGES
----------------------
   0 C :   -0.100917
   1 C :   -0.093812
   2 C :   -0.168537
   3 C :   -0.155523
   4 C :   -0.240835
   5 C :   -0.167024
   6 C :   -0.207483
   7 N :    0.129098
   8 C :   -0.210699
   9 H :    0.126283
  10 H :    0.171317
  11 H :    0.143537
  12 H :    0.143795
  13 H :    0.125915
  14 H :    0.124072
  15 H :    0.129447
  16 H :    0.126858
  17 H :    0.124507

  Mayer bond orders larger than 0.1
B(  0-C ,  1-C ) :   2.5480 B(  0-C ,  2-C ) :  -0.1165 B(  0-C ,  9-H ) :   0.8987
B(  1-C ,  2-C ) :   1.1908 B(  2-C ,  3-C ) :   0.8908 B(  2-C ,  4-C ) :   0.8289
B(  2-C , 10-H ) :   0.9267 B(  3-C ,  4-C ) :   0.8926 B(  3-C , 11-H ) :   0.9063
B(  3-C , 12-H ) :   0.9147 B(  4-C ,  5-C ) :   0.8622 B(  4-C ,  7-N ) :   0.9484
B(  5-C ,  6-C ) :   0.9518 B(  5-C ,  8-C ) :   0.9432 B(  5-C , 13-H ) :   0.8913
B(  6-C ,  7-N ) :   0.9077 B(  6-C , 14-H ) :   0.9249 B(  6-C , 15-H ) :   0.9238
B(  7-N ,  8-C ) :   0.9007 B(  8-C , 16-H ) :   0.9249 B(  8-C , 17-H ) :   0.9261

MP2 TOTAL ENERGY:     -364.006707976 Eh
FINAL SINGLE POINT ENERGY      -364.006707975705

DIPOLE MOMENT
-------------
                                X             Y             Z
Electronic contribution:     -2.23919      -1.52825      -0.25283
Nuclear contribution   :      2.76787       1.24862       0.47620
                        -----------------------------------------
Total Dipole Moment    :      0.52868      -0.27964       0.22337
                        -----------------------------------------
Magnitude (a.u.)       :      0.63843
Magnitude (Debye)      :      1.62276

                             ****ORCA TERMINATED NORMALLY****
TOTAL RUN TIME: 0 days 0 hours 18 minutes 33 seconds 652 msec
