                         Program Version 3.0.3 - RELEASE   -
|  1> ! RI-MP2 RIJK def2-TZVP def2-TZVP/C def2-TZVP/JK TIGHTSCF
|  2> % maxcore 2000
|  3> % mp2 density relaxed end
|  4> *xyz 0 1
|  5>  C       -0.1470142054     1.3597963657     0.1425141439
|  6>  N       -0.0433984892    -0.0805112234     0.0066636499
|  7>  C        0.6291083511    -0.6354609148    -0.9274217086
|  8>  C        1.3995425692     0.0469546832    -2.0311300071
|  9>  O        1.2631469480     1.2025801253    -2.3466340651
| 10>  N        0.7694978314    -2.0088450822    -0.9413613425
| 11>  C       -0.0643212853    -2.9114076391    -0.1378843188
| 12>  C        0.1373838727    -4.0075418217    -1.2187784848
| 13>  C        0.7784057894    -2.9123989447    -2.1128015700
| 14>  H        0.7819810542     1.8993529058    -0.0726920175
| 15>  H       -0.9094458479     1.7632417020    -0.5363352705
| 16>  H       -0.4617521057     1.5863347238     1.1658189815
| 17>  H        2.1401609900    -0.6038506198    -2.5467789748
| 18>  H        0.3297843033    -3.1121216178     0.8624513960
| 19>  H       -1.0935896660    -2.5469468985    -0.0377016550
| 20>  H        0.8373182586    -4.7910034246    -0.9252339740
| 21>  H       -0.7703595563    -4.4663053775    -1.6102582690
| 22>  H        0.1312012541    -2.5789585291    -2.9342294626
| 23>  H        1.7746159739    -3.1269918426    -2.5127553610
| 24> *
| 25>
| 26>                          ****END OF INPUT****

CARTESIAN COORDINATES (ANGSTROEM)
---------------------------------
  C     -0.147014    1.359796    0.142514
  N     -0.043398   -0.080511    0.006664
  C      0.629108   -0.635461   -0.927422
  C      1.399543    0.046955   -2.031130
  O      1.263147    1.202580   -2.346634
  N      0.769498   -2.008845   -0.941361
  C     -0.064321   -2.911408   -0.137884
  C      0.137384   -4.007542   -1.218778
  C      0.778406   -2.912399   -2.112802
  H      0.781981    1.899353   -0.072692
  H     -0.909446    1.763242   -0.536335
  H     -0.461752    1.586335    1.165819
  H      2.140161   -0.603851   -2.546779
  H      0.329784   -3.112122    0.862451
  H     -1.093590   -2.546947   -0.037702
  H      0.837318   -4.791003   -0.925234
  H     -0.770360   -4.466305   -1.610258
  H      0.131201   -2.578959   -2.934229
  H      1.774616   -3.126992   -2.512755

 Total Charge           Charge          ....    0
 Multiplicity           Mult            ....    1
 Number of Electrons    NEL             ....   68
 Basis Dimension        Dim             ....  339

ORBITAL ENERGIES
----------------

  NO   OCC          E(Eh)            E(eV)
   0   2.0000     -20.578566      -559.9712
   1   2.0000     -15.574019      -423.7906
   2   2.0000     -15.545871      -423.0246
   3   2.0000     -11.348633      -308.8120
   4   2.0000     -11.314546      -307.8845
   5   2.0000     -11.278540      -306.9047
   6   2.0000     -11.262999      -306.4818
   7   2.0000     -11.241124      -305.8865
   8   2.0000     -11.234204      -305.6982
   9   2.0000      -1.415001       -38.5041
  10   2.0000      -1.295446       -35.2509
  11   2.0000      -1.201692       -32.6997
  12   2.0000      -1.043617       -28.3983
  13   2.0000      -0.947552       -25.7842
  14   2.0000      -0.928842       -25.2751
  15   2.0000      -0.888519       -24.1778
  16   2.0000      -0.801855       -21.8196
  17   2.0000      -0.738217       -20.0879
  18   2.0000      -0.722210       -19.6523
  19   2.0000      -0.683884       -18.6094
  20   2.0000      -0.661169       -17.9913
  21   2.0000      -0.641134       -17.4462
  22   2.0000      -0.594865       -16.1871
  23   2.0000      -0.570594       -15.5267
  24   2.0000      -0.566683       -15.4202
  25   2.0000      -0.556843       -15.1525
  26   2.0000      -0.538583       -14.6556
  27   2.0000      -0.534448       -14.5431
  28   2.0000      -0.509207       -13.8562
  29   2.0000      -0.481274       -13.0961
  30   2.0000      -0.474473       -12.9111
  31   2.0000      -0.451867       -12.2959
  32   2.0000      -0.385469       -10.4892
  33   2.0000      -0.340887        -9.2760
  34   0.0000       0.074114         2.0168
  35   0.0000       0.129443         3.5223
  36   0.0000       0.154568         4.2060
  37   0.0000       0.165875         4.5137
  38   0.0000       0.175167         4.7665

MULLIKEN ATOMIC CHARGES
-----------------------
   0 C :   -0.281142
   1 N :   -0.265193
   2 C :    0.101879
   3 C :    0.086780
   4 O :   -0.251360
   5 N :   -0.086053
   6 C :   -0.134068
   7 C :   -0.220954
   8 C :   -0.171386
   9 H :    0.127678
  10 H :    0.132047
  11 H :    0.134294
  12 H :    0.096110
  13 H :    0.119543
  14 H :    0.117908
  15 H :    0.125942
  16 H :    0.128073
  17 H :    0.117612
  18 H :    0.122291
Sum of atomic charges:   -0.0000000

LOEWDIN ATOMIC CHARGES
----------------------
   0 C :   -0.338238
   1 N :    0.092824
   2 C :   -0.355924
   3 C :   -0.254592
   4 O :    0.155859
   5 N :    0.173295
   6 C :   -0.228411
   7 C :   -0.234429
   8 C :   -0.237688
   9 H :    0.112868
  10 H :    0.119408
  11 H :    0.112099
  12 H :    0.120825
  13 H :    0.125680
  14 H :    0.128233
  15 H :    0.133000
  16 H :    0.129031
  17 H :    0.124614
  18 H :    0.121546

  Mayer bond orders larger than 0.1
B(  0-C ,  1-N ) :   0.8937 B(  0-C ,  9-H ) :   0.9285 B(  0-C , 10-H ) :   0.9271
B(  0-C , 11-H ) :   0.9381 B(  1-N ,  2-C ) :   1.7961 B(  2-C ,  3-C ) :   0.8624
B(  2-C ,  5-N ) :   1.0930 B(  3-C ,  4-O ) :   1.9632 B(  3-C , 12-H ) :   0.9359
B(  5-N ,  6-C ) :   0.9010 B(  5-N ,  8-C ) :   0.8975 B(  6-C ,  7-C ) :   0.9351
B(  6-C , 13-H ) :   0.9265 B(  6-C , 14-H ) :   0.9171 B(  7-C ,  8-C ) :   0.9505
B(  7-C , 15-H ) :   0.9247 B(  7-C , 16-H ) :   0.9326 B(  8-C , 17-H ) :   0.9090
B(  8-C , 18-H ) :   0.9207

MP2 TOTAL ENERGY:     -418.467948197 Eh
FINAL SINGLE POINT ENERGY      -418.467948196865

DIPOLE MOMENT
-------------
                                X             Y             Z
Electronic contribution:      2.36995       3.77301      -1.78045
Nuclear contribution   :     -2.30877      -4.92002       1.47107
                        -----------------------------------------
Total Dipole Moment    :      0.06118      -1.14701      -0.30937
                        -----------------------------------------
Magnitude (a.u.)       :      1.18958
Magnitude (Debye)      :      3.02367

                             ****ORCA TERMINATED NORMALLY****
TOTAL RUN TIME: 0 days 0 hours 18 minutes 41 seconds 136 msec
