                         Program Version 3.0.3 - RELEASE   -
|  1> ! RI-MP2 RIJK def2-TZVP def2-TZVP/C def2-TZVP/JK TIGHTSCF
|  2> % maxcore 2000
|  3> % mp2 density relaxed end
|  4> *xyz 0 1
|  5>  O       -0.1164067614     0.4927858879     0.7830152382
|  6>  C        0.5196797075     0.8791626269    -0.1591868209
|  7>  C        1.4802388805     2.0949704491    -0.1409006917
|  8>  C        1.5277631277     2.8006526828     1.2396904410
|  9>  C        3.0120986594     2.7142563110     1.6369956873
| 10>  C        3.4662729756     1.4602039271     0.8927008845
| 11>  O        2.7814725753     1.5102980560    -0.3617448272
| 12>  C        1.1449212357     2.9666190397    -1.2601875515
| 13>  C        0.8033026248     3.6480437587    -2.1896853340
| 14>  H        0.5247841029     0.3489894629    -1.1329619097
| 15>  H        1.1582436482     3.8240452275     1.1795862302
| 16>  H        0.8921019190     2.2419495441     1.9310270071
| 17>  H        3.5628533448     3.5854676353     1.2700965831
| 18>  H        3.1580042198     2.6448340970     2.7175361901
| 19>  H        4.5361273357     1.4269951357     0.6730329277
| 20>  H        3.1932981725     0.5496309425     1.4468939608
| 21>  H        0.5210179320     4.2660054759    -3.0064659950
| 22> *
| 23>
| 24>                          ****END OF INPUT****

CARTESIAN COORDINATES (ANGSTROEM)
---------------------------------
  O     -0.116407    0.492786    0.783015
  C      0.519680    0.879163   -0.159187
  C      1.480239    2.094970   -0.140901
  C      1.527763    2.800653    1.239690
  C      3.012099    2.714256    1.636996
  C      3.466273    1.460204    0.892701
  O      2.781473    1.510298   -0.361745
  C      1.144921    2.966619   -1.260188
  C      0.803303    3.648044   -2.189685
  H      0.524784    0.348989   -1.132962
  H      1.158244    3.824045    1.179586
  H      0.892102    2.241950    1.931027
  H      3.562853    3.585468    1.270097
  H      3.158004    2.644834    2.717536
  H      4.536127    1.426995    0.673033
  H      3.193298    0.549631    1.446894
  H      0.521018    4.266005   -3.006466

 Total Charge           Charge          ....    0
 Multiplicity           Mult            ....    1
 Number of Electrons    NEL             ....   66
 Basis Dimension        Dim             ....  327

ORBITAL ENERGIES
----------------

  NO   OCC          E(Eh)            E(eV)
   0   2.0000     -20.576778      -559.9226
   1   2.0000     -20.571085      -559.7677
   2   2.0000     -11.341662      -308.6223
   3   2.0000     -11.331004      -308.3323
   4   2.0000     -11.286588      -307.1237
   5   2.0000     -11.248233      -306.0800
   6   2.0000     -11.243577      -305.9533
   7   2.0000     -11.240123      -305.8593
   8   2.0000     -11.237780      -305.7955
   9   2.0000      -1.416064       -38.5331
  10   2.0000      -1.393813       -37.9276
  11   2.0000      -1.093491       -29.7554
  12   2.0000      -1.065295       -28.9881
  13   2.0000      -1.004237       -27.3267
  14   2.0000      -0.892938       -24.2981
  15   2.0000      -0.831507       -22.6264
  16   2.0000      -0.809545       -22.0288
  17   2.0000      -0.742597       -20.2071
  18   2.0000      -0.707428       -19.2501
  19   2.0000      -0.693363       -18.8674
  20   2.0000      -0.677479       -18.4351
  21   2.0000      -0.640786       -17.4367
  22   2.0000      -0.606383       -16.5005
  23   2.0000      -0.599995       -16.3267
  24   2.0000      -0.542112       -14.7516
  25   2.0000      -0.532599       -14.4928
  26   2.0000      -0.517859       -14.0917
  27   2.0000      -0.499848       -13.6015
  28   2.0000      -0.494438       -13.4544
  29   2.0000      -0.473245       -12.8776
  30   2.0000      -0.431327       -11.7370
  31   2.0000      -0.408454       -11.1146
  32   2.0000      -0.394015       -10.7217
  33   0.0000       0.115317         3.1379
  34   0.0000       0.139268         3.7897
  35   0.0000       0.152554         4.1512
  36   0.0000       0.162690         4.4270
  37   0.0000       0.170531         4.6404

MULLIKEN ATOMIC CHARGES
-----------------------
   0 O :   -0.257992
   1 C :    0.062991
   2 C :    0.170451
   3 C :   -0.280724
   4 C :   -0.247256
   5 C :   -0.042364
   6 O :   -0.310742
   7 C :   -0.083458
   8 C :   -0.092887
   9 H :    0.104402
  10 H :    0.141812
  11 H :    0.158533
  12 H :    0.121241
  13 H :    0.127796
  14 H :    0.130683
  15 H :    0.098275
  16 H :    0.199240
Sum of atomic charges:    0.0000000

LOEWDIN ATOMIC CHARGES
----------------------
   0 O :    0.149954
   1 C :   -0.232507
   2 C :   -0.325236
   3 C :   -0.193983
   4 C :   -0.256019
   5 C :   -0.296031
   6 O :    0.200404
   7 C :   -0.063628
   8 C :   -0.066766
   9 H :    0.125457
  10 H :    0.145479
  11 H :    0.149917
  12 H :    0.140690
  13 H :    0.139092
  14 H :    0.129665
  15 H :    0.123149
  16 H :    0.130363

  Mayer bond orders larger than 0.1
B(  0-O ,  1-C ) :   1.9768 B(  1-C ,  2-C ) :   0.8089 B(  1-C ,  9-H ) :   0.9392
B(  2-C ,  3-C ) :   0.8731 B(  2-C ,  6-O ) :   0.9722 B(  2-C ,  7-C ) :   1.1701
B(  2-C ,  8-C ) :  -0.1023 B(  3-C ,  4-C ) :   0.9379 B(  3-C , 10-H ) :   0.9295
B(  3-C , 11-H ) :   0.9138 B(  4-C ,  5-C ) :   0.9710 B(  4-C , 12-H ) :   0.9230
B(  4-C , 13-H ) :   0.9241 B(  5-C ,  6-O ) :   0.9051 B(  5-C , 14-H ) :   0.9257
B(  5-C , 15-H ) :   0.9193 B(  7-C ,  8-C ) :   2.5918 B(  8-C , 16-H ) :   0.8772

MP2 TOTAL ENERGY:     -421.084955422 Eh
FINAL SINGLE POINT ENERGY      -421.084955422442

DIPOLE MOMENT
-------------
                                X             Y             Z
Electronic contribution:     -3.67937      -1.96560      -3.96854
Nuclear contribution   :      4.12425       2.57317       4.03699
                        -----------------------------------------
Total Dipole Moment    :      0.44488       0.60757       0.06845
                        -----------------------------------------
Magnitude (a.u.)       :      0.75614
Magnitude (Debye)      :      1.92195

                             ****ORCA TERMINATED NORMALLY****
TOTAL RUN TIME: 0 days 0 hours 17 minutes 22 seconds 489 msec
