                         Program Version 3.0.3 - RELEASE   -
|  1> ! RI-MP2 RIJK def2-TZVP def2-TZVP/C def2-TZVP/JK TIGHTSCF
|  2> % maxcore 2000
|  3> % mp2 density relaxed end
|  4> *xyz 0 1
|  5>  O       -0.2680505918     0.1901893974     0.3451499727
|  6>  C        0.1316364698     1.2708151926     0.0045382211
|  7>  C        1.5500652207     1.5414616520    -0.4781272138
|  8>  N        1.6008820558     2.5621262186    -1.5022754292
|  9>  C        2.1454387332     3.7946231374    -1.2764923259
| 10>  O        2.6216116812     4.1225850550    -0.2003847891
| 11>  C        2.1264867827     4.7302088953    -2.4478109840
| 12>  C        1.7538371414     6.1476382226    -2.1551505844
| 13>  N        3.1382836920     5.7951497825    -2.4498884920
| 14>  H       -0.5172102273     2.1764472475     0.0224782027
| 15>  H        2.1275426707     1.9291930552     0.3703904744
| 16>  H        2.0037245548     0.6019443000    -0.8084733906
| 17>  H        1.2514039497     2.3471286519    -2.4221051605
| 18>  H        1.8966661150     4.3075480699    -3.4228203281
| 19>  H        1.2450788416     6.7251737474    -2.9213824843
| 20>  H        1.4856782067     6.3775871189    -1.1283416136
| 21>  H        3.6437356337     5.7172373759    -1.5664609353
| 22> *
| 23>
| 24>                          ****END OF INPUT****

CARTESIAN COORDINATES (ANGSTROEM)
---------------------------------
  O     -0.268051    0.190189    0.345150
  C      0.131636    1.270815    0.004538
  C      1.550065    1.541462   -0.478127
  N      1.600882    2.562126   -1.502275
  C      2.145439    3.794623   -1.276492
  O      2.621612    4.122585   -0.200385
  C      2.126487    4.730209   -2.447811
  C      1.753837    6.147638   -2.155151
  N      3.138284    5.795150   -2.449888
  H     -0.517210    2.176447    0.022478
  H      2.127543    1.929193    0.370390
  H      2.003725    0.601944   -0.808473
  H      1.251404    2.347129   -2.422105
  H      1.896666    4.307548   -3.422820
  H      1.245079    6.725174   -2.921382
  H      1.485678    6.377587   -1.128342
  H      3.643736    5.717237   -1.566461

 Total Charge           Charge          ....    0
 Multiplicity           Mult            ....    1
 Number of Electrons    NEL             ....   68
 Basis Dimension        Dim             ....  327

ORBITAL ENERGIES
----------------

  NO   OCC          E(Eh)            E(eV)
   0   2.0000     -20.572451      -559.8048
   1   2.0000     -20.538839      -558.8902
   2   2.0000     -15.614255      -424.8855
   3   2.0000     -15.577311      -423.8802
   4   2.0000     -11.374058      -309.5039
   5   2.0000     -11.345377      -308.7234
   6   2.0000     -11.291784      -307.2651
   7   2.0000     -11.285810      -307.1025
   8   2.0000     -11.277825      -306.8852
   9   2.0000      -1.412785       -38.4438
  10   2.0000      -1.407224       -38.2925
  11   2.0000      -1.282074       -34.8870
  12   2.0000      -1.260763       -34.3071
  13   2.0000      -1.029860       -28.0239
  14   2.0000      -0.930003       -25.3067
  15   2.0000      -0.887131       -24.1401
  16   2.0000      -0.820622       -22.3303
  17   2.0000      -0.811715       -22.0879
  18   2.0000      -0.760402       -20.6916
  19   2.0000      -0.705801       -19.2058
  20   2.0000      -0.673759       -18.3339
  21   2.0000      -0.662538       -18.0286
  22   2.0000      -0.647770       -17.6267
  23   2.0000      -0.633060       -17.2264
  24   2.0000      -0.596234       -16.2244
  25   2.0000      -0.582357       -15.8468
  26   2.0000      -0.573564       -15.6075
  27   2.0000      -0.523468       -14.2443
  28   2.0000      -0.507704       -13.8153
  29   2.0000      -0.496360       -13.5066
  30   2.0000      -0.457278       -12.4432
  31   2.0000      -0.451892       -12.2966
  32   2.0000      -0.413540       -11.2530
  33   2.0000      -0.409973       -11.1559
  34   0.0000       0.107307         2.9200
  35   0.0000       0.127830         3.4784
  36   0.0000       0.146549         3.9878
  37   0.0000       0.160935         4.3793
  38   0.0000       0.169013         4.5991

MULLIKEN ATOMIC CHARGES
-----------------------
   0 O :   -0.251595
   1 C :    0.074287
   2 C :   -0.066044
   3 N :   -0.347102
   4 C :    0.266964
   5 O :   -0.400836
   6 C :   -0.061170
   7 C :   -0.166374
   8 N :   -0.367710
   9 H :    0.090683
  10 H :    0.177686
  11 H :    0.146210
  12 H :    0.245485
  13 H :    0.134505
  14 H :    0.132136
  15 H :    0.148557
  16 H :    0.244318
Sum of atomic charges:   -0.0000000

LOEWDIN ATOMIC CHARGES
----------------------
   0 O :    0.141816
   1 C :   -0.297917
   2 C :   -0.272810
   3 N :    0.114274
   4 C :   -0.449609
   5 O :    0.075379
   6 C :   -0.256381
   7 C :   -0.249821
   8 N :    0.006085
   9 H :    0.112008
  10 H :    0.166463
  11 H :    0.143365
  12 H :    0.190256
  13 H :    0.142114
  14 H :    0.126617
  15 H :    0.130539
  16 H :    0.177621

  Mayer bond orders larger than 0.1
B(  0-O ,  1-C ) :   2.0082 B(  1-C ,  2-C ) :   0.8674 B(  1-C ,  9-H ) :   0.9371
B(  2-C ,  3-N ) :   0.8054 B(  2-C , 10-H ) :   0.8911 B(  2-C , 11-H ) :   0.9063
B(  3-N ,  4-C ) :   1.1645 B(  3-N , 12-H ) :   0.8712 B(  4-C ,  5-O ) :   1.8351
B(  4-C ,  6-C ) :   0.9510 B(  6-C ,  7-C ) :   0.9237 B(  6-C ,  8-N ) :   0.9524
B(  6-C , 13-H ) :   0.8900 B(  7-C ,  8-N ) :   0.9164 B(  7-C , 14-H ) :   0.9257
B(  7-C , 15-H ) :   0.9116 B(  8-N , 16-H ) :   0.8646

MP2 TOTAL ENERGY:     -454.412678993 Eh
FINAL SINGLE POINT ENERGY      -454.412678992966

DIPOLE MOMENT
-------------
                                X             Y             Z
Electronic contribution:     -0.46161      -3.25646       2.02303
Nuclear contribution   :      0.02657       3.30866      -2.83934
                        -----------------------------------------
Total Dipole Moment    :     -0.43504       0.05220      -0.81631
                        -----------------------------------------
Magnitude (a.u.)       :      0.92647
Magnitude (Debye)      :      2.35490

                             ****ORCA TERMINATED NORMALLY****
TOTAL RUN TIME: 0 days 0 hours 13 minutes 29 seconds 4 msec
