                         Program Version 3.0.3 - RELEASE   -
|  1> ! RI-MP2 RIJK def2-TZVP def2-TZVP/C def2-TZVP/JK TIGHTSCF
|  2> % maxcore 2000
|  3> % mp2 density relaxed end
|  4> *xyz 0 1
|  5>  O       -0.0108672564     1.3442731541     0.0227340206
|  6>  C        0.0300554043    -0.0530434954     0.0410210325
|  7>  C        1.1566270918    -0.6534410712    -0.7861158208
|  8>  O        1.1487869002    -2.0805034699    -0.7955643093
|  9>  C        0.0734450618    -2.6682618213    -0.0641376635
| 10>  C       -1.2748964337    -2.1300487487    -0.5844517156
| 11>  C       -1.3027247864    -0.7399702991     0.0336124478
| 12>  C       -0.4212833287    -0.7830782882     1.2842457902
| 13>  C        0.1231125498    -2.1991158130     1.4044940953
| 14>  H        0.7161932467     1.6707555983     0.5652725425
| 15>  H        1.0801781492    -0.2832206226    -1.8181795207
| 16>  H        2.1266743411    -0.3119822934    -0.3908424626
| 17>  H        0.1970662026    -3.7453978000    -0.1879285289
| 18>  H       -1.3017083400    -2.1362879902    -1.6782951952
| 19>  H       -2.1100327003    -2.7372593058    -0.2164181058
| 20>  H       -2.1913414589    -0.1215978482     0.0010168440
| 21>  H       -0.6776995377    -0.1980502618     2.1599908751
| 22>  H       -0.5252745318    -2.8153873551     2.0386600736
| 23>  H        1.1431937065    -2.2597536787     1.7962829806
| 24> *
| 25>
| 26>                          ****END OF INPUT****

CARTESIAN COORDINATES (ANGSTROEM)
---------------------------------
  O     -0.010867    1.344273    0.022734
  C      0.030055   -0.053043    0.041021
  C      1.156627   -0.653441   -0.786116
  O      1.148787   -2.080503   -0.795564
  C      0.073445   -2.668262   -0.064138
  C     -1.274896   -2.130049   -0.584452
  C     -1.302725   -0.739970    0.033612
  C     -0.421283   -0.783078    1.284246
  C      0.123113   -2.199116    1.404494
  H      0.716193    1.670756    0.565273
  H      1.080178   -0.283221   -1.818180
  H      2.126674   -0.311982   -0.390842
  H      0.197066   -3.745398   -0.187929
  H     -1.301708   -2.136288   -1.678295
  H     -2.110033   -2.737259   -0.216418
  H     -2.191341   -0.121598    0.001017
  H     -0.677700   -0.198050    2.159991
  H     -0.525275   -2.815387    2.038660
  H      1.143194   -2.259754    1.796283

 Total Charge           Charge          ....    0
 Multiplicity           Mult            ....    1
 Number of Electrons    NEL             ....   68
 Basis Dimension        Dim             ....  339

ORBITAL ENERGIES
----------------

  NO   OCC          E(Eh)            E(eV)
   0   2.0000     -20.569825      -559.7334
   1   2.0000     -20.549656      -559.1846
   2   2.0000     -11.287728      -307.1547
   3   2.0000     -11.279966      -306.9435
   4   2.0000     -11.275156      -306.8126
   5   2.0000     -11.230843      -305.6068
   6   2.0000     -11.228999      -305.5566
   7   2.0000     -11.225875      -305.4716
   8   2.0000     -11.224472      -305.4334
   9   2.0000      -1.385457       -37.7002
  10   2.0000      -1.367088       -37.2004
  11   2.0000      -1.168672       -31.8012
  12   2.0000      -1.037628       -28.2353
  13   2.0000      -0.972197       -26.4548
  14   2.0000      -0.924766       -25.1642
  15   2.0000      -0.838402       -22.8141
  16   2.0000      -0.772639       -21.0246
  17   2.0000      -0.733747       -19.9663
  18   2.0000      -0.713694       -19.4206
  19   2.0000      -0.668240       -18.1837
  20   2.0000      -0.653998       -17.7962
  21   2.0000      -0.633572       -17.2404
  22   2.0000      -0.606430       -16.5018
  23   2.0000      -0.590270       -16.0621
  24   2.0000      -0.566079       -15.4038
  25   2.0000      -0.555244       -15.1090
  26   2.0000      -0.527520       -14.3545
  27   2.0000      -0.514624       -14.0036
  28   2.0000      -0.507242       -13.8028
  29   2.0000      -0.494838       -13.4652
  30   2.0000      -0.453403       -12.3377
  31   2.0000      -0.425625       -11.5818
  32   2.0000      -0.387053       -10.5322
  33   2.0000      -0.375180       -10.2092
  34   0.0000       0.129692         3.5291
  35   0.0000       0.142893         3.8883
  36   0.0000       0.173965         4.7338
  37   0.0000       0.178592         4.8597
  38   0.0000       0.187237         5.0950

MULLIKEN ATOMIC CHARGES
-----------------------
   0 O :   -0.459270
   1 C :    0.163823
   2 C :   -0.032687
   3 O :   -0.329433
   4 C :    0.136045
   5 C :   -0.254910
   6 C :   -0.145472
   7 C :   -0.202978
   8 C :   -0.252074
   9 H :    0.324063
  10 H :    0.107856
  11 H :    0.082000
  12 H :    0.120344
  13 H :    0.122517
  14 H :    0.117986
  15 H :    0.134441
  16 H :    0.134323
  17 H :    0.115364
  18 H :    0.118063
Sum of atomic charges:    0.0000000

LOEWDIN ATOMIC CHARGES
----------------------
   0 O :    0.034265
   1 C :   -0.340680
   2 C :   -0.262471
   3 O :    0.167242
   4 C :   -0.294710
   5 C :   -0.208993
   6 C :   -0.157140
   7 C :   -0.169451
   8 C :   -0.212194
   9 H :    0.182978
  10 H :    0.130666
  11 H :    0.124793
  12 H :    0.141528
  13 H :    0.142815
  14 H :    0.143095
  15 H :    0.149580
  16 H :    0.145312
  17 H :    0.142488
  18 H :    0.140878

  Mayer bond orders larger than 0.1
B(  0-O ,  1-C ) :   0.9851 B(  0-O ,  9-H ) :   0.8381 B(  1-C ,  2-C ) :   0.9779
B(  1-C ,  6-C ) :   0.8702 B(  1-C ,  7-C ) :   0.8620 B(  2-C ,  3-O ) :   0.9451
B(  2-C , 10-H ) :   0.9254 B(  2-C , 11-H ) :   0.9089 B(  3-O ,  4-C ) :   0.9158
B(  4-C ,  5-C ) :   0.9252 B(  4-C ,  8-C ) :   0.9211 B(  4-C , 12-H ) :   0.9304
B(  5-C ,  6-C ) :   0.9559 B(  5-C , 13-H ) :   0.9192 B(  5-C , 14-H ) :   0.9186
B(  6-C ,  7-C ) :   0.8499 B(  6-C , 15-H ) :   0.9237 B(  7-C ,  8-C ) :   0.9381
B(  7-C , 16-H ) :   0.9290 B(  8-C , 17-H ) :   0.9085 B(  8-C , 18-H ) :   0.9208

MP2 TOTAL ENERGY:     -422.329822890 Eh
FINAL SINGLE POINT ENERGY      -422.329822889779

DIPOLE MOMENT
-------------
                                X             Y             Z
Electronic contribution:      1.15925       1.99410      -1.05205
Nuclear contribution   :     -1.22500      -2.02983       1.67902
                        -----------------------------------------
Total Dipole Moment    :     -0.06574      -0.03572       0.62697
                        -----------------------------------------
Magnitude (a.u.)       :      0.63142
Magnitude (Debye)      :      1.60495

                             ****ORCA TERMINATED NORMALLY****
TOTAL RUN TIME: 0 days 0 hours 18 minutes 16 seconds 940 msec
