                         Program Version 3.0.3 - RELEASE   -
|  1> ! RI-MP2 RIJK def2-TZVP def2-TZVP/C def2-TZVP/JK TIGHTSCF
|  2> % maxcore 2000
|  3> % mp2 density relaxed end
|  4> *xyz 0 1
|  5>  C        0.1657281190     1.5532860621    -0.2623553166
|  6>  O        0.2796070689     0.1507803526    -0.0967843043
|  7>  C        0.4906286767    -0.5410462888    -1.3065643255
|  8>  O        1.7390017510    -0.2389553037    -1.8874318256
|  9>  C        2.8239976251    -0.9333793940    -1.2784231655
| 10>  C        2.7127661397    -2.4413019421    -1.5144597593
| 11>  C        3.7733548905    -3.2114942663    -0.7160347168
| 12>  C        1.3124781627    -2.8759784572    -1.1583670560
| 13>  C        0.3122192300    -2.0096346520    -1.0286085595
| 14>  H        1.0727661331     1.9827784233    -0.7029851324
| 15>  H       -0.6912797741     1.8112885956    -0.9034557508
| 16>  H        0.0065039379     1.9802269199     0.7302724891
| 17>  H       -0.2427605921    -0.1974638447    -2.0545928601
| 18>  H        3.7344056776    -0.5234064803    -1.7243887536
| 19>  H        2.8434722450    -0.7288966031    -0.1983203232
| 20>  H        2.8794020463    -2.6379994312    -2.5844060894
| 21>  H        3.6496839959    -3.0503817885     0.3603383388
| 22>  H        3.7001324530    -4.2874360657    -0.9037795869
| 23>  H        4.7834209086    -2.8916238746    -0.9928138353
| 24>  H        1.1441719252    -3.9379734826    -0.9910984427
| 25>  H       -0.6838048998    -2.3198467287    -0.7296769041
| 26> *
| 27>
| 28>                          ****END OF INPUT****

CARTESIAN COORDINATES (ANGSTROEM)
---------------------------------
  C      0.165728    1.553286   -0.262355
  O      0.279607    0.150780   -0.096784
  C      0.490629   -0.541046   -1.306564
  O      1.739002   -0.238955   -1.887432
  C      2.823998   -0.933379   -1.278423
  C      2.712766   -2.441302   -1.514460
  C      3.773355   -3.211494   -0.716035
  C      1.312478   -2.875978   -1.158367
  C      0.312219   -2.009635   -1.028609
  H      1.072766    1.982778   -0.702985
  H     -0.691280    1.811289   -0.903456
  H      0.006504    1.980227    0.730272
  H     -0.242761   -0.197464   -2.054593
  H      3.734406   -0.523406   -1.724389
  H      2.843472   -0.728897   -0.198320
  H      2.879402   -2.637999   -2.584406
  H      3.649684   -3.050382    0.360338
  H      3.700132   -4.287436   -0.903780
  H      4.783421   -2.891624   -0.992814
  H      1.144172   -3.937973   -0.991098
  H     -0.683805   -2.319847   -0.729677

 Total Charge           Charge          ....    0
 Multiplicity           Mult            ....    1
 Number of Electrons    NEL             ....   70
 Basis Dimension        Dim             ....  351

ORBITAL ENERGIES
----------------

  NO   OCC          E(Eh)            E(eV)
   0   2.0000     -20.556317      -559.3658
   1   2.0000     -20.555748      -559.3503
   2   2.0000     -11.331293      -308.3402
   3   2.0000     -11.271056      -306.7010
   4   2.0000     -11.266103      -306.5663
   5   2.0000     -11.234376      -305.7029
   6   2.0000     -11.232660      -305.6562
   7   2.0000     -11.225357      -305.4575
   8   2.0000     -11.222002      -305.3662
   9   2.0000      -1.412873       -38.4462
  10   2.0000      -1.343172       -36.5496
  11   2.0000      -1.100600       -29.9489
  12   2.0000      -1.040503       -28.3135
  13   2.0000      -0.952480       -25.9183
  14   2.0000      -0.924070       -25.1452
  15   2.0000      -0.850703       -23.1488
  16   2.0000      -0.833642       -22.6846
  17   2.0000      -0.728592       -19.8260
  18   2.0000      -0.707493       -19.2519
  19   2.0000      -0.674726       -18.3602
  20   2.0000      -0.655845       -17.8465
  21   2.0000      -0.627084       -17.0638
  22   2.0000      -0.608722       -16.5642
  23   2.0000      -0.592924       -16.1343
  24   2.0000      -0.587372       -15.9832
  25   2.0000      -0.566908       -15.4263
  26   2.0000      -0.538589       -14.6558
  27   2.0000      -0.522736       -14.2244
  28   2.0000      -0.517691       -14.0871
  29   2.0000      -0.506800       -13.7907
  30   2.0000      -0.482768       -13.1368
  31   2.0000      -0.447569       -12.1790
  32   2.0000      -0.438544       -11.9334
  33   2.0000      -0.422498       -11.4968
  34   2.0000      -0.361325        -9.8322
  35   0.0000       0.135470         3.6863
  36   0.0000       0.151809         4.1309
  37   0.0000       0.160687         4.3725
  38   0.0000       0.175035         4.7629
  39   0.0000       0.180682         4.9166

MULLIKEN ATOMIC CHARGES
-----------------------
   0 C :   -0.238444
   1 O :   -0.307475
   2 C :    0.270157
   3 O :   -0.319868
   4 C :   -0.118529
   5 C :    0.084751
   6 C :   -0.436865
   7 C :   -0.234564
   8 C :   -0.162351
   9 H :    0.135844
  10 H :    0.110034
  11 H :    0.139060
  12 H :    0.084617
  13 H :    0.127846
  14 H :    0.111286
  15 H :    0.096891
  16 H :    0.136799
  17 H :    0.135080
  18 H :    0.134180
  19 H :    0.121824
  20 H :    0.129727
Sum of atomic charges:    0.0000000

LOEWDIN ATOMIC CHARGES
----------------------
   0 C :   -0.352910
   1 O :    0.154056
   2 C :   -0.405076
   3 O :    0.180463
   4 C :   -0.279806
   5 C :   -0.274540
   6 C :   -0.287595
   7 C :   -0.135039
   8 C :   -0.145971
   9 H :    0.106099
  10 H :    0.102097
  11 H :    0.112655
  12 H :    0.135933
  13 H :    0.130365
  14 H :    0.130065
  15 H :    0.159909
  16 H :    0.126548
  17 H :    0.124938
  18 H :    0.124977
  19 H :    0.145978
  20 H :    0.146854

  Mayer bond orders larger than 0.1
B(  0-C ,  1-O ) :   0.8986 B(  0-C ,  9-H ) :   0.9371 B(  0-C , 10-H ) :   0.9354
B(  0-C , 11-H ) :   0.9389 B(  1-O ,  2-C ) :   0.9983 B(  2-C ,  3-O ) :   0.9737
B(  2-C ,  8-C ) :   0.9287 B(  2-C , 12-H ) :   0.9217 B(  3-O ,  4-C ) :   0.8976
B(  4-C ,  5-C ) :   0.9589 B(  4-C , 13-H ) :   0.9230 B(  4-C , 14-H ) :   0.9325
B(  5-C ,  6-C ) :   0.8894 B(  5-C ,  7-C ) :   0.8997 B(  5-C , 15-H ) :   0.9003
B(  6-C , 16-H ) :   0.9318 B(  6-C , 17-H ) :   0.9361 B(  6-C , 18-H ) :   0.9382
B(  7-C ,  8-C ) :   1.8212 B(  7-C , 19-H ) :   0.9258 B(  8-C , 20-H ) :   0.9216

MP2 TOTAL ENERGY:     -423.519738517 Eh
FINAL SINGLE POINT ENERGY      -423.519738516862

DIPOLE MOMENT
-------------
                                X             Y             Z
Electronic contribution:     -3.62864       1.22174      -1.40544
Nuclear contribution   :      3.77824      -1.38499       1.36666
                        -----------------------------------------
Total Dipole Moment    :      0.14959      -0.16325      -0.03878
                        -----------------------------------------
Magnitude (a.u.)       :      0.22480
Magnitude (Debye)      :      0.57139

                             ****ORCA TERMINATED NORMALLY****
TOTAL RUN TIME: 0 days 0 hours 28 minutes 2 seconds 240 msec
