                         Program Version 3.0.3 - RELEASE   -
|  1> ! RI-MP2 RIJK def2-TZVP def2-TZVP/C def2-TZVP/JK TIGHTSCF
|  2> % maxcore 2000
|  3> % mp2 density relaxed end
|  4> *xyz 0 1
|  5>  C       -0.2170380516     1.4471855394    -0.1051767264
|  6>  N        0.0014024741     0.0102411383    -0.0030075490
|  7>  C        1.3452651059    -0.4721028545    -0.2553580633
|  8>  C        0.7880715065    -0.4952162583     1.1398080366
|  9>  C        1.3238975479     0.3809218533     2.1454132371
| 10>  C        1.7549088684     1.0989523765     3.0131862896
| 11>  C        2.2398282270     1.9441617373     4.0935312178
| 12>  C        1.3121730882     1.9279287873     5.3121705630
| 13>  O        1.7048900740     1.9574813169     6.4459386269
| 14>  H        0.6393182901     2.0524235748     0.2270554137
| 15>  H       -0.4327381224     1.6884386367    -1.1503693723
| 16>  H       -1.0874900762     1.7222699685     0.4978664936
| 17>  H        1.4279881437    -1.3999929992    -0.8151185381
| 18>  H        2.1277289623     0.2595111768    -0.4507566226
| 19>  H        0.4170590150    -1.4440230173     1.5211044855
| 20>  H        3.2454550863     1.6657911110     4.4260412491
| 21>  H        2.2954313915     2.9909185438     3.7563051343
| 22>  H        0.2297027192     1.9002480387     5.0609986647
| 23> *
| 24>
| 25>                          ****END OF INPUT****

CARTESIAN COORDINATES (ANGSTROEM)
---------------------------------
  C     -0.217038    1.447186   -0.105177
  N      0.001402    0.010241   -0.003008
  C      1.345265   -0.472103   -0.255358
  C      0.788072   -0.495216    1.139808
  C      1.323898    0.380922    2.145413
  C      1.754909    1.098952    3.013186
  C      2.239828    1.944162    4.093531
  C      1.312173    1.927929    5.312171
  O      1.704890    1.957481    6.445939
  H      0.639318    2.052424    0.227055
  H     -0.432738    1.688439   -1.150369
  H     -1.087490    1.722270    0.497866
  H      1.427988   -1.399993   -0.815119
  H      2.127729    0.259511   -0.450757
  H      0.417059   -1.444023    1.521104
  H      3.245455    1.665791    4.426041
  H      2.295431    2.990919    3.756305
  H      0.229703    1.900248    5.060999

 Total Charge           Charge          ....    0
 Multiplicity           Mult            ....    1
 Number of Electrons    NEL             ....   66
 Basis Dimension        Dim             ....  333

ORBITAL ENERGIES
----------------

  NO   OCC          E(Eh)            E(eV)
   0   2.0000     -20.568378      -559.6940
   1   2.0000     -15.575799      -423.8390
   2   2.0000     -11.345652      -308.7309
   3   2.0000     -11.289430      -307.2010
   4   2.0000     -11.276218      -306.8415
   5   2.0000     -11.270112      -306.6753
   6   2.0000     -11.252739      -306.2026
   7   2.0000     -11.245733      -306.0120
   8   2.0000     -11.241976      -305.9097
   9   2.0000      -1.409054       -38.3423
  10   2.0000      -1.288706       -35.0675
  11   2.0000      -1.094327       -29.7782
  12   2.0000      -1.024374       -27.8746
  13   2.0000      -0.990227       -26.9454
  14   2.0000      -0.880608       -23.9626
  15   2.0000      -0.836700       -22.7678
  16   2.0000      -0.817652       -22.2494
  17   2.0000      -0.719387       -19.5755
  18   2.0000      -0.696724       -18.9588
  19   2.0000      -0.667019       -18.1505
  20   2.0000      -0.649454       -17.6726
  21   2.0000      -0.642259       -17.4768
  22   2.0000      -0.607397       -16.5281
  23   2.0000      -0.600637       -16.3442
  24   2.0000      -0.573052       -15.5935
  25   2.0000      -0.562592       -15.3089
  26   2.0000      -0.525587       -14.3020
  27   2.0000      -0.498987       -13.5781
  28   2.0000      -0.477713       -12.9992
  29   2.0000      -0.447760       -12.1842
  30   2.0000      -0.418521       -11.3885
  31   2.0000      -0.388140       -10.5618
  32   2.0000      -0.357418        -9.7258
  33   0.0000       0.118477         3.2239
  34   0.0000       0.135159         3.6779
  35   0.0000       0.154731         4.2105
  36   0.0000       0.159380         4.3369
  37   0.0000       0.165161         4.4942

MULLIKEN ATOMIC CHARGES
-----------------------
   0 C :   -0.296264
   1 N :   -0.191280
   2 C :   -0.131707
   3 C :   -0.204252
   4 C :   -0.018009
   5 C :    0.003115
   6 C :   -0.238990
   7 C :    0.120788
   8 O :   -0.252306
   9 H :    0.118890
  10 H :    0.143141
  11 H :    0.137867
  12 H :    0.132832
  13 H :    0.124183
  14 H :    0.141523
  15 H :    0.155197
  16 H :    0.164502
  17 H :    0.090769
Sum of atomic charges:    0.0000000

LOEWDIN ATOMIC CHARGES
----------------------
   0 C :   -0.324534
   1 N :    0.097338
   2 C :   -0.228002
   3 C :   -0.242977
   4 C :   -0.063762
   5 C :   -0.075522
   6 C :   -0.246222
   7 C :   -0.275066
   8 O :    0.143236
   9 H :    0.110558
  10 H :    0.120263
  11 H :    0.120289
  12 H :    0.126747
  13 H :    0.128611
  14 H :    0.158345
  15 H :    0.163850
  16 H :    0.171399
  17 H :    0.115449

  Mayer bond orders larger than 0.1
B(  0-C ,  1-N ) :   0.8851 B(  0-C ,  9-H ) :   0.9279 B(  0-C , 10-H ) :   0.9363
B(  0-C , 11-H ) :   0.9383 B(  1-N ,  2-C ) :   0.8883 B(  1-N ,  3-C ) :   0.9450
B(  2-C ,  3-C ) :   0.9167 B(  2-C , 12-H ) :   0.9223 B(  2-C , 13-H ) :   0.9175
B(  3-C ,  4-C ) :   1.0918 B(  3-C ,  5-C ) :  -0.1103 B(  3-C , 14-H ) :   0.9210
B(  4-C ,  5-C ) :   2.6140 B(  5-C ,  6-C ) :   0.8660 B(  6-C ,  7-C ) :   0.8941
B(  6-C , 15-H ) :   0.9074 B(  6-C , 16-H ) :   0.9276 B(  7-C ,  8-O ) :   2.0042
B(  7-C , 17-H ) :   0.9294

MP2 TOTAL ENERGY:     -401.184645625 Eh
FINAL SINGLE POINT ENERGY      -401.184645624992

DIPOLE MOMENT
-------------
                                X             Y             Z
Electronic contribution:      1.39217      -0.93980       7.41032
Nuclear contribution   :     -1.20543       1.25146      -8.29562
                        -----------------------------------------
Total Dipole Moment    :      0.18674       0.31166      -0.88530
                        -----------------------------------------
Magnitude (a.u.)       :      0.95696
Magnitude (Debye)      :      2.43239

                             ****ORCA TERMINATED NORMALLY****
TOTAL RUN TIME: 0 days 0 hours 13 minutes 54 seconds 822 msec
