                         Program Version 3.0.3 - RELEASE   -
|  1> ! RI-MP2 RIJK def2-TZVP def2-TZVP/C def2-TZVP/JK TIGHTSCF
|  2> % maxcore 2000
|  3> % mp2 density relaxed end
|  4> *xyz 0 1
|  5>  C       -0.0832655691     1.5460209285     0.0196907391
|  6>  C       -0.0319262720     0.0292491399    -0.0212438503
|  7>  C        1.2435922100    -0.6420717710    -0.6040741784
|  8>  O        1.9901754674    -0.2420323366     0.6156182955
|  9>  C        0.6726591192    -0.6964065145     1.1763777982
| 10>  C        0.4189524941    -0.6095732959     2.5718413816
| 11>  C        0.1663941246    -0.5608401051     3.7464998904
| 12>  C        0.8959409552    -1.9137768525     0.2034618585
| 13>  O        0.9202283314    -3.0954940987     0.1752542159
| 14>  H        0.8811848591     1.9596444322     0.3192766888
| 15>  H       -0.3480939827     1.9454036526    -0.9642345402
| 16>  H       -0.8430146875     1.8804996850     0.7325908474
| 17>  H       -0.9817500363    -0.4206738891    -0.3290639532
| 18>  H        1.7365687381    -0.5012646645    -1.5623022977
| 19>  H       -0.0489299315    -0.5215711203     4.7861202942
| 20> *
| 21>
| 22>                          ****END OF INPUT****

CARTESIAN COORDINATES (ANGSTROEM)
---------------------------------
  C     -0.083266    1.546021    0.019691
  C     -0.031926    0.029249   -0.021244
  C      1.243592   -0.642072   -0.604074
  O      1.990175   -0.242032    0.615618
  C      0.672659   -0.696407    1.176378
  C      0.418952   -0.609573    2.571841
  C      0.166394   -0.560840    3.746500
  C      0.895941   -1.913777    0.203462
  O      0.920228   -3.095494    0.175254
  H      0.881185    1.959644    0.319277
  H     -0.348094    1.945404   -0.964235
  H     -0.843015    1.880500    0.732591
  H     -0.981750   -0.420674   -0.329064
  H      1.736569   -0.501265   -1.562302
  H     -0.048930   -0.521571    4.786120

 Total Charge           Charge          ....    0
 Multiplicity           Mult            ....    1
 Number of Electrons    NEL             ....   64
 Basis Dimension        Dim             ....  315

ORBITAL ENERGIES
----------------

  NO   OCC          E(Eh)            E(eV)
   0   2.0000     -20.591073      -560.3116
   1   2.0000     -20.578976      -559.9824
   2   2.0000     -11.366448      -309.2968
   3   2.0000     -11.347008      -308.7678
   4   2.0000     -11.326738      -308.2162
   5   2.0000     -11.279902      -306.9417
   6   2.0000     -11.258681      -306.3643
   7   2.0000     -11.254698      -306.2559
   8   2.0000     -11.235845      -305.7429
   9   2.0000      -1.443797       -39.2877
  10   2.0000      -1.409798       -38.3626
  11   2.0000      -1.107978       -30.1496
  12   2.0000      -1.064893       -28.9772
  13   2.0000      -0.999180       -27.1891
  14   2.0000      -0.943299       -25.6685
  15   2.0000      -0.837313       -22.7844
  16   2.0000      -0.799456       -21.7543
  17   2.0000      -0.727627       -19.7997
  18   2.0000      -0.718029       -19.5386
  19   2.0000      -0.681753       -18.5515
  20   2.0000      -0.646713       -17.5979
  21   2.0000      -0.611190       -16.6313
  22   2.0000      -0.606054       -16.4916
  23   2.0000      -0.580301       -15.7908
  24   2.0000      -0.561875       -15.2894
  25   2.0000      -0.528687       -14.3863
  26   2.0000      -0.504975       -13.7411
  27   2.0000      -0.497345       -13.5334
  28   2.0000      -0.464978       -12.6527
  29   2.0000      -0.449776       -12.2390
  30   2.0000      -0.414927       -11.2907
  31   2.0000      -0.385102       -10.4791
  32   0.0000       0.119428         3.2498
  33   0.0000       0.130101         3.5402
  34   0.0000       0.145044         3.9469
  35   0.0000       0.152774         4.1572
  36   0.0000       0.158262         4.3065

MULLIKEN ATOMIC CHARGES
-----------------------
   0 C :   -0.450614
   1 C :    0.023016
   2 C :   -0.043630
   3 O :   -0.266186
   4 C :   -0.185607
   5 C :   -0.002116
   6 C :   -0.072267
   7 C :    0.270556
   8 O :   -0.213362
   9 H :    0.165630
  10 H :    0.140600
  11 H :    0.143505
  12 H :    0.123928
  13 H :    0.163759
  14 H :    0.202786
Sum of atomic charges:   -0.0000000

LOEWDIN ATOMIC CHARGES
----------------------
   0 C :   -0.286745
   1 C :   -0.175948
   2 C :   -0.174575
   3 O :    0.185757
   4 C :   -0.211750
   5 C :   -0.064055
   6 C :   -0.040881
   7 C :   -0.244546
   8 O :    0.197466
   9 H :    0.136338
  10 H :    0.129136
  11 H :    0.131615
  12 H :    0.153686
  13 H :    0.132137
  14 H :    0.132364

  Mayer bond orders larger than 0.1
B(  0-C ,  1-C ) :   0.8831 B(  0-C ,  9-H ) :   0.9358 B(  0-C , 10-H ) :   0.9332
B(  0-C , 11-H ) :   0.9314 B(  1-C ,  2-C ) :   0.9050 B(  1-C ,  4-C ) :   0.8613
B(  1-C , 12-H ) :   0.9061 B(  2-C ,  3-O ) :   0.8716 B(  2-C ,  7-C ) :   0.8827
B(  2-C , 13-H ) :   0.8765 B(  3-O ,  4-C ) :   0.8695 B(  4-C ,  5-C ) :   1.2322
B(  4-C ,  6-C ) :  -0.1640 B(  4-C ,  7-C ) :   0.8045 B(  5-C ,  6-C ) :   2.6377
B(  6-C , 14-H ) :   0.8592 B(  7-C ,  8-O ) :   2.0880

MP2 TOTAL ENERGY:     -419.813743081 Eh
FINAL SINGLE POINT ENERGY      -419.813743080516

DIPOLE MOMENT
-------------
                                X             Y             Z
Electronic contribution:      2.85954      -6.98020       1.70194
Nuclear contribution   :     -3.58826       7.88030      -1.86315
                        -----------------------------------------
Total Dipole Moment    :     -0.72872       0.90010      -0.16121
                        -----------------------------------------
Magnitude (a.u.)       :      1.16927
Magnitude (Debye)      :      2.97206

                             ****ORCA TERMINATED NORMALLY****
TOTAL RUN TIME: 0 days 0 hours 16 minutes 8 seconds 578 msec
