                         Program Version 3.0.3 - RELEASE   -
|  1> ! RI-MP2 RIJK def2-TZVP def2-TZVP/C def2-TZVP/JK TIGHTSCF
|  2> % maxcore 2000
|  3> % mp2 density relaxed end
|  4> *xyz 0 1
|  5>  N       -0.0550230037     1.3514190466     0.0089874097
|  6>  C        0.0562979520    -0.0079592053     0.0013068775
|  7>  O        1.1192529672    -0.5980369553    -0.0114479087
|  8>  C       -1.2212124566    -0.7041748583     0.0097669739
|  9>  C       -2.2459357470    -1.3520916907     0.0161228717
| 10>  C       -3.3994671256    -2.0657779621     0.0233579076
| 11>  C       -4.4284067041    -2.7031418156     0.0298082186
| 12>  C       -5.6855137257    -3.4351105214     0.0379690579
| 13>  O       -5.4285023587    -4.8305412796     0.0278892663
| 14>  H        0.7892993904     1.8997931369     0.0038052581
| 15>  H       -0.9488319560     1.8103270897     0.0194872403
| 16>  H       -6.2599547393    -3.1343069053     0.9300492479
| 17>  H       -6.2770655808    -3.1246716475    -0.8395039654
| 18>  H       -6.2795805721    -5.2808236621     0.0332226245
| 19> *
| 20>
| 21>                          ****END OF INPUT****

CARTESIAN COORDINATES (ANGSTROEM)
---------------------------------
  N     -0.055023    1.351419    0.008987
  C      0.056298   -0.007959    0.001307
  O      1.119253   -0.598037   -0.011448
  C     -1.221212   -0.704175    0.009767
  C     -2.245936   -1.352092    0.016123
  C     -3.399467   -2.065778    0.023358
  C     -4.428407   -2.703142    0.029808
  C     -5.685514   -3.435111    0.037969
  O     -5.428502   -4.830541    0.027889
  H      0.789299    1.899793    0.003805
  H     -0.948832    1.810327    0.019487
  H     -6.259955   -3.134307    0.930049
  H     -6.277066   -3.124672   -0.839504
  H     -6.279581   -5.280824    0.033223

 Total Charge           Charge          ....    0
 Multiplicity           Mult            ....    1
 Number of Electrons    NEL             ....   64
 Basis Dimension        Dim             ....  309

ORBITAL ENERGIES
----------------

  NO   OCC          E(Eh)            E(eV)
   0   2.0000     -20.583795      -560.1135
   1   2.0000     -20.532980      -558.7308
   2   2.0000     -15.596764      -424.4095
   3   2.0000     -11.385452      -309.8139
   4   2.0000     -11.329273      -308.2852
   5   2.0000     -11.281043      -306.9728
   6   2.0000     -11.270542      -306.6870
   7   2.0000     -11.263977      -306.5084
   8   2.0000     -11.263813      -306.5039
   9   2.0000      -1.396950       -38.0129
  10   2.0000      -1.389044       -37.7978
  11   2.0000      -1.226681       -33.3797
  12   2.0000      -1.107988       -30.1499
  13   2.0000      -1.055074       -28.7100
  14   2.0000      -0.977052       -26.5869
  15   2.0000      -0.901118       -24.5207
  16   2.0000      -0.817740       -22.2518
  17   2.0000      -0.761400       -20.7188
  18   2.0000      -0.732098       -19.9214
  19   2.0000      -0.699912       -19.0456
  20   2.0000      -0.667763       -18.1708
  21   2.0000      -0.667344       -18.1594
  22   2.0000      -0.626877       -17.0582
  23   2.0000      -0.596261       -16.2251
  24   2.0000      -0.555221       -15.1083
  25   2.0000      -0.503322       -13.6961
  26   2.0000      -0.499431       -13.5902
  27   2.0000      -0.474656       -12.9160
  28   2.0000      -0.456822       -12.4308
  29   2.0000      -0.426733       -11.6120
  30   2.0000      -0.370912       -10.0930
  31   2.0000      -0.364950        -9.9308
  32   0.0000       0.074691         2.0324
  33   0.0000       0.090103         2.4518
  34   0.0000       0.124568         3.3897
  35   0.0000       0.133355         3.6288
  36   0.0000       0.164332         4.4717

MULLIKEN ATOMIC CHARGES
-----------------------
   0 N :   -0.469292
   1 C :    0.246640
   2 O :   -0.310230
   3 C :   -0.000869
   4 C :   -0.026995
   5 C :    0.028201
   6 C :    0.019469
   7 C :   -0.174208
   8 O :   -0.437595
   9 H :    0.265725
  10 H :    0.267892
  11 H :    0.135183
  12 H :    0.135191
  13 H :    0.320889
Sum of atomic charges:   -0.0000000

LOEWDIN ATOMIC CHARGES
----------------------
   0 N :   -0.000523
   1 C :   -0.483157
   2 O :    0.114355
   3 C :    0.018187
   4 C :   -0.033787
   5 C :   -0.048093
   6 C :   -0.007527
   7 C :   -0.335562
   8 O :   -0.032721
   9 H :    0.177048
  10 H :    0.176635
  11 H :    0.138614
  12 H :    0.138613
  13 H :    0.177919

  Mayer bond orders larger than 0.1
B(  0-N ,  1-C ) :   1.2359 B(  0-N ,  3-C ) :  -0.1087 B(  0-N ,  9-H ) :   0.8583
B(  0-N , 10-H ) :   0.8665 B(  1-C ,  2-O ) :   2.0335 B(  1-C ,  3-C ) :   0.8294
B(  3-C ,  4-C ) :   2.6234 B(  3-C ,  6-C ) :   0.1120 B(  4-C ,  5-C ) :   1.3049
B(  5-C ,  6-C ) :   2.5918 B(  6-C ,  7-C ) :   0.8710 B(  7-C ,  8-O ) :   1.1294
B(  7-C , 11-H ) :   0.9470 B(  7-C , 12-H ) :   0.9469 B(  8-O , 13-H ) :   0.8439

MP2 TOTAL ENERGY:     -435.914835396 Eh
FINAL SINGLE POINT ENERGY      -435.914835395542

DIPOLE MOMENT
-------------
                                X             Y             Z
Electronic contribution:      4.66696       0.83629      -0.03938
Nuclear contribution   :     -6.65316       0.22635       0.06308
                        -----------------------------------------
Total Dipole Moment    :     -1.98620       1.06264       0.02370
                        -----------------------------------------
Magnitude (a.u.)       :      2.25272
Magnitude (Debye)      :      5.72596

                             ****ORCA TERMINATED NORMALLY****
TOTAL RUN TIME: 0 days 0 hours 10 minutes 37 seconds 287 msec
