                         Program Version 3.0.3 - RELEASE   -
|  1> ! RI-MP2 RIJK def2-TZVP def2-TZVP/C def2-TZVP/JK TIGHTSCF
|  2> % maxcore 2000
|  3> % mp2 density relaxed end
|  4> *xyz 0 1
|  5>  C        0.1323389313     1.5031383076    -0.4721905979
|  6>  C        0.0577736174     0.0431927867    -0.0801781186
|  7>  C        1.2875496723    -0.7857452989     0.0741690955
|  8>  N        0.4614907490    -0.4606954896     1.2350782142
|  9>  C        1.0109178463     0.4468616676     2.2310750097
| 10>  C        1.6796058579    -0.3603784155     3.3462232499
| 11>  C        2.2351276832     0.5536271311     4.4551846717
| 12>  C        2.8938968813    -0.1939570621     5.5237109027
| 13>  N        3.4134618332    -0.7979813090     6.3607164299
| 14>  H        1.0757769180     1.9699773294    -0.1793637876
| 15>  H        0.0417581788     1.5979574074    -1.5592984743
| 16>  H       -0.6863989984     2.0765872759    -0.0232681119
| 17>  H       -0.8359289677    -0.4584527562    -0.4498479610
| 18>  H        1.3076305270    -1.8302960937    -0.2253164352
| 19>  H        2.2415442451    -0.2673578948    -0.0289943187
| 20>  H        1.7403814776     1.1650959999     1.8177272545
| 21>  H        0.1840258421     1.0363036588     2.6483660291
| 22>  H        0.9545093175    -1.0616361928     3.7688226636
| 23>  H        2.4943590287    -0.9608813187     2.9277975169
| 24>  H        2.9569667600     1.2663393425     4.0383119394
| 25>  H        1.4280355994     1.1498215444     4.8976653479
| 26> *
| 27>
| 28>                          ****END OF INPUT****

CARTESIAN COORDINATES (ANGSTROEM)
---------------------------------
  C      0.132339    1.503138   -0.472191
  C      0.057774    0.043193   -0.080178
  C      1.287550   -0.785745    0.074169
  N      0.461491   -0.460695    1.235078
  C      1.010918    0.446862    2.231075
  C      1.679606   -0.360378    3.346223
  C      2.235128    0.553627    4.455185
  C      2.893897   -0.193957    5.523711
  N      3.413462   -0.797981    6.360716
  H      1.075777    1.969977   -0.179364
  H      0.041758    1.597957   -1.559298
  H     -0.686399    2.076587   -0.023268
  H     -0.835929   -0.458453   -0.449848
  H      1.307631   -1.830296   -0.225316
  H      2.241544   -0.267358   -0.028994
  H      1.740381    1.165096    1.817727
  H      0.184026    1.036304    2.648366
  H      0.954509   -1.061636    3.768823
  H      2.494359   -0.960881    2.927798
  H      2.956967    1.266339    4.038312
  H      1.428036    1.149822    4.897665

 Total Charge           Charge          ....    0
 Multiplicity           Mult            ....    1
 Number of Electrons    NEL             ....   68
 Basis Dimension        Dim             ....  351

ORBITAL ENERGIES
----------------

  NO   OCC          E(Eh)            E(eV)
   0   2.0000     -15.564952      -423.5439
   1   2.0000     -15.564757      -423.5386
   2   2.0000     -11.282195      -307.0041
   3   2.0000     -11.270006      -306.6724
   4   2.0000     -11.268520      -306.6320
   5   2.0000     -11.268328      -306.6268
   6   2.0000     -11.258855      -306.3690
   7   2.0000     -11.246695      -306.0381
   8   2.0000     -11.233036      -305.6664
   9   2.0000      -1.281102       -34.8606
  10   2.0000      -1.215272       -33.0692
  11   2.0000      -1.100962       -29.9587
  12   2.0000      -1.021235       -27.7892
  13   2.0000      -0.981657       -26.7122
  14   2.0000      -0.885806       -24.1040
  15   2.0000      -0.825486       -22.4626
  16   2.0000      -0.786264       -21.3953
  17   2.0000      -0.697894       -18.9907
  18   2.0000      -0.688582       -18.7373
  19   2.0000      -0.664970       -18.0948
  20   2.0000      -0.644438       -17.5360
  21   2.0000      -0.604738       -16.4557
  22   2.0000      -0.590207       -16.0604
  23   2.0000      -0.569597       -15.4995
  24   2.0000      -0.558793       -15.2055
  25   2.0000      -0.548754       -14.9324
  26   2.0000      -0.528545       -14.3824
  27   2.0000      -0.519766       -14.1436
  28   2.0000      -0.511009       -13.9052
  29   2.0000      -0.465340       -12.6626
  30   2.0000      -0.458680       -12.4813
  31   2.0000      -0.454311       -12.3624
  32   2.0000      -0.443071       -12.0566
  33   2.0000      -0.375870       -10.2279
  34   0.0000       0.117004         3.1838
  35   0.0000       0.138818         3.7774
  36   0.0000       0.154100         4.1933
  37   0.0000       0.161641         4.3985
  38   0.0000       0.172294         4.6884

MULLIKEN ATOMIC CHARGES
-----------------------
   0 C :   -0.391731
   1 C :   -0.018744
   2 C :   -0.201963
   3 N :   -0.214396
   4 C :   -0.160056
   5 C :   -0.206453
   6 C :   -0.130784
   7 C :   -0.181310
   8 N :   -0.058386
   9 H :    0.125110
  10 H :    0.144724
  11 H :    0.134936
  12 H :    0.120645
  13 H :    0.132977
  14 H :    0.116823
  15 H :    0.090718
  16 H :    0.119463
  17 H :    0.138562
  18 H :    0.132062
  19 H :    0.153145
  20 H :    0.154660
Sum of atomic charges:   -0.0000000

LOEWDIN ATOMIC CHARGES
----------------------
   0 C :   -0.301349
   1 C :   -0.280133
   2 C :   -0.248467
   3 N :    0.109293
   4 C :   -0.297067
   5 C :   -0.244008
   6 C :   -0.246959
   7 C :   -0.194042
   8 N :    0.053992
   9 H :    0.123134
  10 H :    0.131884
  11 H :    0.126875
  12 H :    0.142028
  13 H :    0.124306
  14 H :    0.123918
  15 H :    0.121731
  16 H :    0.135760
  17 H :    0.147631
  18 H :    0.145131
  19 H :    0.162649
  20 H :    0.163691

  Mayer bond orders larger than 0.1
B(  0-C ,  1-C ) :   0.9127 B(  0-C ,  9-H ) :   0.9357 B(  0-C , 10-H ) :   0.9311
B(  0-C , 11-H ) :   0.9372 B(  1-C ,  2-C ) :   0.9398 B(  1-C ,  3-N ) :   0.8930
B(  1-C , 12-H ) :   0.9236 B(  2-C ,  3-N ) :   0.8804 B(  2-C , 13-H ) :   0.9219
B(  2-C , 14-H ) :   0.9177 B(  3-N ,  4-C ) :   0.9238 B(  4-C ,  5-C ) :   0.9390
B(  4-C , 15-H ) :   0.9293 B(  4-C , 16-H ) :   0.9177 B(  5-C ,  6-C ) :   0.9208
B(  5-C , 17-H ) :   0.9243 B(  5-C , 18-H ) :   0.9270 B(  6-C ,  7-C ) :   0.9417
B(  6-C , 19-H ) :   0.9053 B(  6-C , 20-H ) :   0.9062 B(  7-C ,  8-N ) :   2.8854

MP2 TOTAL ENERGY:     -382.578158166 Eh
FINAL SINGLE POINT ENERGY      -382.578158166012

DIPOLE MOMENT
-------------
                                X             Y             Z
Electronic contribution:      3.55818      -3.98934       9.54768
Nuclear contribution   :     -4.11230       5.08988     -11.11685
                        -----------------------------------------
Total Dipole Moment    :     -0.55412       1.10054      -1.56917
                        -----------------------------------------
Magnitude (a.u.)       :      1.99512
Magnitude (Debye)      :      5.07120

                             ****ORCA TERMINATED NORMALLY****
TOTAL RUN TIME: 0 days 0 hours 16 minutes 33 seconds 188 msec
