                         Program Version 3.0.3 - RELEASE   -
|  1> ! RI-MP2 RIJK def2-TZVP def2-TZVP/C def2-TZVP/JK TIGHTSCF
|  2> % maxcore 2000
|  3> % mp2 density relaxed end
|  4> *xyz 0 1
|  5>  C       -0.0536862021     1.5903183649     0.0562838410
|  6>  C        1.4939356264     1.4544184109     0.0161274522
|  7>  C        1.7739530193     0.7821270693     1.3712440862
|  8>  C        0.6981159639    -0.3596873226     1.3128972776
|  9>  C        1.3375438357    -1.7534172536     1.2175971488
| 10>  C        2.2132414214    -1.8674433768    -0.0068666650
| 11>  C        2.1981005272    -0.9466918060    -0.9731017882
| 12>  C        1.2487950152     0.2096720982    -0.9277373455
| 13>  C        0.0020471621     0.0446532023    -0.0109655024
| 14>  H       -0.5005586232     2.0563201567     0.9402088028
| 15>  H       -0.4678022499     2.0335209505    -0.8530916553
| 16>  H        2.1393267282     2.2815712521    -0.2825866713
| 17>  H        2.7901909329     0.3862558817     1.4450612792
| 18>  H        1.6147723880     1.4704865327     2.2065362224
| 19>  H        0.0110527385    -0.3175659267     2.1634448310
| 20>  H        1.9395598004    -1.9444354965     2.1168637824
| 21>  H        0.5666603570    -2.5386441056     1.2100684501
| 22>  H        2.8797632657    -2.7241706860    -0.0712415274
| 23>  H        2.8626558241    -1.0362306850    -1.8288497835
| 24>  H        0.9720467092     0.5490118291    -1.9297286484
| 25>  H       -0.8521444300    -0.5586748294    -0.3228011164
| 26> *
| 27>
| 28>                          ****END OF INPUT****

CARTESIAN COORDINATES (ANGSTROEM)
---------------------------------
  C     -0.053686    1.590318    0.056284
  C      1.493936    1.454418    0.016127
  C      1.773953    0.782127    1.371244
  C      0.698116   -0.359687    1.312897
  C      1.337544   -1.753417    1.217597
  C      2.213241   -1.867443   -0.006867
  C      2.198101   -0.946692   -0.973102
  C      1.248795    0.209672   -0.927737
  C      0.002047    0.044653   -0.010966
  H     -0.500559    2.056320    0.940209
  H     -0.467802    2.033521   -0.853092
  H      2.139327    2.281571   -0.282587
  H      2.790191    0.386256    1.445061
  H      1.614772    1.470487    2.206536
  H      0.011053   -0.317566    2.163445
  H      1.939560   -1.944435    2.116864
  H      0.566660   -2.538644    1.210068
  H      2.879763   -2.724171   -0.071242
  H      2.862656   -1.036231   -1.828850
  H      0.972047    0.549012   -1.929729
  H     -0.852144   -0.558675   -0.322801

 Total Charge           Charge          ....    0
 Multiplicity           Mult            ....    1
 Number of Electrons    NEL             ....   66
 Basis Dimension        Dim             ....  351

ORBITAL ENERGIES
----------------

  NO   OCC          E(Eh)            E(eV)
   0   2.0000     -11.227595      -305.5184
   1   2.0000     -11.224577      -305.4363
   2   2.0000     -11.222918      -305.3911
   3   2.0000     -11.222350      -305.3757
   4   2.0000     -11.220745      -305.3320
   5   2.0000     -11.220098      -305.3144
   6   2.0000     -11.216414      -305.2141
   7   2.0000     -11.215339      -305.1849
   8   2.0000     -11.211573      -305.0824
   9   2.0000      -1.190001       -32.3816
  10   2.0000      -1.066817       -29.0296
  11   2.0000      -1.009190       -27.4615
  12   2.0000      -0.942338       -25.6423
  13   2.0000      -0.902754       -24.5652
  14   2.0000      -0.860328       -23.4107
  15   2.0000      -0.772430       -21.0189
  16   2.0000      -0.741809       -20.1857
  17   2.0000      -0.688317       -18.7301
  18   2.0000      -0.671223       -18.2649
  19   2.0000      -0.645335       -17.5604
  20   2.0000      -0.616529       -16.7766
  21   2.0000      -0.587458       -15.9855
  22   2.0000      -0.557477       -15.1697
  23   2.0000      -0.537432       -14.6243
  24   2.0000      -0.514151       -13.9908
  25   2.0000      -0.504815       -13.7367
  26   2.0000      -0.481540       -13.1034
  27   2.0000      -0.464628       -12.6432
  28   2.0000      -0.444134       -12.0855
  29   2.0000      -0.435226       -11.8431
  30   2.0000      -0.424763       -11.5584
  31   2.0000      -0.415407       -11.3038
  32   2.0000      -0.334454        -9.1010
  33   0.0000       0.138004         3.7553
  34   0.0000       0.148962         4.0534
  35   0.0000       0.161581         4.3968
  36   0.0000       0.169036         4.5997
  37   0.0000       0.184474         5.0198

MULLIKEN ATOMIC CHARGES
-----------------------
   0 C :   -0.252608
   1 C :   -0.068496
   2 C :   -0.280001
   3 C :   -0.045561
   4 C :   -0.210004
   5 C :   -0.176598
   6 C :   -0.257992
   7 C :   -0.028971
   8 C :   -0.071782
   9 H :    0.110288
  10 H :    0.114964
  11 H :    0.119122
  12 H :    0.122312
  13 H :    0.118863
  14 H :    0.102902
  15 H :    0.124434
  16 H :    0.118039
  17 H :    0.117479
  18 H :    0.115813
  19 H :    0.108971
  20 H :    0.118825
Sum of atomic charges:   -0.0000000

LOEWDIN ATOMIC CHARGES
----------------------
   0 C :   -0.199866
   1 C :   -0.180702
   2 C :   -0.199782
   3 C :   -0.199998
   4 C :   -0.233971
   5 C :   -0.162345
   6 C :   -0.154646
   7 C :   -0.174030
   8 C :   -0.165138
   9 H :    0.126303
  10 H :    0.136033
  11 H :    0.130620
  12 H :    0.139813
  13 H :    0.133247
  14 H :    0.145052
  15 H :    0.145405
  16 H :    0.143699
  17 H :    0.139110
  18 H :    0.140723
  19 H :    0.155590
  20 H :    0.134882

  Mayer bond orders larger than 0.1
B(  0-C ,  1-C ) :   0.9136 B(  0-C ,  8-C ) :   0.9211 B(  0-C ,  9-H ) :   0.9176
B(  0-C , 10-H ) :   0.9232 B(  1-C ,  2-C ) :   0.9297 B(  1-C ,  7-C ) :   0.8741
B(  1-C , 11-H ) :   0.9126 B(  2-C ,  3-C ) :   0.9391 B(  2-C , 12-H ) :   0.9229
B(  2-C , 13-H ) :   0.9276 B(  3-C ,  4-C ) :   0.9341 B(  3-C ,  8-C ) :   0.8886
B(  3-C , 14-H ) :   0.9269 B(  4-C ,  5-C ) :   0.9516 B(  4-C , 15-H ) :   0.9214
B(  4-C , 16-H ) :   0.9063 B(  5-C ,  6-C ) :   1.7947 B(  5-C , 17-H ) :   0.9333
B(  6-C ,  7-C ) :   0.9345 B(  6-C , 18-H ) :   0.9322 B(  7-C ,  8-C ) :   0.9266
B(  7-C , 19-H ) :   0.9241 B(  8-C , 20-H ) :   0.9147

MP2 TOTAL ENERGY:     -349.320760344 Eh
FINAL SINGLE POINT ENERGY      -349.320760344076

DIPOLE MOMENT
-------------
                                X             Y             Z
Electronic contribution:      0.45006      -0.64788      -1.66589
Nuclear contribution   :     -0.50109       0.66279       1.73245
                        -----------------------------------------
Total Dipole Moment    :     -0.05103       0.01490       0.06656
                        -----------------------------------------
Magnitude (a.u.)       :      0.08519
Magnitude (Debye)      :      0.21652

                             ****ORCA TERMINATED NORMALLY****
TOTAL RUN TIME: 0 days 0 hours 22 minutes 23 seconds 422 msec
