                         Program Version 3.0.3 - RELEASE   -
|  1> ! RI-MP2 RIJK def2-TZVP def2-TZVP/C def2-TZVP/JK TIGHTSCF
|  2> % maxcore 2000
|  3> % mp2 density relaxed end
|  4> *xyz 0 1
|  5>  C        0.0867288530     1.6055617402     0.0407976078
|  6>  C        0.0250160708     0.0675883414    -0.0128152112
|  7>  C        0.7426078537    -0.5491797818    -1.2301933904
|  8>  C        2.1805940891    -0.8380081020    -0.7501274405
|  9>  C        1.9807406883    -1.3306554369     0.6991616352
| 10>  C        3.1457551379    -1.2404166285     1.5634601651
| 11>  N        4.0848742015    -1.1546749234     2.2312110422
| 12>  C        0.7546092820    -0.5115756784     1.2067142281
| 13>  O        0.4521947550    -0.3594414950     2.3559604219
| 14>  H        1.1160745929     1.9703934252    -0.0400719728
| 15>  H       -0.4894249940     2.0357568300    -0.7832758689
| 16>  H       -0.3260119626     1.9679023754     0.9854540462
| 17>  H       -1.0248625684    -0.2366358756     0.0467303092
| 18>  H        0.2567878848    -1.4874358234    -1.5203784115
| 19>  H        0.7260531063     0.1077484895    -2.1032489433
| 20>  H        2.7023812381    -1.5685386716    -1.3707371961
| 21>  H        2.7801897402     0.0775290754    -0.7427991972
| 22>  H        1.6429197113    -2.3773699306     0.6825265062
| 23> *
| 24>
| 25>                          ****END OF INPUT****

CARTESIAN COORDINATES (ANGSTROEM)
---------------------------------
  C      0.086729    1.605562    0.040798
  C      0.025016    0.067588   -0.012815
  C      0.742608   -0.549180   -1.230193
  C      2.180594   -0.838008   -0.750127
  C      1.980741   -1.330655    0.699162
  C      3.145755   -1.240417    1.563460
  N      4.084874   -1.154675    2.231211
  C      0.754609   -0.511576    1.206714
  O      0.452195   -0.359441    2.355960
  H      1.116075    1.970393   -0.040072
  H     -0.489425    2.035757   -0.783276
  H     -0.326012    1.967902    0.985454
  H     -1.024863   -0.236636    0.046730
  H      0.256788   -1.487436   -1.520378
  H      0.726053    0.107748   -2.103249
  H      2.702381   -1.568539   -1.370737
  H      2.780190    0.077529   -0.742799
  H      1.642920   -2.377370    0.682527

 Total Charge           Charge          ....    0
 Multiplicity           Mult            ....    1
 Number of Electrons    NEL             ....   66
 Basis Dimension        Dim             ....  333

ORBITAL ENERGIES
----------------

  NO   OCC          E(Eh)            E(eV)
   0   2.0000     -20.571007      -559.7656
   1   2.0000     -15.573261      -423.7700
   2   2.0000     -11.355733      -309.0052
   3   2.0000     -11.299776      -307.4825
   4   2.0000     -11.276875      -306.8594
   5   2.0000     -11.266067      -306.5653
   6   2.0000     -11.263655      -306.4996
   7   2.0000     -11.256436      -306.3032
   8   2.0000     -11.242116      -305.9135
   9   2.0000      -1.417935       -38.5840
  10   2.0000      -1.223036       -33.2805
  11   2.0000      -1.162707       -31.6389
  12   2.0000      -1.063248       -28.9324
  13   2.0000      -0.988094       -26.8874
  14   2.0000      -0.918792       -25.0016
  15   2.0000      -0.843711       -22.9585
  16   2.0000      -0.773992       -21.0614
  17   2.0000      -0.720983       -19.6189
  18   2.0000      -0.696511       -18.9530
  19   2.0000      -0.656426       -17.8622
  20   2.0000      -0.630287       -17.1510
  21   2.0000      -0.601657       -16.3719
  22   2.0000      -0.586904       -15.9705
  23   2.0000      -0.581906       -15.8345
  24   2.0000      -0.566091       -15.4041
  25   2.0000      -0.555450       -15.1146
  26   2.0000      -0.541467       -14.7341
  27   2.0000      -0.518650       -14.1132
  28   2.0000      -0.500984       -13.6325
  29   2.0000      -0.492860       -13.4114
  30   2.0000      -0.475275       -12.9329
  31   2.0000      -0.457861       -12.4590
  32   2.0000      -0.411648       -11.2015
  33   0.0000       0.097742         2.6597
  34   0.0000       0.126686         3.4473
  35   0.0000       0.136807         3.7227
  36   0.0000       0.146317         3.9815
  37   0.0000       0.159944         4.3523

MULLIKEN ATOMIC CHARGES
-----------------------
   0 C :   -0.443708
   1 C :   -0.013141
   2 C :   -0.215041
   3 C :   -0.290516
   4 C :    0.063194
   5 C :   -0.197282
   6 N :   -0.045616
   7 C :    0.096909
   8 O :   -0.235337
   9 H :    0.135702
  10 H :    0.143283
  11 H :    0.159591
  12 H :    0.128083
  13 H :    0.130399
  14 H :    0.138608
  15 H :    0.146142
  16 H :    0.146653
  17 H :    0.152078
Sum of atomic charges:   -0.0000000

LOEWDIN ATOMIC CHARGES
----------------------
   0 C :   -0.276051
   1 C :   -0.236813
   2 C :   -0.225986
   3 C :   -0.207935
   4 C :   -0.207017
   5 C :   -0.166238
   6 N :    0.070947
   7 C :   -0.258603
   8 O :    0.191377
   9 H :    0.127246
  10 H :    0.127121
  11 H :    0.133716
  12 H :    0.163449
  13 H :    0.141862
  14 H :    0.141777
  15 H :    0.141617
  16 H :    0.147688
  17 H :    0.191842

  Mayer bond orders larger than 0.1
B(  0-C ,  1-C ) :   0.8983 B(  0-C ,  9-H ) :   0.9281 B(  0-C , 10-H ) :   0.9367
B(  0-C , 11-H ) :   0.9352 B(  1-C ,  2-C ) :   0.9041 B(  1-C ,  7-C ) :   0.8853
B(  1-C , 12-H ) :   0.9127 B(  2-C ,  3-C ) :   0.9034 B(  2-C , 13-H ) :   0.9299
B(  2-C , 14-H ) :   0.9253 B(  3-C ,  4-C ) :   0.9008 B(  3-C , 15-H ) :   0.9233
B(  3-C , 16-H ) :   0.9299 B(  4-C ,  5-C ) :   0.9419 B(  4-C ,  7-C ) :   0.8217
B(  4-C , 17-H ) :   0.8705 B(  5-C ,  6-N ) :   2.8734 B(  7-C ,  8-O ) :   2.0521

MP2 TOTAL ENERGY:     -401.306746891 Eh
FINAL SINGLE POINT ENERGY      -401.306746891378

DIPOLE MOMENT
-------------
                                X             Y             Z
Electronic contribution:      4.22170      -4.24450       8.17548
Nuclear contribution   :     -5.34408       4.22883     -10.15393
                        -----------------------------------------
Total Dipole Moment    :     -1.12237      -0.01567      -1.97845
                        -----------------------------------------
Magnitude (a.u.)       :      2.27469
Magnitude (Debye)      :      5.78181

                             ****ORCA TERMINATED NORMALLY****
TOTAL RUN TIME: 0 days 0 hours 17 minutes 58 seconds 628 msec
