                         Program Version 3.0.3 - RELEASE   -
|  1> ! RI-MP2 RIJK def2-TZVP def2-TZVP/C def2-TZVP/JK TIGHTSCF
|  2> % maxcore 2000
|  3> % mp2 density relaxed end
|  4> *xyz 0 1
|  5>  C        0.0077336699     1.5274118281    -0.0254803968
|  6>  C        0.0353345742     0.0090928193     0.0586205636
|  7>  C       -1.1260515024    -0.6400263525    -0.4990037866
|  8>  N       -2.0709244701    -1.1043353215    -0.9789290202
|  9>  C        1.3292697093    -0.7852674535    -0.1309965909
| 10>  O        2.4402247133    -0.0190116280     0.3099789142
| 11>  C        1.9323987568    -0.0285820682     1.6740235958
| 12>  C        0.6679985354    -0.7770199363     1.2256633829
| 13>  N       -0.0570183691    -1.7855015642     1.8966565038
| 14>  H        1.0088468572     1.9295486769     0.1388582007
| 15>  H       -0.3216313690     1.8411965544    -1.0193251064
| 16>  H       -0.6792760200     1.9557518675     0.7102559097
| 17>  H        1.4748966935    -1.5382726203    -0.8956598891
| 18>  H        2.5746669408    -0.6456434152     2.3135280115
| 19>  H        1.8358653213     0.9763985751     2.0981339602
| 20>  H        0.5494650875    -2.4394956731     2.3785436646
| 21>  H       -0.7284032485    -1.4102211486     2.5574236831
| 22> *
| 23>
| 24>                          ****END OF INPUT****

CARTESIAN COORDINATES (ANGSTROEM)
---------------------------------
  C      0.007734    1.527412   -0.025480
  C      0.035335    0.009093    0.058621
  C     -1.126052   -0.640026   -0.499004
  N     -2.070924   -1.104335   -0.978929
  C      1.329270   -0.785267   -0.130997
  O      2.440225   -0.019012    0.309979
  C      1.932399   -0.028582    1.674024
  C      0.667999   -0.777020    1.225663
  N     -0.057018   -1.785502    1.896657
  H      1.008847    1.929549    0.138858
  H     -0.321631    1.841197   -1.019325
  H     -0.679276    1.955752    0.710256
  H      1.474897   -1.538273   -0.895660
  H      2.574667   -0.645643    2.313528
  H      1.835865    0.976399    2.098134
  H      0.549465   -2.439496    2.378544
  H     -0.728403   -1.410221    2.557424

 Total Charge           Charge          ....    0
 Multiplicity           Mult            ....    1
 Number of Electrons    NEL             ....   66
 Basis Dimension        Dim             ....  327

ORBITAL ENERGIES
----------------

  NO   OCC          E(Eh)            E(eV)
   0   2.0000     -20.581580      -560.0533
   1   2.0000     -15.574279      -423.7977
   2   2.0000     -15.563618      -423.5076
   3   2.0000     -11.315361      -307.9066
   4   2.0000     -11.307528      -307.6935
   5   2.0000     -11.303572      -307.5858
   6   2.0000     -11.294091      -307.3278
   7   2.0000     -11.269193      -306.6503
   8   2.0000     -11.240991      -305.8829
   9   2.0000      -1.423079       -38.7239
  10   2.0000      -1.235446       -33.6182
  11   2.0000      -1.207783       -32.8654
  12   2.0000      -1.129373       -30.7318
  13   2.0000      -0.996130       -27.1061
  14   2.0000      -0.968790       -26.3621
  15   2.0000      -0.864176       -23.5154
  16   2.0000      -0.783319       -21.3152
  17   2.0000      -0.743519       -20.2322
  18   2.0000      -0.703235       -19.1360
  19   2.0000      -0.676300       -18.4031
  20   2.0000      -0.655493       -17.8369
  21   2.0000      -0.614634       -16.7250
  22   2.0000      -0.605501       -16.4765
  23   2.0000      -0.580720       -15.8022
  24   2.0000      -0.564638       -15.3646
  25   2.0000      -0.551499       -15.0070
  26   2.0000      -0.541469       -14.7341
  27   2.0000      -0.523126       -14.2350
  28   2.0000      -0.483335       -13.1522
  29   2.0000      -0.466865       -12.7040
  30   2.0000      -0.443644       -12.0722
  31   2.0000      -0.409031       -11.1303
  32   2.0000      -0.379809       -10.3351
  33   0.0000       0.113288         3.0827
  34   0.0000       0.137289         3.7358
  35   0.0000       0.154519         4.2047
  36   0.0000       0.168291         4.5794
  37   0.0000       0.174615         4.7515

MULLIKEN ATOMIC CHARGES
-----------------------
   0 C :   -0.428902
   1 C :    0.150090
   2 C :   -0.210271
   3 N :   -0.045650
   4 C :    0.075430
   5 O :   -0.330803
   6 C :   -0.004451
   7 C :   -0.024475
   8 N :   -0.534599
   9 H :    0.164989
  10 H :    0.154465
  11 H :    0.142778
  12 H :    0.159784
  13 H :    0.111282
  14 H :    0.122528
  15 H :    0.245902
  16 H :    0.251903
Sum of atomic charges:   -0.0000000

LOEWDIN ATOMIC CHARGES
----------------------
   0 C :   -0.242013
   1 C :   -0.208232
   2 C :   -0.149647
   3 N :    0.067477
   4 C :   -0.179893
   5 O :    0.161027
   6 C :   -0.218398
   7 C :   -0.277551
   8 N :   -0.088394
   9 H :    0.137730
  10 H :    0.138374
  11 H :    0.131787
  12 H :    0.143250
  13 H :    0.128067
  14 H :    0.122336
  15 H :    0.165256
  16 H :    0.168824

  Mayer bond orders larger than 0.1
B(  0-C ,  1-C ) :   0.8958 B(  0-C ,  9-H ) :   0.9274 B(  0-C , 10-H ) :   0.9289
B(  0-C , 11-H ) :   0.9320 B(  1-C ,  2-C ) :   0.9154 B(  1-C ,  4-C ) :   0.8283
B(  1-C ,  7-C ) :   0.8195 B(  2-C ,  3-N ) :   2.8861 B(  4-C ,  5-O ) :   0.9604
B(  4-C ,  7-C ) :   0.8990 B(  4-C , 12-H ) :   0.9051 B(  5-O ,  6-C ) :   0.9117
B(  6-C ,  7-C ) :   1.0044 B(  6-C , 13-H ) :   0.9048 B(  6-C , 14-H ) :   0.9147
B(  7-C ,  8-N ) :   1.0525 B(  8-N , 15-H ) :   0.8779 B(  8-N , 16-H ) :   0.8722

MP2 TOTAL ENERGY:     -417.263673260 Eh
FINAL SINGLE POINT ENERGY      -417.263673259881

DIPOLE MOMENT
-------------
                                X             Y             Z
Electronic contribution:     -1.42287      -3.15161      -3.03287
Nuclear contribution   :      2.40157       3.55081       4.51429
                        -----------------------------------------
Total Dipole Moment    :      0.97870       0.39920       1.48142
                        -----------------------------------------
Magnitude (a.u.)       :      1.81984
Magnitude (Debye)      :      4.62567

                             ****ORCA TERMINATED NORMALLY****
TOTAL RUN TIME: 0 days 0 hours 17 minutes 27 seconds 919 msec
