                         Program Version 3.0.3 - RELEASE   -
|  1> ! RI-MP2 RIJK def2-TZVP def2-TZVP/C def2-TZVP/JK TIGHTSCF
|  2> % maxcore 2000
|  3> % mp2 density relaxed end
|  4> *xyz 0 1
|  5>  O       -0.1838601660    -0.0615758857    -0.0530133876
|  6>  C       -0.0897699932     1.1336699867    -0.1571561301
|  7>  C        1.1973205210     1.9179406409    -0.0452425846
|  8>  C        1.4595256466     2.7657497282    -1.3072378577
|  9>  C        2.6896223787     3.6184428772    -1.1703781395
| 10>  C        2.6760077870     4.9900280588    -0.6192580301
| 11>  N        2.9592723512     4.8224148249    -2.0603345022
| 12>  C        4.4026118733     4.3932297153    -2.1259805378
| 13>  C        4.1304116577     3.1130774495    -1.2947592811
| 14>  H       -0.9892985494     1.7629857661    -0.3597157318
| 15>  H        1.1059719863     2.5896060215     0.8203855522
| 16>  H        2.0160056576     1.2193180060     0.1495916950
| 17>  H        1.5647314615     2.1038527143    -2.1760271919
| 18>  H        0.5983820447     3.4143826244    -1.5083216457
| 19>  H        1.7098858707     5.4495323940    -0.4312465040
| 20>  H        3.4740695693     5.3298855917     0.0389964494
| 21>  H        4.6881336493     4.1980118907    -3.1611249589
| 22>  H        5.0936951181     5.1276247476    -1.6990554384
| 23>  H        4.6858993518     2.9711506768    -0.3631820774
| 24>  H        4.2101717038     2.2015009710    -1.8914866778
| 25> *
| 26>
| 27>                          ****END OF INPUT****

CARTESIAN COORDINATES (ANGSTROEM)
---------------------------------
  O     -0.183860   -0.061576   -0.053013
  C     -0.089770    1.133670   -0.157156
  C      1.197321    1.917941   -0.045243
  C      1.459526    2.765750   -1.307238
  C      2.689622    3.618443   -1.170378
  C      2.676008    4.990028   -0.619258
  N      2.959272    4.822415   -2.060335
  C      4.402612    4.393230   -2.125981
  C      4.130412    3.113077   -1.294759
  H     -0.989299    1.762986   -0.359716
  H      1.105972    2.589606    0.820386
  H      2.016006    1.219318    0.149592
  H      1.564731    2.103853   -2.176027
  H      0.598382    3.414383   -1.508322
  H      1.709886    5.449532   -0.431247
  H      3.474070    5.329886    0.038996
  H      4.688134    4.198012   -3.161125
  H      5.093695    5.127625   -1.699055
  H      4.685899    2.971151   -0.363182
  H      4.210172    2.201501   -1.891487

 Total Charge           Charge          ....    0
 Multiplicity           Mult            ....    1
 Number of Electrons    NEL             ....   68
 Basis Dimension        Dim             ....  345

ORBITAL ENERGIES
----------------

  NO   OCC          E(Eh)            E(eV)
   0   2.0000     -20.559487      -559.4521
   1   2.0000     -15.563917      -423.5157
   2   2.0000     -11.334383      -308.4242
   3   2.0000     -11.275555      -306.8234
   4   2.0000     -11.261057      -306.4290
   5   2.0000     -11.260760      -306.4208
   6   2.0000     -11.247849      -306.0695
   7   2.0000     -11.247209      -306.0521
   8   2.0000     -11.238538      -305.8162
   9   2.0000      -1.398296       -38.0496
  10   2.0000      -1.296661       -35.2839
  11   2.0000      -1.082646       -29.4603
  12   2.0000      -1.013188       -27.5702
  13   2.0000      -0.961224       -26.1562
  14   2.0000      -0.896583       -24.3973
  15   2.0000      -0.827099       -22.5065
  16   2.0000      -0.795957       -21.6591
  17   2.0000      -0.728734       -19.8299
  18   2.0000      -0.682827       -18.5807
  19   2.0000      -0.677823       -18.4445
  20   2.0000      -0.650501       -17.7010
  21   2.0000      -0.640170       -17.4199
  22   2.0000      -0.611166       -16.6307
  23   2.0000      -0.592425       -16.1207
  24   2.0000      -0.568417       -15.4674
  25   2.0000      -0.554491       -15.0885
  26   2.0000      -0.539971       -14.6934
  27   2.0000      -0.521072       -14.1791
  28   2.0000      -0.503611       -13.7039
  29   2.0000      -0.480078       -13.0636
  30   2.0000      -0.450969       -12.2715
  31   2.0000      -0.437137       -11.8951
  32   2.0000      -0.412662       -11.2291
  33   2.0000      -0.373934       -10.1753
  34   0.0000       0.125845         3.4244
  35   0.0000       0.133989         3.6460
  36   0.0000       0.150662         4.0997
  37   0.0000       0.156049         4.2463
  38   0.0000       0.161674         4.3994

MULLIKEN ATOMIC CHARGES
-----------------------
   0 O :   -0.261189
   1 C :    0.085872
   2 C :   -0.150122
   3 C :   -0.345560
   4 C :    0.156103
   5 C :   -0.192044
   6 N :   -0.243056
   7 C :   -0.140009
   8 C :   -0.246390
   9 H :    0.072477
  10 H :    0.130996
  11 H :    0.125814
  12 H :    0.132937
  13 H :    0.139625
  14 H :    0.126032
  15 H :    0.120903
  16 H :    0.124820
  17 H :    0.115584
  18 H :    0.124355
  19 H :    0.122851
Sum of atomic charges:    0.0000000

LOEWDIN ATOMIC CHARGES
----------------------
   0 O :    0.132476
   1 C :   -0.297566
   2 C :   -0.252052
   3 C :   -0.223353
   4 C :   -0.263439
   5 C :   -0.232948
   6 N :    0.109821
   7 C :   -0.244170
   8 C :   -0.212564
   9 H :    0.109675
  10 H :    0.152702
  11 H :    0.146112
  12 H :    0.147933
  13 H :    0.150497
  14 H :    0.133850
  15 H :    0.127174
  16 H :    0.127275
  17 H :    0.120363
  18 H :    0.129729
  19 H :    0.138487

  Mayer bond orders larger than 0.1
B(  0-O ,  1-C ) :   2.0123 B(  1-C ,  2-C ) :   0.8664 B(  1-C ,  9-H ) :   0.9444
B(  2-C ,  3-C ) :   0.8995 B(  2-C , 10-H ) :   0.9138 B(  2-C , 11-H ) :   0.9024
B(  3-C ,  4-C ) :   0.8780 B(  3-C , 12-H ) :   0.9178 B(  3-C , 13-H ) :   0.9345
B(  4-C ,  5-C ) :   0.9467 B(  4-C ,  6-N ) :   0.8523 B(  4-C ,  8-C ) :   0.9036
B(  5-C ,  6-N ) :   0.9263 B(  5-C , 14-H ) :   0.9198 B(  5-C , 15-H ) :   0.9075
B(  6-N ,  7-C ) :   0.9143 B(  7-C ,  8-C ) :   0.9746 B(  7-C , 16-H ) :   0.9208
B(  7-C , 17-H ) :   0.9364 B(  8-C , 18-H ) :   0.9108 B(  8-C , 19-H ) :   0.9258

MP2 TOTAL ENERGY:     -402.416717640 Eh
FINAL SINGLE POINT ENERGY      -402.416717639694

DIPOLE MOMENT
-------------
                                X             Y             Z
Electronic contribution:     -3.93842      -3.18328       0.28415
Nuclear contribution   :      4.56701       3.85671       0.06373
                        -----------------------------------------
Total Dipole Moment    :      0.62859       0.67343       0.34788
                        -----------------------------------------
Magnitude (a.u.)       :      0.98471
Magnitude (Debye)      :      2.50293

                             ****ORCA TERMINATED NORMALLY****
TOTAL RUN TIME: 0 days 0 hours 16 minutes 35 seconds 786 msec
