                         Program Version 3.0.3 - RELEASE   -
|  1> ! RI-MP2 RIJK def2-TZVP def2-TZVP/C def2-TZVP/JK TIGHTSCF
|  2> % maxcore 2000
|  3> % mp2 density relaxed end
|  4> *xyz 0 1
|  5>  C       -0.0059841334     1.5324292279     0.0679534877
|  6>  C       -0.0533921614     0.0343556635     0.0024747888
|  7>  C       -0.8774143977    -0.7983371797     0.9047076489
|  8>  N        0.5897261105    -0.8664492249     1.0531678785
|  9>  C        1.0457724934    -1.7725811350    -0.0593870240
| 10>  C        0.5164874545    -0.8016797993    -1.1506683489
| 11>  C       -0.4286261769    -1.3056164981    -2.2493475930
| 12>  C        0.3096651726    -2.1438507719    -3.2687086578
| 13>  O        0.0772027838    -3.2997152531    -3.5115182893
| 14>  H        0.9784443217     1.9116665623    -0.2274969680
| 15>  H       -0.7537099068     1.9774691761    -0.5996166195
| 16>  H       -0.2122980265     1.8817272325     1.0836466306
| 17>  H       -1.3635851745    -0.2923531481     1.7335949533
| 18>  H       -1.4114033078    -1.6737598867     0.5403196320
| 19>  H        2.1315622340    -1.8822887300    -0.0432531035
| 20>  H        0.5873528873    -2.7671985423    -0.0284426335
| 21>  H        1.3526215362    -0.2660882803    -1.6136972780
| 22>  H       -1.2496464341    -1.8997266986    -1.8399208683
| 23>  H       -0.8545982923    -0.4381678522    -2.7744226142
| 24>  H        1.1325631372    -1.6032232720    -3.7947456818
| 25> *
| 26>
| 27>                          ****END OF INPUT****

CARTESIAN COORDINATES (ANGSTROEM)
---------------------------------
  C     -0.005984    1.532429    0.067953
  C     -0.053392    0.034356    0.002475
  C     -0.877414   -0.798337    0.904708
  N      0.589726   -0.866449    1.053168
  C      1.045772   -1.772581   -0.059387
  C      0.516487   -0.801680   -1.150668
  C     -0.428626   -1.305616   -2.249348
  C      0.309665   -2.143851   -3.268709
  O      0.077203   -3.299715   -3.511518
  H      0.978444    1.911667   -0.227497
  H     -0.753710    1.977469   -0.599617
  H     -0.212298    1.881727    1.083647
  H     -1.363585   -0.292353    1.733595
  H     -1.411403   -1.673760    0.540320
  H      2.131562   -1.882289   -0.043253
  H      0.587353   -2.767199   -0.028443
  H      1.352622   -0.266088   -1.613697
  H     -1.249646   -1.899727   -1.839921
  H     -0.854598   -0.438168   -2.774423
  H      1.132563   -1.603223   -3.794746

 Total Charge           Charge          ....    0
 Multiplicity           Mult            ....    1
 Number of Electrons    NEL             ....   68
 Basis Dimension        Dim             ....  345

ORBITAL ENERGIES
----------------

  NO   OCC          E(Eh)            E(eV)
   0   2.0000     -20.562000      -559.5205
   1   2.0000     -15.563151      -423.4949
   2   2.0000     -11.336742      -308.4884
   3   2.0000     -11.275490      -306.8217
   4   2.0000     -11.260455      -306.4126
   5   2.0000     -11.259655      -306.3908
   6   2.0000     -11.255068      -306.2660
   7   2.0000     -11.247825      -306.0689
   8   2.0000     -11.230829      -305.6064
   9   2.0000      -1.400587       -38.1119
  10   2.0000      -1.296636       -35.2832
  11   2.0000      -1.075748       -29.2726
  12   2.0000      -1.014451       -27.6046
  13   2.0000      -0.974700       -26.5229
  14   2.0000      -0.891797       -24.2670
  15   2.0000      -0.830681       -22.6040
  16   2.0000      -0.798657       -21.7326
  17   2.0000      -0.727761       -19.8034
  18   2.0000      -0.685905       -18.6644
  19   2.0000      -0.672920       -18.3111
  20   2.0000      -0.647797       -17.6275
  21   2.0000      -0.629090       -17.1184
  22   2.0000      -0.601944       -16.3797
  23   2.0000      -0.588140       -16.0041
  24   2.0000      -0.578785       -15.7495
  25   2.0000      -0.558526       -15.1983
  26   2.0000      -0.550405       -14.9773
  27   2.0000      -0.530252       -14.4289
  28   2.0000      -0.506266       -13.7762
  29   2.0000      -0.477366       -12.9898
  30   2.0000      -0.452896       -12.3239
  31   2.0000      -0.425610       -11.5814
  32   2.0000      -0.420607       -11.4453
  33   2.0000      -0.371900       -10.1199
  34   0.0000       0.120747         3.2857
  35   0.0000       0.134243         3.6529
  36   0.0000       0.152385         4.1466
  37   0.0000       0.157815         4.2944
  38   0.0000       0.167113         4.5474

MULLIKEN ATOMIC CHARGES
-----------------------
   0 C :   -0.430159
   1 C :    0.084520
   2 C :   -0.171777
   3 N :   -0.230434
   4 C :   -0.171866
   5 C :   -0.096651
   6 C :   -0.158804
   7 C :    0.095646
   8 O :   -0.261004
   9 H :    0.131989
  10 H :    0.134602
  11 H :    0.143724
  12 H :    0.128586
  13 H :    0.122437
  14 H :    0.127461
  15 H :    0.129083
  16 H :    0.107841
  17 H :    0.111610
  18 H :    0.129155
  19 H :    0.074041
Sum of atomic charges:   -0.0000000

LOEWDIN ATOMIC CHARGES
----------------------
   0 C :   -0.270647
   1 C :   -0.259137
   2 C :   -0.230591
   3 N :    0.111406
   4 C :   -0.221001
   5 C :   -0.203533
   6 C :   -0.242432
   7 C :   -0.294633
   8 O :    0.133368
   9 H :    0.129018
  10 H :    0.130886
  11 H :    0.135539
  12 H :    0.134581
  13 H :    0.125704
  14 H :    0.128593
  15 H :    0.127250
  16 H :    0.156256
  17 H :    0.145681
  18 H :    0.154219
  19 H :    0.109471

  Mayer bond orders larger than 0.1
B(  0-C ,  1-C ) :   0.8800 B(  0-C ,  9-H ) :   0.9385 B(  0-C , 10-H ) :   0.9360
B(  0-C , 11-H ) :   0.9357 B(  1-C ,  2-C ) :   0.9728 B(  1-C ,  3-N ) :   0.8623
B(  1-C ,  5-C ) :   0.8812 B(  2-C ,  3-N ) :   0.9011 B(  2-C , 12-H ) :   0.9208
B(  2-C , 13-H ) :   0.9023 B(  3-N ,  4-C ) :   0.9405 B(  4-C ,  5-C ) :   0.9757
B(  4-C , 14-H ) :   0.9158 B(  4-C , 15-H ) :   0.9365 B(  5-C ,  6-C ) :   0.8923
B(  5-C , 16-H ) :   0.9136 B(  6-C ,  7-C ) :   0.8734 B(  6-C , 17-H ) :   0.9034
B(  6-C , 18-H ) :   0.9093 B(  7-C ,  8-O ) :   2.0075 B(  7-C , 19-H ) :   0.9378

MP2 TOTAL ENERGY:     -402.419906550 Eh
FINAL SINGLE POINT ENERGY      -402.419906549898

DIPOLE MOMENT
-------------
                                X             Y             Z
Electronic contribution:      0.75898      -5.20694      -2.76951
Nuclear contribution   :     -0.99422       6.20553       2.61792
                        -----------------------------------------
Total Dipole Moment    :     -0.23524       0.99858      -0.15159
                        -----------------------------------------
Magnitude (a.u.)       :      1.03706
Magnitude (Debye)      :      2.63599

                             ****ORCA TERMINATED NORMALLY****
TOTAL RUN TIME: 0 days 0 hours 20 minutes 34 seconds 118 msec
