                         Program Version 3.0.3 - RELEASE   -
|  1> ! RI-MP2 RIJK def2-TZVP def2-TZVP/C def2-TZVP/JK TIGHTSCF
|  2> % maxcore 2000
|  3> % mp2 density relaxed end
|  4> *xyz 0 1
|  5>  C       -0.0145674370     1.3995230638     0.0083653925
|  6>  O        0.0040851950    -0.0308119118     0.0028054300
|  7>  C       -1.1897418671    -0.6266753742     0.0098403532
|  8>  N       -2.3264362601     0.0339914841     0.0212848298
|  9>  O       -3.3150980173    -0.9552503132     0.0252142381
| 10>  C       -2.7250064927    -2.1590100658     0.0159178498
| 11>  C       -1.3765127218    -2.0413827523     0.0058446589
| 12>  H        1.0304654779     1.7100289665     0.0012383994
| 13>  H       -0.5334532784     1.7829540391    -0.8754274605
| 14>  H       -0.5193113793     1.7762249015     0.9031757090
| 15>  H       -3.3927777093    -3.0069701052     0.0178558953
| 16>  H       -0.6246287898    -2.8110395226    -0.0030058057
| 17> *
| 18>
| 19>                          ****END OF INPUT****

CARTESIAN COORDINATES (ANGSTROEM)
---------------------------------
  C     -0.014567    1.399523    0.008365
  O      0.004085   -0.030812    0.002805
  C     -1.189742   -0.626675    0.009840
  N     -2.326436    0.033991    0.021285
  O     -3.315098   -0.955250    0.025214
  C     -2.725006   -2.159010    0.015918
  C     -1.376513   -2.041383    0.005845
  H      1.030465    1.710029    0.001238
  H     -0.533453    1.782954   -0.875427
  H     -0.519311    1.776225    0.903176
  H     -3.392778   -3.006970    0.017856
  H     -0.624629   -2.811040   -0.003006

 Total Charge           Charge          ....    0
 Multiplicity           Mult            ....    1
 Number of Electrons    NEL             ....   52
 Basis Dimension        Dim             ....  247

ORBITAL ENERGIES
----------------

  NO   OCC          E(Eh)            E(eV)
   0   2.0000     -20.640894      -561.6673
   1   2.0000     -20.605713      -560.7099
   2   2.0000     -15.604939      -424.6320
   3   2.0000     -11.340696      -308.5960
   4   2.0000     -11.320826      -308.0553
   5   2.0000     -11.287377      -307.1452
   6   2.0000     -11.240354      -305.8656
   7   2.0000      -1.492870       -40.6231
   8   2.0000      -1.433749       -39.0143
   9   2.0000      -1.149794       -31.2875
  10   2.0000      -1.077825       -29.3291
  11   2.0000      -0.967236       -26.3198
  12   2.0000      -0.840319       -22.8663
  13   2.0000      -0.792201       -21.5569
  14   2.0000      -0.746118       -20.3029
  15   2.0000      -0.682980       -18.5848
  16   2.0000      -0.656851       -17.8738
  17   2.0000      -0.655179       -17.8283
  18   2.0000      -0.638308       -17.3693
  19   2.0000      -0.592092       -16.1116
  20   2.0000      -0.559548       -15.2261
  21   2.0000      -0.532511       -14.4904
  22   2.0000      -0.518253       -14.1024
  23   2.0000      -0.473822       -12.8933
  24   2.0000      -0.391463       -10.6523
  25   2.0000      -0.374323       -10.1858
  26   0.0000       0.127435         3.4677
  27   0.0000       0.156480         4.2581
  28   0.0000       0.168704         4.5907
  29   0.0000       0.184365         5.0168
  30   0.0000       0.202050         5.4981

MULLIKEN ATOMIC CHARGES
-----------------------
   0 C :   -0.212919
   1 O :   -0.277727
   2 C :    0.264285
   3 N :   -0.172838
   4 O :   -0.114006
   5 C :    0.024958
   6 C :   -0.257839
   7 H :    0.147140
   8 H :    0.140116
   9 H :    0.140110
  10 H :    0.161376
  11 H :    0.157344
Sum of atomic charges:    0.0000000

LOEWDIN ATOMIC CHARGES
----------------------
   0 C :   -0.308653
   1 O :    0.237985
   2 C :   -0.414846
   3 N :    0.020574
   4 O :    0.267779
   5 C :   -0.262393
   6 C :   -0.171686
   7 H :    0.115077
   8 H :    0.113921
   9 H :    0.113919
  10 H :    0.138052
  11 H :    0.150272

  Mayer bond orders larger than 0.1
B(  0-C ,  1-O ) :   0.8401 B(  0-C ,  7-H ) :   0.9345 B(  0-C ,  8-H ) :   0.9344
B(  0-C ,  9-H ) :   0.9344 B(  1-O ,  2-C ) :   1.1214 B(  2-C ,  3-N ) :   1.5276
B(  2-C ,  6-C ) :   1.1794 B(  3-N ,  4-O ) :   0.8511 B(  3-N ,  5-C ) :   0.1038
B(  4-O ,  5-C ) :   1.1210 B(  5-C ,  6-C ) :   1.5710 B(  5-C , 10-H ) :   0.9184
B(  6-C , 11-H ) :   0.9124

MP2 TOTAL ENERGY:     -359.908759206 Eh
FINAL SINGLE POINT ENERGY      -359.908759205619

DIPOLE MOMENT
-------------
                                X             Y             Z
Electronic contribution:     -2.99926      -2.59690       0.01368
Nuclear contribution   :      3.46262       2.19032      -0.01895
                        -----------------------------------------
Total Dipole Moment    :      0.46336      -0.40658      -0.00526
                        -----------------------------------------
Magnitude (a.u.)       :      0.61647
Magnitude (Debye)      :      1.56695

                             ****ORCA TERMINATED NORMALLY****
TOTAL RUN TIME: 0 days 0 hours 6 minutes 52 seconds 668 msec
