                         Program Version 3.0.3 - RELEASE   -
|  1> ! RI-MP2 RIJK def2-TZVP def2-TZVP/C def2-TZVP/JK TIGHTSCF
|  2> % maxcore 2000
|  3> % mp2 density relaxed end
|  4> *xyz 0 1
|  5>  C       -0.0340697905    -1.1740944732    -0.2569158280
|  6>  C       -0.0400748856     0.0280733026    -0.2732384415
|  7>  C       -0.0132168251     1.4857589794    -0.2839111683
|  8>  C        1.3526861073     2.0427592717     0.1463126657
|  9>  C        2.4812781622     1.8482283623    -0.9047473300
| 10>  C        2.2835872399     3.3141898188    -1.3712462245
| 11>  C        1.5066131456     3.5985904987    -0.0448283038
| 12>  C        0.3271151649     4.4373620716    -0.0837945681
| 13>  C       -0.6616745197     5.1216560005    -0.1325782206
| 14>  H       -0.0445579059    -2.2356158994    -0.2456055183
| 15>  H       -0.2673275778     1.8503166380    -1.2874889793
| 16>  H       -0.7912919658     1.8803838795     0.3806036692
| 17>  H        1.5777277005     1.6880184433     1.1547602181
| 18>  H        3.4558793140     1.6894710614    -0.4362515887
| 19>  H        2.3207340329     1.0598101059    -1.6430249298
| 20>  H        3.1746155046     3.9189078878    -1.5503770254
| 21>  H        1.6279983423     3.3935301248    -2.2410408218
| 22>  H        2.2002776576     3.9787912685     0.7126878218
| 23>  H       -1.5289779515     5.7329769478    -0.1719393168
| 24> *
| 25>
| 26>                          ****END OF INPUT****

CARTESIAN COORDINATES (ANGSTROEM)
---------------------------------
  C     -0.034070   -1.174094   -0.256916
  C     -0.040075    0.028073   -0.273238
  C     -0.013217    1.485759   -0.283911
  C      1.352686    2.042759    0.146313
  C      2.481278    1.848228   -0.904747
  C      2.283587    3.314190   -1.371246
  C      1.506613    3.598590   -0.044828
  C      0.327115    4.437362   -0.083795
  C     -0.661675    5.121656   -0.132578
  H     -0.044558   -2.235616   -0.245606
  H     -0.267328    1.850317   -1.287489
  H     -0.791292    1.880384    0.380604
  H      1.577728    1.688018    1.154760
  H      3.455879    1.689471   -0.436252
  H      2.320734    1.059810   -1.643025
  H      3.174616    3.918908   -1.550377
  H      1.627998    3.393530   -2.241041
  H      2.200278    3.978791    0.712688
  H     -1.528978    5.732977   -0.171939

 Total Charge           Charge          ....    0
 Multiplicity           Mult            ....    1
 Number of Electrons    NEL             ....   64
 Basis Dimension        Dim             ....  339

ORBITAL ENERGIES
----------------

  NO   OCC          E(Eh)            E(eV)
   0   2.0000     -11.257534      -306.3331
   1   2.0000     -11.250733      -306.1480
   2   2.0000     -11.246213      -306.0250
   3   2.0000     -11.234177      -305.6975
   4   2.0000     -11.233539      -305.6801
   5   2.0000     -11.232092      -305.6408
   6   2.0000     -11.227203      -305.5077
   7   2.0000     -11.222775      -305.3872
   8   2.0000     -11.218146      -305.2613
   9   2.0000      -1.157596       -31.4998
  10   2.0000      -1.061446       -28.8834
  11   2.0000      -1.030403       -28.0387
  12   2.0000      -0.974735       -26.5239
  13   2.0000      -0.922135       -25.0926
  14   2.0000      -0.874819       -23.8050
  15   2.0000      -0.773063       -21.0361
  16   2.0000      -0.724253       -19.7079
  17   2.0000      -0.709926       -19.3181
  18   2.0000      -0.680899       -18.5282
  19   2.0000      -0.663311       -18.0496
  20   2.0000      -0.629973       -17.1424
  21   2.0000      -0.589666       -16.0456
  22   2.0000      -0.567260       -15.4359
  23   2.0000      -0.546393       -14.8681
  24   2.0000      -0.514642       -14.0041
  25   2.0000      -0.477112       -12.9829
  26   2.0000      -0.472980       -12.8705
  27   2.0000      -0.453570       -12.3423
  28   2.0000      -0.393429       -10.7057
  29   2.0000      -0.386257       -10.5106
  30   2.0000      -0.378375       -10.2961
  31   2.0000      -0.372349       -10.1321
  32   0.0000       0.132059         3.5935
  33   0.0000       0.149707         4.0737
  34   0.0000       0.156325         4.2538
  35   0.0000       0.164296         4.4707
  36   0.0000       0.169052         4.6001

MULLIKEN ATOMIC CHARGES
-----------------------
   0 C :   -0.117118
   1 C :   -0.001410
   2 C :   -0.453025
   3 C :    0.002855
   4 C :   -0.238360
   5 C :   -0.244064
   6 C :   -0.190666
   7 C :   -0.035268
   8 C :   -0.154319
   9 H :    0.188825
  10 H :    0.152595
  11 H :    0.156440
  12 H :    0.115440
  13 H :    0.121282
  14 H :    0.130112
  15 H :    0.123862
  16 H :    0.128499
  17 H :    0.124471
  18 H :    0.189850
Sum of atomic charges:    0.0000000

LOEWDIN ATOMIC CHARGES
----------------------
   0 C :   -0.108740
   1 C :   -0.107900
   2 C :   -0.225075
   3 C :   -0.178054
   4 C :   -0.214717
   5 C :   -0.199677
   6 C :   -0.197240
   7 C :   -0.096693
   8 C :   -0.101343
   9 H :    0.125704
  10 H :    0.163591
  11 H :    0.163706
  12 H :    0.146190
  13 H :    0.135609
  14 H :    0.133065
  15 H :    0.126498
  16 H :    0.138393
  17 H :    0.170162
  18 H :    0.126518

  Mayer bond orders larger than 0.1
B(  0-C ,  1-C ) :   2.6029 B(  0-C ,  2-C ) :  -0.1240 B(  0-C ,  9-H ) :   0.8967
B(  1-C ,  2-C ) :   1.1039 B(  2-C ,  3-C ) :   0.9226 B(  2-C , 10-H ) :   0.9246
B(  2-C , 11-H ) :   0.9256 B(  3-C ,  4-C ) :   0.9118 B(  3-C ,  6-C ) :   0.8976
B(  3-C , 12-H ) :   0.9157 B(  4-C ,  5-C ) :   0.9344 B(  4-C , 13-H ) :   0.9248
B(  4-C , 14-H ) :   0.9207 B(  5-C ,  6-C ) :   0.9056 B(  5-C , 15-H ) :   0.9249
B(  5-C , 16-H ) :   0.9285 B(  6-C ,  7-C ) :   1.1468 B(  6-C , 17-H ) :   0.9168
B(  7-C ,  8-C ) :   2.5824 B(  8-C , 18-H ) :   0.8961

MP2 TOTAL ENERGY:     -348.013360356 Eh
FINAL SINGLE POINT ENERGY      -348.013360355583

DIPOLE MOMENT
-------------
                                X             Y             Z
Electronic contribution:     -2.95086       0.12063       1.49198
Nuclear contribution   :      3.19456      -0.03966      -1.51604
                        -----------------------------------------
Total Dipole Moment    :      0.24370       0.08097      -0.02406
                        -----------------------------------------
Magnitude (a.u.)       :      0.25792
Magnitude (Debye)      :      0.65559

                             ****ORCA TERMINATED NORMALLY****
TOTAL RUN TIME: 0 days 0 hours 17 minutes 40 seconds 459 msec
