                         Program Version 3.0.3 - RELEASE   -
|  1> ! RI-MP2 RIJK def2-TZVP def2-TZVP/C def2-TZVP/JK TIGHTSCF
|  2> % maxcore 2000
|  3> % mp2 density relaxed end
|  4> *xyz 0 1
|  5>  O        0.0644372449     1.3772389950     0.1214461282
|  6>  C        0.0588063491     0.0195195714     0.0383295019
|  7>  C        0.0798936778    -0.6621414621    -1.1805552617
|  8>  C        0.0728267842    -2.0499008117    -1.2018728955
|  9>  C        0.0445938825    -2.7882742410    -0.0093592562
| 10>  C        0.0236410617    -2.0853603015     1.2083543738
| 11>  C        0.0305814927    -0.7008142413     1.2353866876
| 12>  C        0.0373523899    -4.2116161049    -0.0317250959
| 13>  C        0.0312079799    -5.4162917670    -0.0508250920
| 14>  H        0.0846857390     1.7487901239    -0.7666880011
| 15>  H        0.1018595833    -0.1049396111    -2.1135236670
| 16>  H        0.0892519195    -2.5753592016    -2.1497823706
| 17>  H        0.0017458077    -2.6429433973     2.1376885315
| 18>  H        0.0144773671    -0.1567720161     2.1726774682
| 19>  H        0.0257603707    -6.4776638946    -0.0671094410
| 20> *
| 21>
| 22>                          ****END OF INPUT****

CARTESIAN COORDINATES (ANGSTROEM)
---------------------------------
  O      0.064437    1.377239    0.121446
  C      0.058806    0.019520    0.038330
  C      0.079894   -0.662141   -1.180555
  C      0.072827   -2.049901   -1.201873
  C      0.044594   -2.788274   -0.009359
  C      0.023641   -2.085360    1.208354
  C      0.030581   -0.700814    1.235387
  C      0.037352   -4.211616   -0.031725
  C      0.031208   -5.416292   -0.050825
  H      0.084686    1.748790   -0.766688
  H      0.101860   -0.104940   -2.113524
  H      0.089252   -2.575359   -2.149782
  H      0.001746   -2.642943    2.137689
  H      0.014477   -0.156772    2.172677
  H      0.025760   -6.477664   -0.067109

 Total Charge           Charge          ....    0
 Multiplicity           Mult            ....    1
 Number of Electrons    NEL             ....   62
 Basis Dimension        Dim             ....  315

ORBITAL ENERGIES
----------------

  NO   OCC          E(Eh)            E(eV)
   0   2.0000     -20.599868      -560.5509
   1   2.0000     -11.315754      -307.9173
   2   2.0000     -11.257011      -306.3188
   3   2.0000     -11.255012      -306.2645
   4   2.0000     -11.252760      -306.2032
   5   2.0000     -11.242680      -305.9289
   6   2.0000     -11.236307      -305.7554
   7   2.0000     -11.236048      -305.7484
   8   2.0000     -11.223798      -305.4151
   9   2.0000      -1.418512       -38.5997
  10   2.0000      -1.166126       -31.7319
  11   2.0000      -1.060481       -28.8572
  12   2.0000      -1.032357       -28.0919
  13   2.0000      -0.990861       -26.9627
  14   2.0000      -0.864179       -23.5155
  15   2.0000      -0.848412       -23.0865
  16   2.0000      -0.748221       -20.3601
  17   2.0000      -0.744998       -20.2724
  18   2.0000      -0.691988       -18.8300
  19   2.0000      -0.672286       -18.2938
  20   2.0000      -0.622948       -16.9513
  21   2.0000      -0.602902       -16.4058
  22   2.0000      -0.601551       -16.3690
  23   2.0000      -0.588179       -16.0052
  24   2.0000      -0.552969       -15.0471
  25   2.0000      -0.512717       -13.9517
  26   2.0000      -0.505740       -13.7619
  27   2.0000      -0.418045       -11.3756
  28   2.0000      -0.394719       -10.7409
  29   2.0000      -0.354805        -9.6547
  30   2.0000      -0.304832        -8.2949
  31   0.0000       0.102442         2.7876
  32   0.0000       0.111306         3.0288
  33   0.0000       0.130006         3.5377
  34   0.0000       0.161891         4.4053
  35   0.0000       0.166538         4.5317

MULLIKEN ATOMIC CHARGES
-----------------------
   0 O :   -0.415881
   1 C :    0.284809
   2 C :   -0.224716
   3 C :   -0.206131
   4 C :   -0.010726
   5 C :   -0.175611
   6 C :   -0.213486
   7 C :    0.056001
   8 C :   -0.135198
   9 H :    0.330302
  10 H :    0.120742
  11 H :    0.134940
  12 H :    0.132778
  13 H :    0.131404
  14 H :    0.190771
Sum of atomic charges:   -0.0000000

LOEWDIN ATOMIC CHARGES
----------------------
   0 O :    0.078342
   1 C :   -0.272009
   2 C :   -0.137557
   3 C :   -0.096740
   4 C :   -0.147496
   5 C :   -0.093085
   6 C :   -0.110202
   7 C :   -0.067841
   8 C :   -0.084794
   9 H :    0.191914
  10 H :    0.147234
  11 H :    0.154754
  12 H :    0.155215
  13 H :    0.155155
  14 H :    0.127111

  Mayer bond orders larger than 0.1
B(  0-O ,  1-C ) :   1.0839 B(  0-O ,  9-H ) :   0.8328 B(  1-C ,  2-C ) :   1.2717
B(  1-C ,  6-C ) :   1.2983 B(  2-C ,  3-C ) :   1.3423 B(  2-C , 10-H ) :   0.9166
B(  3-C ,  4-C ) :   1.3196 B(  3-C , 11-H ) :   0.9243 B(  4-C ,  5-C ) :   1.2985
B(  4-C ,  7-C ) :   1.0704 B(  4-C ,  8-C ) :  -0.1559 B(  5-C ,  6-C ) :   1.3676
B(  5-C , 12-H ) :   0.9409 B(  6-C , 13-H ) :   0.9389 B(  7-C ,  8-C ) :   2.5782
B(  8-C , 14-H ) :   0.8871

MP2 TOTAL ENERGY:     -382.832098153 Eh
FINAL SINGLE POINT ENERGY      -382.832098152773

DIPOLE MOMENT
-------------
                                X             Y             Z
Electronic contribution:     -0.00453       0.19258       0.27286
Nuclear contribution   :      0.01711       0.15002      -0.79568
                        -----------------------------------------
Total Dipole Moment    :      0.01258       0.34260      -0.52282
                        -----------------------------------------
Magnitude (a.u.)       :      0.62520
Magnitude (Debye)      :      1.58913

                             ****ORCA TERMINATED NORMALLY****
TOTAL RUN TIME: 0 days 0 hours 15 minutes 19 seconds 314 msec
