                         Program Version 3.0.3 - RELEASE   -
|  1> ! RI-MP2 RIJK def2-TZVP def2-TZVP/C def2-TZVP/JK TIGHTSCF
|  2> % maxcore 2000
|  3> % mp2 density relaxed end
|  4> *xyz 0 1
|  5>  C        0.4031738351     1.5209253589     0.2649051262
|  6>  C       -0.1331780222     0.0944334444     0.0327258683
|  7>  C       -1.6667927244     0.1311119415     0.1866750164
|  8>  C        0.2690726689    -0.3301309897    -1.4056806909
|  9>  C       -0.2456221054    -1.6981702637    -1.8862694370
| 10>  C        0.6066886101    -2.8977789209    -1.4344107031
| 11>  O        1.2059852594    -2.7709996468    -0.1591754433
| 12>  C        0.3596398032    -2.3371199010     0.8926617199
| 13>  C        0.4843252738    -0.8269272926     1.1117893189
| 14>  H        1.4876716831     1.5641281461     0.1159367340
| 15>  H       -0.0593593825     2.2340048608    -0.4266060472
| 16>  H        0.1922150655     1.8612129687     1.2847379899
| 17>  H       -2.1289091845     0.7247732179    -0.6100492370
| 18>  H       -2.1200099330    -0.8640200636     0.1621655050
| 19>  H       -1.9422294923     0.5876152958     1.1437050529
| 20>  H       -0.1076699988     0.4414468790    -2.0889163051
| 21>  H        1.3629370775    -0.3052016406    -1.4897818748
| 22>  H       -1.2859887198    -1.8335543169    -1.5740994669
| 23>  H       -0.2687666642    -1.7153356993    -2.9825937616
| 24>  H       -0.0014097369    -3.8167313250    -1.4847697739
| 25>  H        1.4513519901    -3.0311625401    -2.1192110841
| 26>  H       -0.6816792394    -2.6475818831     0.7208345362
| 27>  H        0.6997992988    -2.8561965916     1.7967576421
| 28>  H        1.5580221387    -0.6163563454     1.1931026931
| 29>  H        0.0429334495    -0.5741240526     2.0857083819
| 30> *
| 31>
| 32>                          ****END OF INPUT****

CARTESIAN COORDINATES (ANGSTROEM)
---------------------------------
  C      0.403174    1.520925    0.264905
  C     -0.133178    0.094433    0.032726
  C     -1.666793    0.131112    0.186675
  C      0.269073   -0.330131   -1.405681
  C     -0.245622   -1.698170   -1.886269
  C      0.606689   -2.897779   -1.434411
  O      1.205985   -2.771000   -0.159175
  C      0.359640   -2.337120    0.892662
  C      0.484325   -0.826927    1.111789
  H      1.487672    1.564128    0.115937
  H     -0.059359    2.234005   -0.426606
  H      0.192215    1.861213    1.284738
  H     -2.128909    0.724773   -0.610049
  H     -2.120010   -0.864020    0.162166
  H     -1.942229    0.587615    1.143705
  H     -0.107670    0.441447   -2.088916
  H      1.362937   -0.305202   -1.489782
  H     -1.285989   -1.833554   -1.574099
  H     -0.268767   -1.715336   -2.982594
  H     -0.001410   -3.816731   -1.484770
  H      1.451352   -3.031163   -2.119211
  H     -0.681679   -2.647582    0.720835
  H      0.699799   -2.856197    1.796758
  H      1.558022   -0.616356    1.193103
  H      0.042933   -0.574124    2.085708

 Total Charge           Charge          ....    0
 Multiplicity           Mult            ....    1
 Number of Electrons    NEL             ....   72
 Basis Dimension        Dim             ....  375

ORBITAL ENERGIES
----------------

  NO   OCC          E(Eh)            E(eV)
   0   2.0000     -20.542386      -558.9868
   1   2.0000     -11.267777      -306.6118
   2   2.0000     -11.267690      -306.6094
   3   2.0000     -11.233351      -305.6750
   4   2.0000     -11.218626      -305.2743
   5   2.0000     -11.216667      -305.2210
   6   2.0000     -11.213625      -305.1382
   7   2.0000     -11.211173      -305.0715
   8   2.0000     -11.209081      -305.0146
   9   2.0000      -1.363971       -37.1155
  10   2.0000      -1.109941       -30.2030
  11   2.0000      -1.043401       -28.3924
  12   2.0000      -0.977997       -26.6127
  13   2.0000      -0.929602       -25.2958
  14   2.0000      -0.913443       -24.8560
  15   2.0000      -0.859170       -23.3792
  16   2.0000      -0.779502       -21.2113
  17   2.0000      -0.730368       -19.8743
  18   2.0000      -0.665909       -18.1203
  19   2.0000      -0.650139       -17.6912
  20   2.0000      -0.634005       -17.2521
  21   2.0000      -0.621235       -16.9047
  22   2.0000      -0.598301       -16.2806
  23   2.0000      -0.573822       -15.6145
  24   2.0000      -0.564795       -15.3689
  25   2.0000      -0.543744       -14.7960
  26   2.0000      -0.530468       -14.4348
  27   2.0000      -0.519192       -14.1279
  28   2.0000      -0.508131       -13.8269
  29   2.0000      -0.505518       -13.7559
  30   2.0000      -0.493592       -13.4313
  31   2.0000      -0.449188       -12.2230
  32   2.0000      -0.446190       -12.1414
  33   2.0000      -0.441429       -12.0119
  34   2.0000      -0.435064       -11.8387
  35   2.0000      -0.401946       -10.9375
  36   0.0000       0.132921         3.6170
  37   0.0000       0.151380         4.1193
  38   0.0000       0.164072         4.4646
  39   0.0000       0.174072         4.7367
  40   0.0000       0.186244         5.0680

MULLIKEN ATOMIC CHARGES
-----------------------
   0 C :   -0.397378
   1 C :    0.090630
   2 C :   -0.448808
   3 C :   -0.220996
   4 C :   -0.261321
   5 C :   -0.062114
   6 O :   -0.319661
   7 C :   -0.084161
   8 C :   -0.219714
   9 H :    0.131696
  10 H :    0.128948
  11 H :    0.129521
  12 H :    0.132416
  13 H :    0.127121
  14 H :    0.133130
  15 H :    0.119402
  16 H :    0.113892
  17 H :    0.122809
  18 H :    0.126114
  19 H :    0.099221
  20 H :    0.113911
  21 H :    0.104155
  22 H :    0.124450
  23 H :    0.109674
  24 H :    0.107063
Sum of atomic charges:   -0.0000000

LOEWDIN ATOMIC CHARGES
----------------------
   0 C :   -0.273631
   1 C :   -0.325197
   2 C :   -0.274261
   3 C :   -0.221469
   4 C :   -0.275932
   5 C :   -0.331471
   6 O :    0.149997
   7 C :   -0.314779
   8 C :   -0.233340
   9 H :    0.124830
  10 H :    0.123966
  11 H :    0.124421
  12 H :    0.126268
  13 H :    0.119150
  14 H :    0.126240
  15 H :    0.142105
  16 H :    0.146425
  17 H :    0.135349
  18 H :    0.142581
  19 H :    0.118366
  20 H :    0.128724
  21 H :    0.122070
  22 H :    0.128927
  23 H :    0.147060
  24 H :    0.143600

  Mayer bond orders larger than 0.1
B(  0-C ,  1-C ) :   0.8993 B(  0-C ,  9-H ) :   0.9356 B(  0-C , 10-H ) :   0.9371
B(  0-C , 11-H ) :   0.9372 B(  1-C ,  2-C ) :   0.9147 B(  1-C ,  3-C ) :   0.9207
B(  1-C ,  8-C ) :   0.9173 B(  2-C , 12-H ) :   0.9365 B(  2-C , 13-H ) :   0.9341
B(  2-C , 14-H ) :   0.9346 B(  3-C ,  4-C ) :   0.8928 B(  3-C , 15-H ) :   0.9295
B(  3-C , 16-H ) :   0.9170 B(  4-C ,  5-C ) :   0.9191 B(  4-C , 17-H ) :   0.9456
B(  4-C , 18-H ) :   0.9212 B(  5-C ,  6-O ) :   0.9418 B(  5-C , 19-H ) :   0.9478
B(  5-C , 20-H ) :   0.9332 B(  6-O ,  7-C ) :   0.9044 B(  7-C ,  8-C ) :   0.9403
B(  7-C , 21-H ) :   0.9434 B(  7-C , 22-H ) :   0.9331 B(  8-C , 23-H ) :   0.9127
B(  8-C , 24-H ) :   0.9196

MP2 TOTAL ENERGY:     -388.831582290 Eh
FINAL SINGLE POINT ENERGY      -388.831582290474

DIPOLE MOMENT
-------------
                                X             Y             Z
Electronic contribution:      3.36363      -4.99062      -0.04630
Nuclear contribution   :     -3.82911       5.18852      -0.05844
                        -----------------------------------------
Total Dipole Moment    :     -0.46548       0.19791      -0.10473
                        -----------------------------------------
Magnitude (a.u.)       :      0.51653
Magnitude (Debye)      :      1.31292

                             ****ORCA TERMINATED NORMALLY****
TOTAL RUN TIME: 0 days 0 hours 23 minutes 44 seconds 316 msec
