                         Program Version 3.0.3 - RELEASE   -
|  1> ! RI-MP2 RIJK def2-TZVP def2-TZVP/C def2-TZVP/JK TIGHTSCF
|  2> % maxcore 2000
|  3> % mp2 density relaxed end
|  4> *xyz 0 1
|  5>  C       -0.1016539126    -1.2461442542     0.2204529389
|  6>  C       -0.0553763345    -0.0493670350     0.1251595822
|  7>  C        0.0251324989     1.4014752976    -0.0206332817
|  8>  N       -0.6485372596     2.1102913693     1.0983643066
|  9>  C        0.2374648251     2.8605009883     1.6081425039
| 10>  O        1.4900834043     2.8834300578     1.1038936212
| 11>  C        1.4679744824     1.9638859718     0.0028291659
| 12>  C        2.7211892910     1.2087043971    -0.2753122592
| 13>  C        2.2718204965     2.3286155591    -1.2012499537
| 14>  H       -0.1574741629    -2.3024049107     0.3161491891
| 15>  H       -0.4785321199     1.6843211016    -0.9543046401
| 16>  H        0.0827590016     3.5214791194     2.4536968433
| 17>  H        3.5686674670     1.4042746917     0.3717825884
| 18>  H        2.6204554223     0.1816381764    -0.6080290070
| 19>  H        1.8714442310     2.0681860509    -2.1761444329
| 20>  H        2.8227557195     3.2617631587    -1.1663183549
| 21> *
| 22>
| 23>                          ****END OF INPUT****

CARTESIAN COORDINATES (ANGSTROEM)
---------------------------------
  C     -0.101654   -1.246144    0.220453
  C     -0.055376   -0.049367    0.125160
  C      0.025132    1.401475   -0.020633
  N     -0.648537    2.110291    1.098364
  C      0.237465    2.860501    1.608143
  O      1.490083    2.883430    1.103894
  C      1.467974    1.963886    0.002829
  C      2.721189    1.208704   -0.275312
  C      2.271820    2.328616   -1.201250
  H     -0.157474   -2.302405    0.316149
  H     -0.478532    1.684321   -0.954305
  H      0.082759    3.521479    2.453697
  H      3.568667    1.404275    0.371783
  H      2.620455    0.181638   -0.608029
  H      1.871444    2.068186   -2.176144
  H      2.822756    3.261763   -1.166318

 Total Charge           Charge          ....    0
 Multiplicity           Mult            ....    1
 Number of Electrons    NEL             ....   64
 Basis Dimension        Dim             ....  321

ORBITAL ENERGIES
----------------

  NO   OCC          E(Eh)            E(eV)
   0   2.0000     -20.607836      -560.7677
   1   2.0000     -15.559087      -423.3843
   2   2.0000     -11.341701      -308.6234
   3   2.0000     -11.312038      -307.8162
   4   2.0000     -11.301044      -307.5170
   5   2.0000     -11.241732      -305.9031
   6   2.0000     -11.239203      -305.8343
   7   2.0000     -11.237968      -305.8006
   8   2.0000     -11.228944      -305.5551
   9   2.0000      -1.454196       -39.5707
  10   2.0000      -1.227146       -33.3923
  11   2.0000      -1.162471       -31.6324
  12   2.0000      -1.051639       -28.6166
  13   2.0000      -0.972519       -26.4636
  14   2.0000      -0.856230       -23.2992
  15   2.0000      -0.847585       -23.0640
  16   2.0000      -0.787062       -21.4170
  17   2.0000      -0.738480       -20.0951
  18   2.0000      -0.714319       -19.4376
  19   2.0000      -0.671865       -18.2824
  20   2.0000      -0.660827       -17.9820
  21   2.0000      -0.640535       -17.4298
  22   2.0000      -0.610509       -16.6128
  23   2.0000      -0.591998       -16.1091
  24   2.0000      -0.549431       -14.9508
  25   2.0000      -0.529966       -14.4211
  26   2.0000      -0.469719       -12.7817
  27   2.0000      -0.461966       -12.5707
  28   2.0000      -0.433661       -11.8005
  29   2.0000      -0.395551       -10.7635
  30   2.0000      -0.393522       -10.7083
  31   2.0000      -0.380787       -10.3617
  32   0.0000       0.140877         3.8335
  33   0.0000       0.153603         4.1797
  34   0.0000       0.161248         4.3878
  35   0.0000       0.162096         4.4109
  36   0.0000       0.174917         4.7597

MULLIKEN ATOMIC CHARGES
-----------------------
   0 C :   -0.138470
   1 C :   -0.045517
   2 C :   -0.029340
   3 N :   -0.274302
   4 C :    0.104571
   5 O :   -0.250054
   6 C :    0.135940
   7 C :   -0.251825
   8 C :   -0.295284
   9 H :    0.193681
  10 H :    0.130246
  11 H :    0.150689
  12 H :    0.142105
  13 H :    0.148570
  14 H :    0.136522
  15 H :    0.142467
Sum of atomic charges:    0.0000000

LOEWDIN ATOMIC CHARGES
----------------------
   0 C :   -0.084538
   1 C :   -0.077337
   2 C :   -0.220984
   3 N :    0.096992
   4 C :   -0.334824
   5 O :    0.270944
   6 C :   -0.257495
   7 C :   -0.192451
   8 C :   -0.198442
   9 H :    0.128469
  10 H :    0.170284
  11 H :    0.136774
  12 H :    0.141711
  13 H :    0.142385
  14 H :    0.137462
  15 H :    0.141050

  Mayer bond orders larger than 0.1
B(  0-C ,  1-C ) :   2.5857 B(  0-C ,  9-H ) :   0.8937 B(  1-C ,  2-C ) :   1.1380
B(  2-C ,  3-N ) :   0.9370 B(  2-C ,  6-C ) :   0.9041 B(  2-C , 10-H ) :   0.9070
B(  3-N ,  4-C ) :   1.8156 B(  4-C ,  5-O ) :   1.0677 B(  4-C , 11-H ) :   0.9196
B(  5-O ,  6-C ) :   0.8985 B(  6-C ,  7-C ) :   0.8617 B(  6-C ,  8-C ) :   0.8754
B(  7-C ,  8-C ) :   0.9182 B(  7-C , 12-H ) :   0.9210 B(  7-C , 13-H ) :   0.9095
B(  8-C , 14-H ) :   0.9159 B(  8-C , 15-H ) :   0.9181

MP2 TOTAL ENERGY:     -399.999325211 Eh
FINAL SINGLE POINT ENERGY      -399.999325210582

DIPOLE MOMENT
-------------
                                X             Y             Z
Electronic contribution:     -3.40272       0.91105       3.24311
Nuclear contribution   :      4.05225      -0.91857      -3.63223
                        -----------------------------------------
Total Dipole Moment    :      0.64953      -0.00751      -0.38912
                        -----------------------------------------
Magnitude (a.u.)       :      0.75720
Magnitude (Debye)      :      1.92466

                             ****ORCA TERMINATED NORMALLY****
TOTAL RUN TIME: 0 days 0 hours 17 minutes 2 seconds 104 msec
