                         Program Version 3.0.3 - RELEASE   -
|  1> ! RI-MP2 RIJK def2-TZVP def2-TZVP/C def2-TZVP/JK TIGHTSCF
|  2> % maxcore 2000
|  3> % mp2 density relaxed end
|  4> *xyz 0 1
|  5>  O       -0.2193079903     0.3762610930     0.9884932142
|  6>  C       -0.1348559157     1.3184876909     0.2375663593
|  7>  C       -1.3778271349     1.9104086114    -0.4332808372
|  8>  O       -1.1229283025     3.0384238016    -1.2434605278
|  9>  C       -0.3291158795     4.0026174882    -0.5638784259
| 10>  C        1.1072387388     3.4830018263    -0.4807060805
| 11>  O        1.8148452616     3.8794154236     0.7135600645
| 12>  C        2.0009120271     2.5063563250     1.1260633532
| 13>  C        1.1859585191     1.9923254686    -0.0832164229
| 14>  H       -1.8280887588     1.1431462458    -1.0715688447
| 15>  H       -2.1023361463     2.1425025431     0.3653723703
| 16>  H       -0.4026743663     4.9311077545    -1.1348507293
| 17>  H       -0.7083724000     4.1891898817     0.4532080426
| 18>  H        1.6707788380     3.7438364400    -1.3841027774
| 19>  H        3.0583990986     2.2200130947     1.1288269539
| 20>  H        1.5685535716     2.2994286363     2.1107825324
| 21>  H        1.7414816092     1.3513361352    -0.7725221948
| 22> *
| 23>
| 24>                          ****END OF INPUT****

CARTESIAN COORDINATES (ANGSTROEM)
---------------------------------
  O     -0.219308    0.376261    0.988493
  C     -0.134856    1.318488    0.237566
  C     -1.377827    1.910409   -0.433281
  O     -1.122928    3.038424   -1.243461
  C     -0.329116    4.002617   -0.563878
  C      1.107239    3.483002   -0.480706
  O      1.814845    3.879415    0.713560
  C      2.000912    2.506356    1.126063
  C      1.185959    1.992325   -0.083216
  H     -1.828089    1.143146   -1.071569
  H     -2.102336    2.142503    0.365372
  H     -0.402674    4.931108   -1.134851
  H     -0.708372    4.189190    0.453208
  H      1.670779    3.743836   -1.384103
  H      3.058399    2.220013    1.128827
  H      1.568554    2.299429    2.110783
  H      1.741482    1.351336   -0.772522

 Total Charge           Charge          ....    0
 Multiplicity           Mult            ....    1
 Number of Electrons    NEL             ....   68
 Basis Dimension        Dim             ....  327

ORBITAL ENERGIES
----------------

  NO   OCC          E(Eh)            E(eV)
   0   2.0000     -20.581746      -560.0578
   1   2.0000     -20.564856      -559.5982
   2   2.0000     -20.560687      -559.4847
   3   2.0000     -11.346011      -308.7406
   4   2.0000     -11.301833      -307.5385
   5   2.0000     -11.301081      -307.5181
   6   2.0000     -11.297206      -307.4126
   7   2.0000     -11.293567      -307.3136
   8   2.0000     -11.258560      -306.3610
   9   2.0000      -1.415450       -38.5164
  10   2.0000      -1.397757       -38.0349
  11   2.0000      -1.391304       -37.8593
  12   2.0000      -1.065144       -28.9840
  13   2.0000      -1.031816       -28.0772
  14   2.0000      -0.970681       -26.4136
  15   2.0000      -0.877821       -23.8867
  16   2.0000      -0.833345       -22.6765
  17   2.0000      -0.737334       -20.0639
  18   2.0000      -0.723838       -19.6966
  19   2.0000      -0.702922       -19.1275
  20   2.0000      -0.680044       -18.5049
  21   2.0000      -0.668041       -18.1783
  22   2.0000      -0.637481       -17.3467
  23   2.0000      -0.607774       -16.5384
  24   2.0000      -0.602849       -16.4044
  25   2.0000      -0.581511       -15.8237
  26   2.0000      -0.562104       -15.2956
  27   2.0000      -0.540454       -14.7065
  28   2.0000      -0.526149       -14.3172
  29   2.0000      -0.486332       -13.2338
  30   2.0000      -0.471816       -12.8388
  31   2.0000      -0.460193       -12.5225
  32   2.0000      -0.443768       -12.0755
  33   2.0000      -0.398104       -10.8329
  34   0.0000       0.109060         2.9677
  35   0.0000       0.138074         3.7572
  36   0.0000       0.157107         4.2751
  37   0.0000       0.168730         4.5914
  38   0.0000       0.170169         4.6305

MULLIKEN ATOMIC CHARGES
-----------------------
   0 O :   -0.271241
   1 C :    0.083667
   2 C :   -0.047568
   3 O :   -0.309023
   4 C :   -0.095318
   5 C :    0.079222
   6 O :   -0.327056
   7 C :   -0.047807
   8 C :   -0.061758
   9 H :    0.152242
  10 H :    0.119854
  11 H :    0.133705
  12 H :    0.122580
  13 H :    0.095056
  14 H :    0.106761
  15 H :    0.119752
  16 H :    0.146933
Sum of atomic charges:    0.0000000

LOEWDIN ATOMIC CHARGES
----------------------
   0 O :    0.163101
   1 C :   -0.309075
   2 C :   -0.288974
   3 O :    0.160532
   4 C :   -0.286302
   5 C :   -0.259933
   6 O :    0.133794
   7 C :   -0.231002
   8 C :   -0.181181
   9 H :    0.148089
  10 H :    0.138773
  11 H :    0.133216
  12 H :    0.130189
  13 H :    0.137397
  14 H :    0.121134
  15 H :    0.124947
  16 H :    0.165294

  Mayer bond orders larger than 0.1
B(  0-O ,  1-C ) :   2.0268 B(  1-C ,  2-C ) :   0.8910 B(  1-C ,  8-C ) :   0.8845
B(  2-C ,  3-O ) :   0.9458 B(  2-C ,  9-H ) :   0.9076 B(  2-C , 10-H ) :   0.9219
B(  3-O ,  4-C ) :   0.8971 B(  4-C ,  5-C ) :   0.8798 B(  4-C , 11-H ) :   0.9307
B(  4-C , 12-H ) :   0.9340 B(  5-C ,  6-O ) :   0.9943 B(  5-C ,  8-C ) :   0.9089
B(  5-C , 13-H ) :   0.9155 B(  6-O ,  7-C ) :   0.9398 B(  7-C ,  8-C ) :   0.9476
B(  7-C , 14-H ) :   0.9194 B(  7-C , 15-H ) :   0.9058 B(  8-C , 16-H ) :   0.8937

MP2 TOTAL ENERGY:     -458.213428617 Eh
FINAL SINGLE POINT ENERGY      -458.213428617438

DIPOLE MOMENT
-------------
                                X             Y             Z
Electronic contribution:     -0.32641      -1.65593       0.13300
Nuclear contribution   :      0.46021       1.81580      -0.55370
                        -----------------------------------------
Total Dipole Moment    :      0.13380       0.15987      -0.42070
                        -----------------------------------------
Magnitude (a.u.)       :      0.46952
Magnitude (Debye)      :      1.19343

                             ****ORCA TERMINATED NORMALLY****
TOTAL RUN TIME: 0 days 0 hours 17 minutes 47 seconds 748 msec
