                         Program Version 3.0.3 - RELEASE   -
|  1> ! RI-MP2 RIJK def2-TZVP def2-TZVP/C def2-TZVP/JK TIGHTSCF
|  2> % maxcore 2000
|  3> % mp2 density relaxed end
|  4> *xyz 0 1
|  5>  C        0.0655751998     1.4815634429    -0.2818810622
|  6>  C        0.1584739714    -0.0123988943    -0.0816145800
|  7>  N        1.5107598033    -0.5850516064     0.0797475794
|  8>  C        0.5549740336    -0.6418832247     1.2016132510
|  9>  C        0.9474687052     0.1306798860     2.4683962464
| 10>  O        0.6876125202    -0.7412312902     3.5658707347
| 11>  C        0.6885678679    -2.0708634208     3.0635491223
| 12>  C       -0.0216471619    -1.9717279460     1.7032086694
| 13>  C       -1.5467302479    -1.9433126608     1.8657983770
| 14>  H        0.8162620995     2.0037299011     0.3167572029
| 15>  H        0.2364703596     1.7413119035    -1.3320161374
| 16>  H       -0.9253592171     1.8538442006     0.0004483534
| 17>  H       -0.5406909216    -0.5875201659    -0.6895585641
| 18>  H        1.5676647330    -1.4888816178    -0.3846017336
| 19>  H        2.0111696452     0.4010044439     2.4166273401
| 20>  H        0.3622766891     1.0430518307     2.6242251457
| 21>  H        1.7178260354    -2.4466367833     2.9412151022
| 22>  H        0.1703063119    -2.7028119793     3.7903045867
| 23>  H        0.2666838641    -2.7939831173     1.0385378342
| 24>  H       -1.8417111176    -1.1671317316     2.5784721667
| 25>  H       -2.0490502572    -1.7411049790     0.9152692634
| 26>  H       -1.9150311859    -2.9033296014     2.2428053617
| 27> *
| 28>
| 29>                          ****END OF INPUT****

CARTESIAN COORDINATES (ANGSTROEM)
---------------------------------
  C      0.065575    1.481563   -0.281881
  C      0.158474   -0.012399   -0.081615
  N      1.510760   -0.585052    0.079748
  C      0.554974   -0.641883    1.201613
  C      0.947469    0.130680    2.468396
  O      0.687613   -0.741231    3.565871
  C      0.688568   -2.070863    3.063549
  C     -0.021647   -1.971728    1.703209
  C     -1.546730   -1.943313    1.865798
  H      0.816262    2.003730    0.316757
  H      0.236470    1.741312   -1.332016
  H     -0.925359    1.853844    0.000448
  H     -0.540691   -0.587520   -0.689559
  H      1.567665   -1.488882   -0.384602
  H      2.011170    0.401004    2.416627
  H      0.362277    1.043052    2.624225
  H      1.717826   -2.446637    2.941215
  H      0.170306   -2.702812    3.790305
  H      0.266684   -2.793983    1.038538
  H     -1.841711   -1.167132    2.578472
  H     -2.049050   -1.741105    0.915269
  H     -1.915031   -2.903330    2.242805

 Total Charge           Charge          ....    0
 Multiplicity           Mult            ....    1
 Number of Electrons    NEL             ....   70
 Basis Dimension        Dim             ....  357

ORBITAL ENERGIES
----------------

  NO   OCC          E(Eh)            E(eV)
   0   2.0000     -20.549933      -559.1921
   1   2.0000     -15.553803      -423.2405
   2   2.0000     -11.272782      -306.7480
   3   2.0000     -11.269208      -306.6507
   4   2.0000     -11.263091      -306.4843
   5   2.0000     -11.262046      -306.4559
   6   2.0000     -11.238312      -305.8100
   7   2.0000     -11.220089      -305.3141
   8   2.0000     -11.219834      -305.3072
   9   2.0000      -1.376288       -37.4507
  10   2.0000      -1.263089       -34.3704
  11   2.0000      -1.064922       -28.9780
  12   2.0000      -0.992150       -26.9978
  13   2.0000      -0.974935       -26.5293
  14   2.0000      -0.922579       -25.1047
  15   2.0000      -0.837225       -22.7820
  16   2.0000      -0.805832       -21.9278
  17   2.0000      -0.751712       -20.4551
  18   2.0000      -0.691874       -18.8268
  19   2.0000      -0.672757       -18.3067
  20   2.0000      -0.645433       -17.5631
  21   2.0000      -0.609003       -16.5718
  22   2.0000      -0.582953       -15.8630
  23   2.0000      -0.576662       -15.6918
  24   2.0000      -0.566689       -15.4204
  25   2.0000      -0.553020       -15.0484
  26   2.0000      -0.540366       -14.7041
  27   2.0000      -0.533001       -14.5037
  28   2.0000      -0.519313       -14.1312
  29   2.0000      -0.481475       -13.1016
  30   2.0000      -0.473714       -12.8904
  31   2.0000      -0.449294       -12.2259
  32   2.0000      -0.434858       -11.8331
  33   2.0000      -0.414544       -11.2803
  34   2.0000      -0.382295       -10.4028
  35   0.0000       0.126591         3.4447
  36   0.0000       0.149157         4.0588
  37   0.0000       0.159040         4.3277
  38   0.0000       0.167397         4.5551
  39   0.0000       0.193931         5.2771

MULLIKEN ATOMIC CHARGES
-----------------------
   0 C :   -0.412766
   1 C :   -0.025669
   2 N :   -0.386730
   3 C :    0.029673
   4 C :   -0.069677
   5 O :   -0.325516
   6 C :   -0.033289
   7 C :    0.004137
   8 C :   -0.452439
   9 H :    0.142096
  10 H :    0.134350
  11 H :    0.128651
  12 H :    0.118419
  13 H :    0.212572
  14 H :    0.109155
  15 H :    0.118609
  16 H :    0.094366
  17 H :    0.114804
  18 H :    0.091193
  19 H :    0.149281
  20 H :    0.125854
  21 H :    0.132928
Sum of atomic charges:    0.0000000

LOEWDIN ATOMIC CHARGES
----------------------
   0 C :   -0.293411
   1 C :   -0.264815
   2 N :    0.023478
   3 C :   -0.262727
   4 C :   -0.257402
   5 O :    0.147104
   6 C :   -0.283602
   7 C :   -0.244710
   8 C :   -0.285954
   9 H :    0.130648
  10 H :    0.127165
  11 H :    0.126365
  12 H :    0.139227
  13 H :    0.162688
  14 H :    0.129422
  15 H :    0.128954
  16 H :    0.122345
  17 H :    0.128900
  18 H :    0.149910
  19 H :    0.131974
  20 H :    0.121074
  21 H :    0.123368

  Mayer bond orders larger than 0.1
B(  0-C ,  1-C ) :   0.8824 B(  0-C ,  9-H ) :   0.9433 B(  0-C , 10-H ) :   0.9353
B(  0-C , 11-H ) :   0.9352 B(  1-C ,  2-N ) :   0.9435 B(  1-C ,  3-C ) :   0.8744
B(  1-C , 12-H ) :   0.9234 B(  2-N ,  3-C ) :   0.9388 B(  2-N , 13-H ) :   0.8696
B(  3-C ,  4-C ) :   0.9004 B(  3-C ,  7-C ) :   0.8990 B(  4-C ,  5-O ) :   0.9347
B(  4-C , 14-H ) :   0.9250 B(  4-C , 15-H ) :   0.9320 B(  5-O ,  6-C ) :   0.9260
B(  6-C ,  7-C ) :   0.9395 B(  6-C , 16-H ) :   0.9194 B(  6-C , 17-H ) :   0.9270
B(  7-C ,  8-C ) :   0.8835 B(  7-C , 18-H ) :   0.9115 B(  8-C , 19-H ) :   0.9341
B(  8-C , 20-H ) :   0.9396 B(  8-C , 21-H ) :   0.9352

MP2 TOTAL ENERGY:     -403.643881940 Eh
FINAL SINGLE POINT ENERGY      -403.643881940069

DIPOLE MOMENT
-------------
                                X             Y             Z
Electronic contribution:      3.61183      -0.81252       2.54877
Nuclear contribution   :     -4.15122       0.31846      -3.15302
                        -----------------------------------------
Total Dipole Moment    :     -0.53939      -0.49406      -0.60425
                        -----------------------------------------
Magnitude (a.u.)       :      0.94877
Magnitude (Debye)      :      2.41157

                             ****ORCA TERMINATED NORMALLY****
TOTAL RUN TIME: 0 days 0 hours 19 minutes 28 seconds 681 msec
