                         Program Version 3.0.3 - RELEASE   -
|  1> ! RI-MP2 RIJK def2-TZVP def2-TZVP/C def2-TZVP/JK TIGHTSCF
|  2> % maxcore 2000
|  3> % mp2 density relaxed end
|  4> *xyz 0 1
|  5>  C       -0.0132952767     1.5449137354     0.0163426340
|  6>  O        1.3054832524     2.0803572821    -0.0953456026
|  7>  C        2.1416139092     1.3883973866    -0.9699037590
|  8>  C        1.7009362441     0.1104697573    -1.6054494823
|  9>  O        0.4441959971    -0.4022961862    -1.2958526756
| 10>  C        0.0266681019     0.0170372601     0.0199849384
| 11>  C        0.9879178465    -0.5310405943     1.0492458923
| 12>  C        2.2941282511    -0.5166318031     0.7658801187
| 13>  C        2.7719703210     0.0529621758    -0.5068916972
| 14>  H       -0.4192895999     1.9370839315     0.9532548906
| 15>  H       -0.6445468760     1.8856565247    -0.8187264539
| 16>  H        2.7826490094     2.0618120305    -1.5314518425
| 17>  H        1.9700258644    -0.1205721205    -2.6297062441
| 18>  H       -0.9824819798    -0.3841485806     0.1457758579
| 19>  H        0.5977888519    -0.9511740303     1.9691645132
| 20>  H        3.0253736386    -0.9357228713     1.4496837665
| 21>  H        3.8011033648    -0.1290705279    -0.7946284145
| 22> *
| 23>
| 24>                          ****END OF INPUT****

CARTESIAN COORDINATES (ANGSTROEM)
---------------------------------
  C     -0.013295    1.544914    0.016343
  O      1.305483    2.080357   -0.095346
  C      2.141614    1.388397   -0.969904
  C      1.700936    0.110470   -1.605449
  O      0.444196   -0.402296   -1.295853
  C      0.026668    0.017037    0.019985
  C      0.987918   -0.531041    1.049246
  C      2.294128   -0.516632    0.765880
  C      2.771970    0.052962   -0.506892
  H     -0.419290    1.937084    0.953255
  H     -0.644547    1.885657   -0.818726
  H      2.782649    2.061812   -1.531452
  H      1.970026   -0.120572   -2.629706
  H     -0.982482   -0.384149    0.145776
  H      0.597789   -0.951174    1.969165
  H      3.025374   -0.935723    1.449684
  H      3.801103   -0.129071   -0.794628

 Total Charge           Charge          ....    0
 Multiplicity           Mult            ....    1
 Number of Electrons    NEL             ....   66
 Basis Dimension        Dim             ....  327

ORBITAL ENERGIES
----------------

  NO   OCC          E(Eh)            E(eV)
   0   2.0000     -20.567331      -559.6655
   1   2.0000     -20.564402      -559.5858
   2   2.0000     -11.291211      -307.2495
   3   2.0000     -11.290984      -307.2433
   4   2.0000     -11.290040      -307.2176
   5   2.0000     -11.281310      -306.9801
   6   2.0000     -11.237287      -305.7821
   7   2.0000     -11.233654      -305.6833
   8   2.0000     -11.224569      -305.4361
   9   2.0000      -1.412414       -38.4337
  10   2.0000      -1.367566       -37.2134
  11   2.0000      -1.136103       -30.9149
  12   2.0000      -1.079816       -29.3833
  13   2.0000      -0.970757       -26.4156
  14   2.0000      -0.903932       -24.5972
  15   2.0000      -0.854357       -23.2482
  16   2.0000      -0.774347       -21.0711
  17   2.0000      -0.739536       -20.1238
  18   2.0000      -0.701544       -19.0900
  19   2.0000      -0.674489       -18.3538
  20   2.0000      -0.647242       -17.6124
  21   2.0000      -0.638753       -17.3814
  22   2.0000      -0.622885       -16.9496
  23   2.0000      -0.599621       -16.3165
  24   2.0000      -0.571943       -15.5634
  25   2.0000      -0.557791       -15.1783
  26   2.0000      -0.522808       -14.2263
  27   2.0000      -0.509315       -13.8592
  28   2.0000      -0.489351       -13.3159
  29   2.0000      -0.471379       -12.8269
  30   2.0000      -0.414041       -11.2666
  31   2.0000      -0.377557       -10.2738
  32   2.0000      -0.330823        -9.0022
  33   0.0000       0.139000         3.7824
  34   0.0000       0.144545         3.9333
  35   0.0000       0.159062         4.3283
  36   0.0000       0.176102         4.7920
  37   0.0000       0.189691         5.1618

MULLIKEN ATOMIC CHARGES
-----------------------
   0 C :   -0.057722
   1 O :   -0.302555
   2 C :    0.032800
   3 C :    0.012887
   4 O :   -0.302733
   5 C :    0.141734
   6 C :   -0.205310
   7 C :   -0.200441
   8 C :   -0.106979
   9 H :    0.116444
  10 H :    0.098013
  11 H :    0.123241
  12 H :    0.134881
  13 H :    0.128504
  14 H :    0.128072
  15 H :    0.127671
  16 H :    0.131493
Sum of atomic charges:    0.0000000

LOEWDIN ATOMIC CHARGES
----------------------
   0 C :   -0.274041
   1 O :    0.196373
   2 C :   -0.258604
   3 C :   -0.264225
   4 O :    0.220541
   5 C :   -0.291569
   6 C :   -0.148474
   7 C :   -0.136666
   8 C :   -0.179547
   9 H :    0.134296
  10 H :    0.126828
  11 H :    0.141738
  12 H :    0.144069
  13 H :    0.152187
  14 H :    0.141570
  15 H :    0.146707
  16 H :    0.148814

  Mayer bond orders larger than 0.1
B(  0-C ,  1-O ) :   0.9299 B(  0-C ,  5-C ) :   0.9281 B(  0-C ,  9-H ) :   0.9170
B(  0-C , 10-H ) :   0.9211 B(  1-O ,  2-C ) :   1.0040 B(  2-C ,  3-C ) :   0.9152
B(  2-C ,  8-C ) :   0.7786 B(  2-C , 11-H ) :   0.9337 B(  3-C ,  4-O ) :   1.0094
B(  3-C ,  8-C ) :   0.8213 B(  3-C , 12-H ) :   0.9295 B(  4-O ,  5-C ) :   0.8904
B(  5-C ,  6-C ) :   0.9521 B(  5-C , 13-H ) :   0.9083 B(  6-C ,  7-C ) :   1.7768
B(  6-C , 14-H ) :   0.9170 B(  7-C ,  8-C ) :   0.9767 B(  7-C , 15-H ) :   0.9272
B(  8-C , 16-H ) :   0.9099

MP2 TOTAL ENERGY:     -421.093898357 Eh
FINAL SINGLE POINT ENERGY      -421.093898356777

DIPOLE MOMENT
-------------
                                X             Y             Z
Electronic contribution:      0.07199       0.08643      -1.09156
Nuclear contribution   :     -0.01355      -0.16096       1.12567
                        -----------------------------------------
Total Dipole Moment    :      0.05845      -0.07453       0.03411
                        -----------------------------------------
Magnitude (a.u.)       :      0.10067
Magnitude (Debye)      :      0.25588

                             ****ORCA TERMINATED NORMALLY****
TOTAL RUN TIME: 0 days 0 hours 18 minutes 49 seconds 320 msec
