                         Program Version 3.0.3 - RELEASE   -
|  1> ! RI-MP2 RIJK def2-TZVP def2-TZVP/C def2-TZVP/JK TIGHTSCF
|  2> % maxcore 2000
|  3> % mp2 density relaxed end
|  4> *xyz 0 1
|  5>  C        0.2556416608     1.3840071693     0.0352547393
|  6>  N        0.0090434622    -0.0408188518     0.0045610452
|  7>  C       -0.3948351891    -0.8215227898    -1.0153514418
|  8>  N       -0.4935230280    -2.0781075067    -0.6271714986
|  9>  C       -0.1276517112    -2.0164162529     0.6885646039
| 10>  N        0.1907006989    -0.8011604064     1.1145933340
| 11>  C       -0.0746989472    -3.2083127554     1.5525838018
| 12>  C       -1.1162289673    -4.2634648819     1.3947556326
| 13>  N        0.2550905973    -4.5104081895     0.9408899285
| 14>  H        1.2952747262     1.5800491740     0.3091455380
| 15>  H        0.0578743352     1.7962652303    -0.9557988422
| 16>  H       -0.4003009832     1.8643730457     0.7655587706
| 17>  H       -0.5984432073    -0.4359183289    -2.0035078565
| 18>  H        0.3651024680    -3.0338403267     2.5290950216
| 19>  H       -1.4270870203    -4.8376982428     2.2631604860
| 20>  H       -1.8854712075    -4.0870481015     0.6486234565
| 21>  H        0.2926353526    -4.3764832950    -0.0687703386
| 22> *
| 23>
| 24>                          ****END OF INPUT****

CARTESIAN COORDINATES (ANGSTROEM)
---------------------------------
  C      0.255642    1.384007    0.035255
  N      0.009043   -0.040819    0.004561
  C     -0.394835   -0.821523   -1.015351
  N     -0.493523   -2.078108   -0.627171
  C     -0.127652   -2.016416    0.688565
  N      0.190701   -0.801160    1.114593
  C     -0.074699   -3.208313    1.552584
  C     -1.116229   -4.263465    1.394756
  N      0.255091   -4.510408    0.940890
  H      1.295275    1.580049    0.309146
  H      0.057874    1.796265   -0.955799
  H     -0.400301    1.864373    0.765559
  H     -0.598443   -0.435918   -2.003508
  H      0.365102   -3.033840    2.529095
  H     -1.427087   -4.837698    2.263160
  H     -1.885471   -4.087048    0.648623
  H      0.292635   -4.376483   -0.068770

 Total Charge           Charge          ....    0
 Multiplicity           Mult            ....    1
 Number of Electrons    NEL             ....   66
 Basis Dimension        Dim             ....  327

ORBITAL ENERGIES
----------------

  NO   OCC          E(Eh)            E(eV)
   0   2.0000     -15.655299      -426.0024
   1   2.0000     -15.589527      -424.2126
   2   2.0000     -15.557876      -423.3513
   3   2.0000     -15.554410      -423.2570
   4   2.0000     -11.320627      -308.0499
   5   2.0000     -11.295043      -307.3537
   6   2.0000     -11.289239      -307.1958
   7   2.0000     -11.261913      -306.4522
   8   2.0000     -11.252462      -306.1950
   9   2.0000      -1.417084       -38.5608
  10   2.0000      -1.263569       -34.3835
  11   2.0000      -1.207852       -32.8673
  12   2.0000      -1.132922       -30.8284
  13   2.0000      -0.990356       -26.9490
  14   2.0000      -0.911916       -24.8145
  15   2.0000      -0.867781       -23.6135
  16   2.0000      -0.827862       -22.5273
  17   2.0000      -0.786217       -21.3941
  18   2.0000      -0.732675       -19.9371
  19   2.0000      -0.674500       -18.3541
  20   2.0000      -0.658570       -17.9206
  21   2.0000      -0.645857       -17.5747
  22   2.0000      -0.611698       -16.6451
  23   2.0000      -0.591090       -16.0844
  24   2.0000      -0.578529       -15.7426
  25   2.0000      -0.531656       -14.4671
  26   2.0000      -0.506446       -13.7811
  27   2.0000      -0.483393       -13.1538
  28   2.0000      -0.480614       -13.0782
  29   2.0000      -0.450918       -12.2701
  30   2.0000      -0.421616       -11.4727
  31   2.0000      -0.400970       -10.9109
  32   2.0000      -0.345357        -9.3976
  33   0.0000       0.131348         3.5742
  34   0.0000       0.137340         3.7372
  35   0.0000       0.165877         4.5137
  36   0.0000       0.175054         4.7635
  37   0.0000       0.178393         4.8543

MULLIKEN ATOMIC CHARGES
-----------------------
   0 C :   -0.303151
   1 N :    0.087971
   2 C :    0.001544
   3 N :   -0.348731
   4 C :    0.151928
   5 N :   -0.237235
   6 C :   -0.081988
   7 C :   -0.155508
   8 N :   -0.370530
   9 H :    0.162298
  10 H :    0.146072
  11 H :    0.161467
  12 H :    0.153700
  13 H :    0.134474
  14 H :    0.124144
  15 H :    0.138910
  16 H :    0.234635
Sum of atomic charges:   -0.0000000

LOEWDIN ATOMIC CHARGES
----------------------
   0 C :   -0.269351
   1 N :    0.169628
   2 C :   -0.305711
   3 N :    0.094854
   4 C :   -0.347594
   5 N :    0.071005
   6 C :   -0.245992
   7 C :   -0.256412
   8 N :   -0.005437
   9 H :    0.129113
  10 H :    0.129123
  11 H :    0.128789
  12 H :    0.136730
  13 H :    0.150787
  14 H :    0.123736
  15 H :    0.126389
  16 H :    0.170344

  Mayer bond orders larger than 0.1
B(  0-C ,  1-N ) :   0.8677 B(  0-C ,  9-H ) :   0.9278 B(  0-C , 10-H ) :   0.9274
B(  0-C , 11-H ) :   0.9280 B(  1-N ,  2-C ) :   1.2493 B(  1-N ,  5-N ) :   1.0044
B(  2-C ,  3-N ) :   1.5019 B(  2-C , 12-H ) :   0.9193 B(  3-N ,  4-C ) :   1.2869
B(  4-C ,  5-N ) :   1.5469 B(  4-C ,  6-C ) :   0.9612 B(  6-C ,  7-C ) :   0.9190
B(  6-C ,  8-N ) :   0.9143 B(  6-C , 13-H ) :   0.9260 B(  7-C ,  8-N ) :   0.9179
B(  7-C , 14-H ) :   0.9258 B(  7-C , 15-H ) :   0.9136 B(  8-N , 16-H ) :   0.8733

MP2 TOTAL ENERGY:     -413.483804504 Eh
FINAL SINGLE POINT ENERGY      -413.483804504380

DIPOLE MOMENT
-------------
                                X             Y             Z
Electronic contribution:      0.60511      -0.95569      -0.53924
Nuclear contribution   :     -0.92331       2.65728      -0.08442
                        -----------------------------------------
Total Dipole Moment    :     -0.31820       1.70159      -0.62367
                        -----------------------------------------
Magnitude (a.u.)       :      1.84001
Magnitude (Debye)      :      4.67692

                             ****ORCA TERMINATED NORMALLY****
TOTAL RUN TIME: 0 days 0 hours 17 minutes 15 seconds 701 msec
