                         Program Version 3.0.3 - RELEASE   -
|  1> ! RI-MP2 RIJK def2-TZVP def2-TZVP/C def2-TZVP/JK TIGHTSCF
|  2> % maxcore 2000
|  3> % mp2 density relaxed end
|  4> *xyz 0 1
|  5>  C       -0.4027199842     1.7111740451     0.3193998098
|  6>  C       -0.0068903452     0.2500939022     0.1414893094
|  7>  C       -1.2221424982    -0.6605285041    -0.1168679104
|  8>  O       -1.8402509532    -0.3374425507    -1.3433812925
|  9>  O        0.8499628485     0.1762857244    -1.0274095744
| 10>  C        1.9093128502    -0.7588819167    -0.8285123469
| 11>  C        2.0335669361    -0.9213351149     0.6681887808
| 12>  O        2.1316665262     0.3297939046     1.3578905534
| 13>  C        0.8510272782    -0.3024058041     1.2660107257
| 14>  H        0.4928290383     2.3232344299     0.4403802948
| 15>  H       -0.9638963104     2.0537197279    -0.5523687857
| 16>  H       -1.0377171582     1.8295595237     1.2032558791
| 17>  H       -0.8977687293    -1.7150502311    -0.0963546620
| 18>  H       -1.9727560810    -0.5308327667     0.6705186803
| 19>  H       -1.1159489312    -0.2458170981    -1.9767323919
| 20>  H        1.6882460056    -1.7333058502    -1.2910863515
| 21>  H        2.8105737162    -0.3490030477    -1.2967422055
| 22>  H        2.5707071615    -1.7597652425     1.1025754591
| 23>  H        0.4014512400    -0.6252644310     2.2015270184
| 24> *
| 25>
| 26>                          ****END OF INPUT****

CARTESIAN COORDINATES (ANGSTROEM)
---------------------------------
  C     -0.402720    1.711174    0.319400
  C     -0.006890    0.250094    0.141489
  C     -1.222142   -0.660529   -0.116868
  O     -1.840251   -0.337443   -1.343381
  O      0.849963    0.176286   -1.027410
  C      1.909313   -0.758882   -0.828512
  C      2.033567   -0.921335    0.668189
  O      2.131667    0.329794    1.357891
  C      0.851027   -0.302406    1.266011
  H      0.492829    2.323234    0.440380
  H     -0.963896    2.053720   -0.552369
  H     -1.037717    1.829560    1.203256
  H     -0.897769   -1.715050   -0.096355
  H     -1.972756   -0.530833    0.670519
  H     -1.115949   -0.245817   -1.976732
  H      1.688246   -1.733306   -1.291086
  H      2.810574   -0.349003   -1.296742
  H      2.570707   -1.759765    1.102575
  H      0.401451   -0.625264    2.201527

 Total Charge           Charge          ....    0
 Multiplicity           Mult            ....    1
 Number of Electrons    NEL             ....   70
 Basis Dimension        Dim             ....  339

ORBITAL ENERGIES
----------------

  NO   OCC          E(Eh)            E(eV)
   0   2.0000     -20.580474      -560.0232
   1   2.0000     -20.567505      -559.6703
   2   2.0000     -20.554408      -559.3139
   3   2.0000     -11.299668      -307.4796
   4   2.0000     -11.298975      -307.4607
   5   2.0000     -11.297743      -307.4272
   6   2.0000     -11.293294      -307.3062
   7   2.0000     -11.281754      -306.9921
   8   2.0000     -11.214973      -305.1749
   9   2.0000      -1.440120       -39.1877
  10   2.0000      -1.381231       -37.5852
  11   2.0000      -1.354262       -36.8513
  12   2.0000      -1.069963       -29.1152
  13   2.0000      -1.005468       -27.3602
  14   2.0000      -0.936316       -25.4784
  15   2.0000      -0.909101       -24.7379
  16   2.0000      -0.830316       -22.5941
  17   2.0000      -0.786805       -21.4101
  18   2.0000      -0.738596       -20.0982
  19   2.0000      -0.689354       -18.7583
  20   2.0000      -0.659391       -17.9429
  21   2.0000      -0.655246       -17.8301
  22   2.0000      -0.637241       -17.3402
  23   2.0000      -0.599501       -16.3133
  24   2.0000      -0.586454       -15.9582
  25   2.0000      -0.567905       -15.4535
  26   2.0000      -0.547262       -14.8918
  27   2.0000      -0.540041       -14.6953
  28   2.0000      -0.530040       -14.4231
  29   2.0000      -0.526432       -14.3249
  30   2.0000      -0.487371       -13.2620
  31   2.0000      -0.474259       -12.9053
  32   2.0000      -0.456978       -12.4350
  33   2.0000      -0.431859       -11.7515
  34   2.0000      -0.417088       -11.3496
  35   0.0000       0.133766         3.6400
  36   0.0000       0.150709         4.1010
  37   0.0000       0.159794         4.3482
  38   0.0000       0.179527         4.8852
  39   0.0000       0.186414         5.0726

MULLIKEN ATOMIC CHARGES
-----------------------
   0 C :   -0.402935
   1 C :    0.175568
   2 C :   -0.034525
   3 O :   -0.471038
   4 O :   -0.355974
   5 C :   -0.000395
   6 C :   -0.056082
   7 O :   -0.321798
   8 C :    0.008062
   9 H :    0.151404
  10 H :    0.148056
  11 H :    0.121716
  12 H :    0.097821
  13 H :    0.109425
  14 H :    0.327492
  15 H :    0.097992
  16 H :    0.125899
  17 H :    0.132495
  18 H :    0.146818
Sum of atomic charges:   -0.0000000

LOEWDIN ATOMIC CHARGES
----------------------
   0 C :   -0.260510
   1 C :   -0.358710
   2 C :   -0.307550
   3 O :   -0.037727
   4 O :    0.181382
   5 C :   -0.284905
   6 C :   -0.263408
   7 O :    0.183023
   8 C :   -0.225663
   9 H :    0.133989
  10 H :    0.133041
  11 H :    0.129394
  12 H :    0.121287
  13 H :    0.132729
  14 H :    0.179008
  15 H :    0.127443
  16 H :    0.134392
  17 H :    0.138676
  18 H :    0.144106

  Mayer bond orders larger than 0.1
B(  0-C ,  1-C ) :   0.9016 B(  0-C ,  9-H ) :   0.9398 B(  0-C , 10-H ) :   0.9293
B(  0-C , 11-H ) :   0.9311 B(  1-C ,  2-C ) :   0.9477 B(  1-C ,  4-O ) :   0.8495
B(  1-C ,  8-C ) :   0.8939 B(  2-C ,  3-O ) :   0.9461 B(  2-C , 12-H ) :   0.9031
B(  2-C , 13-H ) :   0.9253 B(  3-O , 14-H ) :   0.8227 B(  4-O ,  5-C ) :   0.9388
B(  5-C ,  6-C ) :   0.9617 B(  5-C , 15-H ) :   0.9174 B(  5-C , 16-H ) :   0.9085
B(  6-C ,  7-O ) :   0.9208 B(  6-C ,  8-C ) :   0.9556 B(  6-C , 17-H ) :   0.9189
B(  7-O ,  8-C ) :   0.8926 B(  8-C , 18-H ) :   0.9153

MP2 TOTAL ENERGY:     -459.417097243 Eh
FINAL SINGLE POINT ENERGY      -459.417097243279

DIPOLE MOMENT
-------------
                                X             Y             Z
Electronic contribution:      2.72909      -0.55930       0.08645
Nuclear contribution   :     -2.34731      -0.25078       0.24796
                        -----------------------------------------
Total Dipole Moment    :      0.38178      -0.81008       0.33441
                        -----------------------------------------
Magnitude (a.u.)       :      0.95593
Magnitude (Debye)      :      2.42979

                             ****ORCA TERMINATED NORMALLY****
TOTAL RUN TIME: 0 days 0 hours 18 minutes 33 seconds 459 msec
