                         Program Version 3.0.3 - RELEASE   -
|  1> ! RI-MP2 RIJK def2-TZVP def2-TZVP/C def2-TZVP/JK TIGHTSCF
|  2> % maxcore 2000
|  3> % mp2 density relaxed end
|  4> *xyz 0 1
|  5>  C       -0.1893614140     1.4222991443    -0.1803399310
|  6>  O        0.0689609063     0.0388356097    -0.0003520241
|  7>  C        0.7136767778    -0.5589537482    -1.1001009329
|  8>  C        1.1700578924    -2.0030389843    -0.7271632531
|  9>  C        1.5069094215    -2.3617565157     0.7117265087
| 10>  C       -0.1754114456    -2.4773695021    -1.3079633420
| 11>  O       -0.9194068211    -3.3758349039    -1.0402026742
| 12>  C       -0.3450924202    -1.1629059822    -2.1049990726
| 13>  O       -1.6063643554    -0.5828464891    -2.2204604322
| 14>  H        0.7482143762     1.9850600746    -0.3010109114
| 15>  H       -0.8285668216     1.6067579835    -1.0513936224
| 16>  H       -0.6958535524     1.7703510276     0.7229919556
| 17>  H        1.4763159936     0.1039231221    -1.5250335838
| 18>  H        1.9759994503    -2.3013979215    -1.4093510500
| 19>  H        0.7479833124    -1.9714792356     1.3921673586
| 20>  H        1.5468620559    -3.4488015976     0.8254623515
| 21>  H        2.4761616086    -1.9493975194     1.0070988327
| 22>  H        0.0792434800    -1.2556752521    -3.1108349440
| 23>  H       -2.0373356449    -0.6654426200    -1.3616901933
| 24> *
| 25>
| 26>                          ****END OF INPUT****

CARTESIAN COORDINATES (ANGSTROEM)
---------------------------------
  C     -0.189361    1.422299   -0.180340
  O      0.068961    0.038836   -0.000352
  C      0.713677   -0.558954   -1.100101
  C      1.170058   -2.003039   -0.727163
  C      1.506909   -2.361757    0.711727
  C     -0.175411   -2.477370   -1.307963
  O     -0.919407   -3.375835   -1.040203
  C     -0.345092   -1.162906   -2.104999
  O     -1.606364   -0.582846   -2.220460
  H      0.748214    1.985060   -0.301011
  H     -0.828567    1.606758   -1.051394
  H     -0.695854    1.770351    0.722992
  H      1.476316    0.103923   -1.525034
  H      1.975999   -2.301398   -1.409351
  H      0.747983   -1.971479    1.392167
  H      1.546862   -3.448802    0.825462
  H      2.476162   -1.949398    1.007099
  H      0.079243   -1.255675   -3.110835
  H     -2.037336   -0.665443   -1.361690

 Total Charge           Charge          ....    0
 Multiplicity           Mult            ....    1
 Number of Electrons    NEL             ....   70
 Basis Dimension        Dim             ....  339

ORBITAL ENERGIES
----------------

  NO   OCC          E(Eh)            E(eV)
   0   2.0000     -20.576004      -559.9015
   1   2.0000     -20.575967      -559.9005
   2   2.0000     -20.559931      -559.4642
   3   2.0000     -11.333044      -308.3878
   4   2.0000     -11.301892      -307.5401
   5   2.0000     -11.300266      -307.4959
   6   2.0000     -11.282390      -307.0094
   7   2.0000     -11.251620      -306.1721
   8   2.0000     -11.224192      -305.4258
   9   2.0000      -1.411583       -38.4111
  10   2.0000      -1.395030       -37.9607
  11   2.0000      -1.376527       -37.4572
  12   2.0000      -1.134988       -30.8846
  13   2.0000      -0.995974       -27.1018
  14   2.0000      -0.947976       -25.7957
  15   2.0000      -0.866802       -23.5869
  16   2.0000      -0.846273       -23.0283
  17   2.0000      -0.760495       -20.6941
  18   2.0000      -0.699292       -19.0287
  19   2.0000      -0.691455       -18.8154
  20   2.0000      -0.673042       -18.3144
  21   2.0000      -0.648937       -17.6585
  22   2.0000      -0.632526       -17.2119
  23   2.0000      -0.620670       -16.8893
  24   2.0000      -0.587232       -15.9794
  25   2.0000      -0.572874       -15.5887
  26   2.0000      -0.567078       -15.4310
  27   2.0000      -0.547509       -14.8985
  28   2.0000      -0.537529       -14.6269
  29   2.0000      -0.518644       -14.1130
  30   2.0000      -0.500644       -13.6232
  31   2.0000      -0.487764       -13.2727
  32   2.0000      -0.473409       -12.8821
  33   2.0000      -0.419295       -11.4096
  34   2.0000      -0.389020       -10.5858
  35   0.0000       0.109298         2.9741
  36   0.0000       0.142699         3.8830
  37   0.0000       0.156211         4.2507
  38   0.0000       0.157951         4.2981
  39   0.0000       0.170466         4.6386

MULLIKEN ATOMIC CHARGES
-----------------------
   0 C :   -0.248127
   1 O :   -0.323540
   2 C :   -0.025228
   3 C :    0.038579
   4 C :   -0.425426
   5 C :    0.020485
   6 O :   -0.244065
   7 C :    0.141403
   8 O :   -0.462098
   9 H :    0.118180
  10 H :    0.144734
  11 H :    0.144031
  12 H :    0.095904
  13 H :    0.131931
  14 H :    0.152421
  15 H :    0.146057
  16 H :    0.132847
  17 H :    0.127992
  18 H :    0.333920
Sum of atomic charges:    0.0000000

LOEWDIN ATOMIC CHARGES
----------------------
   0 C :   -0.349220
   1 O :    0.160638
   2 C :   -0.268735
   3 C :   -0.209240
   4 C :   -0.287330
   5 C :   -0.291063
   6 O :    0.172619
   7 C :   -0.294865
   8 O :    0.012673
   9 H :    0.104100
  10 H :    0.107764
  11 H :    0.114791
  12 H :    0.127978
  13 H :    0.167105
  14 H :    0.132346
  15 H :    0.132360
  16 H :    0.126375
  17 H :    0.153489
  18 H :    0.188212

  Mayer bond orders larger than 0.1
B(  0-C ,  1-O ) :   0.8859 B(  0-C ,  9-H ) :   0.9353 B(  0-C , 10-H ) :   0.9310
B(  0-C , 11-H ) :   0.9385 B(  1-O ,  2-C ) :   1.0080 B(  2-C ,  3-C ) :   0.8909
B(  2-C ,  7-C ) :   0.8781 B(  2-C , 12-H ) :   0.9302 B(  3-C ,  4-C ) :   0.8826
B(  3-C ,  5-C ) :   0.8197 B(  3-C , 13-H ) :   0.8982 B(  4-C , 14-H ) :   0.9333
B(  4-C , 15-H ) :   0.9333 B(  4-C , 16-H ) :   0.9374 B(  5-C ,  6-O ) :   2.0539
B(  5-C ,  7-C ) :   0.8499 B(  7-C ,  8-O ) :   0.9580 B(  7-C , 17-H ) :   0.9084
B(  8-O , 18-H ) :   0.8291

MP2 TOTAL ENERGY:     -459.416184930 Eh
FINAL SINGLE POINT ENERGY      -459.416184930277

DIPOLE MOMENT
-------------
                                X             Y             Z
Electronic contribution:     -4.30109      -4.48428      -3.60303
Nuclear contribution   :      5.22740       5.39712       3.66421
                        -----------------------------------------
Total Dipole Moment    :      0.92631       0.91284       0.06117
                        -----------------------------------------
Magnitude (a.u.)       :      1.30195
Magnitude (Debye)      :      3.30928

                             ****ORCA TERMINATED NORMALLY****
TOTAL RUN TIME: 0 days 0 hours 16 minutes 53 seconds 497 msec
