                         Program Version 3.0.3 - RELEASE   -
|  1> ! RI-MP2 RIJK def2-TZVP def2-TZVP/C def2-TZVP/JK TIGHTSCF
|  2> % maxcore 2000
|  3> % mp2 density relaxed end
|  4> *xyz 0 1
|  5>  C        0.0180030649     1.5020218395     0.0407099609
|  6>  C       -0.0179219547    -0.0222922202     0.1723062197
|  7>  C       -1.4267410087    -0.6004470097    -0.0226365736
|  8>  N       -1.4161661857    -2.0537140803     0.0099997451
|  9>  C       -1.8758254962    -2.6578836900     1.0179720097
| 10>  N       -1.9266529254    -4.0271562871     1.2059697564
| 11>  C       -2.5437222399    -4.3147672539     2.4200040769
| 12>  C       -2.8401098769    -3.1417790703     2.9871927823
| 13>  O       -2.4379250346    -2.1058833809     2.1612506126
| 14>  H        1.0320684052     1.8904195703     0.1776166949
| 15>  H       -0.3296307892     1.8233713096    -0.9478069525
| 16>  H       -0.6247258315     1.9822157102     0.7872745133
| 17>  H        0.6522279887    -0.4830746805    -0.5627940932
| 18>  H        0.3537976104    -0.3229126899     1.1598874694
| 19>  H       -2.1047304174    -0.1644195566     0.7254791420
| 20>  H       -1.7980652957    -0.2880624230    -1.0082241395
| 21>  H       -1.6481575734    -4.6745076496     0.4920388933
| 22>  H       -2.7005928480    -5.3213633062     2.7665320584
| 23>  H       -3.3000917720    -2.8676879114     3.9194475638
| 24> *
| 25>
| 26>                          ****END OF INPUT****

CARTESIAN COORDINATES (ANGSTROEM)
---------------------------------
  C      0.018003    1.502022    0.040710
  C     -0.017922   -0.022292    0.172306
  C     -1.426741   -0.600447   -0.022637
  N     -1.416166   -2.053714    0.010000
  C     -1.875825   -2.657884    1.017972
  N     -1.926653   -4.027156    1.205970
  C     -2.543722   -4.314767    2.420004
  C     -2.840110   -3.141779    2.987193
  O     -2.437925   -2.105883    2.161251
  H      1.032068    1.890420    0.177617
  H     -0.329631    1.823371   -0.947807
  H     -0.624726    1.982216    0.787275
  H      0.652228   -0.483075   -0.562794
  H      0.353798   -0.322913    1.159887
  H     -2.104730   -0.164420    0.725479
  H     -1.798065   -0.288062   -1.008224
  H     -1.648158   -4.674508    0.492039
  H     -2.700593   -5.321363    2.766532
  H     -3.300092   -2.867688    3.919448

 Total Charge           Charge          ....    0
 Multiplicity           Mult            ....    1
 Number of Electrons    NEL             ....   68
 Basis Dimension        Dim             ....  339

ORBITAL ENERGIES
----------------

  NO   OCC          E(Eh)            E(eV)
   0   2.0000     -20.615447      -560.9748
   1   2.0000     -15.601873      -424.5485
   2   2.0000     -15.514606      -422.1739
   3   2.0000     -11.367283      -309.3195
   4   2.0000     -11.293902      -307.3227
   5   2.0000     -11.285694      -307.0993
   6   2.0000     -11.233407      -305.6766
   7   2.0000     -11.204117      -304.8795
   8   2.0000     -11.202897      -304.8463
   9   2.0000      -1.466188       -39.8970
  10   2.0000      -1.261845       -34.3366
  11   2.0000      -1.203975       -32.7618
  12   2.0000      -1.045479       -28.4489
  13   2.0000      -1.010099       -27.4862
  14   2.0000      -0.910919       -24.7874
  15   2.0000      -0.857206       -23.3258
  16   2.0000      -0.831016       -22.6131
  17   2.0000      -0.789350       -21.4793
  18   2.0000      -0.723401       -19.6847
  19   2.0000      -0.664156       -18.0726
  20   2.0000      -0.653329       -17.7780
  21   2.0000      -0.640453       -17.4276
  22   2.0000      -0.630344       -17.1525
  23   2.0000      -0.601913       -16.3789
  24   2.0000      -0.572619       -15.5817
  25   2.0000      -0.560984       -15.2652
  26   2.0000      -0.536707       -14.6045
  27   2.0000      -0.509186       -13.8557
  28   2.0000      -0.495498       -13.4832
  29   2.0000      -0.478460       -13.0195
  30   2.0000      -0.462162       -12.5761
  31   2.0000      -0.415198       -11.2981
  32   2.0000      -0.399543       -10.8721
  33   2.0000      -0.298173        -8.1137
  34   0.0000       0.138390         3.7658
  35   0.0000       0.152099         4.1388
  36   0.0000       0.159497         4.3401
  37   0.0000       0.171089         4.6556
  38   0.0000       0.179895         4.8952

MULLIKEN ATOMIC CHARGES
-----------------------
   0 C :   -0.392523
   1 C :   -0.185275
   2 C :   -0.094499
   3 N :   -0.304591
   4 C :    0.277182
   5 N :   -0.299309
   6 C :   -0.091445
   7 C :   -0.034680
   8 O :   -0.248562
   9 H :    0.130395
  10 H :    0.119972
  11 H :    0.121743
  12 H :    0.106382
  13 H :    0.104621
  14 H :    0.099519
  15 H :    0.109311
  16 H :    0.259513
  17 H :    0.162733
  18 H :    0.159513
Sum of atomic charges:   -0.0000000

LOEWDIN ATOMIC CHARGES
----------------------
   0 C :   -0.324220
   1 C :   -0.297865
   2 C :   -0.301936
   3 N :    0.053686
   4 C :   -0.419888
   5 N :    0.150143
   6 C :   -0.240560
   7 C :   -0.257423
   8 O :    0.285401
   9 H :    0.120066
  10 H :    0.119601
  11 H :    0.119365
  12 H :    0.134468
  13 H :    0.132593
  14 H :    0.123376
  15 H :    0.129905
  16 H :    0.195193
  17 H :    0.142318
  18 H :    0.135778

  Mayer bond orders larger than 0.1
B(  0-C ,  1-C ) :   0.9113 B(  0-C ,  9-H ) :   0.9404 B(  0-C , 10-H ) :   0.9378
B(  0-C , 11-H ) :   0.9393 B(  1-C ,  2-C ) :   0.9334 B(  1-C , 12-H ) :   0.9337
B(  1-C , 13-H ) :   0.9321 B(  2-C ,  3-N ) :   0.9028 B(  2-C , 14-H ) :   0.9252
B(  2-C , 15-H ) :   0.9281 B(  3-N ,  4-C ) :   1.9053 B(  4-C ,  5-N ) :   1.0904
B(  4-C ,  8-O ) :   0.9988 B(  5-N ,  6-C ) :   1.0386 B(  5-N , 16-H ) :   0.8648
B(  6-C ,  7-C ) :   1.7124 B(  6-C , 17-H ) :   0.9123 B(  7-C ,  8-O ) :   0.9796
B(  7-C , 18-H ) :   0.9322

MP2 TOTAL ENERGY:     -418.508140015 Eh
FINAL SINGLE POINT ENERGY      -418.508140015319

DIPOLE MOMENT
-------------
                                X             Y             Z
Electronic contribution:     -5.41669     -10.72439       3.91134
Nuclear contribution   :      5.09159       9.79887      -3.25433
                        -----------------------------------------
Total Dipole Moment    :     -0.32511      -0.92552       0.65702
                        -----------------------------------------
Magnitude (a.u.)       :      1.18065
Magnitude (Debye)      :      3.00099

                             ****ORCA TERMINATED NORMALLY****
TOTAL RUN TIME: 0 days 0 hours 15 minutes 1 seconds 320 msec
