                         Program Version 3.0.3 - RELEASE   -
|  1> ! RI-MP2 RIJK def2-TZVP def2-TZVP/C def2-TZVP/JK TIGHTSCF
|  2> % maxcore 2000
|  3> % mp2 density relaxed end
|  4> *xyz 0 1
|  5>  C       -0.2256291067     1.4687229706    -0.0115030023
|  6>  C       -0.0344791840    -0.0295544945     0.0194388438
|  7>  C        0.9081723300    -0.7746911733    -0.9778924110
|  8>  C        0.8432489553    -1.8959034101     0.0962936812
|  9>  C        0.7766343677    -0.7507375040     1.1435909689
| 10>  C       -0.6563706957    -2.3257661642     0.0273080591
| 11>  C       -1.3029470680    -0.9127172064    -0.0510412900
| 12>  C       -0.9177491365    -3.2347874306    -1.1479352616
| 13>  O       -1.4250422651    -2.9036266669    -2.1911826002
| 14>  H        0.7326132602     1.9958924174     0.0452750791
| 15>  H       -0.7260916970     1.7827133067    -0.9346998575
| 16>  H       -0.8432742212     1.8064560291     0.8290416731
| 17>  H        0.5314340097    -0.9900747000    -1.9811501039
| 18>  H        1.8989325997    -0.3168738849    -1.0334443631
| 19>  H        1.5851774900    -2.6931119947     0.1538855506
| 20>  H        1.7527389354    -0.2894636128     1.3163322725
| 21>  H        0.2788791457    -0.9501271555     2.0983771909
| 22>  H       -0.9244897211    -2.8767382213     0.9370835712
| 23>  H       -1.9857588617    -0.7230316024     0.7826137446
| 24>  H       -1.8509906561    -0.7818000255    -0.9875870782
| 25>  H       -0.5668654207    -4.2830749369    -1.0003226171
| 26> *
| 27>
| 28>                          ****END OF INPUT****

CARTESIAN COORDINATES (ANGSTROEM)
---------------------------------
  C     -0.225629    1.468723   -0.011503
  C     -0.034479   -0.029554    0.019439
  C      0.908172   -0.774691   -0.977892
  C      0.843249   -1.895903    0.096294
  C      0.776634   -0.750738    1.143591
  C     -0.656371   -2.325766    0.027308
  C     -1.302947   -0.912717   -0.051041
  C     -0.917749   -3.234787   -1.147935
  O     -1.425042   -2.903627   -2.191183
  H      0.732613    1.995892    0.045275
  H     -0.726092    1.782713   -0.934700
  H     -0.843274    1.806456    0.829042
  H      0.531434   -0.990075   -1.981150
  H      1.898933   -0.316874   -1.033444
  H      1.585177   -2.693112    0.153886
  H      1.752739   -0.289464    1.316332
  H      0.278879   -0.950127    2.098377
  H     -0.924490   -2.876738    0.937084
  H     -1.985759   -0.723032    0.782614
  H     -1.850991   -0.781800   -0.987587
  H     -0.566865   -4.283075   -1.000323

 Total Charge           Charge          ....    0
 Multiplicity           Mult            ....    1
 Number of Electrons    NEL             ....   68
 Basis Dimension        Dim             ....  351

ORBITAL ENERGIES
----------------

  NO   OCC          E(Eh)            E(eV)
   0   2.0000     -20.553015      -559.2760
   1   2.0000     -11.326937      -308.2216
   2   2.0000     -11.245783      -306.0133
   3   2.0000     -11.242076      -305.9124
   4   2.0000     -11.240638      -305.8733
   5   2.0000     -11.227464      -305.5148
   6   2.0000     -11.222478      -305.3792
   7   2.0000     -11.221572      -305.3545
   8   2.0000     -11.215347      -305.1851
   9   2.0000      -1.391789       -37.8725
  10   2.0000      -1.194610       -32.5070
  11   2.0000      -1.023788       -27.8587
  12   2.0000      -0.990992       -26.9663
  13   2.0000      -0.917074       -24.9549
  14   2.0000      -0.903531       -24.5863
  15   2.0000      -0.820943       -22.3390
  16   2.0000      -0.741707       -20.1829
  17   2.0000      -0.735953       -20.0263
  18   2.0000      -0.678144       -18.4532
  19   2.0000      -0.655050       -17.8248
  20   2.0000      -0.642573       -17.4853
  21   2.0000      -0.624799       -17.0017
  22   2.0000      -0.588196       -16.0056
  23   2.0000      -0.565318       -15.3831
  24   2.0000      -0.541868       -14.7450
  25   2.0000      -0.535098       -14.5608
  26   2.0000      -0.516652       -14.0588
  27   2.0000      -0.507887       -13.8203
  28   2.0000      -0.478631       -13.0242
  29   2.0000      -0.459307       -12.4984
  30   2.0000      -0.452690       -12.3183
  31   2.0000      -0.430293       -11.7089
  32   2.0000      -0.427239       -11.6258
  33   2.0000      -0.409165       -11.1339
  34   0.0000       0.128662         3.5011
  35   0.0000       0.133478         3.6321
  36   0.0000       0.149052         4.0559
  37   0.0000       0.166610         4.5337
  38   0.0000       0.177618         4.8332

MULLIKEN ATOMIC CHARGES
-----------------------
   0 C :   -0.394276
   1 C :    0.087971
   2 C :   -0.291945
   3 C :   -0.081459
   4 C :   -0.263596
   5 C :   -0.068410
   6 C :   -0.274785
   7 C :    0.080268
   8 O :   -0.276344
   9 H :    0.128668
  10 H :    0.136789
  11 H :    0.130858
  12 H :    0.138637
  13 H :    0.119980
  14 H :    0.133893
  15 H :    0.119848
  16 H :    0.113547
  17 H :    0.115125
  18 H :    0.120477
  19 H :    0.142414
  20 H :    0.082343
Sum of atomic charges:   -0.0000000

LOEWDIN ATOMIC CHARGES
----------------------
   0 C :   -0.276410
   1 C :   -0.263499
   2 C :   -0.173522
   3 C :   -0.180239
   4 C :   -0.175436
   5 C :   -0.219073
   6 C :   -0.175696
   7 C :   -0.275555
   8 O :    0.130825
   9 H :    0.126174
  10 H :    0.130083
  11 H :    0.128156
  12 H :    0.133715
  13 H :    0.138966
  14 H :    0.133611
  15 H :    0.138462
  16 H :    0.127814
  17 H :    0.157436
  18 H :    0.136376
  19 H :    0.145202
  20 H :    0.112611

  Mayer bond orders larger than 0.1
B(  0-C ,  1-C ) :   0.8659 B(  0-C ,  9-H ) :   0.9393 B(  0-C , 10-H ) :   0.9419
B(  0-C , 11-H ) :   0.9408 B(  1-C ,  2-C ) :   0.9061 B(  1-C ,  4-C ) :   0.9100
B(  1-C ,  6-C ) :   0.9510 B(  2-C ,  3-C ) :   0.9373 B(  2-C , 12-H ) :   0.9103
B(  2-C , 13-H ) :   0.9272 B(  3-C ,  4-C ) :   0.9211 B(  3-C ,  5-C ) :   0.8735
B(  3-C , 14-H ) :   0.9090 B(  4-C , 15-H ) :   0.9219 B(  4-C , 16-H ) :   0.9224
B(  5-C ,  6-C ) :   0.9449 B(  5-C ,  7-C ) :   0.8585 B(  5-C , 17-H ) :   0.8971
B(  6-C , 18-H ) :   0.9225 B(  6-C , 19-H ) :   0.9122 B(  7-C ,  8-O ) :   1.9808
B(  7-C , 20-H ) :   0.9503

MP2 TOTAL ENERGY:     -386.426501987 Eh
FINAL SINGLE POINT ENERGY      -386.426501987344

DIPOLE MOMENT
-------------
                                X             Y             Z
Electronic contribution:     -2.15059      -6.25350      -3.44249
Nuclear contribution   :      2.61305       6.34952       4.32395
                        -----------------------------------------
Total Dipole Moment    :      0.46246       0.09602       0.88146
                        -----------------------------------------
Magnitude (a.u.)       :      1.00003
Magnitude (Debye)      :      2.54187

                             ****ORCA TERMINATED NORMALLY****
TOTAL RUN TIME: 0 days 0 hours 21 minutes 20 seconds 352 msec
