                         Program Version 3.0.3 - RELEASE   -
|  1> ! RI-MP2 RIJK def2-TZVP def2-TZVP/C def2-TZVP/JK TIGHTSCF
|  2> % maxcore 2000
|  3> % mp2 density relaxed end
|  4> *xyz 0 1
|  5>  C       -0.1996228846     1.5380136435     0.0991461018
|  6>  C        0.1829992551     0.1030304851    -0.0355765960
|  7>  O       -0.7100962673    -0.9149315580     0.4666467533
|  8>  C        0.6366701867    -0.9283220580     0.9431349596
|  9>  C        1.5958851050    -1.5288194931    -0.1291074636
| 10>  O        1.5844494962    -2.8311533225    -0.6640175422
| 11>  C        1.4195285113    -2.6750822389    -2.0897104097
| 12>  C        0.7955519578    -1.2944936331    -2.2909244504
| 13>  C        0.9170562442    -0.6497974299    -1.1395822961
| 14>  H        0.6702991790     2.1855258807    -0.0465100270
| 15>  H       -0.9514421141     1.8087512089    -0.6502095962
| 16>  H       -0.6210387024     1.7252853129     1.0898680273
| 17>  H        0.7862051642    -0.8578344880     2.0148819412
| 18>  H        2.6186693617    -1.2037770750     0.1297416650
| 19>  H        2.3905185404    -2.7944118876    -2.5973717989
| 20>  H        0.7546532854    -3.4690591645    -2.4516104271
| 21>  H        0.2551750612    -1.0193487324    -3.1874734010
| 22> *
| 23>
| 24>                          ****END OF INPUT****

CARTESIAN COORDINATES (ANGSTROEM)
---------------------------------
  C     -0.199623    1.538014    0.099146
  C      0.182999    0.103030   -0.035577
  O     -0.710096   -0.914932    0.466647
  C      0.636670   -0.928322    0.943135
  C      1.595885   -1.528819   -0.129107
  O      1.584449   -2.831153   -0.664018
  C      1.419529   -2.675082   -2.089710
  C      0.795552   -1.294494   -2.290924
  C      0.917056   -0.649797   -1.139582
  H      0.670299    2.185526   -0.046510
  H     -0.951442    1.808751   -0.650210
  H     -0.621039    1.725285    1.089868
  H      0.786205   -0.857834    2.014882
  H      2.618669   -1.203777    0.129742
  H      2.390519   -2.794412   -2.597372
  H      0.754653   -3.469059   -2.451610
  H      0.255175   -1.019349   -3.187473

 Total Charge           Charge          ....    0
 Multiplicity           Mult            ....    1
 Number of Electrons    NEL             ....   66
 Basis Dimension        Dim             ....  327

ORBITAL ENERGIES
----------------

  NO   OCC          E(Eh)            E(eV)
   0   2.0000     -20.574500      -559.8606
   1   2.0000     -20.557511      -559.3983
   2   2.0000     -11.314323      -307.8784
   3   2.0000     -11.294925      -307.3505
   4   2.0000     -11.287888      -307.1591
   5   2.0000     -11.287067      -307.1367
   6   2.0000     -11.243197      -305.9430
   7   2.0000     -11.238473      -305.8144
   8   2.0000     -11.237984      -305.8011
   9   2.0000      -1.427796       -38.8523
  10   2.0000      -1.378112       -37.5003
  11   2.0000      -1.105553       -30.0836
  12   2.0000      -1.031142       -28.0588
  13   2.0000      -1.011756       -27.5313
  14   2.0000      -0.897447       -24.4208
  15   2.0000      -0.845581       -23.0094
  16   2.0000      -0.797376       -21.6977
  17   2.0000      -0.724827       -19.7235
  18   2.0000      -0.699574       -19.0364
  19   2.0000      -0.677668       -18.4403
  20   2.0000      -0.639171       -17.3927
  21   2.0000      -0.614317       -16.7164
  22   2.0000      -0.600024       -16.3275
  23   2.0000      -0.584110       -15.8944
  24   2.0000      -0.565807       -15.3964
  25   2.0000      -0.545213       -14.8360
  26   2.0000      -0.532801       -14.4982
  27   2.0000      -0.517413       -14.0795
  28   2.0000      -0.500824       -13.6281
  29   2.0000      -0.437414       -11.9026
  30   2.0000      -0.429373       -11.6838
  31   2.0000      -0.404532       -11.0079
  32   2.0000      -0.351515        -9.5652
  33   0.0000       0.123483         3.3602
  34   0.0000       0.144302         3.9266
  35   0.0000       0.159174         4.3313
  36   0.0000       0.167812         4.5664
  37   0.0000       0.186222         5.0674

MULLIKEN ATOMIC CHARGES
-----------------------
   0 C :   -0.400364
   1 C :    0.229995
   2 O :   -0.300959
   3 C :   -0.120173
   4 C :    0.226319
   5 O :   -0.335227
   6 C :    0.009123
   7 C :   -0.225302
   8 C :   -0.116986
   9 H :    0.143003
  10 H :    0.144435
  11 H :    0.149885
  12 H :    0.139461
  13 H :    0.087527
  14 H :    0.104235
  15 H :    0.122431
  16 H :    0.142596
Sum of atomic charges:    0.0000000

LOEWDIN ATOMIC CHARGES
----------------------
   0 C :   -0.265796
   1 C :   -0.250780
   2 O :    0.203470
   3 C :   -0.197551
   4 C :   -0.248277
   5 O :    0.167405
   6 C :   -0.257373
   7 C :   -0.121684
   8 C :   -0.109833
   9 H :    0.135823
  10 H :    0.135990
  11 H :    0.137745
  12 H :    0.130694
  13 H :    0.147219
  14 H :    0.123184
  15 H :    0.130322
  16 H :    0.139442

  Mayer bond orders larger than 0.1
B(  0-C ,  1-C ) :   0.8683 B(  0-C ,  9-H ) :   0.9357 B(  0-C , 10-H ) :   0.9347
B(  0-C , 11-H ) :   0.9369 B(  1-C ,  2-O ) :   0.8883 B(  1-C ,  3-C ) :   0.8651
B(  1-C ,  8-C ) :   0.9036 B(  2-O ,  3-C ) :   0.9225 B(  3-C ,  4-C ) :   0.8333
B(  3-C , 12-H ) :   0.9314 B(  4-C ,  5-O ) :   0.9366 B(  4-C ,  8-C ) :   0.9590
B(  4-C , 13-H ) :   0.8951 B(  5-O ,  6-C ) :   0.9292 B(  6-C ,  7-C ) :   0.9666
B(  6-C , 14-H ) :   0.9136 B(  6-C , 15-H ) :   0.9166 B(  7-C ,  8-C ) :   1.7598
B(  7-C , 16-H ) :   0.9104

MP2 TOTAL ENERGY:     -421.038030130 Eh
FINAL SINGLE POINT ENERGY      -421.038030130224

DIPOLE MOMENT
-------------
                                X             Y             Z
Electronic contribution:     -0.11246      -3.52195       1.11143
Nuclear contribution   :      0.44179       4.36616      -1.42428
                        -----------------------------------------
Total Dipole Moment    :      0.32933       0.84421      -0.31285
                        -----------------------------------------
Magnitude (a.u.)       :      0.95866
Magnitude (Debye)      :      2.43672

                             ****ORCA TERMINATED NORMALLY****
TOTAL RUN TIME: 0 days 0 hours 18 minutes 43 seconds 284 msec
