                         Program Version 3.0.3 - RELEASE   -
|  1> ! RI-MP2 RIJK def2-TZVP def2-TZVP/C def2-TZVP/JK TIGHTSCF
|  2> % maxcore 2000
|  3> % mp2 density relaxed end
|  4> *xyz 0 1
|  5>  C       -0.0848070186     1.5008925627    -0.0969769564
|  6>  C       -0.0852624962    -0.0332602640    -0.0679581945
|  7>  C       -1.2997874216    -0.4702295492     0.8418948863
|  8>  O       -0.3643274692    -0.5531488696     2.0004337519
|  9>  C        0.6836596632    -0.7347866623     1.0087025015
| 10>  C        2.0230158524    -0.2243322321     0.3796480284
| 11>  C        1.1351967570    -0.6228676992    -0.9217648025
| 12>  O        1.0811829661    -2.0285952330    -0.8596683551
| 13>  C        0.7639982484    -2.2160510666     0.5329978896
| 14>  H        0.7915088165     1.9321505894    -0.5855170060
| 15>  H       -0.9599684430     1.8344953783    -0.6661328534
| 16>  H       -0.1627446272     1.9248899368     0.9103541002
| 17>  H       -2.0515485491     0.3038198304     1.0110199585
| 18>  H       -1.7793321013    -1.4322240835     0.6522717039
| 19>  H        2.2261043164     0.8362414152     0.4886378078
| 20>  H        2.9296495583    -0.8192287404     0.5179235022
| 21>  H        1.3853334644    -0.2807441685    -1.9262649320
| 22>  H        1.5661956975    -2.7628050526     1.0413289038
| 23>  H       -0.1660713138    -2.7792518718     0.6350629558
| 24> *
| 25>
| 26>                          ****END OF INPUT****

CARTESIAN COORDINATES (ANGSTROEM)
---------------------------------
  C     -0.084807    1.500893   -0.096977
  C     -0.085262   -0.033260   -0.067958
  C     -1.299787   -0.470230    0.841895
  O     -0.364327   -0.553149    2.000434
  C      0.683660   -0.734787    1.008703
  C      2.023016   -0.224332    0.379648
  C      1.135197   -0.622868   -0.921765
  O      1.081183   -2.028595   -0.859668
  C      0.763998   -2.216051    0.532998
  H      0.791509    1.932151   -0.585517
  H     -0.959968    1.834495   -0.666133
  H     -0.162745    1.924890    0.910354
  H     -2.051549    0.303820    1.011020
  H     -1.779332   -1.432224    0.652272
  H      2.226104    0.836241    0.488638
  H      2.929650   -0.819229    0.517924
  H      1.385333   -0.280744   -1.926265
  H      1.566196   -2.762805    1.041329
  H     -0.166071   -2.779252    0.635063

 Total Charge           Charge          ....    0
 Multiplicity           Mult            ....    1
 Number of Electrons    NEL             ....   68
 Basis Dimension        Dim             ....  339

ORBITAL ENERGIES
----------------

  NO   OCC          E(Eh)            E(eV)
   0   2.0000     -20.563036      -559.5487
   1   2.0000     -20.562946      -559.5462
   2   2.0000     -11.316343      -307.9334
   3   2.0000     -11.297856      -307.4303
   4   2.0000     -11.295195      -307.3579
   5   2.0000     -11.277644      -306.8803
   6   2.0000     -11.250423      -306.1396
   7   2.0000     -11.240013      -305.8563
   8   2.0000     -11.224803      -305.4424
   9   2.0000      -1.407960       -38.3125
  10   2.0000      -1.368638       -37.2425
  11   2.0000      -1.128563       -30.7098
  12   2.0000      -1.006571       -27.3902
  13   2.0000      -0.968542       -26.3554
  14   2.0000      -0.921508       -25.0755
  15   2.0000      -0.866164       -23.5695
  16   2.0000      -0.806055       -21.9339
  17   2.0000      -0.725766       -19.7491
  18   2.0000      -0.699242       -19.0273
  19   2.0000      -0.678690       -18.4681
  20   2.0000      -0.634176       -17.2568
  21   2.0000      -0.621376       -16.9085
  22   2.0000      -0.613695       -16.6995
  23   2.0000      -0.572077       -15.5670
  24   2.0000      -0.555512       -15.1163
  25   2.0000      -0.552387       -15.0312
  26   2.0000      -0.537228       -14.6187
  27   2.0000      -0.527435       -14.3522
  28   2.0000      -0.518255       -14.1024
  29   2.0000      -0.484657       -13.1882
  30   2.0000      -0.476959       -12.9787
  31   2.0000      -0.414840       -11.2884
  32   2.0000      -0.405112       -11.0237
  33   2.0000      -0.364540        -9.9196
  34   0.0000       0.139093         3.7849
  35   0.0000       0.152305         4.1444
  36   0.0000       0.165470         4.5027
  37   0.0000       0.172519         4.6945
  38   0.0000       0.180492         4.9114

MULLIKEN ATOMIC CHARGES
-----------------------
   0 C :   -0.514492
   1 C :    0.049641
   2 C :   -0.089271
   3 O :   -0.330519
   4 C :    0.157866
   5 C :   -0.251924
   6 C :    0.049840
   7 O :   -0.309192
   8 C :   -0.083185
   9 H :    0.132413
  10 H :    0.147623
  11 H :    0.163374
  12 H :    0.124613
  13 H :    0.118046
  14 H :    0.146003
  15 H :    0.129502
  16 H :    0.134141
  17 H :    0.117530
  18 H :    0.107989
Sum of atomic charges:   -0.0000000

LOEWDIN ATOMIC CHARGES
----------------------
   0 C :   -0.273308
   1 C :   -0.206379
   2 C :   -0.195960
   3 O :    0.128124
   4 C :   -0.297316
   5 C :   -0.165151
   6 C :   -0.218644
   7 O :    0.168753
   8 C :   -0.227429
   9 H :    0.124535
  10 H :    0.131015
  11 H :    0.133944
  12 H :    0.125956
  13 H :    0.121044
  14 H :    0.137324
  15 H :    0.129744
  16 H :    0.131858
  17 H :    0.126351
  18 H :    0.125539

  Mayer bond orders larger than 0.1
B(  0-C ,  1-C ) :   0.8439 B(  0-C ,  9-H ) :   0.9317 B(  0-C , 10-H ) :   0.9406
B(  0-C , 11-H ) :   0.9336 B(  1-C ,  2-C ) :   0.9320 B(  1-C ,  4-C ) :   0.8520
B(  1-C ,  6-C ) :   0.8579 B(  2-C ,  3-O ) :   0.8960 B(  2-C , 12-H ) :   0.9083
B(  2-C , 13-H ) :   0.9059 B(  3-O ,  4-C ) :   0.9255 B(  4-C ,  5-C ) :   0.8971
B(  4-C ,  8-C ) :   0.9347 B(  5-C ,  6-C ) :   0.8882 B(  5-C , 14-H ) :   0.9167
B(  5-C , 15-H ) :   0.9243 B(  6-C ,  7-O ) :   0.9720 B(  6-C , 16-H ) :   0.9075
B(  7-O ,  8-C ) :   0.9167 B(  8-C , 17-H ) :   0.9356 B(  8-C , 18-H ) :   0.9025

MP2 TOTAL ENERGY:     -422.193466415 Eh
FINAL SINGLE POINT ENERGY      -422.193466415350

DIPOLE MOMENT
-------------
                                X             Y             Z
Electronic contribution:      0.38030      -4.03768       0.75059
Nuclear contribution   :     -0.39368       4.48034      -1.05307
                        -----------------------------------------
Total Dipole Moment    :     -0.01339       0.44267      -0.30249
                        -----------------------------------------
Magnitude (a.u.)       :      0.53631
Magnitude (Debye)      :      1.36320

                             ****ORCA TERMINATED NORMALLY****
TOTAL RUN TIME: 0 days 0 hours 20 minutes 12 seconds 17 msec
