                         Program Version 3.0.3 - RELEASE   -
|  1> ! RI-MP2 RIJK def2-TZVP def2-TZVP/C def2-TZVP/JK TIGHTSCF
|  2> % maxcore 2000
|  3> % mp2 density relaxed end
|  4> *xyz 0 1
|  5>  C       -0.1755615899     1.5678423621     0.0462430511
|  6>  C        0.0567427288     0.0541177864     0.0217891205
|  7>  C        0.7857265025    -0.4615112920    -1.2355508587
|  8>  C        2.2569677765    -0.0214040738    -1.2638036223
|  9>  C        0.6419710698    -1.9949986217    -1.3401651700
| 10>  O       -0.7261040051    -2.4043553315    -1.3176085385
| 11>  C        1.3354492745    -2.6074395268    -2.5676614786
| 12>  C        1.0348002415    -4.0880344003    -2.6730097425
| 13>  O        0.6380108642    -4.6375144779    -3.6671849399
| 14>  H        0.7609557519     2.1345676613     0.0469161481
| 15>  H       -0.7578972358     1.8923158392    -0.8238193076
| 16>  H       -0.7321045048     1.8595412433     0.9422989989
| 17>  H        0.6314213816    -0.2451307016     0.9095307940
| 18>  H       -0.9055866415    -0.4608507820     0.0920560281
| 19>  H        0.2825066506    -0.0349002788    -2.1188042839
| 20>  H        2.7423340221    -0.2557706095    -2.2150826332
| 21>  H        2.3465756544     1.0577621273    -1.1147939156
| 22>  H        2.8259394166    -0.5116252323    -0.4641911350
| 23>  H        1.0689677159    -2.4454737532    -0.4334353937
| 24>  H       -1.1451580892    -2.0866012325    -2.1260937378
| 25>  H        1.0164230858    -2.1186834778    -3.4957924045
| 26>  H        2.4238535770    -2.4926854522    -2.4838198177
| 27>  H        1.2245050024    -4.6602642357    -1.7358554613
| 28> *
| 29>
| 30>                          ****END OF INPUT****

CARTESIAN COORDINATES (ANGSTROEM)
---------------------------------
  C     -0.175562    1.567842    0.046243
  C      0.056743    0.054118    0.021789
  C      0.785727   -0.461511   -1.235551
  C      2.256968   -0.021404   -1.263804
  C      0.641971   -1.994999   -1.340165
  O     -0.726104   -2.404355   -1.317609
  C      1.335449   -2.607440   -2.567661
  C      1.034800   -4.088034   -2.673010
  O      0.638011   -4.637514   -3.667185
  H      0.760956    2.134568    0.046916
  H     -0.757897    1.892316   -0.823819
  H     -0.732105    1.859541    0.942299
  H      0.631421   -0.245131    0.909531
  H     -0.905587   -0.460851    0.092056
  H      0.282507   -0.034900   -2.118804
  H      2.742334   -0.255771   -2.215083
  H      2.346576    1.057762   -1.114794
  H      2.825939   -0.511625   -0.464191
  H      1.068968   -2.445474   -0.433435
  H     -1.145158   -2.086601   -2.126094
  H      1.016423   -2.118683   -3.495792
  H      2.423854   -2.492685   -2.483820
  H      1.224505   -4.660264   -1.735855

 Total Charge           Charge          ....    0
 Multiplicity           Mult            ....    1
 Number of Electrons    NEL             ....   72
 Basis Dimension        Dim             ....  363

ORBITAL ENERGIES
----------------

  NO   OCC          E(Eh)            E(eV)
   0   2.0000     -20.566450      -559.6416
   1   2.0000     -20.554146      -559.3067
   2   2.0000     -11.331286      -308.3400
   3   2.0000     -11.297556      -307.4221
   4   2.0000     -11.244383      -305.9752
   5   2.0000     -11.241007      -305.8833
   6   2.0000     -11.227025      -305.5029
   7   2.0000     -11.222378      -305.3764
   8   2.0000     -11.218265      -305.2645
   9   2.0000      -1.394492       -37.9461
  10   2.0000      -1.373638       -37.3786
  11   2.0000      -1.104459       -30.0538
  12   2.0000      -1.045999       -28.4631
  13   2.0000      -0.987379       -26.8679
  14   2.0000      -0.914886       -24.8953
  15   2.0000      -0.852922       -23.2092
  16   2.0000      -0.803222       -21.8568
  17   2.0000      -0.783315       -21.3151
  18   2.0000      -0.686880       -18.6910
  19   2.0000      -0.661724       -18.0064
  20   2.0000      -0.656031       -17.8515
  21   2.0000      -0.645865       -17.5749
  22   2.0000      -0.615644       -16.7525
  23   2.0000      -0.603877       -16.4323
  24   2.0000      -0.589786       -16.0489
  25   2.0000      -0.575128       -15.6500
  26   2.0000      -0.550181       -14.9712
  27   2.0000      -0.542797       -14.7702
  28   2.0000      -0.519230       -14.1290
  29   2.0000      -0.510976       -13.9044
  30   2.0000      -0.502486       -13.6733
  31   2.0000      -0.494589       -13.4585
  32   2.0000      -0.472986       -12.8706
  33   2.0000      -0.459792       -12.5116
  34   2.0000      -0.446934       -12.1617
  35   2.0000      -0.413854       -11.2615
  36   0.0000       0.125468         3.4142
  37   0.0000       0.136632         3.7179
  38   0.0000       0.143785         3.9126
  39   0.0000       0.150212         4.0875
  40   0.0000       0.159450         4.3388

MULLIKEN ATOMIC CHARGES
-----------------------
   0 C :   -0.406635
   1 C :   -0.179824
   2 C :   -0.051041
   3 C :   -0.453767
   4 C :    0.022105
   5 O :   -0.464154
   6 C :   -0.165191
   7 C :    0.105655
   8 O :   -0.264464
   9 H :    0.121017
  10 H :    0.123190
  11 H :    0.138665
  12 H :    0.100904
  13 H :    0.136532
  14 H :    0.077717
  15 H :    0.141540
  16 H :    0.142411
  17 H :    0.130061
  18 H :    0.097963
  19 H :    0.318896
  20 H :    0.121279
  21 H :    0.136829
  22 H :    0.070313
Sum of atomic charges:   -0.0000000

LOEWDIN ATOMIC CHARGES
----------------------
   0 C :   -0.319787
   1 C :   -0.272055
   2 C :   -0.274776
   3 C :   -0.290001
   4 C :   -0.323720
   5 O :   -0.009462
   6 C :   -0.255008
   7 C :   -0.294289
   8 O :    0.129636
   9 H :    0.116908
  10 H :    0.120623
  11 H :    0.122984
  12 H :    0.137424
  13 H :    0.143113
  14 H :    0.150842
  15 H :    0.122283
  16 H :    0.125920
  17 H :    0.126273
  18 H :    0.149851
  19 H :    0.178914
  20 H :    0.146631
  21 H :    0.155774
  22 H :    0.111923

  Mayer bond orders larger than 0.1
B(  0-C ,  1-C ) :   0.9159 B(  0-C ,  9-H ) :   0.9402 B(  0-C , 10-H ) :   0.9391
B(  0-C , 11-H ) :   0.9439 B(  1-C ,  2-C ) :   0.9151 B(  1-C , 12-H ) :   0.9197
B(  1-C , 13-H ) :   0.9331 B(  2-C ,  3-C ) :   0.8935 B(  2-C ,  4-C ) :   0.9415
B(  2-C , 14-H ) :   0.9133 B(  3-C , 15-H ) :   0.9407 B(  3-C , 16-H ) :   0.9357
B(  3-C , 17-H ) :   0.9319 B(  4-C ,  5-O ) :   0.8848 B(  4-C ,  6-C ) :   0.9156
B(  4-C , 18-H ) :   0.9133 B(  5-O , 19-H ) :   0.8378 B(  6-C ,  7-C ) :   0.8764
B(  6-C , 20-H ) :   0.8885 B(  6-C , 21-H ) :   0.9108 B(  7-C ,  8-O ) :   2.0017
B(  7-C , 22-H ) :   0.9377

MP2 TOTAL ENERGY:     -424.737139354 Eh
FINAL SINGLE POINT ENERGY      -424.737139354060

DIPOLE MOMENT
-------------
                                X             Y             Z
Electronic contribution:     -2.25359     -12.40377      -5.98176
Nuclear contribution   :      2.78509      13.46163       6.37461
                        -----------------------------------------
Total Dipole Moment    :      0.53150       1.05786       0.39285
                        -----------------------------------------
Magnitude (a.u.)       :      1.24735
Magnitude (Debye)      :      3.17051

                             ****ORCA TERMINATED NORMALLY****
TOTAL RUN TIME: 0 days 0 hours 19 minutes 27 seconds 154 msec
