                         Program Version 3.0.3 - RELEASE   -
|  1> ! RI-MP2 RIJK def2-TZVP def2-TZVP/C def2-TZVP/JK TIGHTSCF
|  2> % maxcore 2000
|  3> % mp2 density relaxed end
|  4> *xyz 0 1
|  5>  C       -0.4993452932     1.6546000015    -0.0190431994
|  6>  O       -0.4786349960     0.3998086605     0.6224984251
|  7>  C       -1.2960766385    -0.5562898727     0.0006934527
|  8>  C       -0.8255299566    -1.1896706205    -1.3394948302
|  9>  C       -1.2880718898    -2.5601276047    -0.7805180335
| 10>  O       -0.5522313645    -3.7218611510    -1.0698326463
| 11>  C       -1.2801996607    -1.9621970247     0.6719186789
| 12>  C        0.0365408894    -2.2437501921     1.4010345288
| 13>  C       -2.4769100871    -2.3100615027     1.5509085650
| 14>  H        0.1438172398     2.3256266937     0.5555559389
| 15>  H       -0.1197108739     1.5967162832    -1.0502182018
| 16>  H       -1.5162213349     2.0771403719    -0.0511895271
| 17>  H       -2.3250482691    -0.1715278384    -0.0857425784
| 18>  H       -1.2672645459    -0.8419087018    -2.2755826597
| 19>  H        0.2658016957    -1.1426094022    -1.4198764202
| 20>  H       -2.3125646711    -2.7861998216    -1.0917704526
| 21>  H        0.3675629724    -3.5584586301    -0.8371855845
| 22>  H        0.9138676493    -1.9602840361     0.8108196278
| 23>  H        0.0889343772    -1.6731041271     2.3318768907
| 24>  H        0.1110614422    -3.3087262963     1.6441907963
| 25>  H       -2.4620365092    -3.3699561451     1.8293448086
| 26>  H       -2.4749084173    -1.7213098977     2.4753747419
| 27>  H       -3.4216803982    -2.1151989660     1.0315046988
| 28> *
| 29>
| 30>                          ****END OF INPUT****

CARTESIAN COORDINATES (ANGSTROEM)
---------------------------------
  C     -0.499345    1.654600   -0.019043
  O     -0.478635    0.399809    0.622498
  C     -1.296077   -0.556290    0.000693
  C     -0.825530   -1.189671   -1.339495
  C     -1.288072   -2.560128   -0.780518
  O     -0.552231   -3.721861   -1.069833
  C     -1.280200   -1.962197    0.671919
  C      0.036541   -2.243750    1.401035
  C     -2.476910   -2.310062    1.550909
  H      0.143817    2.325627    0.555556
  H     -0.119711    1.596716   -1.050218
  H     -1.516221    2.077140   -0.051190
  H     -2.325048   -0.171528   -0.085743
  H     -1.267265   -0.841909   -2.275583
  H      0.265802   -1.142609   -1.419876
  H     -2.312565   -2.786200   -1.091770
  H      0.367563   -3.558459   -0.837186
  H      0.913868   -1.960284    0.810820
  H      0.088934   -1.673104    2.331877
  H      0.111061   -3.308726    1.644191
  H     -2.462037   -3.369956    1.829345
  H     -2.474908   -1.721310    2.475375
  H     -3.421680   -2.115199    1.031505

 Total Charge           Charge          ....    0
 Multiplicity           Mult            ....    1
 Number of Electrons    NEL             ....   72
 Basis Dimension        Dim             ....  363

ORBITAL ENERGIES
----------------

  NO   OCC          E(Eh)            E(eV)
   0   2.0000     -20.557437      -559.3963
   1   2.0000     -20.554952      -559.3287
   2   2.0000     -11.278714      -306.9094
   3   2.0000     -11.276739      -306.8557
   4   2.0000     -11.273217      -306.7598
   5   2.0000     -11.232342      -305.6476
   6   2.0000     -11.220816      -305.3339
   7   2.0000     -11.213425      -305.1328
   8   2.0000     -11.212413      -305.1053
   9   2.0000      -1.380762       -37.5725
  10   2.0000      -1.362575       -37.0776
  11   2.0000      -1.132480       -30.8163
  12   2.0000      -1.005706       -27.3667
  13   2.0000      -0.945096       -25.7174
  14   2.0000      -0.932066       -25.3628
  15   2.0000      -0.858548       -23.3623
  16   2.0000      -0.835602       -22.7379
  17   2.0000      -0.751960       -20.4619
  18   2.0000      -0.679364       -18.4864
  19   2.0000      -0.657844       -17.9008
  20   2.0000      -0.648416       -17.6443
  21   2.0000      -0.639409       -17.3992
  22   2.0000      -0.611812       -16.6482
  23   2.0000      -0.590627       -16.0718
  24   2.0000      -0.576943       -15.6994
  25   2.0000      -0.573136       -15.5958
  26   2.0000      -0.544666       -14.8211
  27   2.0000      -0.534646       -14.5484
  28   2.0000      -0.528538       -14.3822
  29   2.0000      -0.515713       -14.0333
  30   2.0000      -0.501415       -13.6442
  31   2.0000      -0.481767       -13.1095
  32   2.0000      -0.458413       -12.4741
  33   2.0000      -0.427222       -11.6253
  34   2.0000      -0.408598       -11.1185
  35   2.0000      -0.401702       -10.9309
  36   0.0000       0.132190         3.5971
  37   0.0000       0.146702         3.9920
  38   0.0000       0.151341         4.1182
  39   0.0000       0.174775         4.7559
  40   0.0000       0.190156         5.1744

MULLIKEN ATOMIC CHARGES
-----------------------
   0 C :   -0.221707
   1 O :   -0.292588
   2 C :   -0.025061
   3 C :   -0.213243
   4 C :   -0.031372
   5 O :   -0.450026
   6 C :    0.227202
   7 C :   -0.487962
   8 C :   -0.426823
   9 H :    0.141353
  10 H :    0.115201
  11 H :    0.111020
  12 H :    0.074364
  13 H :    0.128048
  14 H :    0.113537
  15 H :    0.095933
  16 H :    0.319575
  17 H :    0.127105
  18 H :    0.143528
  19 H :    0.151501
  20 H :    0.139956
  21 H :    0.137286
  22 H :    0.123172
Sum of atomic charges:    0.0000000

LOEWDIN ATOMIC CHARGES
----------------------
   0 C :   -0.354503
   1 O :    0.162777
   2 C :   -0.275423
   3 C :   -0.216155
   4 C :   -0.292423
   5 O :   -0.007730
   6 C :   -0.271889
   7 C :   -0.275338
   8 C :   -0.274604
   9 H :    0.113485
  10 H :    0.102858
  11 H :    0.102419
  12 H :    0.135753
  13 H :    0.124779
  14 H :    0.140378
  15 H :    0.144831
  16 H :    0.174030
  17 H :    0.124462
  18 H :    0.133083
  19 H :    0.127911
  20 H :    0.129595
  21 H :    0.128361
  22 H :    0.123343

  Mayer bond orders larger than 0.1
B(  0-C ,  1-O ) :   0.9093 B(  0-C ,  9-H ) :   0.9408 B(  0-C , 10-H ) :   0.9349
B(  0-C , 11-H ) :   0.9347 B(  1-O ,  2-C ) :   1.0300 B(  2-C ,  3-C ) :   0.9297
B(  2-C ,  6-C ) :   0.8859 B(  2-C , 12-H ) :   0.9455 B(  3-C ,  4-C ) :   0.9353
B(  3-C , 13-H ) :   0.9230 B(  3-C , 14-H ) :   0.9033 B(  4-C ,  5-O ) :   0.9883
B(  4-C ,  6-C ) :   0.8464 B(  4-C , 15-H ) :   0.9270 B(  5-O , 16-H ) :   0.8369
B(  6-C ,  7-C ) :   0.8681 B(  6-C ,  8-C ) :   0.8925 B(  7-C , 17-H ) :   0.9256
B(  7-C , 18-H ) :   0.9326 B(  7-C , 19-H ) :   0.9410 B(  8-C , 20-H ) :   0.9396
B(  8-C , 21-H ) :   0.9409 B(  8-C , 22-H ) :   0.9274

MP2 TOTAL ENERGY:     -424.710041305 Eh
FINAL SINGLE POINT ENERGY      -424.710041305484

DIPOLE MOMENT
-------------
                                X             Y             Z
Electronic contribution:      0.84252      -1.87745      -2.20080
Nuclear contribution   :     -0.79586       2.53576       2.14678
                        -----------------------------------------
Total Dipole Moment    :      0.04666       0.65831      -0.05402
                        -----------------------------------------
Magnitude (a.u.)       :      0.66217
Magnitude (Debye)      :      1.68311

                             ****ORCA TERMINATED NORMALLY****
TOTAL RUN TIME: 0 days 0 hours 32 minutes 16 seconds 353 msec
