                         Program Version 3.0.3 - RELEASE   -
|  1> ! RI-MP2 RIJK def2-TZVP def2-TZVP/C def2-TZVP/JK TIGHTSCF
|  2> % maxcore 2000
|  3> % mp2 density relaxed end
|  4> *xyz 0 1
|  5>  C       -0.0902597423     1.5592339932     0.0023005516
|  6>  C       -0.0141776871     0.0404123713    -0.0041990679
|  7>  C        1.2340848030    -0.6465615368    -0.6381744308
|  8>  N        2.0178744073    -0.1609376378     0.5797100812
|  9>  C        0.7043377645    -0.6800395335     1.1920294675
| 10>  C        0.4083223167    -0.6212751376     2.6580781751
| 11>  C        0.9043126169    -1.8766384448     0.2314508034
| 12>  O        0.9751804233    -3.0680044062     0.2359812992
| 13>  H        0.8685138973     2.0034515135     0.2726181268
| 14>  H       -0.3815988995     1.9306379257    -0.9856330169
| 15>  H       -0.8475236929     1.9005448000     0.7164550552
| 16>  H       -0.9678657055    -0.4141891022    -0.2877228004
| 17>  H        1.6290879403    -0.5559268771    -1.6480439747
| 18>  H        2.7960093957    -0.7927767190     0.7911048756
| 19>  H        0.4384476518     0.4094736600     3.0244014884
| 20>  H       -0.5870503279    -1.0301474669     2.8579024082
| 21>  H        1.1329513786    -1.2114330118     3.2281927283
| 22> *
| 23>
| 24>                          ****END OF INPUT****

CARTESIAN COORDINATES (ANGSTROEM)
---------------------------------
  C     -0.090260    1.559234    0.002301
  C     -0.014178    0.040412   -0.004199
  C      1.234085   -0.646562   -0.638174
  N      2.017874   -0.160938    0.579710
  C      0.704338   -0.680040    1.192029
  C      0.408322   -0.621275    2.658078
  C      0.904313   -1.876638    0.231451
  O      0.975180   -3.068004    0.235981
  H      0.868514    2.003452    0.272618
  H     -0.381599    1.930638   -0.985633
  H     -0.847524    1.900545    0.716455
  H     -0.967866   -0.414189   -0.287723
  H      1.629088   -0.555927   -1.648044
  H      2.796009   -0.792777    0.791105
  H      0.438448    0.409474    3.024401
  H     -0.587050   -1.030147    2.857902
  H      1.132951   -1.211433    3.228193

 Total Charge           Charge          ....    0
 Multiplicity           Mult            ....    1
 Number of Electrons    NEL             ....   60
 Basis Dimension        Dim             ....  302

ORBITAL ENERGIES
----------------

  NO   OCC          E(Eh)            E(eV)
   0   2.0000     -20.555844      -559.3529
   1   2.0000     -15.579286      -423.9339
   2   2.0000     -11.341903      -308.6289
   3   2.0000     -11.293947      -307.3239
   4   2.0000     -11.287852      -307.1581
   5   2.0000     -11.259076      -306.3750
   6   2.0000     -11.235338      -305.7291
   7   2.0000     -11.222603      -305.3825
   8   2.0000      -1.403567       -38.1930
   9   2.0000      -1.297006       -35.2933
  10   2.0000      -1.043899       -28.4059
  11   2.0000      -1.014147       -27.5963
  12   2.0000      -0.966316       -26.2948
  13   2.0000      -0.852617       -23.2009
  14   2.0000      -0.812974       -22.1221
  15   2.0000      -0.732584       -19.9346
  16   2.0000      -0.669101       -18.2072
  17   2.0000      -0.661641       -18.0042
  18   2.0000      -0.627633       -17.0788
  19   2.0000      -0.603990       -16.4354
  20   2.0000      -0.580587       -15.7986
  21   2.0000      -0.568408       -15.4672
  22   2.0000      -0.560685       -15.2570
  23   2.0000      -0.552593       -15.0368
  24   2.0000      -0.508836       -13.8461
  25   2.0000      -0.497114       -13.5272
  26   2.0000      -0.479065       -13.0360
  27   2.0000      -0.454745       -12.3742
  28   2.0000      -0.411641       -11.2013
  29   2.0000      -0.391680       -10.6581
  30   0.0000       0.125522         3.4156
  31   0.0000       0.149636         4.0718
  32   0.0000       0.157757         4.2928
  33   0.0000       0.162474         4.4211
  34   0.0000       0.186450         5.0736

MULLIKEN ATOMIC CHARGES
-----------------------
   0 C :   -0.458197
   1 C :   -0.011103
   2 C :   -0.099016
   3 N :   -0.305999
   4 C :   -0.008549
   5 C :   -0.426538
   6 C :    0.203621
   7 O :   -0.258801
   8 H :    0.167343
   9 H :    0.136622
  10 H :    0.132470
  11 H :    0.119179
  12 H :    0.152450
  13 H :    0.212936
  14 H :    0.152893
  15 H :    0.145992
  16 H :    0.144695
Sum of atomic charges:   -0.0000000

LOEWDIN ATOMIC CHARGES
----------------------
   0 C :   -0.294516
   1 C :   -0.188529
   2 C :   -0.172180
   3 N :    0.057642
   4 C :   -0.232160
   5 C :   -0.272304
   6 C :   -0.288860
   7 O :    0.151429
   8 H :    0.133874
   9 H :    0.127134
  10 H :    0.126251
  11 H :    0.150117
  12 H :    0.128114
  13 H :    0.164545
  14 H :    0.135390
  15 H :    0.138221
  16 H :    0.135832

  Mayer bond orders larger than 0.1
B(  0-C ,  1-C ) :   0.8842 B(  0-C ,  8-H ) :   0.9371 B(  0-C ,  9-H ) :   0.9359
B(  0-C , 10-H ) :   0.9349 B(  1-C ,  2-C ) :   0.8737 B(  1-C ,  4-C ) :   0.8259
B(  1-C , 11-H ) :   0.9143 B(  2-C ,  3-N ) :   0.9514 B(  2-C ,  6-C ) :   0.9196
B(  2-C , 12-H ) :   0.8789 B(  3-N ,  4-C ) :   0.9309 B(  3-N , 13-H ) :   0.8863
B(  4-C ,  5-C ) :   0.8401 B(  4-C ,  6-C ) :   0.8890 B(  5-C , 14-H ) :   0.9465
B(  5-C , 15-H ) :   0.9363 B(  5-C , 16-H ) :   0.9328 B(  6-C ,  7-O ) :   2.0604

MP2 TOTAL ENERGY:     -363.197499438 Eh
FINAL SINGLE POINT ENERGY      -363.197499437603

DIPOLE MOMENT
-------------
                                X             Y             Z
Electronic contribution:      2.47643      -7.09649      -2.68512
Nuclear contribution   :     -2.67769       7.82762       2.81785
                        -----------------------------------------
Total Dipole Moment    :     -0.20126       0.73112       0.13273
                        -----------------------------------------
Magnitude (a.u.)       :      0.76984
Magnitude (Debye)      :      1.95679

                             ****ORCA TERMINATED NORMALLY****
TOTAL RUN TIME: 0 days 0 hours 14 minutes 5 seconds 673 msec
