                         Program Version 3.0.3 - RELEASE   -
|  1> ! RI-MP2 RIJK def2-TZVP def2-TZVP/C def2-TZVP/JK TIGHTSCF
|  2> % maxcore 2000
|  3> % mp2 density relaxed end
|  4> *xyz 0 1
|  5>  C        0.0369498130     1.3228676497    -0.0420658201
|  6>  O       -0.0214762353    -0.1084879160    -0.0289797226
|  7>  C       -1.2545816656    -0.6474238070    -0.0250429077
|  8>  N       -2.3332051761     0.0227896651    -0.0275571692
|  9>  C       -3.4476876865    -0.9344351901     0.0012578333
| 10>  C       -2.8493804719    -2.3336766827    -0.3116619609
| 11>  C       -1.3462139149    -2.1612593814    -0.0072919854
| 12>  C       -0.3965616872    -2.8574598469    -0.9935167507
| 13>  O        0.9615031981    -2.7439615918    -0.6252921707
| 14>  H        1.0967736398     1.5791705849    -0.0446196195
| 15>  H       -0.4592096636     1.7174707038    -0.9326110624
| 16>  H       -0.4575420764     1.7311509037     0.8429354686
| 17>  H       -3.9167184959    -0.9046987704     0.9934970100
| 18>  H       -4.2163991413    -0.6346883686    -0.7179356821
| 19>  H       -3.3128347922    -3.1376896637     0.2638496643
| 20>  H       -2.9838173186    -2.5694999166    -1.3737015811
| 21>  H       -1.0902404083    -2.5164327991     0.9997922718
| 22>  H       -0.6231432141    -3.9289070384    -1.0175392874
| 23>  H       -0.5809670904    -2.4644032831    -2.0081240717
| 24>  H        1.1402522774    -1.8022887513    -0.5155139863
| 25> *
| 26>
| 27>                          ****END OF INPUT****

CARTESIAN COORDINATES (ANGSTROEM)
---------------------------------
  C      0.036950    1.322868   -0.042066
  O     -0.021476   -0.108488   -0.028980
  C     -1.254582   -0.647424   -0.025043
  N     -2.333205    0.022790   -0.027557
  C     -3.447688   -0.934435    0.001258
  C     -2.849380   -2.333677   -0.311662
  C     -1.346214   -2.161259   -0.007292
  C     -0.396562   -2.857460   -0.993517
  O      0.961503   -2.743962   -0.625292
  H      1.096774    1.579171   -0.044620
  H     -0.459210    1.717471   -0.932611
  H     -0.457542    1.731151    0.842935
  H     -3.916718   -0.904699    0.993497
  H     -4.216399   -0.634688   -0.717936
  H     -3.312835   -3.137690    0.263850
  H     -2.983817   -2.569500   -1.373702
  H     -1.090240   -2.516433    0.999792
  H     -0.623143   -3.928907   -1.017539
  H     -0.580967   -2.464403   -2.008124
  H      1.140252   -1.802289   -0.515514

 Total Charge           Charge          ....    0
 Multiplicity           Mult            ....    1
 Number of Electrons    NEL             ....   70
 Basis Dimension        Dim             ....  345

ORBITAL ENERGIES
----------------

  NO   OCC          E(Eh)            E(eV)
   0   2.0000     -20.603881      -560.6601
   1   2.0000     -20.547463      -559.1249
   2   2.0000     -15.541118      -422.8953
   3   2.0000     -11.330856      -308.3283
   4   2.0000     -11.285640      -307.0979
   5   2.0000     -11.280023      -306.9450
   6   2.0000     -11.254022      -306.2375
   7   2.0000     -11.245276      -305.9995
   8   2.0000     -11.233673      -305.6838
   9   2.0000      -1.436560       -39.0908
  10   2.0000      -1.356128       -36.9021
  11   2.0000      -1.240619       -33.7590
  12   2.0000      -1.063251       -28.9325
  13   2.0000      -0.998590       -27.1730
  14   2.0000      -0.949817       -25.8458
  15   2.0000      -0.884597       -24.0711
  16   2.0000      -0.819451       -22.2984
  17   2.0000      -0.757008       -20.5992
  18   2.0000      -0.711431       -19.3590
  19   2.0000      -0.685061       -18.6415
  20   2.0000      -0.661881       -18.0107
  21   2.0000      -0.641422       -17.4540
  22   2.0000      -0.630896       -17.1676
  23   2.0000      -0.609341       -16.5810
  24   2.0000      -0.595762       -16.2115
  25   2.0000      -0.566426       -15.4132
  26   2.0000      -0.549243       -14.9457
  27   2.0000      -0.530024       -14.4227
  28   2.0000      -0.522412       -14.2155
  29   2.0000      -0.503283       -13.6950
  30   2.0000      -0.487154       -13.2561
  31   2.0000      -0.478281       -13.0147
  32   2.0000      -0.438564       -11.9339
  33   2.0000      -0.418803       -11.3962
  34   2.0000      -0.381994       -10.3946
  35   0.0000       0.133830         3.6417
  36   0.0000       0.153481         4.1764
  37   0.0000       0.160028         4.3546
  38   0.0000       0.165861         4.5133
  39   0.0000       0.183216         4.9856

MULLIKEN ATOMIC CHARGES
-----------------------
   0 C :   -0.210204
   1 O :   -0.317225
   2 C :    0.176897
   3 N :   -0.274054
   4 C :   -0.087731
   5 C :   -0.298247
   6 C :   -0.030021
   7 C :   -0.032084
   8 O :   -0.479472
   9 H :    0.142871
  10 H :    0.137340
  11 H :    0.139500
  12 H :    0.111360
  13 H :    0.119994
  14 H :    0.134088
  15 H :    0.116430
  16 H :    0.109006
  17 H :    0.118258
  18 H :    0.095243
  19 H :    0.328049
Sum of atomic charges:    0.0000000

LOEWDIN ATOMIC CHARGES
----------------------
   0 C :   -0.308504
   1 O :    0.218271
   2 C :   -0.369164
   3 N :    0.090301
   4 C :   -0.271475
   5 C :   -0.223586
   6 C :   -0.225740
   7 C :   -0.328788
   8 O :   -0.043929
   9 H :    0.113247
  10 H :    0.114043
  11 H :    0.115291
  12 H :    0.129377
  13 H :    0.127731
  14 H :    0.135340
  15 H :    0.140886
  16 H :    0.164287
  17 H :    0.131247
  18 H :    0.119817
  19 H :    0.171349

  Mayer bond orders larger than 0.1
B(  0-C ,  1-O ) :   0.8472 B(  0-C ,  9-H ) :   0.9320 B(  0-C , 10-H ) :   0.9360
B(  0-C , 11-H ) :   0.9375 B(  1-O ,  2-C ) :   1.0422 B(  2-C ,  3-N ) :   1.7792
B(  2-C ,  6-C ) :   0.9298 B(  3-N ,  4-C ) :   0.9277 B(  4-C ,  5-C ) :   0.9369
B(  4-C , 12-H ) :   0.9231 B(  4-C , 13-H ) :   0.9313 B(  5-C ,  6-C ) :   0.9199
B(  5-C , 14-H ) :   0.9338 B(  5-C , 15-H ) :   0.9194 B(  6-C ,  7-C ) :   0.9116
B(  6-C , 16-H ) :   0.9025 B(  7-C ,  8-O ) :   0.9433 B(  7-C , 17-H ) :   0.9325
B(  7-C , 18-H ) :   0.9157 B(  8-O , 19-H ) :   0.8282

MP2 TOTAL ENERGY:     -439.582813251 Eh
FINAL SINGLE POINT ENERGY      -439.582813251327

DIPOLE MOMENT
-------------
                                X             Y             Z
Electronic contribution:      2.44466       0.44997       0.82987
Nuclear contribution   :     -2.87671      -0.16584      -0.82171
                        -----------------------------------------
Total Dipole Moment    :     -0.43205       0.28413       0.00815
                        -----------------------------------------
Magnitude (a.u.)       :      0.51717
Magnitude (Debye)      :      1.31454

                             ****ORCA TERMINATED NORMALLY****
TOTAL RUN TIME: 0 days 0 hours 17 minutes 59 seconds 285 msec
