                         Program Version 3.0.3 - RELEASE   -
|  1> ! RI-MP2 RIJK def2-TZVP def2-TZVP/C def2-TZVP/JK TIGHTSCF
|  2> % maxcore 2000
|  3> % mp2 density relaxed end
|  4> *xyz 0 1
|  5>  C       -1.5168801078    -1.3112473529    -1.8674192006
|  6>  O       -1.5950710888    -2.1492483505    -0.7404561813
|  7>  C       -0.4209411142    -2.1287474328     0.0428364402
|  8>  C       -0.6106961450    -3.0636959479     1.2400146281
|  9>  C       -0.8484390080    -4.5138423912     0.7970824438
| 10>  C        0.6006755654    -2.9703479876     2.1430326902
| 11>  O        0.8020238755    -1.7504594708     2.8690586061
| 12>  C        0.5654667418    -2.9504414590     3.6159518936
| 13>  C       -0.6832810497    -3.0118026445     4.4579264914
| 14>  H       -0.7017330262    -1.6114717665    -2.5453873015
| 15>  H       -2.4668441472    -1.3900312623    -2.4019809575
| 16>  H       -1.3542253855    -0.2591314021    -1.5843270150
| 17>  H        0.4476011703    -2.4524859970    -0.5596828815
| 18>  H       -0.2112671014    -1.1079686246     0.3997435604
| 19>  H       -1.4913421211    -2.7051447685     1.7824768136
| 20>  H       -1.0666067003    -5.1596285154     1.6532437671
| 21>  H       -1.6873906363    -4.5619907444     0.1001387827
| 22>  H        0.0353836037    -4.9184319674     0.2891144808
| 23>  H        1.5174603650    -3.3546233094     1.6852192766
| 24>  H        1.4594400914    -3.3228408186     4.1220945190
| 25>  H       -0.5582326807    -2.3999779967     5.3575328240
| 26>  H       -1.5585087681    -2.6431693543     3.9198835957
| 27>  H       -0.8760851327    -4.0412172156     4.7793639641
| 28> *
| 29>
| 30>                          ****END OF INPUT****

CARTESIAN COORDINATES (ANGSTROEM)
---------------------------------
  C     -1.516880   -1.311247   -1.867419
  O     -1.595071   -2.149248   -0.740456
  C     -0.420941   -2.128747    0.042836
  C     -0.610696   -3.063696    1.240015
  C     -0.848439   -4.513842    0.797082
  C      0.600676   -2.970348    2.143033
  O      0.802024   -1.750459    2.869059
  C      0.565467   -2.950441    3.615952
  C     -0.683281   -3.011803    4.457926
  H     -0.701733   -1.611472   -2.545387
  H     -2.466844   -1.390031   -2.401981
  H     -1.354225   -0.259131   -1.584327
  H      0.447601   -2.452486   -0.559683
  H     -0.211267   -1.107969    0.399744
  H     -1.491342   -2.705145    1.782477
  H     -1.066607   -5.159629    1.653244
  H     -1.687391   -4.561991    0.100139
  H      0.035384   -4.918432    0.289114
  H      1.517460   -3.354623    1.685219
  H      1.459440   -3.322841    4.122095
  H     -0.558233   -2.399978    5.357533
  H     -1.558509   -2.643169    3.919884
  H     -0.876085   -4.041217    4.779364

 Total Charge           Charge          ....    0
 Multiplicity           Mult            ....    1
 Number of Electrons    NEL             ....   72
 Basis Dimension        Dim             ....  363

ORBITAL ENERGIES
----------------

  NO   OCC          E(Eh)            E(eV)
   0   2.0000     -20.559828      -559.4614
   1   2.0000     -20.553860      -559.2990
   2   2.0000     -11.285417      -307.0918
   3   2.0000     -11.281294      -306.9796
   4   2.0000     -11.271354      -306.7091
   5   2.0000     -11.269469      -306.6578
   6   2.0000     -11.231316      -305.6197
   7   2.0000     -11.224663      -305.4386
   8   2.0000     -11.214321      -305.1572
   9   2.0000      -1.404522       -38.2190
  10   2.0000      -1.375403       -37.4266
  11   2.0000      -1.078413       -29.3451
  12   2.0000      -1.009686       -27.4750
  13   2.0000      -0.951987       -25.9049
  14   2.0000      -0.910950       -24.7882
  15   2.0000      -0.878270       -23.8989
  16   2.0000      -0.822761       -22.3885
  17   2.0000      -0.767079       -20.8733
  18   2.0000      -0.696339       -18.9483
  19   2.0000      -0.665707       -18.1148
  20   2.0000      -0.660413       -17.9708
  21   2.0000      -0.633890       -17.2490
  22   2.0000      -0.611420       -16.6376
  23   2.0000      -0.595133       -16.1944
  24   2.0000      -0.571863       -15.5612
  25   2.0000      -0.568366       -15.4660
  26   2.0000      -0.553695       -15.0668
  27   2.0000      -0.544296       -14.8111
  28   2.0000      -0.516818       -14.0633
  29   2.0000      -0.499735       -13.5985
  30   2.0000      -0.489232       -13.3127
  31   2.0000      -0.478902       -13.0316
  32   2.0000      -0.470924       -12.8145
  33   2.0000      -0.438752       -11.9390
  34   2.0000      -0.422166       -11.4877
  35   2.0000      -0.415520       -11.3069
  36   0.0000       0.137839         3.7508
  37   0.0000       0.150300         4.0899
  38   0.0000       0.161202         4.3865
  39   0.0000       0.171787         4.6746
  40   0.0000       0.187285         5.0963

MULLIKEN ATOMIC CHARGES
-----------------------
   0 C :   -0.214352
   1 O :   -0.307971
   2 C :   -0.074259
   3 C :    0.020939
   4 C :   -0.439178
   5 C :    0.011869
   6 O :   -0.346068
   7 C :    0.052964
   8 C :   -0.388920
   9 H :    0.109621
  10 H :    0.137546
  11 H :    0.113000
  12 H :    0.086047
  13 H :    0.121257
  14 H :    0.076224
  15 H :    0.133396
  16 H :    0.157423
  17 H :    0.118967
  18 H :    0.117710
  19 H :    0.105276
  20 H :    0.141866
  21 H :    0.138151
  22 H :    0.128494
Sum of atomic charges:    0.0000000

LOEWDIN ATOMIC CHARGES
----------------------
   0 C :   -0.362144
   1 O :    0.136661
   2 C :   -0.302549
   3 C :   -0.272065
   4 C :   -0.284963
   5 C :   -0.251248
   6 O :    0.156365
   7 C :   -0.289941
   8 C :   -0.295384
   9 H :    0.100805
  10 H :    0.112876
  11 H :    0.102290
  12 H :    0.120981
  13 H :    0.128227
  14 H :    0.157919
  15 H :    0.123534
  16 H :    0.130372
  17 H :    0.123735
  18 H :    0.140848
  19 H :    0.135876
  20 H :    0.130699
  21 H :    0.126937
  22 H :    0.130167

  Mayer bond orders larger than 0.1
B(  0-C ,  1-O ) :   0.9203 B(  0-C ,  9-H ) :   0.9364 B(  0-C , 10-H ) :   0.9397
B(  0-C , 11-H ) :   0.9371 B(  1-O ,  2-C ) :   0.9536 B(  2-C ,  3-C ) :   0.9435
B(  2-C , 12-H ) :   0.9158 B(  2-C , 13-H ) :   0.9256 B(  3-C ,  4-C ) :   0.9137
B(  3-C ,  5-C ) :   0.8984 B(  3-C , 14-H ) :   0.9188 B(  4-C , 15-H ) :   0.9379
B(  4-C , 16-H ) :   0.9323 B(  4-C , 17-H ) :   0.9306 B(  5-C ,  6-O ) :   0.8577
B(  5-C ,  7-C ) :   0.9903 B(  5-C , 18-H ) :   0.8997 B(  6-O ,  7-C ) :   0.9122
B(  7-C ,  8-C ) :   0.8876 B(  7-C , 19-H ) :   0.9190 B(  8-C , 20-H ) :   0.9334
B(  8-C , 21-H ) :   0.9432 B(  8-C , 22-H ) :   0.9253

MP2 TOTAL ENERGY:     -424.693409775 Eh
FINAL SINGLE POINT ENERGY      -424.693409774748

DIPOLE MOMENT
-------------
                                X             Y             Z
Electronic contribution:      2.37898       2.49254       1.78638
Nuclear contribution   :     -2.30803      -2.90918      -1.86461
                        -----------------------------------------
Total Dipole Moment    :      0.07094      -0.41664      -0.07823
                        -----------------------------------------
Magnitude (a.u.)       :      0.42982
Magnitude (Debye)      :      1.09251

                             ****ORCA TERMINATED NORMALLY****
TOTAL RUN TIME: 0 days 0 hours 17 minutes 2 seconds 284 msec
