                         Program Version 3.0.3 - RELEASE   -
|  1> ! RI-MP2 RIJK def2-TZVP def2-TZVP/C def2-TZVP/JK TIGHTSCF
|  2> % maxcore 2000
|  3> % mp2 density relaxed end
|  4> *xyz 0 1
|  5>  C       -0.0125365497     1.4253077179    -0.2544027562
|  6>  C        0.1455601528    -0.0697632880    -0.0846099074
|  7>  C        1.5166486890    -0.6956341944     0.0094615877
|  8>  C        0.6229936971    -0.6431064973     1.2196926925
|  9>  C        0.9255419632     0.0524188240     2.5600136121
| 10>  C        0.6624701799    -1.3059082808     3.2893767076
| 11>  C        0.1320645561    -1.8670628891     1.9643812129
| 12>  C       -1.0286765095    -2.7231323167     1.7125999905
| 13>  O        0.3139777492    -3.2003744032     1.5219116437
| 14>  H        0.7606236731     1.9689427510     0.2980252309
| 15>  H        0.0681801770     1.7139261064    -1.3081134650
| 16>  H       -0.9861192573     1.7700687356     0.1120419974
| 17>  H       -0.6023082068    -0.6636876889    -0.6067707388
| 18>  H        1.6754810943    -1.6686918656    -0.4435606462
| 19>  H        2.3797574399    -0.0360854048    -0.0085727011
| 20>  H        1.9305209010     0.4644059385     2.6748713179
| 21>  H        0.1978040861     0.8254664902     2.8227153087
| 22>  H        1.5824188371    -1.8081490490     3.5990200740
| 23>  H       -0.0334485773    -1.2875541204     4.1310870147
| 24>  H       -1.5670110045    -3.1675921974     2.5495118099
| 25>  H       -1.6124633008    -2.5990447479     0.8011192541
| 26> *
| 27>
| 28>                          ****END OF INPUT****

CARTESIAN COORDINATES (ANGSTROEM)
---------------------------------
  C     -0.012537    1.425308   -0.254403
  C      0.145560   -0.069763   -0.084610
  C      1.516649   -0.695634    0.009462
  C      0.622994   -0.643106    1.219693
  C      0.925542    0.052419    2.560014
  C      0.662470   -1.305908    3.289377
  C      0.132065   -1.867063    1.964381
  C     -1.028677   -2.723132    1.712600
  O      0.313978   -3.200374    1.521912
  H      0.760624    1.968943    0.298025
  H      0.068180    1.713926   -1.308113
  H     -0.986119    1.770069    0.112042
  H     -0.602308   -0.663688   -0.606771
  H      1.675481   -1.668692   -0.443561
  H      2.379757   -0.036085   -0.008573
  H      1.930521    0.464406    2.674871
  H      0.197804    0.825466    2.822715
  H      1.582419   -1.808149    3.599020
  H     -0.033449   -1.287554    4.131087
  H     -1.567011   -3.167592    2.549512
  H     -1.612463   -2.599045    0.801119

 Total Charge           Charge          ....    0
 Multiplicity           Mult            ....    1
 Number of Electrons    NEL             ....   68
 Basis Dimension        Dim             ....  351

ORBITAL ENERGIES
----------------

  NO   OCC          E(Eh)            E(eV)
   0   2.0000     -20.561752      -559.5137
   1   2.0000     -11.286127      -307.1111
   2   2.0000     -11.276891      -306.8598
   3   2.0000     -11.233751      -305.6859
   4   2.0000     -11.231970      -305.6374
   5   2.0000     -11.228238      -305.5359
   6   2.0000     -11.226871      -305.4987
   7   2.0000     -11.220866      -305.3353
   8   2.0000     -11.219745      -305.3048
   9   2.0000      -1.406485       -38.2724
  10   2.0000      -1.166968       -31.7548
  11   2.0000      -1.076298       -29.2876
  12   2.0000      -0.960343       -26.1323
  13   2.0000      -0.915017       -24.8989
  14   2.0000      -0.866554       -23.5801
  15   2.0000      -0.840368       -22.8676
  16   2.0000      -0.788373       -21.4527
  17   2.0000      -0.715959       -19.4822
  18   2.0000      -0.686784       -18.6883
  19   2.0000      -0.664456       -18.0808
  20   2.0000      -0.627841       -17.0844
  21   2.0000      -0.616539       -16.7769
  22   2.0000      -0.578752       -15.7486
  23   2.0000      -0.571730       -15.5576
  24   2.0000      -0.546638       -14.8748
  25   2.0000      -0.517494       -14.0817
  26   2.0000      -0.513456       -13.9719
  27   2.0000      -0.502289       -13.6680
  28   2.0000      -0.490377       -13.3438
  29   2.0000      -0.476115       -12.9557
  30   2.0000      -0.446671       -12.1545
  31   2.0000      -0.435221       -11.8430
  32   2.0000      -0.390418       -10.6238
  33   2.0000      -0.378348       -10.2954
  34   0.0000       0.136130         3.7043
  35   0.0000       0.157314         4.2807
  36   0.0000       0.158422         4.3109
  37   0.0000       0.169716         4.6182
  38   0.0000       0.187278         5.0961

MULLIKEN ATOMIC CHARGES
-----------------------
   0 C :   -0.426870
   1 C :   -0.086475
   2 C :   -0.323620
   3 C :    0.074505
   4 C :   -0.217001
   5 C :   -0.200085
   6 C :    0.120097
   7 C :   -0.095590
   8 O :   -0.332576
   9 H :    0.130864
  10 H :    0.137843
  11 H :    0.131928
  12 H :    0.116970
  13 H :    0.145278
  14 H :    0.125038
  15 H :    0.116948
  16 H :    0.118418
  17 H :    0.121115
  18 H :    0.120277
  19 H :    0.112367
  20 H :    0.110569
Sum of atomic charges:    0.0000000

LOEWDIN ATOMIC CHARGES
----------------------
   0 C :   -0.291272
   1 C :   -0.213459
   2 C :   -0.177365
   3 C :   -0.178337
   4 C :   -0.185690
   5 C :   -0.183892
   6 C :   -0.281800
   7 C :   -0.235125
   8 O :    0.167777
   9 H :    0.127798
  10 H :    0.126034
  11 H :    0.124959
  12 H :    0.149126
  13 H :    0.139863
  14 H :    0.135441
  15 H :    0.129766
  16 H :    0.134909
  17 H :    0.142013
  18 H :    0.130286
  19 H :    0.119965
  20 H :    0.119003

  Mayer bond orders larger than 0.1
B(  0-C ,  1-C ) :   0.8855 B(  0-C ,  9-H ) :   0.9364 B(  0-C , 10-H ) :   0.9398
B(  0-C , 11-H ) :   0.9407 B(  1-C ,  2-C ) :   0.9517 B(  1-C ,  3-C ) :   0.8157
B(  1-C , 12-H ) :   0.9300 B(  2-C ,  3-C ) :   0.8136 B(  2-C , 13-H ) :   0.9170
B(  2-C , 14-H ) :   0.9207 B(  3-C ,  4-C ) :   0.9194 B(  3-C ,  6-C ) :   0.9020
B(  4-C ,  5-C ) :   0.9760 B(  4-C , 15-H ) :   0.9199 B(  4-C , 16-H ) :   0.9129
B(  5-C ,  6-C ) :   0.9248 B(  5-C , 17-H ) :   0.9049 B(  5-C , 18-H ) :   0.9225
B(  6-C ,  7-C ) :   0.9743 B(  6-C ,  8-O ) :   0.8668 B(  7-C ,  8-O ) :   0.9077
B(  7-C , 19-H ) :   0.9176 B(  7-C , 20-H ) :   0.9031

MP2 TOTAL ENERGY:     -386.362950982 Eh
FINAL SINGLE POINT ENERGY      -386.362950982026

DIPOLE MOMENT
-------------
                                X             Y             Z
Electronic contribution:      0.08877      -6.52113       1.32297
Nuclear contribution   :     -0.47133       7.15396      -1.16559
                        -----------------------------------------
Total Dipole Moment    :     -0.38255       0.63283       0.15739
                        -----------------------------------------
Magnitude (a.u.)       :      0.75604
Magnitude (Debye)      :      1.92169

                             ****ORCA TERMINATED NORMALLY****
TOTAL RUN TIME: 0 days 0 hours 18 minutes 5 seconds 790 msec
