                         Program Version 3.0.3 - RELEASE   -
|  1> ! RI-MP2 RIJK def2-TZVP def2-TZVP/C def2-TZVP/JK TIGHTSCF
|  2> % maxcore 2000
|  3> % mp2 density relaxed end
|  4> *xyz 0 1
|  5>  C        0.0475929924     1.5043708296    -0.0578386154
|  6>  C        0.0326075981    -0.0109860801     0.0124235949
|  7>  O        0.5863518732    -0.5168129519    -1.2078473297
|  8>  C        0.6998521373    -1.8729745033    -1.2481659613
|  9>  C       -0.4343039674    -2.9816556586    -1.3289055746
| 10>  C        0.8966831328    -3.7928333621    -1.4272966572
| 11>  C        1.4077370842    -2.6643209894    -2.3896398537
| 12>  C        1.3988794079    -2.8753349017    -0.2983818967
| 13>  O        1.9862417657    -2.9189164321     0.7389449322
| 14>  H        1.0707999471     1.8739594701    -0.1679748775
| 15>  H       -0.5392285547     1.8561888314    -0.9110956382
| 16>  H       -0.3787928520     1.9284884087     0.8559693703
| 17>  H        0.6242609320    -0.3760516906     0.8616466650
| 18>  H       -0.9949854788    -0.3854310088     0.1318669534
| 19>  H       -1.0639128795    -3.1473793606    -0.4531573945
| 20>  H       -1.0114089782    -2.9497372271    -2.2554389889
| 21>  H        1.0086249719    -4.8647782012    -1.5454348356
| 22>  H        0.8882526519    -2.6249937836    -3.3495583037
| 23>  H        2.4859376962    -2.5356698487    -2.4977245989
| 24> *
| 25>
| 26>                          ****END OF INPUT****

CARTESIAN COORDINATES (ANGSTROEM)
---------------------------------
  C      0.047593    1.504371   -0.057839
  C      0.032608   -0.010986    0.012424
  O      0.586352   -0.516813   -1.207847
  C      0.699852   -1.872975   -1.248166
  C     -0.434304   -2.981656   -1.328906
  C      0.896683   -3.792833   -1.427297
  C      1.407737   -2.664321   -2.389640
  C      1.398879   -2.875335   -0.298382
  O      1.986242   -2.918916    0.738945
  H      1.070800    1.873959   -0.167975
  H     -0.539229    1.856189   -0.911096
  H     -0.378793    1.928488    0.855969
  H      0.624261   -0.376052    0.861647
  H     -0.994985   -0.385431    0.131867
  H     -1.063913   -3.147379   -0.453157
  H     -1.011409   -2.949737   -2.255439
  H      1.008625   -4.864778   -1.545435
  H      0.888253   -2.624994   -3.349558
  H      2.485938   -2.535670   -2.497725

 Total Charge           Charge          ....    0
 Multiplicity           Mult            ....    1
 Number of Electrons    NEL             ....   68
 Basis Dimension        Dim             ....  339

ORBITAL ENERGIES
----------------

  NO   OCC          E(Eh)            E(eV)
   0   2.0000     -20.575806      -559.8961
   1   2.0000     -20.553482      -559.2887
   2   2.0000     -11.340755      -308.5976
   3   2.0000     -11.317648      -307.9688
   4   2.0000     -11.284305      -307.0615
   5   2.0000     -11.264252      -306.5159
   6   2.0000     -11.256377      -306.3016
   7   2.0000     -11.255531      -306.2786
   8   2.0000     -11.220501      -305.3254
   9   2.0000      -1.409741       -38.3610
  10   2.0000      -1.393904       -37.9301
  11   2.0000      -1.221997       -33.2522
  12   2.0000      -1.028776       -27.9944
  13   2.0000      -0.929931       -25.3047
  14   2.0000      -0.880008       -23.9462
  15   2.0000      -0.871631       -23.7183
  16   2.0000      -0.838265       -22.8103
  17   2.0000      -0.727916       -19.8076
  18   2.0000      -0.702199       -19.1078
  19   2.0000      -0.672516       -18.3001
  20   2.0000      -0.651837       -17.7374
  21   2.0000      -0.631029       -17.1712
  22   2.0000      -0.612206       -16.6590
  23   2.0000      -0.591417       -16.0933
  24   2.0000      -0.558435       -15.1958
  25   2.0000      -0.549675       -14.9574
  26   2.0000      -0.522978       -14.2309
  27   2.0000      -0.520420       -14.1614
  28   2.0000      -0.503806       -13.7093
  29   2.0000      -0.490789       -13.3551
  30   2.0000      -0.482647       -13.1335
  31   2.0000      -0.476524       -12.9669
  32   2.0000      -0.435606       -11.8535
  33   2.0000      -0.376727       -10.2513
  34   0.0000       0.138139         3.7590
  35   0.0000       0.151889         4.1331
  36   0.0000       0.153506         4.1771
  37   0.0000       0.170099         4.6286
  38   0.0000       0.175556         4.7771

MULLIKEN ATOMIC CHARGES
-----------------------
   0 C :   -0.366428
   1 C :   -0.060998
   2 O :   -0.289386
   3 C :    0.093737
   4 C :   -0.241187
   5 C :   -0.124823
   6 C :   -0.184486
   7 C :    0.126338
   8 O :   -0.259450
   9 H :    0.134754
  10 H :    0.130912
  11 H :    0.127237
  12 H :    0.131827
  13 H :    0.100102
  14 H :    0.132580
  15 H :    0.129422
  16 H :    0.159629
  17 H :    0.128086
  18 H :    0.132135
Sum of atomic charges:   -0.0000000

LOEWDIN ATOMIC CHARGES
----------------------
   0 C :   -0.314810
   1 C :   -0.316717
   2 O :    0.221026
   3 C :   -0.302769
   4 C :   -0.171650
   5 C :   -0.147603
   6 C :   -0.155942
   7 C :   -0.273580
   8 O :    0.157684
   9 H :    0.125936
  10 H :    0.124668
  11 H :    0.126660
  12 H :    0.129239
  13 H :    0.120307
  14 H :    0.131627
  15 H :    0.137561
  16 H :    0.134193
  17 H :    0.138974
  18 H :    0.135198

  Mayer bond orders larger than 0.1
B(  0-C ,  1-C ) :   0.9542 B(  0-C ,  9-H ) :   0.9358 B(  0-C , 10-H ) :   0.9357
B(  0-C , 11-H ) :   0.9320 B(  1-C ,  2-O ) :   0.8519 B(  1-C , 12-H ) :   0.9214
B(  1-C , 13-H ) :   0.9193 B(  2-O ,  3-C ) :   1.0201 B(  3-C ,  4-C ) :   0.8584
B(  3-C ,  6-C ) :   0.8931 B(  3-C ,  7-C ) :   0.7971 B(  4-C ,  5-C ) :   0.8997
B(  4-C , 14-H ) :   0.9174 B(  4-C , 15-H ) :   0.9208 B(  5-C ,  6-C ) :   0.8891
B(  5-C ,  7-C ) :   0.8239 B(  5-C , 16-H ) :   0.8874 B(  6-C , 17-H ) :   0.9227
B(  6-C , 18-H ) :   0.9263 B(  7-C ,  8-O ) :   2.0359

MP2 TOTAL ENERGY:     -422.279948356 Eh
FINAL SINGLE POINT ENERGY      -422.279948355864

DIPOLE MOMENT
-------------
                                X             Y             Z
Electronic contribution:      4.12707      -5.71819       0.93300
Nuclear contribution   :     -4.85733       5.73668      -1.46231
                        -----------------------------------------
Total Dipole Moment    :     -0.73026       0.01849      -0.52932
                        -----------------------------------------
Magnitude (a.u.)       :      0.90211
Magnitude (Debye)      :      2.29297

                             ****ORCA TERMINATED NORMALLY****
TOTAL RUN TIME: 0 days 0 hours 15 minutes 32 seconds 630 msec
