                         Program Version 3.0.3 - RELEASE   -
|  1> ! RI-MP2 RIJK def2-TZVP def2-TZVP/C def2-TZVP/JK TIGHTSCF
|  2> % maxcore 2000
|  3> % mp2 density relaxed end
|  4> *xyz 0 1
|  5>  C        0.0784338484     1.5312315956     0.0713084175
|  6>  C       -0.1801493470     0.0309974173    -0.0971805266
|  7>  C        0.6454345859    -0.5696367511    -1.2232094699
|  8>  N        2.1408242866    -0.5699169261    -1.0166255308
|  9>  C        2.2002417333    -1.9937017583    -1.3722492977
| 10>  C        1.4820542429    -2.7878253056    -0.3430239575
| 11>  C        0.6615951693    -2.1016539194    -1.4290058612
| 12>  C       -0.1946985374    -2.8122390746    -2.3128567728
| 13>  N       -0.8956575691    -3.3749449746    -3.0440311730
| 14>  H        1.1353770632     1.7159842303     0.2871133348
| 15>  H       -0.1848216010     2.0853939160    -0.8367840302
| 16>  H       -0.5117599023     1.9433934754     0.8946116682
| 17>  H        0.0498196612    -0.4907175600     0.8382025004
| 18>  H       -1.2405686462    -0.1517502087    -0.3127299337
| 19>  H        0.3881954753    -0.0918238594    -2.1756019001
| 20>  H        2.5980775015     0.0056488131    -1.7150145265
| 21>  H        2.9388114544    -2.4017812839    -2.0510336604
| 22>  H        1.5309196881    -3.8655725839    -0.4531131766
| 23>  H        1.4357870229    -2.4223508419     0.6780238863
| 24> *
| 25>
| 26>                          ****END OF INPUT****

CARTESIAN COORDINATES (ANGSTROEM)
---------------------------------
  C      0.078434    1.531232    0.071308
  C     -0.180149    0.030997   -0.097181
  C      0.645435   -0.569637   -1.223209
  N      2.140824   -0.569917   -1.016626
  C      2.200242   -1.993702   -1.372249
  C      1.482054   -2.787825   -0.343024
  C      0.661595   -2.101654   -1.429006
  C     -0.194699   -2.812239   -2.312857
  N     -0.895658   -3.374945   -3.044031
  H      1.135377    1.715984    0.287113
  H     -0.184822    2.085394   -0.836784
  H     -0.511760    1.943393    0.894612
  H      0.049820   -0.490718    0.838203
  H     -1.240569   -0.151750   -0.312730
  H      0.388195   -0.091824   -2.175602
  H      2.598078    0.005649   -1.715015
  H      2.938811   -2.401781   -2.051034
  H      1.530920   -3.865573   -0.453113
  H      1.435787   -2.422351    0.678024

 Total Charge           Charge          ....    0
 Multiplicity           Mult            ....    1
 Number of Electrons    NEL             ....   66
 Basis Dimension        Dim             ....  339

ORBITAL ENERGIES
----------------

  NO   OCC          E(Eh)            E(eV)
   0   2.0000     -15.570157      -423.6855
   1   2.0000     -15.566694      -423.5913
   2   2.0000     -11.299549      -307.4763
   3   2.0000     -11.288892      -307.1864
   4   2.0000     -11.283679      -307.0445
   5   2.0000     -11.273267      -306.7612
   6   2.0000     -11.260794      -306.4218
   7   2.0000     -11.231739      -305.6311
   8   2.0000     -11.222044      -305.3674
   9   2.0000      -1.291652       -35.1476
  10   2.0000      -1.212517       -32.9943
  11   2.0000      -1.104768       -30.0623
  12   2.0000      -1.058236       -28.7961
  13   2.0000      -0.959463       -26.1083
  14   2.0000      -0.884514       -24.0688
  15   2.0000      -0.826241       -22.4832
  16   2.0000      -0.810004       -22.0413
  17   2.0000      -0.746754       -20.3202
  18   2.0000      -0.667226       -18.1562
  19   2.0000      -0.643746       -17.5172
  20   2.0000      -0.615657       -16.7529
  21   2.0000      -0.597379       -16.2555
  22   2.0000      -0.573299       -15.6003
  23   2.0000      -0.555371       -15.1124
  24   2.0000      -0.544065       -14.8048
  25   2.0000      -0.541057       -14.7229
  26   2.0000      -0.516158       -14.0454
  27   2.0000      -0.500618       -13.6225
  28   2.0000      -0.490460       -13.3461
  29   2.0000      -0.487194       -13.2572
  30   2.0000      -0.435937       -11.8625
  31   2.0000      -0.418418       -11.3857
  32   2.0000      -0.368947       -10.0396
  33   0.0000       0.120649         3.2830
  34   0.0000       0.136790         3.7223
  35   0.0000       0.150446         4.0939
  36   0.0000       0.153090         4.1658
  37   0.0000       0.175746         4.7823

MULLIKEN ATOMIC CHARGES
-----------------------
   0 C :   -0.406664
   1 C :   -0.191228
   2 C :   -0.047370
   3 N :   -0.347874
   4 C :   -0.013085
   5 C :   -0.242359
   6 C :    0.143485
   7 C :   -0.276972
   8 N :   -0.052540
   9 H :    0.142431
  10 H :    0.121621
  11 H :    0.139054
  12 H :    0.106769
  13 H :    0.121609
  14 H :    0.136745
  15 H :    0.218044
  16 H :    0.150157
  17 H :    0.154369
  18 H :    0.143808
Sum of atomic charges:   -0.0000000

LOEWDIN ATOMIC CHARGES
----------------------
   0 C :   -0.315641
   1 C :   -0.270812
   2 C :   -0.205819
   3 N :    0.021007
   4 C :   -0.186219
   5 C :   -0.155188
   6 C :   -0.185411
   7 C :   -0.169260
   8 N :    0.062007
   9 H :    0.125059
  10 H :    0.120765
  11 H :    0.123464
  12 H :    0.139983
  13 H :    0.144216
  14 H :    0.153189
  15 H :    0.168487
  16 H :    0.138933
  17 H :    0.151389
  18 H :    0.139851

  Mayer bond orders larger than 0.1
B(  0-C ,  1-C ) :   0.9103 B(  0-C ,  9-H ) :   0.9394 B(  0-C , 10-H ) :   0.9355
B(  0-C , 11-H ) :   0.9390 B(  1-C ,  2-C ) :   0.9230 B(  1-C , 12-H ) :   0.9288
B(  1-C , 13-H ) :   0.9257 B(  2-C ,  3-N ) :   0.9370 B(  2-C ,  6-C ) :   0.8772
B(  2-C , 14-H ) :   0.9263 B(  3-N ,  4-C ) :   1.0135 B(  3-N , 15-H ) :   0.8735
B(  4-C ,  5-C ) :   0.9239 B(  4-C ,  6-C ) :   0.8072 B(  4-C , 16-H ) :   0.9028
B(  5-C ,  6-C ) :   0.8348 B(  5-C , 17-H ) :   0.9239 B(  5-C , 18-H ) :   0.9004
B(  6-C ,  7-C ) :   0.9228 B(  7-C ,  8-N ) :   2.8818

MP2 TOTAL ENERGY:     -381.366354864 Eh
FINAL SINGLE POINT ENERGY      -381.366354864078

DIPOLE MOMENT
-------------
                                X             Y             Z
Electronic contribution:     -0.40039      -8.31191      -5.84373
Nuclear contribution   :      1.33815       9.10116       6.37212
                        -----------------------------------------
Total Dipole Moment    :      0.93776       0.78925       0.52839
                        -----------------------------------------
Magnitude (a.u.)       :      1.33473
Magnitude (Debye)      :      3.39262

                             ****ORCA TERMINATED NORMALLY****
TOTAL RUN TIME: 0 days 0 hours 30 minutes 11 seconds 848 msec
