                         Program Version 3.0.3 - RELEASE   -
|  1> ! RI-MP2 RIJK def2-TZVP def2-TZVP/C def2-TZVP/JK TIGHTSCF
|  2> % maxcore 2000
|  3> % mp2 density relaxed end
|  4> *xyz 0 1
|  5>  C       -0.2013278513     1.3172596868    -0.0085594919
|  6>  C       -0.5111495064    -0.1749704642    -0.1556329611
|  7>  N        0.0575021061    -1.1058861166     0.8071743221
|  8>  C        0.7945144562    -0.6809014347     1.7434319351
|  9>  N        1.3314214624    -1.5713212120     2.6628631194
| 10>  C        2.1932093856    -1.1755351596     3.6768353226
| 11>  N        2.6346345877    -2.2213199440     4.4653721302
| 12>  O        2.5540095679    -0.0262585501     3.8305725489
| 13>  H        0.8722552365     1.5204610919    -0.0822403724
| 14>  H       -0.7003395780     1.8750439610    -0.8066701548
| 15>  H       -0.5568596738     1.7158416670     0.9475686910
| 16>  H       -1.5996666729    -0.3230442978    -0.1376504107
| 17>  H       -0.1953898776    -0.5144307954    -1.1516840535
| 18>  H        1.0883990248     0.3487621046     1.9491403937
| 19>  H        1.1311892945    -2.5467457786     2.4980840620
| 20>  H        2.0509075234    -3.0361697667     4.5735532026
| 21>  H        3.0993910350    -1.9161881815     5.3063225467
| 22> *
| 23>
| 24>                          ****END OF INPUT****

CARTESIAN COORDINATES (ANGSTROEM)
---------------------------------
  C     -0.201328    1.317260   -0.008559
  C     -0.511150   -0.174970   -0.155633
  N      0.057502   -1.105886    0.807174
  C      0.794514   -0.680901    1.743432
  N      1.331421   -1.571321    2.662863
  C      2.193209   -1.175535    3.676835
  N      2.634635   -2.221320    4.465372
  O      2.554010   -0.026259    3.830573
  H      0.872255    1.520461   -0.082240
  H     -0.700340    1.875044   -0.806670
  H     -0.556860    1.715842    0.947569
  H     -1.599667   -0.323044   -0.137650
  H     -0.195390   -0.514431   -1.151684
  H      1.088399    0.348762    1.949140
  H      1.131189   -2.546746    2.498084
  H      2.050908   -3.036170    4.573553
  H      3.099391   -1.916188    5.306323

 Total Charge           Charge          ....    0
 Multiplicity           Mult            ....    1
 Number of Electrons    NEL             ....   62
 Basis Dimension        Dim             ....  302

ORBITAL ENERGIES
----------------

  NO   OCC          E(Eh)            E(eV)
   0   2.0000     -20.523976      -558.4858
   1   2.0000     -15.602413      -424.5632
   2   2.0000     -15.592647      -424.2975
   3   2.0000     -15.543326      -422.9554
   4   2.0000     -11.393311      -310.0277
   5   2.0000     -11.311376      -307.7982
   6   2.0000     -11.250362      -306.1379
   7   2.0000     -11.216416      -305.2142
   8   2.0000      -1.408739       -38.3337
   9   2.0000      -1.282677       -34.9034
  10   2.0000      -1.227130       -33.3919
  11   2.0000      -1.180337       -32.1186
  12   2.0000      -1.009850       -27.4794
  13   2.0000      -0.903635       -24.5892
  14   2.0000      -0.831433       -22.6245
  15   2.0000      -0.808881       -22.0108
  16   2.0000      -0.753104       -20.4930
  17   2.0000      -0.693932       -18.8829
  18   2.0000      -0.663743       -18.0614
  19   2.0000      -0.632057       -17.1992
  20   2.0000      -0.620901       -16.8956
  21   2.0000      -0.617380       -16.7998
  22   2.0000      -0.613651       -16.6983
  23   2.0000      -0.555226       -15.1085
  24   2.0000      -0.521844       -14.2001
  25   2.0000      -0.510938       -13.9033
  26   2.0000      -0.488631       -13.2963
  27   2.0000      -0.462585       -12.5876
  28   2.0000      -0.436978       -11.8908
  29   2.0000      -0.403373       -10.9763
  30   2.0000      -0.365238        -9.9386
  31   0.0000       0.116152         3.1606
  32   0.0000       0.144400         3.9293
  33   0.0000       0.153701         4.1824
  34   0.0000       0.164978         4.4893
  35   0.0000       0.180322         4.9068

MULLIKEN ATOMIC CHARGES
-----------------------
   0 C :   -0.433999
   1 C :   -0.084686
   2 N :   -0.252916
   3 C :    0.055648
   4 N :   -0.321251
   5 C :    0.406886
   6 N :   -0.523695
   7 O :   -0.386901
   8 H :    0.135535
   9 H :    0.138545
  10 H :    0.133362
  11 H :    0.119249
  12 H :    0.120028
  13 H :    0.136238
  14 H :    0.235435
  15 H :    0.251930
  16 H :    0.270593
Sum of atomic charges:    0.0000000

LOEWDIN ATOMIC CHARGES
----------------------
   0 C :   -0.331625
   1 C :   -0.330220
   2 N :    0.066350
   3 C :   -0.295044
   4 N :    0.123792
   5 C :   -0.557121
   6 N :   -0.054808
   7 O :    0.064693
   8 H :    0.122256
   9 H :    0.126219
  10 H :    0.121709
  11 H :    0.134289
  12 H :    0.134620
  13 H :    0.138010
  14 H :    0.191032
  15 H :    0.167185
  16 H :    0.178663

  Mayer bond orders larger than 0.1
B(  0-C ,  1-C ) :   0.9154 B(  0-C ,  8-H ) :   0.9342 B(  0-C ,  9-H ) :   0.9297
B(  0-C , 10-H ) :   0.9343 B(  1-C ,  2-N ) :   0.9375 B(  1-C , 11-H ) :   0.9274
B(  1-C , 12-H ) :   0.9268 B(  2-N ,  3-C ) :   1.8477 B(  3-C ,  4-N ) :   1.0205
B(  3-C , 13-H ) :   0.9144 B(  4-N ,  5-C ) :   1.0499 B(  4-N , 14-H ) :   0.8572
B(  5-C ,  6-N ) :   1.1066 B(  5-C ,  7-O ) :   1.9294 B(  6-N , 15-H ) :   0.8710
B(  6-N , 16-H ) :   0.8667

MP2 TOTAL ENERGY:     -396.576834287 Eh
FINAL SINGLE POINT ENERGY      -396.576834287044

DIPOLE MOMENT
-------------
                                X             Y             Z
Electronic contribution:      4.28642      -4.02535       6.27079
Nuclear contribution   :     -4.62378       3.20022      -5.92418
                        -----------------------------------------
Total Dipole Moment    :     -0.33736      -0.82513       0.34662
                        -----------------------------------------
Magnitude (a.u.)       :      0.95644
Magnitude (Debye)      :      2.43109

                             ****ORCA TERMINATED NORMALLY****
TOTAL RUN TIME: 0 days 0 hours 9 minutes 14 seconds 435 msec
