                         Program Version 3.0.3 - RELEASE   -
|  1> ! RI-MP2 RIJK def2-TZVP def2-TZVP/C def2-TZVP/JK TIGHTSCF
|  2> % maxcore 2000
|  3> % mp2 density relaxed end
|  4> *xyz 0 1
|  5>  C        0.2093723275     1.5463282286    -0.2050773907
|  6>  C       -0.0265933785     0.0741118446     0.0006656892
|  7>  C       -1.2307101623    -0.5273967445     0.0935986422
|  8>  C       -2.5552319095     0.1998779400     0.0096210279
|  9>  C       -1.3910317203    -1.9705194833     0.3296743353
| 10>  C       -0.5545480580    -2.9984571286     0.1239844948
| 11>  C        0.8085878787    -3.0099872731    -0.4987209629
| 12>  O        1.3107050109    -1.7656059403    -0.9152865777
| 13>  C        1.2400414838    -0.7525507336     0.0855408817
| 14>  H        0.8860265840     1.9390806736     0.5655403778
| 15>  H        0.7067798902     1.7249528773    -1.1681462964
| 16>  H       -0.6988929504     2.1482254382    -0.1823922324
| 17>  H       -2.4558443494     1.2761751016    -0.1268392246
| 18>  H       -3.1549219751    -0.1863962410    -0.8236823872
| 19>  H       -3.1437564778     0.0309948401     0.9204012221
| 20>  H       -2.3632969082    -2.2332752066     0.7463876513
| 21>  H       -0.8981162420    -3.9904404700     0.4155197547
| 22>  H        1.5099452621    -3.5103943139     0.1969606011
| 23>  H        0.7873147220    -3.6338792462    -1.4034099873
| 24>  H        2.1143037058    -0.1117610985    -0.0687939877
| 25>  H        1.3338043066    -1.2060335943     1.0847922888
| 26> *
| 27>
| 28>                          ****END OF INPUT****

CARTESIAN COORDINATES (ANGSTROEM)
---------------------------------
  C      0.209372    1.546328   -0.205077
  C     -0.026593    0.074112    0.000666
  C     -1.230710   -0.527397    0.093599
  C     -2.555232    0.199878    0.009621
  C     -1.391032   -1.970519    0.329674
  C     -0.554548   -2.998457    0.123984
  C      0.808588   -3.009987   -0.498721
  O      1.310705   -1.765606   -0.915287
  C      1.240041   -0.752551    0.085541
  H      0.886027    1.939081    0.565540
  H      0.706780    1.724953   -1.168146
  H     -0.698893    2.148225   -0.182392
  H     -2.455844    1.276175   -0.126839
  H     -3.154922   -0.186396   -0.823682
  H     -3.143756    0.030995    0.920401
  H     -2.363297   -2.233275    0.746388
  H     -0.898116   -3.990440    0.415520
  H      1.509945   -3.510394    0.196961
  H      0.787315   -3.633879   -1.403410
  H      2.114304   -0.111761   -0.068794
  H      1.333804   -1.206034    1.084792

 Total Charge           Charge          ....    0
 Multiplicity           Mult            ....    1
 Number of Electrons    NEL             ....   68
 Basis Dimension        Dim             ....  351

ORBITAL ENERGIES
----------------

  NO   OCC          E(Eh)            E(eV)
   0   2.0000     -20.550289      -559.2018
   1   2.0000     -11.278498      -306.9035
   2   2.0000     -11.273184      -306.7589
   3   2.0000     -11.232972      -305.6647
   4   2.0000     -11.232130      -305.6418
   5   2.0000     -11.229453      -305.5690
   6   2.0000     -11.228699      -305.5484
   7   2.0000     -11.221250      -305.3457
   8   2.0000     -11.218921      -305.2823
   9   2.0000      -1.372357       -37.3437
  10   2.0000      -1.114003       -30.3136
  11   2.0000      -1.060833       -28.8667
  12   2.0000      -0.989131       -26.9156
  13   2.0000      -0.957836       -26.0640
  14   2.0000      -0.889010       -24.1912
  15   2.0000      -0.875677       -23.8284
  16   2.0000      -0.764970       -20.8159
  17   2.0000      -0.693999       -18.8847
  18   2.0000      -0.677997       -18.4492
  19   2.0000      -0.660511       -17.9734
  20   2.0000      -0.614461       -16.7203
  21   2.0000      -0.601750       -16.3745
  22   2.0000      -0.586567       -15.9613
  23   2.0000      -0.573542       -15.6069
  24   2.0000      -0.568975       -15.4826
  25   2.0000      -0.553481       -15.0610
  26   2.0000      -0.530108       -14.4250
  27   2.0000      -0.519971       -14.1491
  28   2.0000      -0.495238       -13.4761
  29   2.0000      -0.490503       -13.3473
  30   2.0000      -0.473825       -12.8934
  31   2.0000      -0.416135       -11.3236
  32   2.0000      -0.397023       -10.8035
  33   2.0000      -0.302488        -8.2311
  34   0.0000       0.118521         3.2251
  35   0.0000       0.139103         3.7852
  36   0.0000       0.154250         4.1974
  37   0.0000       0.161158         4.3853
  38   0.0000       0.184094         5.0094

MULLIKEN ATOMIC CHARGES
-----------------------
   0 C :   -0.439323
   1 C :   -0.020227
   2 C :    0.148975
   3 C :   -0.417419
   4 C :   -0.254512
   5 C :   -0.174028
   6 C :   -0.036027
   7 O :   -0.312654
   8 C :   -0.024526
   9 H :    0.141183
  10 H :    0.150071
  11 H :    0.122297
  12 H :    0.121206
  13 H :    0.145020
  14 H :    0.136938
  15 H :    0.114436
  16 H :    0.119947
  17 H :    0.106262
  18 H :    0.131454
  19 H :    0.132210
  20 H :    0.108717
Sum of atomic charges:   -0.0000000

LOEWDIN ATOMIC CHARGES
----------------------
   0 C :   -0.275907
   1 C :   -0.163920
   2 C :   -0.164667
   3 C :   -0.267130
   4 C :   -0.141402
   5 C :   -0.171268
   6 C :   -0.330981
   7 O :    0.161142
   8 C :   -0.263187
   9 H :    0.131371
  10 H :    0.134863
  11 H :    0.122726
  12 H :    0.122174
  13 H :    0.132193
  14 H :    0.130717
  15 H :    0.154233
  16 H :    0.148741
  17 H :    0.126608
  18 H :    0.141996
  19 H :    0.134509
  20 H :    0.137190

  Mayer bond orders larger than 0.1
B(  0-C ,  1-C ) :   0.8861 B(  0-C ,  9-H ) :   0.9321 B(  0-C , 10-H ) :   0.9307
B(  0-C , 11-H ) :   0.9532 B(  1-C ,  2-C ) :   1.6563 B(  1-C ,  8-C ) :   0.9282
B(  2-C ,  3-C ) :   0.8764 B(  2-C ,  4-C ) :   0.9783 B(  3-C , 12-H ) :   0.9497
B(  3-C , 13-H ) :   0.9328 B(  3-C , 14-H ) :   0.9317 B(  4-C ,  5-C ) :   1.7719
B(  4-C , 15-H ) :   0.9316 B(  5-C ,  6-C ) :   0.9103 B(  5-C , 16-H ) :   0.9132
B(  6-C ,  7-O ) :   0.9803 B(  6-C , 17-H ) :   0.9449 B(  6-C , 18-H ) :   0.9114
B(  7-O ,  8-C ) :   0.8784 B(  8-C , 19-H ) :   0.9330 B(  8-C , 20-H ) :   0.9212

MP2 TOTAL ENERGY:     -386.405112989 Eh
FINAL SINGLE POINT ENERGY      -386.405112988520

DIPOLE MOMENT
-------------
                                X             Y             Z
Electronic contribution:      2.41657      -4.05252      -1.12017
Nuclear contribution   :     -2.62023       4.08452       1.51433
                        -----------------------------------------
Total Dipole Moment    :     -0.20366       0.03200       0.39416
                        -----------------------------------------
Magnitude (a.u.)       :      0.44482
Magnitude (Debye)      :      1.13064

                             ****ORCA TERMINATED NORMALLY****
TOTAL RUN TIME: 0 days 0 hours 19 minutes 32 seconds 469 msec
