                         Program Version 3.0.3 - RELEASE   -
|  1> ! RI-MP2 RIJK def2-TZVP def2-TZVP/C def2-TZVP/JK TIGHTSCF
|  2> % maxcore 2000
|  3> % mp2 density relaxed end
|  4> *xyz 0 1
|  5>  C        0.1424717241     1.2366984068    -0.4393795303
|  6>  C       -0.0850580414    -0.1745702629     0.0174695155
|  7>  C       -0.8892945789    -0.5489893957     1.2478491867
|  8>  C        0.5861193994    -0.8819144921     1.1439093335
|  9>  O        0.8871235097    -2.1900677688     0.7040068944
| 10>  C        0.6926237541    -2.2062531947    -0.7008220761
| 11>  O       -0.1671190545    -1.1322735971    -1.0334949246
| 12>  C        2.0415252378    -2.0249215480    -1.4034086137
| 13>  O        2.4975193015    -2.8096634511    -2.1901824872
| 14>  H        1.0607426308     1.3161783993    -1.0297478919
| 15>  H       -0.6925060926     1.5783296546    -1.0592625397
| 16>  H        0.2216126157     1.9080215013     0.4202644558
| 17>  H       -1.1792660889     0.2481502479     1.9253134256
| 18>  H       -1.5886882614    -1.3721980763     1.1597466801
| 19>  H        1.3310044343    -0.4430093354     1.7979297294
| 20>  H        0.2387534300    -3.1548993963    -1.0024659596
| 21>  H        2.5741350205    -1.0892862214    -1.1174290779
| 22> *
| 23>
| 24>                          ****END OF INPUT****

CARTESIAN COORDINATES (ANGSTROEM)
---------------------------------
  C      0.142472    1.236698   -0.439380
  C     -0.085058   -0.174570    0.017470
  C     -0.889295   -0.548989    1.247849
  C      0.586119   -0.881914    1.143909
  O      0.887124   -2.190068    0.704007
  C      0.692624   -2.206253   -0.700822
  O     -0.167119   -1.132274   -1.033495
  C      2.041525   -2.024922   -1.403409
  O      2.497519   -2.809663   -2.190182
  H      1.060743    1.316178   -1.029748
  H     -0.692506    1.578330   -1.059263
  H      0.221613    1.908022    0.420264
  H     -1.179266    0.248150    1.925313
  H     -1.588688   -1.372198    1.159747
  H      1.331004   -0.443009    1.797930
  H      0.238753   -3.154899   -1.002466
  H      2.574135   -1.089286   -1.117429

 Total Charge           Charge          ....    0
 Multiplicity           Mult            ....    1
 Number of Electrons    NEL             ....   68
 Basis Dimension        Dim             ....  327

ORBITAL ENERGIES
----------------

  NO   OCC          E(Eh)            E(eV)
   0   2.0000     -20.592452      -560.3491
   1   2.0000     -20.590934      -560.3078
   2   2.0000     -20.572042      -559.7937
   3   2.0000     -11.358086      -309.0692
   4   2.0000     -11.338805      -308.5446
   5   2.0000     -11.312221      -307.8212
   6   2.0000     -11.305154      -307.6289
   7   2.0000     -11.245846      -306.0150
   8   2.0000     -11.242378      -305.9207
   9   2.0000      -1.470439       -40.0127
  10   2.0000      -1.407840       -38.3093
  11   2.0000      -1.360068       -37.0093
  12   2.0000      -1.158469       -31.5235
  13   2.0000      -0.996000       -27.1025
  14   2.0000      -0.970943       -26.4207
  15   2.0000      -0.863063       -23.4851
  16   2.0000      -0.820883       -22.3374
  17   2.0000      -0.802958       -21.8496
  18   2.0000      -0.728922       -19.8350
  19   2.0000      -0.695889       -18.9361
  20   2.0000      -0.682000       -18.5582
  21   2.0000      -0.638669       -17.3791
  22   2.0000      -0.636070       -17.3083
  23   2.0000      -0.615493       -16.7484
  24   2.0000      -0.601790       -16.3756
  25   2.0000      -0.578624       -15.7452
  26   2.0000      -0.554293       -15.0831
  27   2.0000      -0.551252       -15.0003
  28   2.0000      -0.542129       -14.7521
  29   2.0000      -0.532649       -14.4941
  30   2.0000      -0.511543       -13.9198
  31   2.0000      -0.446665       -12.1544
  32   2.0000      -0.415124       -11.2961
  33   2.0000      -0.390852       -10.6356
  34   0.0000       0.120563         3.2807
  35   0.0000       0.133603         3.6355
  36   0.0000       0.158990         4.3263
  37   0.0000       0.167854         4.5675
  38   0.0000       0.179211         4.8766

MULLIKEN ATOMIC CHARGES
-----------------------
   0 C :   -0.375649
   1 C :    0.168841
   2 C :   -0.298695
   3 C :    0.024945
   4 O :   -0.321372
   5 C :    0.297751
   6 O :   -0.319710
   7 C :    0.024103
   8 O :   -0.242403
   9 H :    0.132458
  10 H :    0.148993
  11 H :    0.130420
  12 H :    0.131304
  13 H :    0.147360
  14 H :    0.139190
  15 H :    0.122607
  16 H :    0.089858
Sum of atomic charges:   -0.0000000

LOEWDIN ATOMIC CHARGES
----------------------
   0 C :   -0.263272
   1 C :   -0.332178
   2 C :   -0.178598
   3 C :   -0.258641
   4 O :    0.210179
   5 C :   -0.366265
   6 O :    0.230780
   7 C :   -0.269570
   8 O :    0.150406
   9 H :    0.129195
  10 H :    0.135389
  11 H :    0.134104
  12 H :    0.139246
  13 H :    0.144578
  14 H :    0.139786
  15 H :    0.141126
  16 H :    0.113735

  Mayer bond orders larger than 0.1
B(  0-C ,  1-C ) :   0.9202 B(  0-C ,  9-H ) :   0.9258 B(  0-C , 10-H ) :   0.9354
B(  0-C , 11-H ) :   0.9317 B(  1-C ,  2-C ) :   0.8972 B(  1-C ,  3-C ) :   0.8662
B(  1-C ,  6-O ) :   0.9028 B(  2-C ,  3-C ) :   0.8755 B(  2-C , 12-H ) :   0.9169
B(  2-C , 13-H ) :   0.9017 B(  3-C ,  4-O ) :   0.9293 B(  3-C , 14-H ) :   0.9250
B(  4-O ,  5-C ) :   0.9050 B(  5-C ,  6-O ) :   0.9124 B(  5-C ,  7-C ) :   0.8021
B(  5-C , 15-H ) :   0.9087 B(  7-C ,  8-O ) :   2.0060 B(  7-C , 16-H ) :   0.9516

MP2 TOTAL ENERGY:     -458.202928653 Eh
FINAL SINGLE POINT ENERGY      -458.202928652751

DIPOLE MOMENT
-------------
                                X             Y             Z
Electronic contribution:      2.62182      -6.88430      -2.56432
Nuclear contribution   :     -3.01930       8.05925       3.39490
                        -----------------------------------------
Total Dipole Moment    :     -0.39748       1.17494       0.83058
                        -----------------------------------------
Magnitude (a.u.)       :      1.49276
Magnitude (Debye)      :      3.79430

                             ****ORCA TERMINATED NORMALLY****
TOTAL RUN TIME: 0 days 0 hours 16 minutes 19 seconds 164 msec
