                         Program Version 3.0.3 - RELEASE   -
|  1> ! RI-MP2 RIJK def2-TZVP def2-TZVP/C def2-TZVP/JK TIGHTSCF
|  2> % maxcore 2000
|  3> % mp2 density relaxed end
|  4> *xyz 0 1
|  5>  C       -0.0402353677     1.5937488335    -0.0178931167
|  6>  C        0.0253003892     0.0624508300     0.0130941215
|  7>  C        0.8127287777    -0.5580424459    -1.1667835893
|  8>  C        1.5339185538    -1.8017810467    -0.6021759013
|  9>  C        0.7814783784    -3.1078028271    -0.8957150488
| 10>  O        2.8392651296    -1.8550656541    -1.1917268871
| 11>  C        1.5850948070    -1.5001667557     0.8964736838
| 12>  C        2.4725289135    -2.2798768860     1.8145447889
| 13>  C        0.7563762789    -0.5042755423     1.2095665375
| 14>  H        0.9658856278     2.0267617712     0.0001177410
| 15>  H       -0.5441682719     1.9482788304    -0.9234486719
| 16>  H       -0.5907823764     1.9851326025     0.8445564915
| 17>  H       -1.0094954204    -0.3146700451     0.0073649458
| 18>  H        0.1864782028    -0.7898681023    -2.0330750049
| 19>  H        1.5890866964     0.1404772794    -1.4948374745
| 20>  H        0.7666913969    -3.2959164067    -1.9739460804
| 21>  H        1.2605691759    -3.9643314338    -0.4053828502
| 22>  H       -0.2505532850    -3.0579978051    -0.5351769518
| 23>  H        3.2025971078    -2.7328765580    -1.0358704867
| 24>  H        3.5173434467    -2.2113419012     1.4882280447
| 25>  H        2.4123656246    -1.9106584559     2.8416154767
| 26>  H        2.2122869752    -3.3466141868     1.8272849479
| 27>  H        0.5936670691    -0.1282891042     2.2161565741
| 28> *
| 29>
| 30>                          ****END OF INPUT****

CARTESIAN COORDINATES (ANGSTROEM)
---------------------------------
  C     -0.040235    1.593749   -0.017893
  C      0.025300    0.062451    0.013094
  C      0.812729   -0.558042   -1.166784
  C      1.533919   -1.801781   -0.602176
  C      0.781478   -3.107803   -0.895715
  O      2.839265   -1.855066   -1.191727
  C      1.585095   -1.500167    0.896474
  C      2.472529   -2.279877    1.814545
  C      0.756376   -0.504276    1.209567
  H      0.965886    2.026762    0.000118
  H     -0.544168    1.948279   -0.923449
  H     -0.590782    1.985133    0.844556
  H     -1.009495   -0.314670    0.007365
  H      0.186478   -0.789868   -2.033075
  H      1.589087    0.140477   -1.494837
  H      0.766691   -3.295916   -1.973946
  H      1.260569   -3.964331   -0.405383
  H     -0.250553   -3.057998   -0.535177
  H      3.202597   -2.732877   -1.035870
  H      3.517343   -2.211342    1.488228
  H      2.412366   -1.910658    2.841615
  H      2.212287   -3.346614    1.827285
  H      0.593667   -0.128289    2.216157

 Total Charge           Charge          ....    0
 Multiplicity           Mult            ....    1
 Number of Electrons    NEL             ....   70
 Basis Dimension        Dim             ....  363

ORBITAL ENERGIES
----------------

  NO   OCC          E(Eh)            E(eV)
   0   2.0000     -20.549392      -559.1774
   1   2.0000     -11.283720      -307.0456
   2   2.0000     -11.226453      -305.4873
   3   2.0000     -11.223478      -305.4064
   4   2.0000     -11.222106      -305.3690
   5   2.0000     -11.219129      -305.2880
   6   2.0000     -11.214045      -305.1497
   7   2.0000     -11.211072      -305.0688
   8   2.0000     -11.210490      -305.0529
   9   2.0000      -1.356608       -36.9152
  10   2.0000      -1.135872       -30.9086
  11   2.0000      -1.030114       -28.0308
  12   2.0000      -1.004245       -27.3269
  13   2.0000      -0.941423       -25.6174
  14   2.0000      -0.916116       -24.9288
  15   2.0000      -0.843436       -22.9511
  16   2.0000      -0.760340       -20.6899
  17   2.0000      -0.725482       -19.7414
  18   2.0000      -0.653830       -17.7916
  19   2.0000      -0.644792       -17.5457
  20   2.0000      -0.628933       -17.1141
  21   2.0000      -0.599178       -16.3045
  22   2.0000      -0.577147       -15.7050
  23   2.0000      -0.563576       -15.3357
  24   2.0000      -0.560250       -15.2452
  25   2.0000      -0.548265       -14.9190
  26   2.0000      -0.530929       -14.4473
  27   2.0000      -0.524742       -14.2790
  28   2.0000      -0.510294       -13.8858
  29   2.0000      -0.493364       -13.4251
  30   2.0000      -0.475032       -12.9263
  31   2.0000      -0.464574       -12.6417
  32   2.0000      -0.449700       -12.2369
  33   2.0000      -0.423114       -11.5135
  34   2.0000      -0.338307        -9.2058
  35   0.0000       0.127250         3.4626
  36   0.0000       0.145773         3.9667
  37   0.0000       0.164044         4.4639
  38   0.0000       0.167306         4.5526
  39   0.0000       0.179133         4.8744

MULLIKEN ATOMIC CHARGES
-----------------------
   0 C :   -0.420144
   1 C :    0.022067
   2 C :   -0.283180
   3 C :    0.356178
   4 C :   -0.480822
   5 O :   -0.473119
   6 C :   -0.007284
   7 C :   -0.491088
   8 C :   -0.219977
   9 H :    0.129414
  10 H :    0.131106
  11 H :    0.127715
  12 H :    0.091342
  13 H :    0.121766
  14 H :    0.122561
  15 H :    0.148186
  16 H :    0.123948
  17 H :    0.138934
  18 H :    0.313366
  19 H :    0.150337
  20 H :    0.142037
  21 H :    0.137920
  22 H :    0.118737
Sum of atomic charges:    0.0000000

LOEWDIN ATOMIC CHARGES
----------------------
   0 C :   -0.294519
   1 C :   -0.255735
   2 C :   -0.172808
   3 C :   -0.347496
   4 C :   -0.275787
   5 O :    0.001961
   6 C :   -0.155922
   7 C :   -0.278208
   8 C :   -0.113546
   9 H :    0.124251
  10 H :    0.123163
  11 H :    0.121765
  12 H :    0.152118
  13 H :    0.135713
  14 H :    0.150799
  15 H :    0.127849
  16 H :    0.121309
  17 H :    0.132329
  18 H :    0.171199
  19 H :    0.132512
  20 H :    0.132130
  21 H :    0.128531
  22 H :    0.138394

  Mayer bond orders larger than 0.1
B(  0-C ,  1-C ) :   0.8980 B(  0-C ,  9-H ) :   0.9357 B(  0-C , 10-H ) :   0.9391
B(  0-C , 11-H ) :   0.9411 B(  1-C ,  2-C ) :   0.9583 B(  1-C ,  8-C ) :   0.9119
B(  1-C , 12-H ) :   0.9154 B(  2-C ,  3-C ) :   0.8573 B(  2-C , 13-H ) :   0.9280
B(  2-C , 14-H ) :   0.9253 B(  3-C ,  4-C ) :   0.9120 B(  3-C ,  5-O ) :   0.9612
B(  3-C ,  6-C ) :   0.8797 B(  4-C , 15-H ) :   0.9405 B(  4-C , 16-H ) :   0.9261
B(  4-C , 17-H ) :   0.9330 B(  5-O , 18-H ) :   0.8441 B(  6-C ,  7-C ) :   0.8592
B(  6-C ,  8-C ) :   1.7518 B(  7-C , 19-H ) :   0.9459 B(  7-C , 20-H ) :   0.9481
B(  7-C , 21-H ) :   0.9260 B(  8-C , 22-H ) :   0.9187

MP2 TOTAL ENERGY:     -387.643309980 Eh
FINAL SINGLE POINT ENERGY      -387.643309979825

DIPOLE MOMENT
-------------
                                X             Y             Z
Electronic contribution:      2.40584      -0.64650      -0.78619
Nuclear contribution   :     -2.68783       0.15629       1.08942
                        -----------------------------------------
Total Dipole Moment    :     -0.28199      -0.49021       0.30323
                        -----------------------------------------
Magnitude (a.u.)       :      0.64170
Magnitude (Debye)      :      1.63107

                             ****ORCA TERMINATED NORMALLY****
TOTAL RUN TIME: 0 days 0 hours 20 minutes 39 seconds 756 msec
