                         Program Version 3.0.3 - RELEASE   -
|  1> ! RI-MP2 RIJK def2-TZVP def2-TZVP/C def2-TZVP/JK TIGHTSCF
|  2> % maxcore 2000
|  3> % mp2 density relaxed end
|  4> *xyz 0 1
|  5>  N        0.0496122007     1.3110655645    -0.1791380955
|  6>  C       -0.0525938339    -0.0461327806    -0.0380220227
|  7>  N       -1.1275710497    -0.7394237508     0.0149874961
|  8>  C       -0.6984000760    -2.1167882657     0.0166555075
|  9>  C        0.0695641673    -2.5954328105    -1.2031776558
| 10>  C        0.8165588425    -2.0784708866    -0.0051549380
| 11>  O        1.1500225575    -0.6968009082    -0.0146178967
| 12>  H        0.8883893449     1.7179891308     0.2069301938
| 13>  H       -0.7999715737     1.8043531136     0.0491279542
| 14>  H       -1.2895195702    -2.8146256338     0.5976488473
| 15>  H        0.1226661661    -3.6668300467    -1.3657051559
| 16>  H        0.0355586937    -1.9879850444    -2.1016472224
| 17>  H        1.5112380007    -2.6737087215     0.5723473681
| 18> *
| 19>
| 20>                          ****END OF INPUT****

CARTESIAN COORDINATES (ANGSTROEM)
---------------------------------
  N      0.049612    1.311066   -0.179138
  C     -0.052594   -0.046133   -0.038022
  N     -1.127571   -0.739424    0.014987
  C     -0.698400   -2.116788    0.016656
  C      0.069564   -2.595433   -1.203178
  C      0.816559   -2.078471   -0.005155
  O      1.150023   -0.696801   -0.014618
  H      0.888389    1.717989    0.206930
  H     -0.799972    1.804353    0.049128
  H     -1.289520   -2.814626    0.597649
  H      0.122666   -3.666830   -1.365705
  H      0.035559   -1.987985   -2.101647
  H      1.511238   -2.673709    0.572347

 Total Charge           Charge          ....    0
 Multiplicity           Mult            ....    1
 Number of Electrons    NEL             ....   52
 Basis Dimension        Dim             ....  253

ORBITAL ENERGIES
----------------

  NO   OCC          E(Eh)            E(eV)
   0   2.0000     -20.602513      -560.6229
   1   2.0000     -15.583563      -424.0503
   2   2.0000     -15.528109      -422.5413
   3   2.0000     -11.364964      -309.2564
   4   2.0000     -11.292094      -307.2735
   5   2.0000     -11.262528      -306.4690
   6   2.0000     -11.230793      -305.6054
   7   2.0000      -1.454120       -39.5686
   8   2.0000      -1.242881       -33.8205
   9   2.0000      -1.205737       -32.8098
  10   2.0000      -1.096232       -29.8300
  11   2.0000      -0.869141       -23.6505
  12   2.0000      -0.837252       -22.7828
  13   2.0000      -0.777149       -21.1473
  14   2.0000      -0.728790       -19.8314
  15   2.0000      -0.699638       -19.0381
  16   2.0000      -0.673043       -18.3144
  17   2.0000      -0.614381       -16.7181
  18   2.0000      -0.600431       -16.3386
  19   2.0000      -0.589090       -16.0300
  20   2.0000      -0.539828       -14.6895
  21   2.0000      -0.520945       -14.1756
  22   2.0000      -0.467281       -12.7154
  23   2.0000      -0.448045       -12.1919
  24   2.0000      -0.391612       -10.6563
  25   2.0000      -0.342976        -9.3329
  26   0.0000       0.136777         3.7219
  27   0.0000       0.162772         4.4292
  28   0.0000       0.180084         4.9003
  29   0.0000       0.192167         5.2291
  30   0.0000       0.196062         5.3351

MULLIKEN ATOMIC CHARGES
-----------------------
   0 N :   -0.504655
   1 C :    0.316492
   2 N :   -0.323113
   3 C :   -0.028427
   4 C :   -0.275786
   5 C :    0.013472
   6 O :   -0.280825
   7 H :    0.265186
   8 H :    0.270934
   9 H :    0.130213
  10 H :    0.131697
  11 H :    0.148236
  12 H :    0.136578
Sum of atomic charges:   -0.0000000

LOEWDIN ATOMIC CHARGES
----------------------
   0 N :   -0.044014
   1 C :   -0.481495
   2 N :    0.072475
   3 C :   -0.251318
   4 C :   -0.212338
   5 C :   -0.251814
   6 O :    0.257691
   7 H :    0.176661
   8 H :    0.181391
   9 H :    0.137436
  10 H :    0.139180
  11 H :    0.141118
  12 H :    0.135028

  Mayer bond orders larger than 0.1
B(  0-N ,  1-C ) :   1.1096 B(  0-N ,  7-H ) :   0.8655 B(  0-N ,  8-H ) :   0.8673
B(  1-C ,  2-N ) :   1.7826 B(  1-C ,  6-O ) :   1.0769 B(  2-N ,  3-C ) :   0.9823
B(  3-C ,  4-C ) :   0.8589 B(  3-C ,  5-C ) :   0.8957 B(  3-C ,  9-H ) :   0.9361
B(  4-C ,  5-C ) :   0.8823 B(  4-C , 10-H ) :   0.9213 B(  4-C , 11-H ) :   0.9135
B(  5-C ,  6-O ) :   0.9038 B(  5-C , 12-H ) :   0.9301

MP2 TOTAL ENERGY:     -340.073002006 Eh
FINAL SINGLE POINT ENERGY      -340.073002006467

DIPOLE MOMENT
-------------
                                X             Y             Z
Electronic contribution:      0.33661       1.86884       1.12246
Nuclear contribution   :      0.13948      -1.79967      -0.80025
                        -----------------------------------------
Total Dipole Moment    :      0.47609       0.06917       0.32221
                        -----------------------------------------
Magnitude (a.u.)       :      0.57902
Magnitude (Debye)      :      1.47175

                             ****ORCA TERMINATED NORMALLY****
TOTAL RUN TIME: 0 days 0 hours 7 minutes 5 seconds 617 msec
