                         Program Version 3.0.3 - RELEASE   -
|  1> ! RI-MP2 RIJK def2-TZVP def2-TZVP/C def2-TZVP/JK TIGHTSCF
|  2> % maxcore 2000
|  3> % mp2 density relaxed end
|  4> *xyz 0 1
|  5>  O        0.0451556018     1.4733164823    -0.1234784415
|  6>  C        0.0620353597     0.0633410695     0.0557361944
|  7>  C       -1.3314385334    -0.5219940868     0.0656732032
|  8>  C       -2.2631861040    -0.2982215813     1.2940297072
|  9>  C       -2.5765826429    -1.8236866324     1.3327847926
| 10>  C       -1.6531894960    -2.0587422234     0.0958963221
| 11>  C       -2.4082842939    -1.8100393160    -1.2214685856
| 12>  O       -3.1120459157    -2.4516347240    -1.9521853591
| 13>  N       -2.0295726455    -0.4719470049    -1.2331281043
| 14>  H       -0.1889885544     1.6430348345    -1.0417942594
| 15>  H        0.6625255474    -0.4348125813    -0.7196984072
| 16>  H        0.5458853471    -0.1143111967     1.0219220368
| 17>  H       -1.7291194648     0.0591680301     2.1772343826
| 18>  H       -3.1088477526     0.3676304910     1.1108504837
| 19>  H       -2.1984568591    -2.3130803063     2.2320102613
| 20>  H       -3.6181068487    -2.1197523607     1.1930184966
| 21>  H       -0.9073966029    -2.8509773231     0.1302856997
| 22>  H       -2.5540416623     0.2959065092    -1.6346880231
| 23> *
| 24>
| 25>                          ****END OF INPUT****

CARTESIAN COORDINATES (ANGSTROEM)
---------------------------------
  O      0.045156    1.473316   -0.123478
  C      0.062035    0.063341    0.055736
  C     -1.331439   -0.521994    0.065673
  C     -2.263186   -0.298222    1.294030
  C     -2.576583   -1.823687    1.332785
  C     -1.653189   -2.058742    0.095896
  C     -2.408284   -1.810039   -1.221469
  O     -3.112046   -2.451635   -1.952185
  N     -2.029573   -0.471947   -1.233128
  H     -0.188989    1.643035   -1.041794
  H      0.662526   -0.434813   -0.719698
  H      0.545885   -0.114311    1.021922
  H     -1.729119    0.059168    2.177234
  H     -3.108848    0.367630    1.110850
  H     -2.198457   -2.313080    2.232010
  H     -3.618107   -2.119752    1.193018
  H     -0.907397   -2.850977    0.130286
  H     -2.554042    0.295907   -1.634688

 Total Charge           Charge          ....    0
 Multiplicity           Mult            ....    1
 Number of Electrons    NEL             ....   68
 Basis Dimension        Dim             ....  333

ORBITAL ENERGIES
----------------

  NO   OCC          E(Eh)            E(eV)
   0   2.0000     -20.570985      -559.7650
   1   2.0000     -20.532415      -558.7154
   2   2.0000     -15.587561      -424.1591
   3   2.0000     -11.354782      -308.9793
   4   2.0000     -11.290454      -307.2289
   5   2.0000     -11.288569      -307.1776
   6   2.0000     -11.255181      -306.2690
   7   2.0000     -11.246656      -306.0371
   8   2.0000     -11.239990      -305.8557
   9   2.0000      -1.394027       -37.9334
  10   2.0000      -1.374955       -37.4144
  11   2.0000      -1.279361       -34.8132
  12   2.0000      -1.106130       -30.0993
  13   2.0000      -0.989884       -26.9361
  14   2.0000      -0.953284       -25.9402
  15   2.0000      -0.867809       -23.6143
  16   2.0000      -0.805842       -21.9281
  17   2.0000      -0.750560       -20.4238
  18   2.0000      -0.710726       -19.3398
  19   2.0000      -0.684822       -18.6350
  20   2.0000      -0.673843       -18.3362
  21   2.0000      -0.667957       -18.1760
  22   2.0000      -0.613379       -16.6909
  23   2.0000      -0.602766       -16.4021
  24   2.0000      -0.589906       -16.0522
  25   2.0000      -0.564402       -15.3582
  26   2.0000      -0.530392       -14.4327
  27   2.0000      -0.515488       -14.0272
  28   2.0000      -0.495300       -13.4778
  29   2.0000      -0.489633       -13.3236
  30   2.0000      -0.468057       -12.7365
  31   2.0000      -0.452187       -12.3046
  32   2.0000      -0.418109       -11.3773
  33   2.0000      -0.394837       -10.7441
  34   0.0000       0.118459         3.2234
  35   0.0000       0.133628         3.6362
  36   0.0000       0.157383         4.2826
  37   0.0000       0.161754         4.4015
  38   0.0000       0.166272         4.5245

MULLIKEN ATOMIC CHARGES
-----------------------
   0 O :   -0.474179
   1 C :   -0.020839
   2 C :    0.134653
   3 C :   -0.249348
   4 C :   -0.244717
   5 C :   -0.091476
   6 C :    0.170573
   7 O :   -0.300247
   8 N :   -0.352827
   9 H :    0.316059
  10 H :    0.115939
  11 H :    0.111942
  12 H :    0.126689
  13 H :    0.113478
  14 H :    0.127984
  15 H :    0.138110
  16 H :    0.143107
  17 H :    0.235099
Sum of atomic charges:    0.0000000

LOEWDIN ATOMIC CHARGES
----------------------
   0 O :   -0.042029
   1 C :   -0.311698
   2 C :   -0.259497
   3 C :   -0.193911
   4 C :   -0.205625
   5 C :   -0.124582
   6 C :   -0.414836
   7 O :    0.113359
   8 N :    0.147453
   9 H :    0.173946
  10 H :    0.126220
  11 H :    0.135783
  12 H :    0.138049
  13 H :    0.131832
  14 H :    0.135802
  15 H :    0.135287
  16 H :    0.143570
  17 H :    0.170878

  Mayer bond orders larger than 0.1
B(  0-O ,  1-C ) :   0.9106 B(  0-O ,  9-H ) :   0.8458 B(  1-C ,  2-C ) :   0.9209
B(  1-C , 10-H ) :   0.9411 B(  1-C , 11-H ) :   0.9188 B(  2-C ,  3-C ) :   0.9330
B(  2-C ,  5-C ) :   0.8278 B(  2-C ,  8-N ) :   0.9001 B(  3-C ,  4-C ) :   0.9646
B(  3-C , 12-H ) :   0.9153 B(  3-C , 13-H ) :   0.9122 B(  4-C ,  5-C ) :   0.8831
B(  4-C , 14-H ) :   0.9229 B(  4-C , 15-H ) :   0.9241 B(  5-C ,  6-C ) :   0.8656
B(  5-C , 16-H ) :   0.9020 B(  6-C ,  7-O ) :   2.0409 B(  6-C ,  8-N ) :   1.1430
B(  8-N , 17-H ) :   0.8501

MP2 TOTAL ENERGY:     -438.368939050 Eh
FINAL SINGLE POINT ENERGY      -438.368939049653

DIPOLE MOMENT
-------------
                                X             Y             Z
Electronic contribution:     -1.45483      -1.34133      -5.29563
Nuclear contribution   :      1.85116       1.87156       5.92163
                        -----------------------------------------
Total Dipole Moment    :      0.39633       0.53024       0.62600
                        -----------------------------------------
Magnitude (a.u.)       :      0.91110
Magnitude (Debye)      :      2.31584

                             ****ORCA TERMINATED NORMALLY****
TOTAL RUN TIME: 0 days 0 hours 18 minutes 11 seconds 634 msec
