                         Program Version 3.0.3 - RELEASE   -
|  1> ! RI-MP2 RIJK def2-TZVP def2-TZVP/C def2-TZVP/JK TIGHTSCF
|  2> % maxcore 2000
|  3> % mp2 density relaxed end
|  4> *xyz 0 1
|  5>  N        0.1893845742     0.9445623001    -0.6040748245
|  6>  C        0.0413676504    -0.1901150009    -0.0998548213
|  7>  O        0.9716317239    -1.0862093083     0.4178849704
|  8>  C       -0.0760362500    -2.0312304712     0.7971944847
|  9>  C       -1.1443149061    -1.0962674666     0.1941614991
| 10>  O       -1.4086803504    -2.0333121081    -0.8742059308
| 11>  C       -0.4636797879    -2.9695973174    -0.3239824338
| 12>  C        0.3667102592    -3.8718841598    -1.1649667133
| 13>  C       -0.7400079413    -4.4365387071    -0.2842650178
| 14>  H        1.1741664663     1.2132965414    -0.6489169356
| 15>  H        0.0262340763    -2.3713805611     1.8250987077
| 16>  H       -2.0426733425    -0.6944261121     0.6596375789
| 17>  H        0.1829927457    -3.8409542546    -2.2332168469
| 18>  H        1.4014700395    -4.0334957204    -0.8832843087
| 19>  H       -0.4676903167    -4.9900932255     0.6085674469
| 20>  H       -1.6463417207    -4.7742018885    -0.7745267550
| 21> *
| 22>
| 23>                          ****END OF INPUT****

CARTESIAN COORDINATES (ANGSTROEM)
---------------------------------
  N      0.189385    0.944562   -0.604075
  C      0.041368   -0.190115   -0.099855
  O      0.971632   -1.086209    0.417885
  C     -0.076036   -2.031230    0.797194
  C     -1.144315   -1.096267    0.194161
  O     -1.408680   -2.033312   -0.874206
  C     -0.463680   -2.969597   -0.323982
  C      0.366710   -3.871884   -1.164967
  C     -0.740008   -4.436539   -0.284265
  H      1.174166    1.213297   -0.648917
  H      0.026234   -2.371381    1.825099
  H     -2.042673   -0.694426    0.659638
  H      0.182993   -3.840954   -2.233217
  H      1.401470   -4.033496   -0.883284
  H     -0.467690   -4.990093    0.608567
  H     -1.646342   -4.774202   -0.774527

 Total Charge           Charge          ....    0
 Multiplicity           Mult            ....    1
 Number of Electrons    NEL             ....   66
 Basis Dimension        Dim             ....  321

ORBITAL ENERGIES
----------------

  NO   OCC          E(Eh)            E(eV)
   0   2.0000     -20.601198      -560.5871
   1   2.0000     -20.579702      -560.0022
   2   2.0000     -15.549409      -423.1209
   3   2.0000     -11.346459      -308.7528
   4   2.0000     -11.318571      -307.9940
   5   2.0000     -11.316882      -307.9480
   6   2.0000     -11.309480      -307.7466
   7   2.0000     -11.245342      -306.0013
   8   2.0000     -11.242675      -305.9287
   9   2.0000      -1.458550       -39.6892
  10   2.0000      -1.389972       -37.8231
  11   2.0000      -1.207977       -32.8707
  12   2.0000      -1.150888       -31.3172
  13   2.0000      -1.020612       -27.7723
  14   2.0000      -0.933039       -25.3893
  15   2.0000      -0.849121       -23.1058
  16   2.0000      -0.807428       -21.9712
  17   2.0000      -0.737381       -20.0651
  18   2.0000      -0.726350       -19.7650
  19   2.0000      -0.707285       -19.2462
  20   2.0000      -0.689864       -18.7722
  21   2.0000      -0.668302       -18.1854
  22   2.0000      -0.613677       -16.6990
  23   2.0000      -0.591421       -16.0934
  24   2.0000      -0.578323       -15.7370
  25   2.0000      -0.535710       -14.5774
  26   2.0000      -0.528301       -14.3758
  27   2.0000      -0.516126       -14.0445
  28   2.0000      -0.486803       -13.2466
  29   2.0000      -0.447990       -12.1904
  30   2.0000      -0.436945       -11.8899
  31   2.0000      -0.415177       -11.2975
  32   2.0000      -0.398063       -10.8318
  33   0.0000       0.142770         3.8850
  34   0.0000       0.147669         4.0183
  35   0.0000       0.158277         4.3069
  36   0.0000       0.163695         4.4544
  37   0.0000       0.177688         4.8351

MULLIKEN ATOMIC CHARGES
-----------------------
   0 N :   -0.352215
   1 C :    0.124441
   2 O :   -0.276511
   3 C :    0.089354
   4 C :    0.061643
   5 O :   -0.308859
   6 C :    0.129515
   7 C :   -0.257473
   8 C :   -0.285153
   9 H :    0.233056
  10 H :    0.142307
  11 H :    0.133274
  12 H :    0.145365
  13 H :    0.141890
  14 H :    0.134654
  15 H :    0.144712
Sum of atomic charges:   -0.0000000

LOEWDIN ATOMIC CHARGES
----------------------
   0 N :   -0.034030
   1 C :   -0.369437
   2 O :    0.228552
   3 C :   -0.178318
   4 C :   -0.185862
   5 O :    0.201510
   6 C :   -0.289486
   7 C :   -0.194724
   8 C :   -0.197108
   9 H :    0.176294
  10 H :    0.138349
  11 H :    0.140394
  12 H :    0.145110
  13 H :    0.139774
  14 H :    0.136368
  15 H :    0.142614

  Mayer bond orders larger than 0.1
B(  0-N ,  1-C ) :   2.0872 B(  0-N ,  9-H ) :   0.8444 B(  1-C ,  2-O ) :   1.0372
B(  1-C ,  4-C ) :   0.8824 B(  2-O ,  3-C ) :   0.8999 B(  3-C ,  4-C ) :   0.9568
B(  3-C ,  6-C ) :   0.9157 B(  3-C , 10-H ) :   0.9124 B(  4-C ,  5-O ) :   0.9500
B(  4-C , 11-H ) :   0.9202 B(  5-O ,  6-C ) :   0.9355 B(  6-C ,  7-C ) :   0.8510
B(  6-C ,  8-C ) :   0.8654 B(  7-C ,  8-C ) :   0.9224 B(  7-C , 12-H ) :   0.9165
B(  7-C , 13-H ) :   0.9146 B(  8-C , 14-H ) :   0.9154 B(  8-C , 15-H ) :   0.9128

MP2 TOTAL ENERGY:     -437.100252944 Eh
FINAL SINGLE POINT ENERGY      -437.100252943642

DIPOLE MOMENT
-------------
                                X             Y             Z
Electronic contribution:     -0.08784       5.13655       0.66509
Nuclear contribution   :      0.28713      -6.10501       0.10014
                        -----------------------------------------
Total Dipole Moment    :      0.19929      -0.96846       0.76522
                        -----------------------------------------
Magnitude (a.u.)       :      1.25028
Magnitude (Debye)      :      3.17796

                             ****ORCA TERMINATED NORMALLY****
TOTAL RUN TIME: 0 days 0 hours 14 minutes 48 seconds 570 msec
