                         Program Version 3.0.3 - RELEASE   -
|  1> ! RI-MP2 RIJK def2-TZVP def2-TZVP/C def2-TZVP/JK TIGHTSCF
|  2> % maxcore 2000
|  3> % mp2 density relaxed end
|  4> *xyz 0 1
|  5>  O       -0.0728425043     1.2898133757    -0.3435796822
|  6>  C        0.0317756837    -0.0245943028    -0.0546383505
|  7>  N        1.2043617542    -0.5453580661    -0.0654732823
|  8>  C        1.5463807844    -1.8584062424     0.2398691824
|  9>  O        2.5871546828    -2.1131103742     0.8106629274
| 10>  C        0.6808838119    -2.9712312905    -0.2224436588
| 11>  C       -0.6665233788    -3.0052972542    -0.1908815872
| 12>  C       -1.5573729739    -1.9243163518     0.1532834795
| 13>  C       -1.2664171780    -0.6084765690     0.2342856672
| 14>  H        0.8321062725     1.6031029954    -0.4919955041
| 15>  H        1.2311227639    -3.8740264787    -0.4711457645
| 16>  H       -1.1512985487    -3.9511895720    -0.4191334399
| 17>  H       -2.5939986070    -2.2069318221     0.3177162529
| 18>  H       -2.0584736128     0.1040426425     0.4369109901
| 19> *
| 20>
| 21>                          ****END OF INPUT****

CARTESIAN COORDINATES (ANGSTROEM)
---------------------------------
  O     -0.072843    1.289813   -0.343580
  C      0.031776   -0.024594   -0.054638
  N      1.204362   -0.545358   -0.065473
  C      1.546381   -1.858406    0.239869
  O      2.587155   -2.113110    0.810663
  C      0.680884   -2.971231   -0.222444
  C     -0.666523   -3.005297   -0.190882
  C     -1.557373   -1.924316    0.153283
  C     -1.266417   -0.608477    0.234286
  H      0.832106    1.603103   -0.491996
  H      1.231123   -3.874026   -0.471146
  H     -1.151299   -3.951190   -0.419133
  H     -2.593999   -2.206932    0.317716
  H     -2.058474    0.104043    0.436911

 Total Charge           Charge          ....    0
 Multiplicity           Mult            ....    1
 Number of Electrons    NEL             ....   64
 Basis Dimension        Dim             ....  309

ORBITAL ENERGIES
----------------

  NO   OCC          E(Eh)            E(eV)
   0   2.0000     -20.616936      -561.0154
   1   2.0000     -20.532128      -558.7076
   2   2.0000     -15.567434      -423.6114
   3   2.0000     -11.383770      -309.7681
   4   2.0000     -11.360605      -309.1378
   5   2.0000     -11.291167      -307.2483
   6   2.0000     -11.276675      -306.8539
   7   2.0000     -11.272932      -306.7521
   8   2.0000     -11.271982      -306.7262
   9   2.0000      -1.451443       -39.4958
  10   2.0000      -1.389256       -37.8036
  11   2.0000      -1.237426       -33.6721
  12   2.0000      -1.135822       -30.9073
  13   2.0000      -1.066012       -29.0077
  14   2.0000      -0.940906       -25.6034
  15   2.0000      -0.906847       -24.6766
  16   2.0000      -0.811241       -22.0750
  17   2.0000      -0.770358       -20.9625
  18   2.0000      -0.733207       -19.9516
  19   2.0000      -0.681382       -18.5413
  20   2.0000      -0.655110       -17.8264
  21   2.0000      -0.639954       -17.4140
  22   2.0000      -0.631657       -17.1883
  23   2.0000      -0.609719       -16.5913
  24   2.0000      -0.585541       -15.9334
  25   2.0000      -0.571830       -15.5603
  26   2.0000      -0.541555       -14.7365
  27   2.0000      -0.483038       -13.1441
  28   2.0000      -0.459692       -12.5089
  29   2.0000      -0.423387       -11.5210
  30   2.0000      -0.418415       -11.3856
  31   2.0000      -0.358866        -9.7652
  32   0.0000       0.039525         1.0755
  33   0.0000       0.094179         2.5627
  34   0.0000       0.138577         3.7709
  35   0.0000       0.152658         4.1540
  36   0.0000       0.166101         4.5198

MULLIKEN ATOMIC CHARGES
-----------------------
   0 O :   -0.393771
   1 C :    0.299624
   2 N :   -0.241522
   3 C :    0.231209
   4 O :   -0.288465
   5 C :   -0.172617
   6 C :   -0.105454
   7 C :   -0.088593
   8 C :   -0.180834
   9 H :    0.343781
  10 H :    0.151739
  11 H :    0.145016
  12 H :    0.144229
  13 H :    0.155658
Sum of atomic charges:    0.0000000

LOEWDIN ATOMIC CHARGES
----------------------
   0 O :    0.101479
   1 C :   -0.362746
   2 N :    0.166106
   3 C :   -0.431031
   4 O :    0.138263
   5 C :   -0.092742
   6 C :   -0.134380
   7 C :   -0.118924
   8 C :   -0.106816
   9 H :    0.201754
  10 H :    0.160611
  11 H :    0.157598
  12 H :    0.158625
  13 H :    0.162203

  Mayer bond orders larger than 0.1
B(  0-O ,  1-C ) :   1.1419 B(  0-O ,  9-H ) :   0.8064 B(  1-C ,  2-N ) :   1.6313
B(  1-C ,  8-C ) :   1.0402 B(  2-N ,  3-C ) :   1.0830 B(  3-C ,  4-O ) :   1.9669
B(  3-C ,  5-C ) :   0.9793 B(  5-C ,  6-C ) :   1.6070 B(  5-C , 10-H ) :   0.9165
B(  6-C ,  7-C ) :   1.0569 B(  6-C , 11-H ) :   0.9172 B(  7-C ,  8-C ) :   1.6515
B(  7-C , 12-H ) :   0.9221 B(  8-C , 13-H ) :   0.9106

MP2 TOTAL ENERGY:     -436.001395594 Eh
FINAL SINGLE POINT ENERGY      -436.001395594344

DIPOLE MOMENT
-------------
                                X             Y             Z
Electronic contribution:      3.36004       1.79321       0.40994
Nuclear contribution   :     -4.94481      -1.91283      -0.88320
                        -----------------------------------------
Total Dipole Moment    :     -1.58477      -0.11962      -0.47327
                        -----------------------------------------
Magnitude (a.u.)       :      1.65825
Magnitude (Debye)      :      4.21493

                             ****ORCA TERMINATED NORMALLY****
TOTAL RUN TIME: 0 days 0 hours 14 minutes 41 seconds 395 msec
