                         Program Version 3.0.3 - RELEASE   -
|  1> ! RI-MP2 RIJK def2-TZVP def2-TZVP/C def2-TZVP/JK TIGHTSCF
|  2> % maxcore 2000
|  3> % mp2 density relaxed end
|  4> *xyz 0 1
|  5>  C       -0.0100993941     1.5075536684     0.0840378404
|  6>  C       -0.0032392034     0.0215221285    -0.0092227573
|  7>  N       -0.0678883665    -0.6011288830    -1.1567693366
|  8>  O       -0.0337964413    -1.9715447173    -0.7900503053
|  9>  C        0.0471913235    -1.9780383739     0.5346697424
| 10>  N        0.0996186704    -3.1629983717     1.2271599699
| 11>  C        0.0796821515    -4.4558935103     0.7217881176
| 12>  O        0.0112475663    -4.7537154314    -0.4387150622
| 13>  N        0.0712148282    -0.8019954693     1.0934780007
| 14>  H        0.9032159897     1.8599891460     0.5724635938
| 15>  H       -0.0792037583     1.9478860522    -0.9114555494
| 16>  H       -0.8575555183     1.8445068365     0.6882654170
| 17>  H        0.1597519277    -3.0430292632     2.2281503752
| 18>  H        0.1364608348    -5.1872510015     1.5497924338
| 19> *
| 20>
| 21>                          ****END OF INPUT****

CARTESIAN COORDINATES (ANGSTROEM)
---------------------------------
  C     -0.010099    1.507554    0.084038
  C     -0.003239    0.021522   -0.009223
  N     -0.067888   -0.601129   -1.156769
  O     -0.033796   -1.971545   -0.790050
  C      0.047191   -1.978038    0.534670
  N      0.099619   -3.162998    1.227160
  C      0.079682   -4.455894    0.721788
  O      0.011248   -4.753715   -0.438715
  N      0.071215   -0.801995    1.093478
  H      0.903216    1.859989    0.572464
  H     -0.079204    1.947886   -0.911456
  H     -0.857556    1.844507    0.688265
  H      0.159752   -3.043029    2.228150
  H      0.136461   -5.187251    1.549792

 Total Charge           Charge          ....    0
 Multiplicity           Mult            ....    1
 Number of Electrons    NEL             ....   66
 Basis Dimension        Dim             ....  309

ORBITAL ENERGIES
----------------

  NO   OCC          E(Eh)            E(eV)
   0   2.0000     -20.657037      -562.1066
   1   2.0000     -20.565658      -559.6200
   2   2.0000     -15.647500      -425.7901
   3   2.0000     -15.620196      -425.0471
   4   2.0000     -15.572952      -423.7616
   5   2.0000     -11.410511      -310.4958
   6   2.0000     -11.390598      -309.9539
   7   2.0000     -11.322854      -308.1105
   8   2.0000     -11.246010      -306.0195
   9   2.0000      -1.525336       -41.5065
  10   2.0000      -1.426252       -38.8103
  11   2.0000      -1.304109       -35.4866
  12   2.0000      -1.260089       -34.2888
  13   2.0000      -1.153199       -31.3801
  14   2.0000      -1.005156       -27.3517
  15   2.0000      -0.939516       -25.5655
  16   2.0000      -0.850132       -23.1333
  17   2.0000      -0.799074       -21.7439
  18   2.0000      -0.766335       -20.8530
  19   2.0000      -0.725960       -19.7544
  20   2.0000      -0.703191       -19.1348
  21   2.0000      -0.660432       -17.9713
  22   2.0000      -0.644900       -17.5486
  23   2.0000      -0.612187       -16.6585
  24   2.0000      -0.588233       -16.0066
  25   2.0000      -0.573850       -15.6153
  26   2.0000      -0.562355       -15.3024
  27   2.0000      -0.530161       -14.4264
  28   2.0000      -0.501990       -13.6598
  29   2.0000      -0.471774       -12.8376
  30   2.0000      -0.468744       -12.7552
  31   2.0000      -0.458239       -12.4693
  32   2.0000      -0.381639       -10.3849
  33   0.0000       0.107132         2.9152
  34   0.0000       0.116712         3.1759
  35   0.0000       0.142390         3.8746
  36   0.0000       0.169965         4.6250
  37   0.0000       0.172508         4.6942

MULLIKEN ATOMIC CHARGES
-----------------------
   0 C :   -0.419121
   1 C :    0.183230
   2 N :   -0.140501
   3 O :   -0.080615
   4 C :    0.378139
   5 N :   -0.321253
   6 C :    0.185583
   7 O :   -0.275815
   8 N :   -0.342621
   9 H :    0.151300
  10 H :    0.160503
  11 H :    0.151365
  12 H :    0.271943
  13 H :    0.097863
Sum of atomic charges:    0.0000000

LOEWDIN ATOMIC CHARGES
----------------------
   0 C :   -0.262489
   1 C :   -0.381527
   2 N :    0.056477
   3 O :    0.298504
   4 C :   -0.438517
   5 N :    0.139215
   6 C :   -0.392960
   7 O :    0.126591
   8 N :    0.107320
   9 H :    0.139288
  10 H :    0.139955
  11 H :    0.139275
  12 H :    0.211942
  13 H :    0.116924

  Mayer bond orders larger than 0.1
B(  0-C ,  1-C ) :   0.8673 B(  0-C ,  9-H ) :   0.9286 B(  0-C , 10-H ) :   0.9491
B(  0-C , 11-H ) :   0.9289 B(  1-C ,  2-N ) :   1.6553 B(  1-C ,  8-N ) :   1.2011
B(  2-N ,  3-O ) :   0.8359 B(  3-O ,  4-C ) :   1.2091 B(  4-C ,  5-N ) :   1.0299
B(  4-C ,  8-N ) :   1.5858 B(  5-N ,  6-C ) :   1.0211 B(  5-N , 12-H ) :   0.8556
B(  6-C ,  7-O ) :   1.9759 B(  6-C , 13-H ) :   0.9274

MP2 TOTAL ENERGY:     -469.277897166 Eh
FINAL SINGLE POINT ENERGY      -469.277897165983

DIPOLE MOMENT
-------------
                                X             Y             Z
Electronic contribution:     -0.04907      -5.89361      -1.62104
Nuclear contribution   :      0.14568       6.14296       3.23442
                        -----------------------------------------
Total Dipole Moment    :      0.09661       0.24936       1.61338
                        -----------------------------------------
Magnitude (a.u.)       :      1.63539
Magnitude (Debye)      :      4.15684

                             ****ORCA TERMINATED NORMALLY****
TOTAL RUN TIME: 0 days 0 hours 12 minutes 58 seconds 406 msec
