                         Program Version 3.0.3 - RELEASE   -
|  1> ! RI-MP2 RIJK def2-TZVP def2-TZVP/C def2-TZVP/JK TIGHTSCF
|  2> % maxcore 2000
|  3> % mp2 density relaxed end
|  4> *xyz 0 1
|  5>  C       -0.1086104150     1.5678372798    -0.0020505438
|  6>  C        0.0617677801     0.0615875092     0.0177741063
|  7>  C        1.1851512111    -0.6182648493    -0.8249709965
|  8>  O        2.3860945324     0.1489447205    -0.7195539646
|  9>  C        2.9082964847     0.1584085315     0.5962470832
| 10>  O        1.9145035037     0.1249461252     1.6013985365
| 11>  C        0.7710851960    -0.6402109660     1.2182624256
| 12>  C        1.1841584473    -1.7684355848     0.2330483503
| 13>  O        0.1178627554    -2.6816373433     0.0906241646
| 14>  H        0.8358386146     2.0811893516     0.1872857202
| 15>  H       -0.4865574442     1.9028790901    -0.9740135450
| 16>  H       -0.8261109904     1.8868305588     0.7615193637
| 17>  H       -0.8814081181    -0.4535232157    -0.1761039004
| 18>  H        1.0355302793    -0.8439764396    -1.8838581819
| 19>  H        3.5952517046    -0.6924063217     0.7268141341
| 20>  H        3.4657270781     1.0915226707     0.7188021595
| 21>  H        0.2223412036    -0.8948406833     2.1261392835
| 22>  H        2.1317182462    -2.2860816310     0.4205082663
| 23>  H        0.2953909208    -3.2309095324    -0.6800578114
| 24> *
| 25>
| 26>                          ****END OF INPUT****

CARTESIAN COORDINATES (ANGSTROEM)
---------------------------------
  C     -0.108610    1.567837   -0.002051
  C      0.061768    0.061588    0.017774
  C      1.185151   -0.618265   -0.824971
  O      2.386095    0.148945   -0.719554
  C      2.908296    0.158409    0.596247
  O      1.914504    0.124946    1.601399
  C      0.771085   -0.640211    1.218262
  C      1.184158   -1.768436    0.233048
  O      0.117863   -2.681637    0.090624
  H      0.835839    2.081189    0.187286
  H     -0.486557    1.902879   -0.974014
  H     -0.826111    1.886831    0.761519
  H     -0.881408   -0.453523   -0.176104
  H      1.035530   -0.843976   -1.883858
  H      3.595252   -0.692406    0.726814
  H      3.465727    1.091523    0.718802
  H      0.222341   -0.894841    2.126139
  H      2.131718   -2.286082    0.420508
  H      0.295391   -3.230910   -0.680058

 Total Charge           Charge          ....    0
 Multiplicity           Mult            ....    1
 Number of Electrons    NEL             ....   70
 Basis Dimension        Dim             ....  339

ORBITAL ENERGIES
----------------

  NO   OCC          E(Eh)            E(eV)
   0   2.0000     -20.574882      -559.8710
   1   2.0000     -20.566305      -559.6376
   2   2.0000     -20.564667      -559.5930
   3   2.0000     -11.331786      -308.3536
   4   2.0000     -11.291208      -307.2494
   5   2.0000     -11.290626      -307.2336
   6   2.0000     -11.288448      -307.1743
   7   2.0000     -11.227338      -305.5114
   8   2.0000     -11.209545      -305.0272
   9   2.0000      -1.430646       -38.9299
  10   2.0000      -1.380520       -37.5659
  11   2.0000      -1.343584       -36.5608
  12   2.0000      -1.123910       -30.5832
  13   2.0000      -0.985441       -26.8152
  14   2.0000      -0.922818       -25.1112
  15   2.0000      -0.892575       -24.2882
  16   2.0000      -0.850070       -23.1316
  17   2.0000      -0.738695       -20.1009
  18   2.0000      -0.726381       -19.7658
  19   2.0000      -0.692936       -18.8558
  20   2.0000      -0.676277       -18.4024
  21   2.0000      -0.652542       -17.7566
  22   2.0000      -0.620346       -16.8805
  23   2.0000      -0.603213       -16.4142
  24   2.0000      -0.592967       -16.1354
  25   2.0000      -0.571983       -15.5644
  26   2.0000      -0.564230       -15.3535
  27   2.0000      -0.540442       -14.7062
  28   2.0000      -0.526299       -14.3213
  29   2.0000      -0.519219       -14.1287
  30   2.0000      -0.491863       -13.3843
  31   2.0000      -0.470568       -12.8048
  32   2.0000      -0.426886       -11.6162
  33   2.0000      -0.406950       -11.0737
  34   2.0000      -0.394500       -10.7349
  35   0.0000       0.128817         3.5053
  36   0.0000       0.146961         3.9990
  37   0.0000       0.158788         4.3208
  38   0.0000       0.186792         5.0829
  39   0.0000       0.195205         5.3118

MULLIKEN ATOMIC CHARGES
-----------------------
   0 C :   -0.419199
   1 C :   -0.080619
   2 C :    0.072876
   3 O :   -0.341845
   4 C :    0.066565
   5 O :   -0.341699
   6 C :    0.123284
   7 C :   -0.047510
   8 O :   -0.462387
   9 H :    0.136954
  10 H :    0.129029
  11 H :    0.131667
  12 H :    0.110827
  13 H :    0.127816
  14 H :    0.095002
  15 H :    0.130406
  16 H :    0.131214
  17 H :    0.112999
  18 H :    0.324621
Sum of atomic charges:    0.0000000

LOEWDIN ATOMIC CHARGES
----------------------
   0 C :   -0.295274
   1 C :   -0.228967
   2 C :   -0.252319
   3 O :    0.169384
   4 C :   -0.376200
   5 O :    0.172743
   6 C :   -0.237900
   7 C :   -0.295393
   8 O :   -0.001328
   9 H :    0.127998
  10 H :    0.126206
  11 H :    0.126939
  12 H :    0.159871
  13 H :    0.130366
  14 H :    0.106498
  15 H :    0.122428
  16 H :    0.136153
  17 H :    0.128267
  18 H :    0.180527

  Mayer bond orders larger than 0.1
B(  0-C ,  1-C ) :   0.8980 B(  0-C ,  9-H ) :   0.9352 B(  0-C , 10-H ) :   0.9381
B(  0-C , 11-H ) :   0.9398 B(  1-C ,  2-C ) :   0.9218 B(  1-C ,  6-C ) :   0.9353
B(  1-C , 12-H ) :   0.8956 B(  2-C ,  3-O ) :   0.8914 B(  2-C ,  7-C ) :   0.9033
B(  2-C , 13-H ) :   0.9173 B(  3-O ,  4-C ) :   0.9536 B(  4-C ,  5-O ) :   0.9596
B(  4-C , 14-H ) :   0.9247 B(  4-C , 15-H ) :   0.9325 B(  5-O ,  6-C ) :   0.8916
B(  6-C ,  7-C ) :   0.9011 B(  6-C , 16-H ) :   0.9088 B(  7-C ,  8-O ) :   1.0607
B(  7-C , 17-H ) :   0.9657 B(  8-O , 18-H ) :   0.8404

MP2 TOTAL ENERGY:     -459.400921667 Eh
FINAL SINGLE POINT ENERGY      -459.400921667085

DIPOLE MOMENT
-------------
                                X             Y             Z
Electronic contribution:      2.21451      -3.09025       0.65686
Nuclear contribution   :     -2.15406       2.58715      -1.12818
                        -----------------------------------------
Total Dipole Moment    :      0.06045      -0.50310      -0.47132
                        -----------------------------------------
Magnitude (a.u.)       :      0.69203
Magnitude (Debye)      :      1.75900

                             ****ORCA TERMINATED NORMALLY****
TOTAL RUN TIME: 0 days 0 hours 17 minutes 26 seconds 576 msec
