                         Program Version 3.0.3 - RELEASE   -
|  1> ! RI-MP2 RIJK def2-TZVP def2-TZVP/C def2-TZVP/JK TIGHTSCF
|  2> % maxcore 2000
|  3> % mp2 density relaxed end
|  4> *xyz 0 1
|  5>  C       -0.1144435349     1.5752958729    -0.0259436996
|  6>  C       -0.0492674682     0.0444894304     0.0030239551
|  7>  C        1.1063413904    -0.5416709709    -0.8786396304
|  8>  C        1.9911283150    -0.6671990312     0.3856047956
|  9>  C        0.7103444596    -0.5469972889     1.2691016625
| 10>  C        0.7562839391     0.2353519747     2.4836356339
| 11>  C        0.8066543194     0.9007924404     3.4842355048
| 12>  C       -1.3675543853    -0.5333116080    -0.2281310890
| 13>  N       -2.4052990047    -1.0099528613    -0.4118450232
| 14>  H        0.8793311795     2.0003455736     0.1374928103
| 15>  H       -0.4844800367     1.9184615623    -0.9960729780
| 16>  H       -0.7770994345     1.9531843995     0.7559967436
| 17>  H        0.8413252843    -1.5122118294    -1.3020552388
| 18>  H        1.4572786862     0.1112040328    -1.6798303375
| 19>  H        2.5698875329    -1.5838228264     0.5045586198
| 20>  H        2.6545870438     0.1882784153     0.5236052180
| 21>  H        0.3116786493    -1.5435698428     1.4801559728
| 22>  H        0.8470920449     1.4782391872     4.3747319101
| 23> *
| 24>
| 25>                          ****END OF INPUT****

CARTESIAN COORDINATES (ANGSTROEM)
---------------------------------
  C     -0.114444    1.575296   -0.025944
  C     -0.049267    0.044489    0.003024
  C      1.106341   -0.541671   -0.878640
  C      1.991128   -0.667199    0.385605
  C      0.710344   -0.546997    1.269102
  C      0.756284    0.235352    2.483636
  C      0.806654    0.900792    3.484236
  C     -1.367554   -0.533312   -0.228131
  N     -2.405299   -1.009953   -0.411845
  H      0.879331    2.000346    0.137493
  H     -0.484480    1.918462   -0.996073
  H     -0.777099    1.953184    0.755997
  H      0.841325   -1.512212   -1.302055
  H      1.457279    0.111204   -1.679830
  H      2.569888   -1.583823    0.504559
  H      2.654587    0.188278    0.523605
  H      0.311679   -1.543570    1.480156
  H      0.847092    1.478239    4.374732

 Total Charge           Charge          ....    0
 Multiplicity           Mult            ....    1
 Number of Electrons    NEL             ....   64
 Basis Dimension        Dim             ....  333

ORBITAL ENERGIES
----------------

  NO   OCC          E(Eh)            E(eV)
   0   2.0000     -15.567856      -423.6229
   1   2.0000     -11.297107      -307.4099
   2   2.0000     -11.281632      -306.9888
   3   2.0000     -11.268716      -306.6374
   4   2.0000     -11.254882      -306.2609
   5   2.0000     -11.252363      -306.1924
   6   2.0000     -11.245331      -306.0010
   7   2.0000     -11.242122      -305.9137
   8   2.0000     -11.236017      -305.7476
   9   2.0000      -1.222098       -33.2550
  10   2.0000      -1.176801       -32.0224
  11   2.0000      -1.050906       -28.5966
  12   2.0000      -1.019286       -27.7362
  13   2.0000      -0.942874       -25.6569
  14   2.0000      -0.908657       -24.7258
  15   2.0000      -0.814627       -22.1671
  16   2.0000      -0.740135       -20.1401
  17   2.0000      -0.717790       -19.5321
  18   2.0000      -0.683551       -18.6004
  19   2.0000      -0.620955       -16.8970
  20   2.0000      -0.595985       -16.2176
  21   2.0000      -0.591461       -16.0945
  22   2.0000      -0.576104       -15.6766
  23   2.0000      -0.556707       -15.1488
  24   2.0000      -0.530340       -14.4313
  25   2.0000      -0.503967       -13.7137
  26   2.0000      -0.503271       -13.6947
  27   2.0000      -0.497046       -13.5253
  28   2.0000      -0.455682       -12.3997
  29   2.0000      -0.444591       -12.0979
  30   2.0000      -0.395222       -10.7545
  31   2.0000      -0.391855       -10.6629
  32   0.0000       0.121350         3.3021
  33   0.0000       0.140353         3.8192
  34   0.0000       0.143860         3.9146
  35   0.0000       0.150313         4.0902
  36   0.0000       0.159429         4.3383

MULLIKEN ATOMIC CHARGES
-----------------------
   0 C :   -0.420720
   1 C :    0.239831
   2 C :   -0.237694
   3 C :   -0.229076
   4 C :   -0.193957
   5 C :   -0.058975
   6 C :   -0.136778
   7 C :   -0.254893
   8 N :   -0.047304
   9 H :    0.144382
  10 H :    0.151279
  11 H :    0.156811
  12 H :    0.142886
  13 H :    0.132240
  14 H :    0.134191
  15 H :    0.135643
  16 H :    0.146854
  17 H :    0.195281
Sum of atomic charges:    0.0000000

LOEWDIN ATOMIC CHARGES
----------------------
   0 C :   -0.238077
   1 C :   -0.231675
   2 C :   -0.174144
   3 C :   -0.192621
   4 C :   -0.161795
   5 C :   -0.091002
   6 C :   -0.085421
   7 C :   -0.155613
   8 N :    0.064470
   9 H :    0.135204
  10 H :    0.134636
  11 H :    0.137854
  12 H :    0.144808
  13 H :    0.134254
  14 H :    0.131333
  15 H :    0.141027
  16 H :    0.178021
  17 H :    0.128740

  Mayer bond orders larger than 0.1
B(  0-C ,  1-C ) :   0.9139 B(  0-C ,  9-H ) :   0.9253 B(  0-C , 10-H ) :   0.9302
B(  0-C , 11-H ) :   0.9310 B(  1-C ,  2-C ) :   0.8784 B(  1-C ,  4-C ) :   0.8342
B(  1-C ,  7-C ) :   0.9124 B(  2-C ,  3-C ) :   0.9396 B(  2-C , 12-H ) :   0.9166
B(  2-C , 13-H ) :   0.9220 B(  3-C ,  4-C ) :   0.8993 B(  3-C , 14-H ) :   0.9230
B(  3-C , 15-H ) :   0.9244 B(  4-C ,  5-C ) :   1.1875 B(  4-C , 16-H ) :   0.9136
B(  5-C ,  6-C ) :   2.5826 B(  6-C , 17-H ) :   0.8892 B(  7-C ,  8-N ) :   2.8829

MP2 TOTAL ENERGY:     -364.119728726 Eh
FINAL SINGLE POINT ENERGY      -364.119728726436

DIPOLE MOMENT
-------------
                                X             Y             Z
Electronic contribution:     -4.82774      -2.65261       1.93694
Nuclear contribution   :      6.29913       3.20884      -1.83031
                        -----------------------------------------
Total Dipole Moment    :      1.47139       0.55623       0.10663
                        -----------------------------------------
Magnitude (a.u.)       :      1.57663
Magnitude (Debye)      :      4.00747

                             ****ORCA TERMINATED NORMALLY****
TOTAL RUN TIME: 0 days 0 hours 18 minutes 18 seconds 993 msec
