                         Program Version 3.0.3 - RELEASE   -
|  1> ! RI-MP2 RIJK def2-TZVP def2-TZVP/C def2-TZVP/JK TIGHTSCF
|  2> % maxcore 2000
|  3> % mp2 density relaxed end
|  4> *xyz 0 1
|  5>  C       -0.1364849030     1.3688432463    -0.3659906305
|  6>  O       -0.2460172456    -0.0542549373    -0.5057957102
|  7>  C       -1.1792805821    -0.6393374335     0.2756542835
|  8>  O       -1.8781199244    -0.0241968021     1.0420882943
|  9>  C       -1.2508116908    -2.1557167775     0.0744284354
| 10>  C       -1.1754422778    -2.8408838789     1.4361632249
| 11>  C       -2.4616909333    -2.5133225766    -0.8493819324
| 12>  C       -1.4197700333    -2.6705557029    -1.9809245915
| 13>  N       -0.3493338796    -2.7233538591    -0.9557166953
| 14>  H        0.6552783982     1.6751059815    -1.0496159503
| 15>  H       -1.0800577131     1.8534404156    -0.6285856851
| 16>  H        0.1187857008     1.6344511481     0.6626704641
| 17>  H       -1.9461601551    -2.4493654931     2.1046679291
| 18>  H       -1.3080822164    -3.9177620818     1.3089274674
| 19>  H       -0.1984779804    -2.6730292744     1.9029201978
| 20>  H       -2.9230963677    -3.4570370185    -0.5522094553
| 21>  H       -3.2352988438    -1.7544084337    -0.9670047024
| 22>  H       -1.4872785888    -3.5666375078    -2.6056489436
| 23>  H       -1.3756197483    -1.7882073055    -2.6330125108
| 24>  H        0.4629313044    -2.1510749288    -1.1567297591
| 25> *
| 26>
| 27>                          ****END OF INPUT****

CARTESIAN COORDINATES (ANGSTROEM)
---------------------------------
  C     -0.136485    1.368843   -0.365991
  O     -0.246017   -0.054255   -0.505796
  C     -1.179281   -0.639337    0.275654
  O     -1.878120   -0.024197    1.042088
  C     -1.250812   -2.155717    0.074428
  C     -1.175442   -2.840884    1.436163
  C     -2.461691   -2.513323   -0.849382
  C     -1.419770   -2.670556   -1.980925
  N     -0.349334   -2.723354   -0.955717
  H      0.655278    1.675106   -1.049616
  H     -1.080058    1.853440   -0.628586
  H      0.118786    1.634451    0.662670
  H     -1.946160   -2.449365    2.104668
  H     -1.308082   -3.917762    1.308927
  H     -0.198478   -2.673029    1.902920
  H     -2.923096   -3.457037   -0.552209
  H     -3.235299   -1.754408   -0.967005
  H     -1.487279   -3.566638   -2.605649
  H     -1.375620   -1.788207   -2.633013
  H      0.462931   -2.151075   -1.156730

 Total Charge           Charge          ....    0
 Multiplicity           Mult            ....    1
 Number of Electrons    NEL             ....   70
 Basis Dimension        Dim             ....  345

ORBITAL ENERGIES
----------------

  NO   OCC          E(Eh)            E(eV)
   0   2.0000     -20.609035      -560.8004
   1   2.0000     -20.543367      -559.0134
   2   2.0000     -15.543486      -422.9597
   3   2.0000     -11.377131      -309.5875
   4   2.0000     -11.289878      -307.2132
   5   2.0000     -11.279460      -306.9297
   6   2.0000     -11.254453      -306.2492
   7   2.0000     -11.233749      -305.6858
   8   2.0000     -11.215832      -305.1983
   9   2.0000      -1.464622       -39.8544
  10   2.0000      -1.362000       -37.0619
  11   2.0000      -1.242500       -33.8101
  12   2.0000      -1.025033       -27.8926
  13   2.0000      -0.983061       -26.7505
  14   2.0000      -0.970631       -26.4122
  15   2.0000      -0.874729       -23.8026
  16   2.0000      -0.813100       -22.1256
  17   2.0000      -0.754837       -20.5402
  18   2.0000      -0.723928       -19.6991
  19   2.0000      -0.680700       -18.5228
  20   2.0000      -0.677791       -18.4436
  21   2.0000      -0.635629       -17.2963
  22   2.0000      -0.627279       -17.0691
  23   2.0000      -0.599352       -16.3092
  24   2.0000      -0.581587       -15.8258
  25   2.0000      -0.556532       -15.1440
  26   2.0000      -0.542497       -14.7621
  27   2.0000      -0.526044       -14.3144
  28   2.0000      -0.516815       -14.0632
  29   2.0000      -0.510548       -13.8927
  30   2.0000      -0.483816       -13.1653
  31   2.0000      -0.468018       -12.7354
  32   2.0000      -0.464631       -12.6432
  33   2.0000      -0.438821       -11.9409
  34   2.0000      -0.379077       -10.3152
  35   0.0000       0.134779         3.6675
  36   0.0000       0.152984         4.1629
  37   0.0000       0.160167         4.3584
  38   0.0000       0.166345         4.5265
  39   0.0000       0.187379         5.0988

MULLIKEN ATOMIC CHARGES
-----------------------
   0 C :   -0.229041
   1 O :   -0.272951
   2 C :    0.227104
   3 O :   -0.328022
   4 C :    0.214388
   5 C :   -0.387242
   6 C :   -0.256527
   7 C :   -0.150670
   8 N :   -0.333053
   9 H :    0.144448
  10 H :    0.141253
  11 H :    0.143167
  12 H :    0.148535
  13 H :    0.132156
  14 H :    0.125440
  15 H :    0.118878
  16 H :    0.136393
  17 H :    0.108134
  18 H :    0.105702
  19 H :    0.211908
Sum of atomic charges:   -0.0000000

LOEWDIN ATOMIC CHARGES
----------------------
   0 C :   -0.308415
   1 O :    0.224269
   2 C :   -0.444100
   3 O :    0.129848
   4 C :   -0.298536
   5 C :   -0.262606
   6 C :   -0.188526
   7 C :   -0.273597
   8 N :    0.025929
   9 H :    0.114584
  10 H :    0.114836
  11 H :    0.115519
  12 H :    0.133594
  13 H :    0.128055
  14 H :    0.128420
  15 H :    0.137933
  16 H :    0.132547
  17 H :    0.116681
  18 H :    0.117649
  19 H :    0.155917

  Mayer bond orders larger than 0.1
B(  0-C ,  1-O ) :   0.8441 B(  0-C ,  9-H ) :   0.9337 B(  0-C , 10-H ) :   0.9386
B(  0-C , 11-H ) :   0.9390 B(  1-O ,  2-C ) :   1.1166 B(  2-C ,  3-O ) :   1.9408
B(  2-C ,  4-C ) :   0.9155 B(  4-C ,  5-C ) :   0.8761 B(  4-C ,  6-C ) :   0.8734
B(  4-C ,  8-N ) :   1.0334 B(  5-C , 12-H ) :   0.9318 B(  5-C , 13-H ) :   0.9376
B(  5-C , 14-H ) :   0.9327 B(  6-C ,  7-C ) :   0.9655 B(  6-C , 15-H ) :   0.9170
B(  6-C , 16-H ) :   0.9216 B(  7-C ,  8-N ) :   0.9828 B(  7-C , 17-H ) :   0.9186
B(  7-C , 18-H ) :   0.9209 B(  8-N , 19-H ) :   0.8828

MP2 TOTAL ENERGY:     -439.575715230 Eh
FINAL SINGLE POINT ENERGY      -439.575715230121

DIPOLE MOMENT
-------------
                                X             Y             Z
Electronic contribution:      0.41479       2.39640       0.78501
Nuclear contribution   :     -0.13558      -1.98392      -1.35234
                        -----------------------------------------
Total Dipole Moment    :      0.27921       0.41247      -0.56733
                        -----------------------------------------
Magnitude (a.u.)       :      0.75495
Magnitude (Debye)      :      1.91894

                             ****ORCA TERMINATED NORMALLY****
TOTAL RUN TIME: 0 days 0 hours 17 minutes 49 seconds 931 msec
