                         Program Version 3.0.3 - RELEASE   -
|  1> ! RI-MP2 RIJK def2-TZVP def2-TZVP/C def2-TZVP/JK TIGHTSCF
|  2> % maxcore 2000
|  3> % mp2 density relaxed end
|  4> *xyz 0 1
|  5>  C        0.1155093861     1.4291736942    -0.3019394950
|  6>  C        0.0043039633    -0.0737935267     0.0036593599
|  7>  C        0.6534606947    -0.3805416194     1.3433325046
|  8>  O        1.6457833509    -1.0485542965     1.4827212647
|  9>  C       -1.4514787844    -0.5634385230     0.0041218339
| 10>  C       -2.0233274408    -1.0583174130    -1.3187521002
| 11>  C       -1.6926571610    -2.0480039155    -0.2414175989
| 12>  C       -2.3498671851     0.1163283374     0.9009209004
| 13>  C       -3.0962388764     0.6897125312     1.6511298718
| 14>  H        1.1631224030     1.7399855625    -0.3483801207
| 15>  H       -0.3544839636     1.6554343174    -1.2636275973
| 16>  H       -0.3896217922     2.0233968970     0.4653369663
| 17>  H        0.5567356035    -0.6470889043    -0.7479183958
| 18>  H        0.1347406537     0.0736735893     2.2175796448
| 19>  H       -3.0668089417    -0.8450736809    -1.5170086678
| 20>  H       -1.3746073640    -1.0005603289    -2.1862039781
| 21>  H       -0.8117518491    -2.6692177925    -0.3620448456
| 22>  H       -2.5090744805    -2.5152668697     0.2954363013
| 23>  H       -3.7571636564     1.1909258815     2.3141192717
| 24> *
| 25>
| 26>                          ****END OF INPUT****

CARTESIAN COORDINATES (ANGSTROEM)
---------------------------------
  C      0.115509    1.429174   -0.301939
  C      0.004304   -0.073794    0.003659
  C      0.653461   -0.380542    1.343333
  O      1.645783   -1.048554    1.482721
  C     -1.451479   -0.563439    0.004122
  C     -2.023327   -1.058317   -1.318752
  C     -1.692657   -2.048004   -0.241418
  C     -2.349867    0.116328    0.900921
  C     -3.096239    0.689713    1.651130
  H      1.163122    1.739986   -0.348380
  H     -0.354484    1.655434   -1.263628
  H     -0.389622    2.023397    0.465337
  H      0.556736   -0.647089   -0.747918
  H      0.134741    0.073674    2.217580
  H     -3.066809   -0.845074   -1.517009
  H     -1.374607   -1.000560   -2.186204
  H     -0.811752   -2.669218   -0.362045
  H     -2.509074   -2.515267    0.295436
  H     -3.757164    1.190926    2.314119

 Total Charge           Charge          ....    0
 Multiplicity           Mult            ....    1
 Number of Electrons    NEL             ....   66
 Basis Dimension        Dim             ....  339

ORBITAL ENERGIES
----------------

  NO   OCC          E(Eh)            E(eV)
   0   2.0000     -20.555657      -559.3479
   1   2.0000     -11.327521      -308.2375
   2   2.0000     -11.278377      -306.9002
   3   2.0000     -11.255829      -306.2867
   4   2.0000     -11.249611      -306.1175
   5   2.0000     -11.247485      -306.0596
   6   2.0000     -11.244308      -305.9732
   7   2.0000     -11.232158      -305.6425
   8   2.0000     -11.231307      -305.6194
   9   2.0000      -1.394168       -37.9372
  10   2.0000      -1.186657       -32.2906
  11   2.0000      -1.064720       -28.9725
  12   2.0000      -1.032087       -28.0845
  13   2.0000      -0.913412       -24.8552
  14   2.0000      -0.860212       -23.4076
  15   2.0000      -0.842643       -22.9295
  16   2.0000      -0.799246       -21.7486
  17   2.0000      -0.721085       -19.6217
  18   2.0000      -0.690068       -18.7777
  19   2.0000      -0.673895       -18.3376
  20   2.0000      -0.642769       -17.4906
  21   2.0000      -0.628071       -17.0907
  22   2.0000      -0.591333       -16.0910
  23   2.0000      -0.576074       -15.6758
  24   2.0000      -0.542402       -14.7595
  25   2.0000      -0.536320       -14.5940
  26   2.0000      -0.511626       -13.9220
  27   2.0000      -0.506273       -13.7764
  28   2.0000      -0.482642       -13.1334
  29   2.0000      -0.461188       -12.5496
  30   2.0000      -0.423182       -11.5154
  31   2.0000      -0.390043       -10.6136
  32   2.0000      -0.365671        -9.9504
  33   0.0000       0.127301         3.4640
  34   0.0000       0.144974         3.9449
  35   0.0000       0.146610         3.9894
  36   0.0000       0.161618         4.3978
  37   0.0000       0.166989         4.5440

MULLIKEN ATOMIC CHARGES
-----------------------
   0 C :   -0.424859
   1 C :    0.022881
   2 C :    0.067229
   3 O :   -0.262093
   4 C :   -0.092866
   5 C :   -0.264237
   6 C :   -0.259497
   7 C :   -0.038601
   8 C :   -0.128176
   9 H :    0.149026
  10 H :    0.141901
  11 H :    0.145846
  12 H :    0.084676
  13 H :    0.093295
  14 H :    0.144715
  15 H :    0.137010
  16 H :    0.147315
  17 H :    0.145067
  18 H :    0.191367
Sum of atomic charges:    0.0000000

LOEWDIN ATOMIC CHARGES
----------------------
   0 C :   -0.271753
   1 C :   -0.230210
   2 C :   -0.259394
   3 O :    0.134992
   4 C :   -0.216569
   5 C :   -0.179115
   6 C :   -0.176885
   7 C :   -0.073117
   8 C :   -0.093187
   9 H :    0.128759
  10 H :    0.131157
  11 H :    0.132234
  12 H :    0.164472
  13 H :    0.120475
  14 H :    0.140666
  15 H :    0.137592
  16 H :    0.141134
  17 H :    0.140924
  18 H :    0.127824

  Mayer bond orders larger than 0.1
B(  0-C ,  1-C ) :   0.9104 B(  0-C ,  9-H ) :   0.9363 B(  0-C , 10-H ) :   0.9321
B(  0-C , 11-H ) :   0.9227 B(  1-C ,  2-C ) :   0.8717 B(  1-C ,  4-C ) :   0.9163
B(  1-C , 12-H ) :   0.8828 B(  2-C ,  3-O ) :   1.9954 B(  2-C , 13-H ) :   0.9296
B(  4-C ,  5-C ) :   0.8387 B(  4-C ,  6-C ) :   0.8422 B(  4-C ,  7-C ) :   1.1816
B(  4-C ,  8-C ) :  -0.1404 B(  5-C ,  6-C ) :   0.9369 B(  5-C , 14-H ) :   0.9265
B(  5-C , 15-H ) :   0.9195 B(  6-C , 16-H ) :   0.9174 B(  6-C , 17-H ) :   0.9269
B(  7-C ,  8-C ) :   2.5571 B(  8-C , 18-H ) :   0.8905

MP2 TOTAL ENERGY:     -385.167551518 Eh
FINAL SINGLE POINT ENERGY      -385.167551517711

DIPOLE MOMENT
-------------
                                X             Y             Z
Electronic contribution:      1.08807      -1.76730       4.15857
Nuclear contribution   :     -1.86850       2.16453      -4.66313
                        -----------------------------------------
Total Dipole Moment    :     -0.78043       0.39722      -0.50456
                        -----------------------------------------
Magnitude (a.u.)       :      1.01067
Magnitude (Debye)      :      2.56891

                             ****ORCA TERMINATED NORMALLY****
TOTAL RUN TIME: 0 days 0 hours 20 minutes 12 seconds 735 msec
