                         Program Version 3.0.3 - RELEASE   -
|  1> ! RI-MP2 RIJK def2-TZVP def2-TZVP/C def2-TZVP/JK TIGHTSCF
|  2> % maxcore 2000
|  3> % mp2 density relaxed end
|  4> *xyz 0 1
|  5>  C        0.1341181707     1.3947663349     0.0588937975
|  6>  N        0.1254608721    -0.0548403175    -0.0079816771
|  7>  C        0.3781978212    -0.6405681842    -1.0971229836
|  8>  N        0.6180450932    -0.0136335569    -2.3515040621
|  9>  N        1.4273131101    -0.5836368290    -3.1212202367
| 10>  N        1.9532572330    -1.7705598407    -2.6678983502
| 11>  N        1.1493802193    -2.6183102971    -1.9163427148
| 12>  N        0.3414854509    -2.0645593765    -1.1421369172
| 13>  H        0.9291327223     1.7036927291     0.7472796266
| 14>  H        0.2723731950     1.9008061616    -0.9015080661
| 15>  H       -0.8103433645     1.7173630436     0.5100216831
| 16>  H        2.4368597668    -2.2718652673    -3.4032649794
| 17> *
| 18>
| 19>                          ****END OF INPUT****

CARTESIAN COORDINATES (ANGSTROEM)
---------------------------------
  C      0.134118    1.394766    0.058894
  N      0.125461   -0.054840   -0.007982
  C      0.378198   -0.640568   -1.097123
  N      0.618045   -0.013634   -2.351504
  N      1.427313   -0.583637   -3.121220
  N      1.953257   -1.770560   -2.667898
  N      1.149380   -2.618310   -1.916343
  N      0.341485   -2.064559   -1.142137
  H      0.929133    1.703693    0.747280
  H      0.272373    1.900806   -0.901508
  H     -0.810343    1.717363    0.510022
  H      2.436860   -2.271865   -3.403265

 Total Charge           Charge          ....    0
 Multiplicity           Mult            ....    1
 Number of Electrons    NEL             ....   58
 Basis Dimension        Dim             ....  272

ORBITAL ENERGIES
----------------

  NO   OCC          E(Eh)            E(eV)
   0   2.0000     -15.721351      -427.7997
   1   2.0000     -15.714050      -427.6010
   2   2.0000     -15.686669      -426.8560
   3   2.0000     -15.655380      -426.0045
   4   2.0000     -15.654383      -425.9774
   5   2.0000     -15.586254      -424.1235
   6   2.0000     -11.358178      -309.0717
   7   2.0000     -11.259861      -306.3964
   8   2.0000      -1.506137       -40.9841
   9   2.0000      -1.385796       -37.7094
  10   2.0000      -1.298161       -35.3247
  11   2.0000      -1.216493       -33.1025
  12   2.0000      -1.015819       -27.6418
  13   2.0000      -1.001411       -27.2498
  14   2.0000      -0.908978       -24.7345
  15   2.0000      -0.808449       -21.9990
  16   2.0000      -0.805569       -21.9206
  17   2.0000      -0.698754       -19.0140
  18   2.0000      -0.687842       -18.7171
  19   2.0000      -0.609055       -16.5732
  20   2.0000      -0.606205       -16.4957
  21   2.0000      -0.595173       -16.1955
  22   2.0000      -0.579964       -15.7816
  23   2.0000      -0.552710       -15.0400
  24   2.0000      -0.537613       -14.6292
  25   2.0000      -0.484751       -13.1908
  26   2.0000      -0.465657       -12.6712
  27   2.0000      -0.401712       -10.9311
  28   2.0000      -0.387524       -10.5451
  29   0.0000       0.061333         1.6690
  30   0.0000       0.078555         2.1376
  31   0.0000       0.130130         3.5410
  32   0.0000       0.155557         4.2329
  33   0.0000       0.201585         5.4854

MULLIKEN ATOMIC CHARGES
-----------------------
   0 C :   -0.285245
   1 N :   -0.184550
   2 C :    0.060648
   3 N :   -0.103290
   4 N :   -0.066648
   5 N :   -0.051892
   6 N :   -0.046838
   7 N :   -0.036194
   8 H :    0.147318
   9 H :    0.142952
  10 H :    0.150150
  11 H :    0.273588
Sum of atomic charges:    0.0000000

LOEWDIN ATOMIC CHARGES
----------------------
   0 C :   -0.322644
   1 N :    0.129847
   2 C :   -0.445512
   3 N :    0.052803
   4 N :   -0.007950
   5 N :   -0.034233
   6 N :   -0.000214
   7 N :    0.076807
   8 H :    0.126246
   9 H :    0.112808
  10 H :    0.126036
  11 H :    0.186006

  Mayer bond orders larger than 0.1
B(  0-C ,  1-N ) :   0.8659 B(  0-C ,  8-H ) :   0.9231 B(  0-C ,  9-H ) :   0.9268
B(  0-C , 10-H ) :   0.9298 B(  1-N ,  2-C ) :   1.9241 B(  2-C ,  3-N ) :   1.0194
B(  2-C ,  7-N ) :   1.0498 B(  3-N ,  4-N ) :   1.5035 B(  4-N ,  5-N ) :   0.9848
B(  5-N ,  6-N ) :   0.9478 B(  5-N , 11-H ) :   0.8655 B(  6-N ,  7-N ) :   1.5162

MP2 TOTAL ENERGY:     -406.241337113 Eh
FINAL SINGLE POINT ENERGY      -406.241337112826

DIPOLE MOMENT
-------------
                                X             Y             Z
Electronic contribution:      0.99442      -5.48659      -3.44319
Nuclear contribution   :     -0.27613       5.77382       2.90561
                        -----------------------------------------
Total Dipole Moment    :      0.71829       0.28722      -0.53757
                        -----------------------------------------
Magnitude (a.u.)       :      0.94203
Magnitude (Debye)      :      2.39445

                             ****ORCA TERMINATED NORMALLY****
TOTAL RUN TIME: 0 days 0 hours 9 minutes 28 seconds 556 msec
