                         Program Version 3.0.3 - RELEASE   -
|  1> ! RI-MP2 RIJK def2-TZVP def2-TZVP/C def2-TZVP/JK TIGHTSCF
|  2> % maxcore 2000
|  3> % mp2 density relaxed end
|  4> *xyz 0 1
|  5>  O        0.0184181593     0.0334879326    -0.0863588687
|  6>  C        0.0164529677     1.2191119179     0.0517538336
|  7>  C       -1.1127109782     2.2815075204     0.1566364673
|  8>  C       -0.0208964188     3.3472102336    -0.0293288376
|  9>  C        0.9768283571     3.2726153876     1.0880298793
| 10>  C        0.6177171133     2.8827498579     2.4291012483
| 11>  N        0.3205921562     2.5843811423     3.5060647894
| 12>  C        1.0894551785     2.2761286643    -0.0705435755
| 13>  H       -1.7863711876     2.1911563206    -0.6995441107
| 14>  H       -1.6952250025     2.3206089939     1.0797387241
| 15>  H       -0.0981524819     4.2304124700    -0.6484770523
| 16>  H        1.7554320286     4.0292548623     1.0567067924
| 17>  H        2.0070851183     2.2174052866    -0.6423450597
| 18> *
| 19>
| 20>                          ****END OF INPUT****

CARTESIAN COORDINATES (ANGSTROEM)
---------------------------------
  O      0.018418    0.033488   -0.086359
  C      0.016453    1.219112    0.051754
  C     -1.112711    2.281508    0.156636
  C     -0.020896    3.347210   -0.029329
  C      0.976828    3.272615    1.088030
  C      0.617717    2.882750    2.429101
  N      0.320592    2.584381    3.506065
  C      1.089455    2.276129   -0.070544
  H     -1.786371    2.191156   -0.699544
  H     -1.695225    2.320609    1.079739
  H     -0.098152    4.230412   -0.648477
  H      1.755432    4.029255    1.056707
  H      2.007085    2.217405   -0.642345

 Total Charge           Charge          ....    0
 Multiplicity           Mult            ....    1
 Number of Electrons    NEL             ....   56
 Basis Dimension        Dim             ....  278

ORBITAL ENERGIES
----------------

  NO   OCC          E(Eh)            E(eV)
   0   2.0000     -20.568511      -559.6976
   1   2.0000     -15.583518      -424.0491
   2   2.0000     -11.357577      -309.0554
   3   2.0000     -11.317642      -307.9687
   4   2.0000     -11.298073      -307.4362
   5   2.0000     -11.289804      -307.2112
   6   2.0000     -11.287010      -307.1352
   7   2.0000     -11.268743      -306.6381
   8   2.0000      -1.414260       -38.4840
   9   2.0000      -1.255958       -34.1763
  10   2.0000      -1.219817       -33.1929
  11   2.0000      -1.032417       -28.0935
  12   2.0000      -0.932858       -25.3844
  13   2.0000      -0.882988       -24.0273
  14   2.0000      -0.765368       -20.8267
  15   2.0000      -0.724218       -19.7070
  16   2.0000      -0.712172       -19.3792
  17   2.0000      -0.663577       -18.0569
  18   2.0000      -0.629845       -17.1390
  19   2.0000      -0.604523       -16.4499
  20   2.0000      -0.571993       -15.5647
  21   2.0000      -0.570361       -15.5203
  22   2.0000      -0.544526       -14.8173
  23   2.0000      -0.516341       -14.0504
  24   2.0000      -0.487438       -13.2639
  25   2.0000      -0.448283       -12.1984
  26   2.0000      -0.443342       -12.0639
  27   2.0000      -0.419580       -11.4174
  28   0.0000       0.106234         2.8908
  29   0.0000       0.135422         3.6850
  30   0.0000       0.145075         3.9477
  31   0.0000       0.150617         4.0985
  32   0.0000       0.154194         4.1958

MULLIKEN ATOMIC CHARGES
-----------------------
   0 O :   -0.237081
   1 C :    0.133092
   2 C :   -0.226829
   3 C :   -0.102709
   4 C :   -0.051995
   5 C :   -0.172678
   6 N :   -0.047857
   7 C :   -0.099011
   8 H :    0.148212
   9 H :    0.160412
  10 H :    0.162829
  11 H :    0.168780
  12 H :    0.164833
Sum of atomic charges:   -0.0000000

LOEWDIN ATOMIC CHARGES
----------------------
   0 O :    0.180498
   1 C :   -0.299186
   2 C :   -0.172846
   3 C :   -0.124361
   4 C :   -0.170694
   5 C :   -0.170390
   6 N :    0.075403
   7 C :   -0.094885
   8 H :    0.152988
   9 H :    0.146720
  10 H :    0.146349
  11 H :    0.181656
  12 H :    0.148747

  Mayer bond orders larger than 0.1
B(  0-O ,  1-C ) :   2.0398 B(  1-C ,  2-C ) :   0.9302 B(  1-C ,  7-C ) :   0.8881
B(  2-C ,  3-C ) :   0.9359 B(  2-C ,  7-C ) :  -0.1134 B(  2-C ,  8-H ) :   0.9036
B(  2-C ,  9-H ) :   0.8976 B(  3-C ,  4-C ) :   0.8709 B(  3-C ,  7-C ) :   0.8344
B(  3-C , 10-H ) :   0.9112 B(  4-C ,  5-C ) :   0.9783 B(  4-C ,  7-C ) :   0.8084
B(  4-C , 11-H ) :   0.9054 B(  5-C ,  6-N ) :   2.8257 B(  7-C , 12-H ) :   0.9044

MP2 TOTAL ENERGY:     -360.834555336 Eh
FINAL SINGLE POINT ENERGY      -360.834555336149

DIPOLE MOMENT
-------------
                                X             Y             Z
Electronic contribution:      1.12885      -2.28907       2.44419
Nuclear contribution   :     -0.87281       3.72473      -3.86603
                        -----------------------------------------
Total Dipole Moment    :      0.25604       1.43566      -1.42184
                        -----------------------------------------
Magnitude (a.u.)       :      2.03674
Magnitude (Debye)      :      5.17698

                             ****ORCA TERMINATED NORMALLY****
TOTAL RUN TIME: 0 days 0 hours 10 minutes 12 seconds 756 msec
