                         Program Version 3.0.3 - RELEASE   -
|  1> ! RI-MP2 RIJK def2-TZVP def2-TZVP/C def2-TZVP/JK TIGHTSCF
|  2> % maxcore 2000
|  3> % mp2 density relaxed end
|  4> *xyz 0 1
|  5>  C       -0.2985367194     1.4344973810    -0.0799493211
|  6>  C       -0.0493515534    -0.0686510369    -0.0486937849
|  7>  C        1.1625537331    -0.5365439131    -0.9466760437
|  8>  O        1.6592425940     0.3241549340    -1.9342308976
|  9>  C        1.9758508314    -0.6838395290     0.3482883566
| 10>  O        3.1589486841    -0.6898614375     0.5644591946
| 11>  C        0.7375593539    -0.5747277174     1.1834320029
| 12>  C        0.6714786148    -0.1702819229     2.6353495447
| 13>  C        0.3197696934    -1.5713322983     2.2471239809
| 14>  H        0.6182996749     1.9944760677     0.1285370061
| 15>  H       -0.6576775462     1.7459173179    -1.0645638032
| 16>  H       -1.0464086525     1.7221183025     0.6660319932
| 17>  H       -0.9711610511    -0.6188864452    -0.2552513186
| 18>  H        0.9480768597    -1.5284675262    -1.3720875643
| 19>  H        2.5776470787     0.5153811122    -1.7095483392
| 20>  H        1.6206992243     0.0069242070     3.1300480306
| 21>  H       -0.1297170363     0.5017158473     2.9238780822
| 22>  H       -0.7256325210    -1.8623569164     2.2550592999
| 23>  H        1.0176787374    -2.3671832368     2.4847312709
| 24> *
| 25>
| 26>                          ****END OF INPUT****

CARTESIAN COORDINATES (ANGSTROEM)
---------------------------------
  C     -0.298537    1.434497   -0.079949
  C     -0.049352   -0.068651   -0.048694
  C      1.162554   -0.536544   -0.946676
  O      1.659243    0.324155   -1.934231
  C      1.975851   -0.683840    0.348288
  O      3.158949   -0.689861    0.564459
  C      0.737559   -0.574728    1.183432
  C      0.671479   -0.170282    2.635350
  C      0.319770   -1.571332    2.247124
  H      0.618300    1.994476    0.128537
  H     -0.657678    1.745917   -1.064564
  H     -1.046409    1.722118    0.666032
  H     -0.971161   -0.618886   -0.255251
  H      0.948077   -1.528468   -1.372088
  H      2.577647    0.515381   -1.709548
  H      1.620699    0.006924    3.130048
  H     -0.129717    0.501716    2.923878
  H     -0.725633   -1.862357    2.255059
  H      1.017679   -2.367183    2.484731

 Total Charge           Charge          ....    0
 Multiplicity           Mult            ....    1
 Number of Electrons    NEL             ....   68
 Basis Dimension        Dim             ....  339

ORBITAL ENERGIES
----------------

  NO   OCC          E(Eh)            E(eV)
   0   2.0000     -20.569445      -559.7231
   1   2.0000     -20.559390      -559.4494
   2   2.0000     -11.334150      -308.4179
   3   2.0000     -11.295006      -307.3528
   4   2.0000     -11.253815      -306.2319
   5   2.0000     -11.252081      -306.1847
   6   2.0000     -11.248839      -306.0965
   7   2.0000     -11.247694      -306.0653
   8   2.0000     -11.222273      -305.3736
   9   2.0000      -1.404086       -38.2071
  10   2.0000      -1.373748       -37.3816
  11   2.0000      -1.184032       -32.2191
  12   2.0000      -1.089398       -29.6440
  13   2.0000      -0.977651       -26.6032
  14   2.0000      -0.857643       -23.3377
  15   2.0000      -0.842921       -22.9370
  16   2.0000      -0.819746       -22.3064
  17   2.0000      -0.732745       -19.9390
  18   2.0000      -0.693531       -18.8719
  19   2.0000      -0.680946       -18.5295
  20   2.0000      -0.671884       -18.2829
  21   2.0000      -0.645580       -17.5671
  22   2.0000      -0.603381       -16.4188
  23   2.0000      -0.579054       -15.7569
  24   2.0000      -0.571831       -15.5603
  25   2.0000      -0.542386       -14.7591
  26   2.0000      -0.535269       -14.5654
  27   2.0000      -0.532633       -14.4937
  28   2.0000      -0.523472       -14.2444
  29   2.0000      -0.489934       -13.3318
  30   2.0000      -0.470794       -12.8110
  31   2.0000      -0.426062       -11.5937
  32   2.0000      -0.418614       -11.3911
  33   2.0000      -0.394794       -10.7429
  34   0.0000       0.111012         3.0208
  35   0.0000       0.139476         3.7953
  36   0.0000       0.148287         4.0351
  37   0.0000       0.160142         4.3577
  38   0.0000       0.173072         4.7095

MULLIKEN ATOMIC CHARGES
-----------------------
   0 C :   -0.433565
   1 C :    0.042652
   2 C :    0.083266
   3 O :   -0.478200
   4 C :    0.032538
   5 O :   -0.264830
   6 C :    0.001836
   7 C :   -0.248119
   8 C :   -0.280356
   9 H :    0.128571
  10 H :    0.146793
  11 H :    0.128223
  12 H :    0.110927
  13 H :    0.119859
  14 H :    0.337077
  15 H :    0.147488
  16 H :    0.141325
  17 H :    0.137651
  18 H :    0.146864
Sum of atomic charges:    0.0000000

LOEWDIN ATOMIC CHARGES
----------------------
   0 C :   -0.287015
   1 C :   -0.188031
   2 C :   -0.270941
   3 O :   -0.002594
   4 C :   -0.283845
   5 O :    0.152039
   6 C :   -0.176637
   7 C :   -0.186461
   8 C :   -0.183322
   9 H :    0.128551
  10 H :    0.130479
  11 H :    0.123460
  12 H :    0.144812
  13 H :    0.148258
  14 H :    0.188433
  15 H :    0.143630
  16 H :    0.139872
  17 H :    0.138594
  18 H :    0.140720

  Mayer bond orders larger than 0.1
B(  0-C ,  1-C ) :   0.8801 B(  0-C ,  9-H ) :   0.9304 B(  0-C , 10-H ) :   0.9353
B(  0-C , 11-H ) :   0.9381 B(  1-C ,  2-C ) :   0.8621 B(  1-C ,  6-C ) :   0.8829
B(  1-C , 12-H ) :   0.9072 B(  2-C ,  3-O ) :   1.0112 B(  2-C ,  4-C ) :   0.9097
B(  2-C ,  6-C ) :  -0.1039 B(  2-C , 13-H ) :   0.9111 B(  3-O , 14-H ) :   0.8289
B(  4-C ,  5-O ) :   2.0638 B(  4-C ,  6-C ) :   0.9007 B(  6-C ,  7-C ) :   0.7996
B(  6-C ,  8-C ) :   0.8029 B(  7-C ,  8-C ) :   0.9668 B(  7-C , 15-H ) :   0.9202
B(  7-C , 16-H ) :   0.9256 B(  8-C , 17-H ) :   0.9243 B(  8-C , 18-H ) :   0.9225

MP2 TOTAL ENERGY:     -422.308480715 Eh
FINAL SINGLE POINT ENERGY      -422.308480715014

DIPOLE MOMENT
-------------
                                X             Y             Z
Electronic contribution:      6.09363      -2.57708      -2.54216
Nuclear contribution   :     -6.92273       2.47089       3.03288
                        -----------------------------------------
Total Dipole Moment    :     -0.82911      -0.10619       0.49072
                        -----------------------------------------
Magnitude (a.u.)       :      0.96928
Magnitude (Debye)      :      2.46371

                             ****ORCA TERMINATED NORMALLY****
TOTAL RUN TIME: 0 days 0 hours 17 minutes 51 seconds 477 msec
