                         Program Version 3.0.3 - RELEASE   -
|  1> ! RI-MP2 RIJK def2-TZVP def2-TZVP/C def2-TZVP/JK TIGHTSCF
|  2> % maxcore 2000
|  3> % mp2 density relaxed end
|  4> *xyz 0 1
|  5>  C       -0.0579617777     1.4374215526     0.0549140956
|  6>  C        1.3201075646     0.8145065036     0.0094100318
|  7>  C        2.0175472916     0.5033867346     1.3202414913
|  8>  O        1.0765573915    -0.2288163115     2.1129509813
|  9>  C        0.1150174061    -0.8376901265     1.2669617035
| 10>  C        0.4511215055    -2.2367271058     0.7176072411
| 11>  O       -0.2282716696    -2.3205990064    -0.5311004443
| 12>  C       -0.3246562228    -1.0169177305    -1.1220242834
| 13>  C        0.0819828322    -0.0493437690    -0.0335265429
| 14>  H       -0.4103501192     1.8602499835     0.9920811009
| 15>  H       -0.3818006266     1.9743288514    -0.8310477466
| 16>  H        1.9270106998     0.9605553305    -0.8773182619
| 17>  H        2.9226784471    -0.0927839210     1.1287925185
| 18>  H        2.3107379062     1.3846672436     1.9018600209
| 19>  H       -0.8323800605    -0.8478922580     1.8170427138
| 20>  H        1.5421498045    -2.3350280782     0.5965187580
| 21>  H        0.0964916502    -3.0584113865     1.3449252142
| 22>  H        0.3245952267    -0.9483707673    -2.0065668948
| 23>  H       -1.3613886595    -0.8741383191    -1.4511870469
| 24> *
| 25>
| 26>                          ****END OF INPUT****

CARTESIAN COORDINATES (ANGSTROEM)
---------------------------------
  C     -0.057962    1.437422    0.054914
  C      1.320108    0.814507    0.009410
  C      2.017547    0.503387    1.320241
  O      1.076557   -0.228816    2.112951
  C      0.115017   -0.837690    1.266962
  C      0.451122   -2.236727    0.717607
  O     -0.228272   -2.320599   -0.531100
  C     -0.324656   -1.016918   -1.122024
  C      0.081983   -0.049344   -0.033527
  H     -0.410350    1.860250    0.992081
  H     -0.381801    1.974329   -0.831048
  H      1.927011    0.960555   -0.877318
  H      2.922678   -0.092784    1.128793
  H      2.310738    1.384667    1.901860
  H     -0.832380   -0.847892    1.817043
  H      1.542150   -2.335028    0.596519
  H      0.096492   -3.058411    1.344925
  H      0.324595   -0.948371   -2.006567
  H     -1.361389   -0.874138   -1.451187

 Total Charge           Charge          ....    0
 Multiplicity           Mult            ....    1
 Number of Electrons    NEL             ....   68
 Basis Dimension        Dim             ....  339

ORBITAL ENERGIES
----------------

  NO   OCC          E(Eh)            E(eV)
   0   2.0000     -20.558446      -559.4238
   1   2.0000     -20.554213      -559.3086
   2   2.0000     -11.281439      -306.9835
   3   2.0000     -11.281385      -306.9821
   4   2.0000     -11.281340      -306.9809
   5   2.0000     -11.272374      -306.7369
   6   2.0000     -11.241798      -305.9049
   7   2.0000     -11.239997      -305.8559
   8   2.0000     -11.238691      -305.8203
   9   2.0000      -1.390114       -37.8269
  10   2.0000      -1.368514       -37.2392
  11   2.0000      -1.161031       -31.5933
  12   2.0000      -1.021947       -27.8086
  13   2.0000      -0.977625       -26.6025
  14   2.0000      -0.924055       -25.1448
  15   2.0000      -0.828722       -22.5507
  16   2.0000      -0.793882       -21.6026
  17   2.0000      -0.767701       -20.8902
  18   2.0000      -0.692571       -18.8458
  19   2.0000      -0.683853       -18.6086
  20   2.0000      -0.646189       -17.5837
  21   2.0000      -0.640565       -17.4307
  22   2.0000      -0.620519       -16.8852
  23   2.0000      -0.587448       -15.9853
  24   2.0000      -0.572582       -15.5808
  25   2.0000      -0.564540       -15.3619
  26   2.0000      -0.546160       -14.8618
  27   2.0000      -0.526759       -14.3338
  28   2.0000      -0.488541       -13.2939
  29   2.0000      -0.474237       -12.9046
  30   2.0000      -0.442142       -12.0313
  31   2.0000      -0.428193       -11.6517
  32   2.0000      -0.405592       -11.0367
  33   2.0000      -0.391638       -10.6570
  34   0.0000       0.139020         3.7829
  35   0.0000       0.159360         4.3364
  36   0.0000       0.164429         4.4744
  37   0.0000       0.170758         4.6466
  38   0.0000       0.189235         5.1493

MULLIKEN ATOMIC CHARGES
-----------------------
   0 C :   -0.290905
   1 C :   -0.143210
   2 C :   -0.058809
   3 O :   -0.332400
   4 C :    0.074918
   5 C :   -0.061308
   6 O :   -0.317163
   7 C :   -0.018502
   8 C :   -0.003499
   9 H :    0.141600
  10 H :    0.137810
  11 H :    0.135608
  12 H :    0.101050
  13 H :    0.116996
  14 H :    0.104726
  15 H :    0.089734
  16 H :    0.120065
  17 H :    0.094575
  18 H :    0.108715
Sum of atomic charges:   -0.0000000

LOEWDIN ATOMIC CHARGES
----------------------
   0 C :   -0.175344
   1 C :   -0.185331
   2 C :   -0.277021
   3 O :    0.173339
   4 C :   -0.267301
   5 C :   -0.276502
   6 O :    0.142269
   7 C :   -0.250656
   8 C :   -0.216001
   9 H :    0.142828
  10 H :    0.139571
  11 H :    0.148133
  12 H :    0.123994
  13 H :    0.128323
  14 H :    0.146266
  15 H :    0.123184
  16 H :    0.126646
  17 H :    0.125322
  18 H :    0.128280

  Mayer bond orders larger than 0.1
B(  0-C ,  1-C ) :   0.9106 B(  0-C ,  8-C ) :   0.8537 B(  0-C ,  9-H ) :   0.9058
B(  0-C , 10-H ) :   0.9257 B(  1-C ,  2-C ) :   0.9623 B(  1-C ,  8-C ) :   0.8374
B(  1-C , 11-H ) :   0.9101 B(  2-C ,  3-O ) :   0.9303 B(  2-C , 12-H ) :   0.9263
B(  2-C , 13-H ) :   0.9204 B(  3-O ,  4-C ) :   0.9402 B(  4-C ,  5-C ) :   0.9069
B(  4-C ,  8-C ) :   0.9298 B(  4-C , 14-H ) :   0.9193 B(  5-C ,  6-O ) :   0.9325
B(  5-C , 15-H ) :   0.9135 B(  5-C , 16-H ) :   0.9296 B(  6-O ,  7-C ) :   0.9533
B(  7-C ,  8-C ) :   0.9465 B(  7-C , 17-H ) :   0.9192 B(  7-C , 18-H ) :   0.9185

MP2 TOTAL ENERGY:     -422.310601570 Eh
FINAL SINGLE POINT ENERGY      -422.310601569551

DIPOLE MOMENT
-------------
                                X             Y             Z
Electronic contribution:     -0.86694      -1.91629       1.21887
Nuclear contribution   :      1.06825       2.54053      -1.59130
                        -----------------------------------------
Total Dipole Moment    :      0.20131       0.62424      -0.37243
                        -----------------------------------------
Magnitude (a.u.)       :      0.75426
Magnitude (Debye)      :      1.91718

                             ****ORCA TERMINATED NORMALLY****
TOTAL RUN TIME: 0 days 0 hours 17 minutes 47 seconds 309 msec
