                         Program Version 3.0.3 - RELEASE   -
|  1> ! RI-MP2 RIJK def2-TZVP def2-TZVP/C def2-TZVP/JK TIGHTSCF
|  2> % maxcore 2000
|  3> % mp2 density relaxed end
|  4> *xyz 0 1
|  5>  C        0.1710049372     1.6676259458    -0.0314426226
|  6>  C       -0.0906566598     0.1503736468    -0.0097773245
|  7>  C        0.5281206716    -0.5796871282    -1.1956717497
|  8>  O       -0.0814139465    -0.0630989043    -2.3807323710
|  9>  C        0.3767165820    -0.5537912618    -3.5486005959
| 10>  N       -0.1177356508    -0.1520306398    -4.6377884310
| 11>  C        0.3849561975    -0.4445327817     1.2985300751
| 12>  O        1.1588618367    -1.3634006410     1.3965558049
| 13>  H        1.2447705627     1.8799480972     0.0089563265
| 14>  H       -0.2297451210     2.0994641930    -0.9500885514
| 15>  H       -0.3051661049     2.1617920998     0.8208868848
| 16>  H       -1.1807095853    -0.0006164538    -0.0403090774
| 17>  H        1.6130677910    -0.4154447525    -1.2199561786
| 18>  H        0.3537220905    -1.6584233524    -1.1136825818
| 19>  H        1.1794046440    -1.2948526596    -3.4290903945
| 20>  H        0.3386983953    -0.6186240566    -5.4187703226
| 21>  H       -0.0376639601     0.0489365991     2.2036154598
| 22> *
| 23>
| 24>                          ****END OF INPUT****

CARTESIAN COORDINATES (ANGSTROEM)
---------------------------------
  C      0.171005    1.667626   -0.031443
  C     -0.090657    0.150374   -0.009777
  C      0.528121   -0.579687   -1.195672
  O     -0.081414   -0.063099   -2.380732
  C      0.376717   -0.553791   -3.548601
  N     -0.117736   -0.152031   -4.637788
  C      0.384956   -0.444533    1.298530
  O      1.158862   -1.363401    1.396556
  H      1.244771    1.879948    0.008956
  H     -0.229745    2.099464   -0.950089
  H     -0.305166    2.161792    0.820887
  H     -1.180710   -0.000616   -0.040309
  H      1.613068   -0.415445   -1.219956
  H      0.353722   -1.658423   -1.113683
  H      1.179405   -1.294853   -3.429090
  H      0.338698   -0.618624   -5.418770
  H     -0.037664    0.048937    2.203615

 Total Charge           Charge          ....    0
 Multiplicity           Mult            ....    1
 Number of Electrons    NEL             ....   62
 Basis Dimension        Dim             ....  302

ORBITAL ENERGIES
----------------

  NO   OCC          E(Eh)            E(eV)
   0   2.0000     -20.596191      -560.4509
   1   2.0000     -20.569598      -559.7272
   2   2.0000     -15.542984      -422.9461
   3   2.0000     -11.343572      -308.6743
   4   2.0000     -11.341115      -308.6074
   5   2.0000     -11.302220      -307.5490
   6   2.0000     -11.261079      -306.4295
   7   2.0000     -11.238693      -305.8204
   8   2.0000      -1.432825       -38.9891
   9   2.0000      -1.408991       -38.3406
  10   2.0000      -1.202535       -32.7227
  11   2.0000      -1.099964       -29.9316
  12   2.0000      -0.959402       -26.1067
  13   2.0000      -0.900779       -24.5114
  14   2.0000      -0.830435       -22.5973
  15   2.0000      -0.784351       -21.3433
  16   2.0000      -0.726310       -19.7639
  17   2.0000      -0.686915       -18.6919
  18   2.0000      -0.681383       -18.5414
  19   2.0000      -0.667728       -18.1698
  20   2.0000      -0.630676       -17.1616
  21   2.0000      -0.606905       -16.5147
  22   2.0000      -0.580361       -15.7924
  23   2.0000      -0.554024       -15.0758
  24   2.0000      -0.547562       -14.8999
  25   2.0000      -0.527851       -14.3636
  26   2.0000      -0.503155       -13.6916
  27   2.0000      -0.496037       -13.4979
  28   2.0000      -0.441395       -12.0110
  29   2.0000      -0.430041       -11.7020
  30   2.0000      -0.405113       -11.0237
  31   0.0000       0.117874         3.2075
  32   0.0000       0.136767         3.7216
  33   0.0000       0.143931         3.9166
  34   0.0000       0.151891         4.1332
  35   0.0000       0.166315         4.5257

MULLIKEN ATOMIC CHARGES
-----------------------
   0 C :   -0.429471
   1 C :   -0.004453
   2 C :   -0.106117
   3 O :   -0.215984
   4 C :    0.065035
   5 N :   -0.344121
   6 C :    0.080090
   7 O :   -0.269335
   8 H :    0.130962
   9 H :    0.172838
  10 H :    0.139260
  11 H :    0.115167
  12 H :    0.121566
  13 H :    0.136338
  14 H :    0.088515
  15 H :    0.225806
  16 H :    0.093904
Sum of atomic charges:   -0.0000000

LOEWDIN ATOMIC CHARGES
----------------------
   0 C :   -0.280886
   1 C :   -0.287465
   2 C :   -0.276295
   3 O :    0.239333
   4 C :   -0.401606
   5 N :   -0.081548
   6 C :   -0.269213
   7 O :    0.136675
   8 H :    0.127479
   9 H :    0.135707
  10 H :    0.126735
  11 H :    0.171811
  12 H :    0.131540
  13 H :    0.133418
  14 H :    0.109073
  15 H :    0.168202
  16 H :    0.117040

  Mayer bond orders larger than 0.1
B(  0-C ,  1-C ) :   0.9053 B(  0-C ,  8-H ) :   0.9269 B(  0-C ,  9-H ) :   0.9288
B(  0-C , 10-H ) :   0.9328 B(  1-C ,  2-C ) :   0.9434 B(  1-C ,  6-C ) :   0.8710
B(  1-C , 11-H ) :   0.9007 B(  2-C ,  3-O ) :   0.8849 B(  2-C , 12-H ) :   0.9157
B(  2-C , 13-H ) :   0.9198 B(  3-O ,  4-C ) :   1.0546 B(  4-C ,  5-N ) :   1.9539
B(  4-C , 14-H ) :   0.9299 B(  5-N , 15-H ) :   0.8509 B(  6-C ,  7-O ) :   1.9867
B(  6-C , 16-H ) :   0.9489

MP2 TOTAL ENERGY:     -400.348469655 Eh
FINAL SINGLE POINT ENERGY      -400.348469654779

DIPOLE MOMENT
-------------
                                X             Y             Z
Electronic contribution:      0.06364      -3.52960      -0.73120
Nuclear contribution   :      0.22677       3.50590       1.09265
                        -----------------------------------------
Total Dipole Moment    :      0.29041      -0.02370       0.36145
                        -----------------------------------------
Magnitude (a.u.)       :      0.46427
Magnitude (Debye)      :      1.18008

                             ****ORCA TERMINATED NORMALLY****
TOTAL RUN TIME: 0 days 0 hours 10 minutes 16 seconds 746 msec
