                         Program Version 3.0.3 - RELEASE   -
|  1> ! RI-MP2 RIJK def2-TZVP def2-TZVP/C def2-TZVP/JK TIGHTSCF
|  2> % maxcore 2000
|  3> % mp2 density relaxed end
|  4> *xyz 0 1
|  5>  N       -0.0843048398     1.5076382687     0.1141079944
|  6>  C       -0.0369114117     0.0430568102     0.0365002912
|  7>  C        0.7098155787    -0.4717626473     1.1952475144
|  8>  C        1.3667641585    -0.8968274072     2.1053996591
|  9>  C       -1.4126611604    -0.4778979209     0.0462598112
| 10>  C       -2.5306039245    -0.9120392672     0.0081848275
| 11>  C        0.6964585544    -0.5028155157    -1.2545724059
| 12>  C        0.1178671140     0.0465333581    -2.4753454789
| 13>  N       -0.3434819518     0.5149788043    -3.4257105663
| 14>  H        0.8604038219     1.8815719518     0.1097521961
| 15>  H       -0.5745276557     1.8742610441    -0.6976033440
| 16>  H        1.9251107907    -1.2689667268     2.9292784224
| 17>  H       -3.5239104318    -1.2886383102    -0.0125766030
| 18>  H        1.7516965233    -0.2176376827    -1.1955087699
| 19>  H        0.6465093741    -1.5951262792    -1.2765423985
| 20> *
| 21>
| 22>                          ****END OF INPUT****

CARTESIAN COORDINATES (ANGSTROEM)
---------------------------------
  N     -0.084305    1.507638    0.114108
  C     -0.036911    0.043057    0.036500
  C      0.709816   -0.471763    1.195248
  C      1.366764   -0.896827    2.105400
  C     -1.412661   -0.477898    0.046260
  C     -2.530604   -0.912039    0.008185
  C      0.696459   -0.502816   -1.254572
  C      0.117867    0.046533   -2.475345
  N     -0.343482    0.514979   -3.425711
  H      0.860404    1.881572    0.109752
  H     -0.574528    1.874261   -0.697603
  H      1.925111   -1.268967    2.929278
  H     -3.523910   -1.288638   -0.012577
  H      1.751697   -0.217638   -1.195509
  H      0.646509   -1.595126   -1.276542

 Total Charge           Charge          ....    0
 Multiplicity           Mult            ....    1
 Number of Electrons    NEL             ....   62
 Basis Dimension        Dim             ....  315

ORBITAL ENERGIES
----------------

  NO   OCC          E(Eh)            E(eV)
   0   2.0000     -15.580701      -423.9724
   1   2.0000     -15.574783      -423.8114
   2   2.0000     -11.356103      -309.0153
   3   2.0000     -11.301242      -307.5224
   4   2.0000     -11.283843      -307.0490
   5   2.0000     -11.257569      -306.3340
   6   2.0000     -11.251534      -306.1698
   7   2.0000     -11.250221      -306.1341
   8   2.0000     -11.245061      -305.9937
   9   2.0000      -1.248959       -33.9859
  10   2.0000      -1.223601       -33.2959
  11   2.0000      -1.093540       -29.7567
  12   2.0000      -1.043004       -28.3816
  13   2.0000      -1.037503       -28.2319
  14   2.0000      -0.934430       -25.4271
  15   2.0000      -0.791226       -21.5304
  16   2.0000      -0.731233       -19.8979
  17   2.0000      -0.719588       -19.5810
  18   2.0000      -0.698949       -19.0194
  19   2.0000      -0.669088       -18.2068
  20   2.0000      -0.650582       -17.7032
  21   2.0000      -0.623671       -16.9710
  22   2.0000      -0.604293       -16.4436
  23   2.0000      -0.564276       -15.3547
  24   2.0000      -0.479239       -13.0408
  25   2.0000      -0.470735       -12.8093
  26   2.0000      -0.441984       -12.0270
  27   2.0000      -0.426151       -11.5962
  28   2.0000      -0.419713       -11.4210
  29   2.0000      -0.408152       -11.1064
  30   2.0000      -0.402638       -10.9563
  31   0.0000       0.110972         3.0197
  32   0.0000       0.137655         3.7458
  33   0.0000       0.142214         3.8698
  34   0.0000       0.149473         4.0674
  35   0.0000       0.153835         4.1861

MULLIKEN ATOMIC CHARGES
-----------------------
   0 N :   -0.517021
   1 C :   -0.110539
   2 C :   -0.025243
   3 C :   -0.092101
   4 C :   -0.033423
   5 C :   -0.105849
   6 C :   -0.085017
   7 C :   -0.217590
   8 N :   -0.040813
   9 H :    0.237104
  10 H :    0.254530
  11 H :    0.202361
  12 H :    0.200987
  13 H :    0.162067
  14 H :    0.170547
Sum of atomic charges:   -0.0000000

LOEWDIN ATOMIC CHARGES
----------------------
   0 N :   -0.078323
   1 C :   -0.325542
   2 C :   -0.050815
   3 C :   -0.063771
   4 C :   -0.049839
   5 C :   -0.057059
   6 C :   -0.185080
   7 C :   -0.195466
   8 N :    0.066885
   9 H :    0.164582
  10 H :    0.168848
  11 H :    0.131717
  12 H :    0.131892
  13 H :    0.168510
  14 H :    0.173462

  Mayer bond orders larger than 0.1
B(  0-N ,  1-C ) :   0.8850 B(  0-N ,  9-H ) :   0.8709 B(  0-N , 10-H ) :   0.8689
B(  1-C ,  2-C ) :   1.1735 B(  1-C ,  3-C ) :  -0.1220 B(  1-C ,  4-C ) :   1.1531
B(  1-C ,  5-C ) :  -0.1083 B(  1-C ,  6-C ) :   0.9229 B(  2-C ,  3-C ) :   2.5439
B(  3-C , 11-H ) :   0.8741 B(  4-C ,  5-C ) :   2.5639 B(  5-C , 12-H ) :   0.8782
B(  6-C ,  7-C ) :   0.9086 B(  6-C , 13-H ) :   0.9021 B(  6-C , 14-H ) :   0.8956
B(  7-C ,  8-N ) :   2.8645

MP2 TOTAL ENERGY:     -378.912107477 Eh
FINAL SINGLE POINT ENERGY      -378.912107477082

DIPOLE MOMENT
-------------
                                X             Y             Z
Electronic contribution:     -1.11969      -0.50702      -1.44966
Nuclear contribution   :      1.87427      -0.06964       2.26280
                        -----------------------------------------
Total Dipole Moment    :      0.75459      -0.57665       0.81314
                        -----------------------------------------
Magnitude (a.u.)       :      1.25025
Magnitude (Debye)      :      3.17789

                             ****ORCA TERMINATED NORMALLY****
TOTAL RUN TIME: 0 days 0 hours 15 minutes 40 seconds 833 msec
