                         Program Version 3.0.3 - RELEASE   -
|  1> ! RI-MP2 RIJK def2-TZVP def2-TZVP/C def2-TZVP/JK TIGHTSCF
|  2> % maxcore 2000
|  3> % mp2 density relaxed end
|  4> *xyz 0 1
|  5>  C        0.0417479547     1.5113043571    -0.0201663797
|  6>  C        0.0441772430     0.0562255278     0.0292617509
|  7>  C        0.0446207804    -1.1464530389     0.0790355378
|  8>  C        0.0327579356    -2.6038156276     0.1237481100
|  9>  C       -1.3722055785    -3.2160007313     0.0069282471
| 10>  C       -1.3798466760    -4.7514055596    -0.0414623128
| 11>  C       -2.7258338846    -5.0887784039     0.6128754529
| 12>  C       -2.8284456461    -3.9916344723     1.6785589336
| 13>  O       -2.1544258987    -2.8527659285     1.1472819557
| 14>  H        0.3568561162     1.8808557830    -1.0025624871
| 15>  H       -0.9578102138     1.9136127005     0.1792256032
| 16>  H        0.7224303919     1.9366332053     0.7259343620
| 17>  H        0.6495982545    -3.0050199341    -0.6923192018
| 18>  H        0.4810875961    -2.9588012263     1.0607991176
| 19>  H       -1.8561763755    -2.8062780083    -0.8926509275
| 20>  H       -1.2761658157    -5.1382644755    -1.0580424174
| 21>  H       -0.5522051559    -5.1504933113     0.5577657863
| 22>  H       -3.5387378043    -4.9921464665    -0.1147083583
| 23>  H       -2.7673856794    -6.0960414124     1.0344812092
| 24>  H       -3.8615572492    -3.7121482880     1.9126291268
| 25>  H       -2.3446982444    -4.3066863294     2.6159125815
| 26> *
| 27>
| 28>                          ****END OF INPUT****

CARTESIAN COORDINATES (ANGSTROEM)
---------------------------------
  C      0.041748    1.511304   -0.020166
  C      0.044177    0.056226    0.029262
  C      0.044621   -1.146453    0.079036
  C      0.032758   -2.603816    0.123748
  C     -1.372206   -3.216001    0.006928
  C     -1.379847   -4.751406   -0.041462
  C     -2.725834   -5.088778    0.612875
  C     -2.828446   -3.991634    1.678559
  O     -2.154426   -2.852766    1.147282
  H      0.356856    1.880856   -1.002562
  H     -0.957810    1.913613    0.179226
  H      0.722430    1.936633    0.725934
  H      0.649598   -3.005020   -0.692319
  H      0.481088   -2.958801    1.060799
  H     -1.856176   -2.806278   -0.892651
  H     -1.276166   -5.138264   -1.058042
  H     -0.552205   -5.150493    0.557766
  H     -3.538738   -4.992146   -0.114708
  H     -2.767386   -6.096041    1.034481
  H     -3.861557   -3.712148    1.912629
  H     -2.344698   -4.306686    2.615913

 Total Charge           Charge          ....    0
 Multiplicity           Mult            ....    1
 Number of Electrons    NEL             ....   68
 Basis Dimension        Dim             ....  351

ORBITAL ENERGIES
----------------

  NO   OCC          E(Eh)            E(eV)
   0   2.0000     -20.542737      -558.9963
   1   2.0000     -11.280063      -306.9461
   2   2.0000     -11.270117      -306.6755
   3   2.0000     -11.242478      -305.9234
   4   2.0000     -11.237508      -305.7881
   5   2.0000     -11.228335      -305.5385
   6   2.0000     -11.227406      -305.5133
   7   2.0000     -11.211112      -305.0699
   8   2.0000     -11.206529      -304.9452
   9   2.0000      -1.368630       -37.2423
  10   2.0000      -1.077181       -29.3116
  11   2.0000      -1.057039       -28.7635
  12   2.0000      -1.026053       -27.9203
  13   2.0000      -0.960449       -26.1351
  14   2.0000      -0.903374       -24.5821
  15   2.0000      -0.813521       -22.1370
  16   2.0000      -0.788455       -21.4549
  17   2.0000      -0.692090       -18.8327
  18   2.0000      -0.665955       -18.1216
  19   2.0000      -0.653938       -17.7946
  20   2.0000      -0.608441       -16.5565
  21   2.0000      -0.603537       -16.4231
  22   2.0000      -0.585556       -15.9338
  23   2.0000      -0.577589       -15.7170
  24   2.0000      -0.575371       -15.6566
  25   2.0000      -0.556436       -15.1414
  26   2.0000      -0.537950       -14.6384
  27   2.0000      -0.505043       -13.7429
  28   2.0000      -0.494199       -13.4478
  29   2.0000      -0.477569       -12.9953
  30   2.0000      -0.464590       -12.6421
  31   2.0000      -0.409234       -11.1358
  32   2.0000      -0.356783        -9.7086
  33   2.0000      -0.355136        -9.6637
  34   0.0000       0.132328         3.6008
  35   0.0000       0.147564         4.0154
  36   0.0000       0.157895         4.2965
  37   0.0000       0.165386         4.5004
  38   0.0000       0.185727         5.0539

MULLIKEN ATOMIC CHARGES
-----------------------
   0 C :   -0.483514
   1 C :    0.083667
   2 C :   -0.014679
   3 C :   -0.377921
   4 C :    0.094901
   5 C :   -0.236295
   6 C :   -0.228413
   7 C :   -0.038133
   8 O :   -0.311527
   9 H :    0.157302
  10 H :    0.162342
  11 H :    0.158934
  12 H :    0.136460
  13 H :    0.131939
  14 H :    0.085024
  15 H :    0.127208
  16 H :    0.113786
  17 H :    0.115865
  18 H :    0.125280
  19 H :    0.108457
  20 H :    0.089315
Sum of atomic charges:   -0.0000000

LOEWDIN ATOMIC CHARGES
----------------------
   0 C :   -0.297631
   1 C :   -0.107699
   2 C :   -0.086236
   3 C :   -0.236291
   4 C :   -0.296432
   5 C :   -0.242684
   6 C :   -0.265278
   7 C :   -0.303583
   8 O :    0.167109
   9 H :    0.138493
  10 H :    0.140428
  11 H :    0.139546
  12 H :    0.158482
  13 H :    0.157003
  14 H :    0.140938
  15 H :    0.137978
  16 H :    0.140913
  17 H :    0.138044
  18 H :    0.135952
  19 H :    0.122657
  20 H :    0.118290

  Mayer bond orders larger than 0.1
B(  0-C ,  1-C ) :   0.8508 B(  0-C ,  9-H ) :   0.9496 B(  0-C , 10-H ) :   0.9463
B(  0-C , 11-H ) :   0.9487 B(  1-C ,  2-C ) :   2.6767 B(  1-C ,  3-C ) :  -0.1311
B(  2-C ,  3-C ) :   1.1080 B(  3-C ,  4-C ) :   0.9139 B(  3-C , 12-H ) :   0.9410
B(  3-C , 13-H ) :   0.9007 B(  4-C ,  5-C ) :   0.9208 B(  4-C ,  8-O ) :   0.9392
B(  4-C , 14-H ) :   0.9387 B(  5-C ,  6-C ) :   0.9222 B(  5-C , 15-H ) :   0.9245
B(  5-C , 16-H ) :   0.9246 B(  6-C ,  7-C ) :   0.9538 B(  6-C , 17-H ) :   0.9272
B(  6-C , 18-H ) :   0.9263 B(  7-C ,  8-O ) :   0.9468 B(  7-C , 19-H ) :   0.9263
B(  7-C , 20-H ) :   0.9263

MP2 TOTAL ENERGY:     -386.389393845 Eh
FINAL SINGLE POINT ENERGY      -386.389393845067

DIPOLE MOMENT
-------------
                                X             Y             Z
Electronic contribution:      0.64359       1.81004       0.45332
Nuclear contribution   :     -0.67777      -2.39328      -0.67792
                        -----------------------------------------
Total Dipole Moment    :     -0.03418      -0.58324      -0.22460
                        -----------------------------------------
Magnitude (a.u.)       :      0.62593
Magnitude (Debye)      :      1.59098

                             ****ORCA TERMINATED NORMALLY****
TOTAL RUN TIME: 0 days 0 hours 17 minutes 59 seconds 332 msec
