                         Program Version 3.0.3 - RELEASE   -
|  1> ! RI-MP2 RIJK def2-TZVP def2-TZVP/C def2-TZVP/JK TIGHTSCF
|  2> % maxcore 2000
|  3> % mp2 density relaxed end
|  4> *xyz 0 1
|  5>  C        2.3027647800    -2.2804161961     1.1672452973
|  6>  N        1.5909641770    -1.3277519673     0.3265580808
|  7>  C        0.1360955876    -1.2822065931     0.4478376609
|  8>  C        0.9680544967    -0.1360732615     0.9121144770
|  9>  C        1.0835089247     0.3351641173     2.3528187576
| 10>  C        2.4858128362     0.9080347444     2.6014657452
| 11>  C       -0.0246071077     1.3657859067     2.7575369464
| 12>  C       -0.1486608023     0.6649253942     4.1357525958
| 13>  C        0.6048691901    -0.5565931065     3.5480054405
| 14>  H        1.8778159128    -2.4254578805     2.1710421559
| 15>  H        2.3071992899    -3.2515652958     0.6608489385
| 16>  H        3.3436951273    -1.9597067372     1.2786598717
| 17>  H       -0.4214502581    -1.2235489544    -0.4844129117
| 18>  H       -0.3272095257    -1.9131775291     1.2047161398
| 19>  H        1.0313931522     0.7158188414     0.2308376755
| 20>  H        2.7231443869     1.6855448913     1.8666823747
| 21>  H        2.5601712313     1.3570286743     3.5975057821
| 22>  H        3.2535468942     0.1316565689     2.5271438844
| 23>  H        0.2607860924     2.4215091508     2.7476506657
| 24>  H       -0.9273627556     1.2423099249     2.1523673433
| 25>  H        0.4213529652     1.1735719806     4.9172287630
| 26>  H       -1.1583449263     0.4881453401     4.5124767789
| 27>  H       -0.0865909862    -1.3439794585     3.2414108921
| 28>  H        1.3899914076    -1.0083894849     4.1608352345
| 29> *
| 30>
| 31>                          ****END OF INPUT****

CARTESIAN COORDINATES (ANGSTROEM)
---------------------------------
  C      2.302765   -2.280416    1.167245
  N      1.590964   -1.327752    0.326558
  C      0.136096   -1.282207    0.447838
  C      0.968054   -0.136073    0.912114
  C      1.083509    0.335164    2.352819
  C      2.485813    0.908035    2.601466
  C     -0.024607    1.365786    2.757537
  C     -0.148661    0.664925    4.135753
  C      0.604869   -0.556593    3.548005
  H      1.877816   -2.425458    2.171042
  H      2.307199   -3.251565    0.660849
  H      3.343695   -1.959707    1.278660
  H     -0.421450   -1.223549   -0.484413
  H     -0.327210   -1.913178    1.204716
  H      1.031393    0.715819    0.230838
  H      2.723144    1.685545    1.866682
  H      2.560171    1.357029    3.597506
  H      3.253547    0.131657    2.527144
  H      0.260786    2.421509    2.747651
  H     -0.927363    1.242310    2.152367
  H      0.421353    1.173572    4.917229
  H     -1.158345    0.488145    4.512477
  H     -0.086591   -1.343979    3.241411
  H      1.389991   -1.008389    4.160835

 Total Charge           Charge          ....    0
 Multiplicity           Mult            ....    1
 Number of Electrons    NEL             ....   70
 Basis Dimension        Dim             ....  369

ORBITAL ENERGIES
----------------

  NO   OCC          E(Eh)            E(eV)
   0   2.0000     -15.549454      -423.1222
   1   2.0000     -11.250948      -306.1539
   2   2.0000     -11.244148      -305.9688
   3   2.0000     -11.240454      -305.8683
   4   2.0000     -11.238460      -305.8140
   5   2.0000     -11.221209      -305.3446
   6   2.0000     -11.220369      -305.3218
   7   2.0000     -11.219079      -305.2867
   8   2.0000     -11.213955      -305.1472
   9   2.0000      -1.262741       -34.3609
  10   2.0000      -1.135687       -30.9036
  11   2.0000      -0.996134       -27.1062
  12   2.0000      -0.977428       -26.5972
  13   2.0000      -0.901714       -24.5369
  14   2.0000      -0.874363       -23.7926
  15   2.0000      -0.828134       -22.5347
  16   2.0000      -0.793276       -21.5861
  17   2.0000      -0.715823       -19.4785
  18   2.0000      -0.672657       -18.3039
  19   2.0000      -0.651283       -17.7223
  20   2.0000      -0.636479       -17.3195
  21   2.0000      -0.597012       -16.2455
  22   2.0000      -0.582411       -15.8482
  23   2.0000      -0.565389       -15.3850
  24   2.0000      -0.551023       -14.9941
  25   2.0000      -0.542731       -14.7685
  26   2.0000      -0.530567       -14.4375
  27   2.0000      -0.516198       -14.0465
  28   2.0000      -0.478511       -13.0210
  29   2.0000      -0.474478       -12.9112
  30   2.0000      -0.455018       -12.3817
  31   2.0000      -0.433152       -11.7867
  32   2.0000      -0.432292       -11.7633
  33   2.0000      -0.415804       -11.3146
  34   2.0000      -0.354691        -9.6516
  35   0.0000       0.134986         3.6731
  36   0.0000       0.159463         4.3392
  37   0.0000       0.160721         4.3734
  38   0.0000       0.167084         4.5466
  39   0.0000       0.186860         5.0847

MULLIKEN ATOMIC CHARGES
-----------------------
   0 C :   -0.296678
   1 N :   -0.208662
   2 C :   -0.180994
   3 C :   -0.114400
   4 C :    0.212072
   5 C :   -0.439047
   6 C :   -0.277210
   7 C :   -0.222247
   8 C :   -0.294416
   9 H :    0.112221
  10 H :    0.140492
  11 H :    0.131452
  12 H :    0.122566
  13 H :    0.109776
  14 H :    0.110587
  15 H :    0.132414
  16 H :    0.133125
  17 H :    0.130554
  18 H :    0.115757
  19 H :    0.120059
  20 H :    0.118661
  21 H :    0.114790
  22 H :    0.108715
  23 H :    0.120415
Sum of atomic charges:   -0.0000000

LOEWDIN ATOMIC CHARGES
----------------------
   0 C :   -0.332591
   1 N :    0.088534
   2 C :   -0.248342
   3 C :   -0.228782
   4 C :   -0.263663
   5 C :   -0.261928
   6 C :   -0.194702
   7 C :   -0.241726
   8 C :   -0.210982
   9 H :    0.109233
  10 H :    0.118647
  11 H :    0.116043
  12 H :    0.122014
  13 H :    0.121184
  14 H :    0.150486
  15 H :    0.128004
  16 H :    0.127582
  17 H :    0.124865
  18 H :    0.126373
  19 H :    0.137673
  20 H :    0.131469
  21 H :    0.123470
  22 H :    0.130686
  23 H :    0.126455

  Mayer bond orders larger than 0.1
B(  0-C ,  1-N ) :   0.8785 B(  0-C ,  9-H ) :   0.9270 B(  0-C , 10-H ) :   0.9374
B(  0-C , 11-H ) :   0.9390 B(  1-N ,  2-C ) :   0.9088 B(  1-N ,  3-C ) :   0.9167
B(  2-C ,  3-C ) :   0.9267 B(  2-C , 12-H ) :   0.9135 B(  2-C , 13-H ) :   0.9228
B(  3-C ,  4-C ) :   0.9050 B(  3-C , 14-H ) :   0.9219 B(  4-C ,  5-C ) :   0.8968
B(  4-C ,  6-C ) :   0.8806 B(  4-C ,  8-C ) :   0.8689 B(  5-C , 15-H ) :   0.9375
B(  5-C , 16-H ) :   0.9292 B(  5-C , 17-H ) :   0.9407 B(  6-C ,  7-C ) :   0.9492
B(  6-C , 18-H ) :   0.9284 B(  6-C , 19-H ) :   0.9196 B(  7-C ,  8-C ) :   0.9548
B(  7-C , 20-H ) :   0.9277 B(  7-C , 21-H ) :   0.9254 B(  8-C , 22-H ) :   0.9303
B(  8-C , 23-H ) :   0.9233

MP2 TOTAL ENERGY:     -367.704726755 Eh
FINAL SINGLE POINT ENERGY      -367.704726755022

DIPOLE MOMENT
-------------
                                X             Y             Z
Electronic contribution:     -1.11110      -0.16050      -3.45576
Nuclear contribution   :      0.90177       0.18361       3.97650
                        -----------------------------------------
Total Dipole Moment    :     -0.20932       0.02310       0.52074
                        -----------------------------------------
Magnitude (a.u.)       :      0.56171
Magnitude (Debye)      :      1.42777

                             ****ORCA TERMINATED NORMALLY****
TOTAL RUN TIME: 0 days 0 hours 22 minutes 55 seconds 968 msec
