                         Program Version 3.0.3 - RELEASE   -
|  1> ! RI-MP2 RIJK def2-TZVP def2-TZVP/C def2-TZVP/JK TIGHTSCF
|  2> % maxcore 2000
|  3> % mp2 density relaxed end
|  4> *xyz 0 1
|  5>  C       -0.0093495738     1.6932704160     0.0417630171
|  6>  C        1.4747908551     1.3024782899    -0.0408067148
|  7>  C        1.7427310910     0.7422878525     1.3915199392
|  8>  C        0.5560530660    -0.2570062283     1.4125001561
|  9>  C       -0.6818699092    -0.2671370204     2.2930125882
| 10>  O       -1.7363764360    -0.7310258133     1.4122727354
| 11>  C       -1.3416579649    -0.6668868595     0.0273439156
| 12>  C       -0.0798013129     0.1510797024     0.0703834074
| 13>  O        1.0665434020     0.1187588342    -0.8245063530
| 14>  H       -0.3663886660     2.2740308453     0.8955907060
| 15>  H       -0.3892817405     2.0871314573    -0.9014136219
| 16>  H        2.2373355588     1.9064739176    -0.5312022853
| 17>  H        2.7090625856     0.2426306661     1.4782429288
| 18>  H        1.6917857808     1.5337228312     2.1448673833
| 19>  H        0.9258018132    -1.2813553238     1.3075650264
| 20>  H       -0.6316879606    -0.9577797069     3.1398903078
| 21>  H       -0.9348413077     0.7313095263     2.6777341099
| 22>  H       -1.1527356218    -1.6744761287    -0.3692936117
| 23>  H       -2.1562380592    -0.2105364479    -0.5435722844
| 24> *
| 25>
| 26>                          ****END OF INPUT****

CARTESIAN COORDINATES (ANGSTROEM)
---------------------------------
  C     -0.009350    1.693270    0.041763
  C      1.474791    1.302478   -0.040807
  C      1.742731    0.742288    1.391520
  C      0.556053   -0.257006    1.412500
  C     -0.681870   -0.267137    2.293013
  O     -1.736376   -0.731026    1.412273
  C     -1.341658   -0.666887    0.027344
  C     -0.079801    0.151080    0.070383
  O      1.066543    0.118759   -0.824506
  H     -0.366389    2.274031    0.895591
  H     -0.389282    2.087131   -0.901414
  H      2.237336    1.906474   -0.531202
  H      2.709063    0.242631    1.478243
  H      1.691786    1.533723    2.144867
  H      0.925802   -1.281355    1.307565
  H     -0.631688   -0.957780    3.139890
  H     -0.934841    0.731310    2.677734
  H     -1.152736   -1.674476   -0.369294
  H     -2.156238   -0.210536   -0.543572

 Total Charge           Charge          ....    0
 Multiplicity           Mult            ....    1
 Number of Electrons    NEL             ....   68
 Basis Dimension        Dim             ....  339

ORBITAL ENERGIES
----------------

  NO   OCC          E(Eh)            E(eV)
   0   2.0000     -20.556653      -559.3750
   1   2.0000     -20.553004      -559.2757
   2   2.0000     -11.295933      -307.3780
   3   2.0000     -11.290409      -307.2276
   4   2.0000     -11.279289      -306.9250
   5   2.0000     -11.278951      -306.9159
   6   2.0000     -11.237656      -305.7922
   7   2.0000     -11.233461      -305.6780
   8   2.0000     -11.230300      -305.5920
   9   2.0000      -1.397292       -38.0222
  10   2.0000      -1.363049       -37.0905
  11   2.0000      -1.096694       -29.8426
  12   2.0000      -1.007199       -27.4073
  13   2.0000      -0.998120       -27.1602
  14   2.0000      -0.950008       -25.8510
  15   2.0000      -0.828605       -22.5475
  16   2.0000      -0.786727       -21.4079
  17   2.0000      -0.748195       -20.3594
  18   2.0000      -0.697700       -18.9854
  19   2.0000      -0.681215       -18.5368
  20   2.0000      -0.651834       -17.7373
  21   2.0000      -0.633586       -17.2407
  22   2.0000      -0.597192       -16.2504
  23   2.0000      -0.577497       -15.7145
  24   2.0000      -0.574437       -15.6312
  25   2.0000      -0.540184       -14.6991
  26   2.0000      -0.527726       -14.3601
  27   2.0000      -0.510877       -13.9017
  28   2.0000      -0.503616       -13.7041
  29   2.0000      -0.468726       -12.7547
  30   2.0000      -0.455240       -12.3877
  31   2.0000      -0.439971       -11.9722
  32   2.0000      -0.417294       -11.3551
  33   2.0000      -0.413057       -11.2399
  34   0.0000       0.138485         3.7684
  35   0.0000       0.155881         4.2417
  36   0.0000       0.165730         4.5097
  37   0.0000       0.172320         4.6891
  38   0.0000       0.187450         5.1008

MULLIKEN ATOMIC CHARGES
-----------------------
   0 C :   -0.234014
   1 C :    0.027394
   2 C :   -0.229224
   3 C :   -0.127394
   4 C :   -0.032653
   5 O :   -0.314122
   6 C :   -0.001762
   7 C :    0.077494
   8 O :   -0.306225
   9 H :    0.122506
  10 H :    0.126685
  11 H :    0.131338
  12 H :    0.128840
  13 H :    0.119642
  14 H :    0.102849
  15 H :    0.110582
  16 H :    0.081757
  17 H :    0.108345
  18 H :    0.107963
Sum of atomic charges:    0.0000000

LOEWDIN ATOMIC CHARGES
----------------------
   0 C :   -0.177125
   1 C :   -0.233723
   2 C :   -0.206097
   3 C :   -0.201857
   4 C :   -0.269200
   5 O :    0.128108
   6 C :   -0.252520
   7 C :   -0.305173
   8 O :    0.173473
   9 H :    0.131562
  10 H :    0.142733
  11 H :    0.129398
  12 H :    0.136255
  13 H :    0.138366
  14 H :    0.160450
  15 H :    0.124885
  16 H :    0.120013
  17 H :    0.131109
  18 H :    0.129344

  Mayer bond orders larger than 0.1
B(  0-C ,  1-C ) :   0.9656 B(  0-C ,  7-C ) :   0.9229 B(  0-C ,  9-H ) :   0.9131
B(  0-C , 10-H ) :   0.9152 B(  1-C ,  2-C ) :   0.8989 B(  1-C ,  8-O ) :   0.9090
B(  1-C , 11-H ) :   0.9142 B(  2-C ,  3-C ) :   0.9632 B(  2-C , 12-H ) :   0.9195
B(  2-C , 13-H ) :   0.9045 B(  3-C ,  4-C ) :   0.9740 B(  3-C ,  7-C ) :   0.9105
B(  3-C , 14-H ) :   0.9155 B(  4-C ,  5-O ) :   0.9468 B(  4-C , 15-H ) :   0.9167
B(  4-C , 16-H ) :   0.9045 B(  5-O ,  6-C ) :   0.9726 B(  6-C ,  7-C ) :   0.8995
B(  6-C , 17-H ) :   0.9259 B(  6-C , 18-H ) :   0.9081 B(  7-C ,  8-O ) :   0.9730

MP2 TOTAL ENERGY:     -422.292805369 Eh
FINAL SINGLE POINT ENERGY      -422.292805368678

DIPOLE MOMENT
-------------
                                X             Y             Z
Electronic contribution:     -0.59236      -1.70761      -2.33239
Nuclear contribution   :      0.96932       2.31797       2.67593
                        -----------------------------------------
Total Dipole Moment    :      0.37696       0.61036       0.34354
                        -----------------------------------------
Magnitude (a.u.)       :      0.79540
Magnitude (Debye)      :      2.02174

                             ****ORCA TERMINATED NORMALLY****
TOTAL RUN TIME: 0 days 0 hours 20 minutes 7 seconds 818 msec
