                         Program Version 3.0.3 - RELEASE   -
|  1> ! RI-MP2 RIJK def2-TZVP def2-TZVP/C def2-TZVP/JK TIGHTSCF
|  2> % maxcore 2000
|  3> % mp2 density relaxed end
|  4> *xyz 0 1
|  5>  C       -0.0413595331     1.5289370833    -0.4704546264
|  6>  C       -0.0183686764     0.1814875155     0.2594430110
|  7>  C       -1.3792630056    -0.4739804598     0.2986735628
|  8>  N       -1.8023250872    -1.1820468715    -0.9354756768
|  9>  C       -1.5796563612    -1.9371239231     0.2875192274
| 10>  C       -0.5789335188    -3.0808567387     0.4615860482
| 11>  N       -1.4540628978    -3.6180750033     1.5294056634
| 12>  C       -1.6647971087    -5.0464987917     1.5858573623
| 13>  C       -2.5807942555    -2.7621247564     1.0998166140
| 14>  H        0.9545566553     1.9810729646    -0.5023358423
| 15>  H       -0.3901905754     1.3993160615    -1.4995417443
| 16>  H       -0.7131933135     2.2384947589     0.0258243722
| 17>  H        0.6833710267    -0.4960849051    -0.2392097485
| 18>  H        0.3436033139     0.3148301040     1.2872721043
| 19>  H       -2.1473971083     0.1028282422     0.8163316828
| 20>  H       -2.7988543418    -1.0598443004    -1.1013423121
| 21>  H       -0.5317053303    -3.7180266111    -0.4367606351
| 22>  H        0.4400844777    -2.8406494854     0.7841477010
| 23>  H       -0.7254025226    -5.5500878848     1.8377144602
| 24>  H       -2.3919752214    -5.2847929661     2.3696254861
| 25>  H       -2.0359686577    -5.4728824742     0.6334130663
| 26>  H       -3.1245660483    -2.2692229131     1.9146126427
| 27>  H       -3.3065450001    -3.2855298153     0.4518694508
| 28> *
| 29>
| 30>                          ****END OF INPUT****

CARTESIAN COORDINATES (ANGSTROEM)
---------------------------------
  C     -0.041360    1.528937   -0.470455
  C     -0.018369    0.181488    0.259443
  C     -1.379263   -0.473980    0.298674
  N     -1.802325   -1.182047   -0.935476
  C     -1.579656   -1.937124    0.287519
  C     -0.578934   -3.080857    0.461586
  N     -1.454063   -3.618075    1.529406
  C     -1.664797   -5.046499    1.585857
  C     -2.580794   -2.762125    1.099817
  H      0.954557    1.981073   -0.502336
  H     -0.390191    1.399316   -1.499542
  H     -0.713193    2.238495    0.025824
  H      0.683371   -0.496085   -0.239210
  H      0.343603    0.314830    1.287272
  H     -2.147397    0.102828    0.816332
  H     -2.798854   -1.059844   -1.101342
  H     -0.531705   -3.718027   -0.436761
  H      0.440084   -2.840649    0.784148
  H     -0.725403   -5.550088    1.837714
  H     -2.391975   -5.284793    2.369625
  H     -2.035969   -5.472882    0.633413
  H     -3.124566   -2.269223    1.914613
  H     -3.306545   -3.285530    0.451869

 Total Charge           Charge          ....    0
 Multiplicity           Mult            ....    1
 Number of Electrons    NEL             ....   70
 Basis Dimension        Dim             ....  363

ORBITAL ENERGIES
----------------

  NO   OCC          E(Eh)            E(eV)
   0   2.0000     -15.552269      -423.1988
   1   2.0000     -15.544990      -423.0007
   2   2.0000     -11.261538      -306.4420
   3   2.0000     -11.255442      -306.2762
   4   2.0000     -11.253612      -306.2264
   5   2.0000     -11.247640      -306.0638
   6   2.0000     -11.242112      -305.9134
   7   2.0000     -11.220260      -305.3188
   8   2.0000     -11.210212      -305.0454
   9   2.0000      -1.276936       -34.7472
  10   2.0000      -1.226751       -33.3816
  11   2.0000      -1.035905       -28.1884
  12   2.0000      -1.000481       -27.2245
  13   2.0000      -0.924278       -25.1509
  14   2.0000      -0.896843       -24.4043
  15   2.0000      -0.839596       -22.8466
  16   2.0000      -0.795561       -21.6483
  17   2.0000      -0.736325       -20.0364
  18   2.0000      -0.691064       -18.8048
  19   2.0000      -0.654698       -17.8152
  20   2.0000      -0.637655       -17.3515
  21   2.0000      -0.605439       -16.4748
  22   2.0000      -0.586498       -15.9594
  23   2.0000      -0.575691       -15.6653
  24   2.0000      -0.554704       -15.0943
  25   2.0000      -0.540172       -14.6988
  26   2.0000      -0.534374       -14.5411
  27   2.0000      -0.504244       -13.7212
  28   2.0000      -0.492313       -13.3965
  29   2.0000      -0.483824       -13.1655
  30   2.0000      -0.465419       -12.6647
  31   2.0000      -0.451709       -12.2916
  32   2.0000      -0.435284       -11.8447
  33   2.0000      -0.379215       -10.3190
  34   2.0000      -0.356607        -9.7038
  35   0.0000       0.134039         3.6474
  36   0.0000       0.146640         3.9903
  37   0.0000       0.158667         4.3175
  38   0.0000       0.175303         4.7702
  39   0.0000       0.178253         4.8505

MULLIKEN ATOMIC CHARGES
-----------------------
   0 C :   -0.402495
   1 C :   -0.208047
   2 C :   -0.091242
   3 N :   -0.395693
   4 C :    0.127350
   5 C :   -0.157383
   6 N :   -0.136750
   7 C :   -0.320232
   8 C :   -0.161012
   9 H :    0.132558
  10 H :    0.139989
  11 H :    0.117249
  12 H :    0.117326
  13 H :    0.110642
  14 H :    0.121218
  15 H :    0.216439
  16 H :    0.099227
  17 H :    0.111706
  18 H :    0.136690
  19 H :    0.135287
  20 H :    0.102233
  21 H :    0.110974
  22 H :    0.093968
Sum of atomic charges:    0.0000000

LOEWDIN ATOMIC CHARGES
----------------------
   0 C :   -0.315628
   1 C :   -0.274470
   2 C :   -0.236604
   3 N :    0.023065
   4 C :   -0.275973
   5 C :   -0.209919
   6 N :    0.067953
   7 C :   -0.343858
   8 C :   -0.220695
   9 H :    0.120266
  10 H :    0.125208
  11 H :    0.119061
  12 H :    0.143577
  13 H :    0.139866
  14 H :    0.140591
  15 H :    0.166533
  16 H :    0.125668
  17 H :    0.123423
  18 H :    0.118843
  19 H :    0.118073
  20 H :    0.099938
  21 H :    0.123024
  22 H :    0.122055

  Mayer bond orders larger than 0.1
B(  0-C ,  1-C ) :   0.9183 B(  0-C ,  9-H ) :   0.9414 B(  0-C , 10-H ) :   0.9390
B(  0-C , 11-H ) :   0.9379 B(  1-C ,  2-C ) :   0.8963 B(  1-C , 12-H ) :   0.9371
B(  1-C , 13-H ) :   0.9354 B(  2-C ,  3-N ) :   0.9439 B(  2-C ,  4-C ) :   0.9125
B(  2-C , 14-H ) :   0.9175 B(  3-N ,  4-C ) :   0.9408 B(  3-N , 15-H ) :   0.8643
B(  4-C ,  5-C ) :   0.9103 B(  4-C ,  8-C ) :   0.9179 B(  5-C ,  6-N ) :   0.9596
B(  5-C , 16-H ) :   0.9185 B(  5-C , 17-H ) :   0.9126 B(  6-N ,  7-C ) :   0.9044
B(  6-N ,  8-C ) :   0.9581 B(  7-C , 18-H ) :   0.9384 B(  7-C , 19-H ) :   0.9386
B(  7-C , 20-H ) :   0.9252 B(  8-C , 21-H ) :   0.9092 B(  8-C , 22-H ) :   0.9160

MP2 TOTAL ENERGY:     -383.740576865 Eh
FINAL SINGLE POINT ENERGY      -383.740576865002

DIPOLE MOMENT
-------------
                                X             Y             Z
Electronic contribution:     -1.83224      -1.53927       0.18746
Nuclear contribution   :      1.42780       1.53029       0.01359
                        -----------------------------------------
Total Dipole Moment    :     -0.40445      -0.00898       0.20105
                        -----------------------------------------
Magnitude (a.u.)       :      0.45175
Magnitude (Debye)      :      1.14827

                             ****ORCA TERMINATED NORMALLY****
TOTAL RUN TIME: 0 days 0 hours 29 minutes 48 seconds 259 msec
