                         Program Version 3.0.3 - RELEASE   -
|  1> ! RI-MP2 RIJK def2-TZVP def2-TZVP/C def2-TZVP/JK TIGHTSCF
|  2> % maxcore 2000
|  3> % mp2 density relaxed end
|  4> *xyz 0 1
|  5>  O        0.0746603656     1.3317946992     0.0891117200
|  6>  C        0.0445544802    -0.0618290999     0.0124263003
|  7>  C       -1.4096027767    -0.5393812700    -0.0526657451
|  8>  O       -2.3212082180     0.2754412943     0.0068364463
|  9>  N       -1.6127264615    -1.8634606805    -0.2227273707
| 10>  C       -0.7507363655    -3.0531016975    -0.0678912812
| 11>  C       -2.0244261991    -3.8959395593     0.1059196959
| 12>  C       -2.8781243071    -3.3411827831     1.2210255211
| 13>  C       -2.8436980949    -2.6254985064    -0.0982982042
| 14>  H       -0.8642144897     1.5890145705     0.1053345078
| 15>  H        0.5861252212    -0.4251527106    -0.8753204883
| 16>  H        0.5318433757    -0.5207673059     0.8893515589
| 17>  H       -0.1926939107    -3.2823900914    -0.9814938002
| 18>  H       -0.0609238879    -3.0199479600     0.7831401180
| 19>  H       -2.1745638495    -4.8763111755    -0.3220086349
| 20>  H       -3.7870493777    -3.9009242882     1.4176420952
| 21>  H       -2.4246394305    -2.8863203858     2.0974355236
| 22>  H       -3.7036394938    -2.4120187899    -0.7184473025
| 23> *
| 24>
| 25>                          ****END OF INPUT****

CARTESIAN COORDINATES (ANGSTROEM)
---------------------------------
  O      0.074660    1.331795    0.089112
  C      0.044554   -0.061829    0.012426
  C     -1.409603   -0.539381   -0.052666
  O     -2.321208    0.275441    0.006836
  N     -1.612726   -1.863461   -0.222727
  C     -0.750736   -3.053102   -0.067891
  C     -2.024426   -3.895940    0.105920
  C     -2.878124   -3.341183    1.221026
  C     -2.843698   -2.625499   -0.098298
  H     -0.864214    1.589015    0.105335
  H      0.586125   -0.425153   -0.875320
  H      0.531843   -0.520767    0.889352
  H     -0.192694   -3.282390   -0.981494
  H     -0.060924   -3.019948    0.783140
  H     -2.174564   -4.876311   -0.322009
  H     -3.787049   -3.900924    1.417642
  H     -2.424639   -2.886320    2.097436
  H     -3.703639   -2.412019   -0.718447

 Total Charge           Charge          ....    0
 Multiplicity           Mult            ....    1
 Number of Electrons    NEL             ....   68
 Basis Dimension        Dim             ....  333

ORBITAL ENERGIES
----------------

  NO   OCC          E(Eh)            E(eV)
   0   2.0000     -20.547238      -559.1188
   1   2.0000     -20.528663      -558.6133
   2   2.0000     -15.596558      -424.4039
   3   2.0000     -11.355001      -308.9853
   4   2.0000     -11.295322      -307.3613
   5   2.0000     -11.291548      -307.2586
   6   2.0000     -11.289709      -307.2086
   7   2.0000     -11.260948      -306.4260
   8   2.0000     -11.251170      -306.1599
   9   2.0000      -1.402675       -38.1687
  10   2.0000      -1.351785       -36.7839
  11   2.0000      -1.302143       -35.4331
  12   2.0000      -1.127491       -30.6806
  13   2.0000      -0.989003       -26.9121
  14   2.0000      -0.963069       -26.2064
  15   2.0000      -0.861713       -23.4484
  16   2.0000      -0.809313       -22.0225
  17   2.0000      -0.750162       -20.4130
  18   2.0000      -0.737700       -20.0738
  19   2.0000      -0.690339       -18.7851
  20   2.0000      -0.669635       -18.2217
  21   2.0000      -0.651875       -17.7384
  22   2.0000      -0.636929       -17.3317
  23   2.0000      -0.608031       -16.5454
  24   2.0000      -0.589544       -16.0423
  25   2.0000      -0.565203       -15.3800
  26   2.0000      -0.554414       -15.0864
  27   2.0000      -0.530863       -14.4455
  28   2.0000      -0.512522       -13.9464
  29   2.0000      -0.477014       -12.9802
  30   2.0000      -0.449041       -12.2190
  31   2.0000      -0.440203       -11.9785
  32   2.0000      -0.422107       -11.4861
  33   2.0000      -0.373531       -10.1643
  34   0.0000       0.126274         3.4361
  35   0.0000       0.149142         4.0584
  36   0.0000       0.158908         4.3241
  37   0.0000       0.164238         4.4691
  38   0.0000       0.173947         4.7333

MULLIKEN ATOMIC CHARGES
-----------------------
   0 O :   -0.488436
   1 C :   -0.014752
   2 C :    0.188666
   3 O :   -0.403139
   4 N :   -0.090475
   5 C :   -0.162012
   6 C :   -0.147711
   7 C :   -0.256260
   8 C :   -0.044446
   9 H :    0.339128
  10 H :    0.112893
  11 H :    0.105950
  12 H :    0.137589
  13 H :    0.135139
  14 H :    0.150725
  15 H :    0.141269
  16 H :    0.144129
  17 H :    0.151741
Sum of atomic charges:   -0.0000000

LOEWDIN ATOMIC CHARGES
----------------------
   0 O :   -0.038286
   1 C :   -0.331583
   2 C :   -0.448462
   3 O :    0.070032
   4 N :    0.225206
   5 C :   -0.193759
   6 C :   -0.180437
   7 C :   -0.197711
   8 C :   -0.176284
   9 H :    0.184615
  10 H :    0.130340
  11 H :    0.127756
  12 H :    0.135012
  13 H :    0.129645
  14 H :    0.139171
  15 H :    0.145560
  16 H :    0.136918
  17 H :    0.142268

  Mayer bond orders larger than 0.1
B(  0-O ,  1-C ) :   1.0322 B(  0-O ,  9-H ) :   0.7953 B(  1-C ,  2-C ) :   0.9398
B(  1-C , 10-H ) :   0.9125 B(  1-C , 11-H ) :   0.9072 B(  2-C ,  3-O ) :   1.8209
B(  2-C ,  4-N ) :   1.1780 B(  4-N ,  5-C ) :   0.8965 B(  4-N ,  8-C ) :   0.8781
B(  5-C ,  6-C ) :   0.9378 B(  5-C , 12-H ) :   0.9200 B(  5-C , 13-H ) :   0.9146
B(  6-C ,  7-C ) :   0.8820 B(  6-C ,  8-C ) :   0.8718 B(  6-C , 14-H ) :   0.9224
B(  7-C ,  8-C ) :   0.8928 B(  7-C , 15-H ) :   0.9280 B(  7-C , 16-H ) :   0.9230
B(  8-C , 17-H ) :   0.9244

MP2 TOTAL ENERGY:     -438.343753625 Eh
FINAL SINGLE POINT ENERGY      -438.343753625208

DIPOLE MOMENT
-------------
                                X             Y             Z
Electronic contribution:     -1.24401       4.30747      -1.27995
Nuclear contribution   :      1.23067      -6.32222       1.29486
                        -----------------------------------------
Total Dipole Moment    :     -0.01333      -2.01475       0.01491
                        -----------------------------------------
Magnitude (a.u.)       :      2.01485
Magnitude (Debye)      :      5.12134

                             ****ORCA TERMINATED NORMALLY****
TOTAL RUN TIME: 0 days 0 hours 16 minutes 4 seconds 101 msec
