                         Program Version 3.0.3 - RELEASE   -
|  1> ! RI-MP2 RIJK def2-TZVP def2-TZVP/C def2-TZVP/JK TIGHTSCF
|  2> % maxcore 2000
|  3> % mp2 density relaxed end
|  4> *xyz 0 1
|  5>  O       -0.9361854588     1.1968184532     0.0517674471
|  6>  C        0.1901787773     0.7785080497     0.0112839715
|  7>  C        1.4219669455     1.6728782001     0.0404503124
|  8>  C        1.2926505186     2.8347587165     1.0263090935
|  9>  C        2.5839784575     3.6682280835     1.0237736881
| 10>  C        3.8363718701     2.8047810599     1.0822006635
| 11>  O        4.8432561395     3.1338187819     1.6603569120
| 12>  C        3.7709242318     1.4992659062     0.2821328705
| 13>  O        2.5189690923     0.8399740431     0.3690413315
| 14>  H        0.4275571529    -0.3047308163    -0.0621335662
| 15>  H        1.5463698484     2.0730468122    -0.9857509025
| 16>  H        0.4223832879     3.4421167190     0.7647789712
| 17>  H        1.1132328544     2.4201364991     2.0244881720
| 18>  H        2.6480853157     4.2340990573     0.0819647254
| 19>  H        2.6196370877     4.3961702936     1.8376095523
| 20>  H        4.0096679017     1.7403355195    -0.7705777217
| 21>  H        4.5320725875     0.8127804315     0.6566262093
| 22> *
| 23>
| 24>                          ****END OF INPUT****

CARTESIAN COORDINATES (ANGSTROEM)
---------------------------------
  O     -0.936185    1.196818    0.051767
  C      0.190179    0.778508    0.011284
  C      1.421967    1.672878    0.040450
  C      1.292651    2.834759    1.026309
  C      2.583978    3.668228    1.023774
  C      3.836372    2.804781    1.082201
  O      4.843256    3.133819    1.660357
  C      3.770924    1.499266    0.282133
  O      2.518969    0.839974    0.369041
  H      0.427557   -0.304731   -0.062134
  H      1.546370    2.073047   -0.985751
  H      0.422383    3.442117    0.764779
  H      1.113233    2.420136    2.024488
  H      2.648085    4.234099    0.081965
  H      2.619637    4.396170    1.837610
  H      4.009668    1.740336   -0.770578
  H      4.532073    0.812780    0.656626

 Total Charge           Charge          ....    0
 Multiplicity           Mult            ....    1
 Number of Electrons    NEL             ....   68
 Basis Dimension        Dim             ....  327

ORBITAL ENERGIES
----------------

  NO   OCC          E(Eh)            E(eV)
   0   2.0000     -20.593558      -560.3792
   1   2.0000     -20.573954      -559.8457
   2   2.0000     -20.562563      -559.5358
   3   2.0000     -11.345711      -308.7325
   4   2.0000     -11.344973      -308.7124
   5   2.0000     -11.316598      -307.9403
   6   2.0000     -11.307823      -307.7015
   7   2.0000     -11.256676      -306.3097
   8   2.0000     -11.254822      -306.2593
   9   2.0000      -1.425153       -38.7804
  10   2.0000      -1.410930       -38.3934
  11   2.0000      -1.400734       -38.1159
  12   2.0000      -1.100938       -29.9580
  13   2.0000      -1.051387       -28.6097
  14   2.0000      -0.938451       -25.5365
  15   2.0000      -0.897579       -24.4244
  16   2.0000      -0.810807       -22.0632
  17   2.0000      -0.769675       -20.9439
  18   2.0000      -0.708654       -19.2835
  19   2.0000      -0.694505       -18.8985
  20   2.0000      -0.673795       -18.3349
  21   2.0000      -0.660598       -17.9758
  22   2.0000      -0.648637       -17.6503
  23   2.0000      -0.630130       -17.1467
  24   2.0000      -0.613817       -16.7028
  25   2.0000      -0.587451       -15.9854
  26   2.0000      -0.554704       -15.0943
  27   2.0000      -0.546770       -14.8784
  28   2.0000      -0.534817       -14.5531
  29   2.0000      -0.517831       -14.0909
  30   2.0000      -0.499956       -13.6045
  31   2.0000      -0.470746       -12.8096
  32   2.0000      -0.434315       -11.8183
  33   2.0000      -0.408523       -11.1165
  34   0.0000       0.103015         2.8032
  35   0.0000       0.118087         3.2133
  36   0.0000       0.142731         3.8839
  37   0.0000       0.152036         4.1371
  38   0.0000       0.170927         4.6512

MULLIKEN ATOMIC CHARGES
-----------------------
   0 O :   -0.258524
   1 C :    0.075701
   2 C :    0.094190
   3 C :   -0.247286
   4 C :   -0.202849
   5 C :    0.140540
   6 O :   -0.262400
   7 C :   -0.073440
   8 O :   -0.305316
   9 H :    0.105603
  10 H :    0.101820
  11 H :    0.148388
  12 H :    0.130544
  13 H :    0.135334
  14 H :    0.151206
  15 H :    0.114452
  16 H :    0.152038
Sum of atomic charges:   -0.0000000

LOEWDIN ATOMIC CHARGES
----------------------
   0 O :    0.147513
   1 C :   -0.260775
   2 C :   -0.327496
   3 C :   -0.232817
   4 C :   -0.228089
   5 C :   -0.325748
   6 O :    0.161681
   7 C :   -0.276417
   8 O :    0.183196
   9 H :    0.119044
  10 H :    0.151724
  11 H :    0.150269
  12 H :    0.148815
  13 H :    0.158776
  14 H :    0.151071
  15 H :    0.135568
  16 H :    0.143686

  Mayer bond orders larger than 0.1
B(  0-O ,  1-C ) :   2.0029 B(  1-C ,  2-C ) :   0.8420 B(  1-C ,  9-H ) :   0.9454
B(  2-C ,  3-C ) :   0.9155 B(  2-C ,  8-O ) :   0.9223 B(  2-C , 10-H ) :   0.9047
B(  3-C ,  4-C ) :   0.8858 B(  3-C , 11-H ) :   0.9171 B(  3-C , 12-H ) :   0.9208
B(  4-C ,  5-C ) :   0.9227 B(  4-C , 13-H ) :   0.9112 B(  4-C , 14-H ) :   0.9225
B(  5-C ,  6-O ) :   2.0225 B(  5-C ,  7-C ) :   0.8796 B(  7-C ,  8-O ) :   0.9144
B(  7-C , 15-H ) :   0.9140 B(  7-C , 16-H ) :   0.9194

MP2 TOTAL ENERGY:     -458.247206668 Eh
FINAL SINGLE POINT ENERGY      -458.247206668157

DIPOLE MOMENT
-------------
                                X             Y             Z
Electronic contribution:      0.06600      -2.22217       0.66662
Nuclear contribution   :     -0.01195       2.35184      -1.26728
                        -----------------------------------------
Total Dipole Moment    :      0.05405       0.12966      -0.60066
                        -----------------------------------------
Magnitude (a.u.)       :      0.61687
Magnitude (Debye)      :      1.56796

                             ****ORCA TERMINATED NORMALLY****
TOTAL RUN TIME: 0 days 0 hours 16 minutes 15 seconds 951 msec
