                         Program Version 3.0.3 - RELEASE   -
|  1> ! RI-MP2 RIJK def2-TZVP def2-TZVP/C def2-TZVP/JK TIGHTSCF
|  2> % maxcore 2000
|  3> % mp2 density relaxed end
|  4> *xyz 0 1
|  5>  C        0.0714037329     1.5422711750    -0.1160086460
|  6>  C        0.0025013428     0.0177734132     0.0065445881
|  7>  C       -1.4318954026    -0.5208362492    -0.0148535622
|  8>  C       -1.5009053542    -2.0459786447     0.1177850015
|  9>  C       -2.9189204425    -2.6051152712     0.1063688307
| 10>  O       -3.6130307391    -2.0255185390     1.1849256156
| 11>  C       -3.6124505492    -2.6087388786    -1.2848029143
| 12>  O       -3.3858393833    -4.0239532387    -1.4279394238
| 13>  C       -2.9921344781    -4.1476690470    -0.0473638629
| 14>  H        1.1057187021     1.8996180128    -0.0941105958
| 15>  H       -0.3792323764     1.8851533475    -1.0542607866
| 16>  H       -0.4672117001     2.0290000991     0.7046484155
| 17>  H        0.5774445484    -0.4424628376    -0.8083049099
| 18>  H        0.4929517394    -0.2974083405     0.9372192574
| 19>  H       -2.0110777210    -0.0673375319     0.7968235874
| 20>  H       -1.9187656139    -0.2091937031    -0.9497209791
| 21>  H       -0.9401604266    -2.5230038704    -0.6956165869
| 22>  H       -1.0231964982    -2.3560489866     1.0564110291
| 23>  H       -4.5196698731    -2.3501084083     1.1761073874
| 24>  H       -4.6843932759    -2.3620051476    -1.2347092832
| 25>  H       -3.1512036156    -2.0303391208    -2.0929673331
| 26>  H       -2.0633720671    -4.7170716088     0.0730392222
| 27>  H       -3.7797232485    -4.6057939234     0.5704358791
| 28> *
| 29>
| 30>                          ****END OF INPUT****

CARTESIAN COORDINATES (ANGSTROEM)
---------------------------------
  C      0.071404    1.542271   -0.116009
  C      0.002501    0.017773    0.006545
  C     -1.431895   -0.520836   -0.014854
  C     -1.500905   -2.045979    0.117785
  C     -2.918920   -2.605115    0.106369
  O     -3.613031   -2.025519    1.184926
  C     -3.612451   -2.608739   -1.284803
  O     -3.385839   -4.023953   -1.427939
  C     -2.992134   -4.147669   -0.047364
  H      1.105719    1.899618   -0.094111
  H     -0.379232    1.885153   -1.054261
  H     -0.467212    2.029000    0.704648
  H      0.577445   -0.442463   -0.808305
  H      0.492952   -0.297408    0.937219
  H     -2.011078   -0.067338    0.796824
  H     -1.918766   -0.209194   -0.949721
  H     -0.940160   -2.523004   -0.695617
  H     -1.023196   -2.356049    1.056411
  H     -4.519670   -2.350108    1.176107
  H     -4.684393   -2.362005   -1.234709
  H     -3.151204   -2.030339   -2.092967
  H     -2.063372   -4.717072    0.073039
  H     -3.779723   -4.605794    0.570436

 Total Charge           Charge          ....    0
 Multiplicity           Mult            ....    1
 Number of Electrons    NEL             ....   72
 Basis Dimension        Dim             ....  363

ORBITAL ENERGIES
----------------

  NO   OCC          E(Eh)            E(eV)
   0   2.0000     -20.567671      -559.6748
   1   2.0000     -20.554109      -559.3057
   2   2.0000     -11.294429      -307.3370
   3   2.0000     -11.280116      -306.9476
   4   2.0000     -11.279184      -306.9222
   5   2.0000     -11.223723      -305.4130
   6   2.0000     -11.218309      -305.2657
   7   2.0000     -11.215921      -305.2007
   8   2.0000     -11.211149      -305.0709
   9   2.0000      -1.396446       -37.9992
  10   2.0000      -1.364534       -37.1309
  11   2.0000      -1.082159       -29.4470
  12   2.0000      -1.025628       -27.9088
  13   2.0000      -0.952795       -25.9269
  14   2.0000      -0.941281       -25.6136
  15   2.0000      -0.866649       -23.5827
  16   2.0000      -0.794335       -21.6150
  17   2.0000      -0.769584       -20.9414
  18   2.0000      -0.711570       -19.3628
  19   2.0000      -0.681104       -18.5338
  20   2.0000      -0.642871       -17.4934
  21   2.0000      -0.629088       -17.1184
  22   2.0000      -0.601250       -16.3608
  23   2.0000      -0.586406       -15.9569
  24   2.0000      -0.572605       -15.5814
  25   2.0000      -0.569180       -15.4882
  26   2.0000      -0.555532       -15.1168
  27   2.0000      -0.548276       -14.9193
  28   2.0000      -0.517136       -14.0720
  29   2.0000      -0.498953       -13.5772
  30   2.0000      -0.483675       -13.1615
  31   2.0000      -0.471867       -12.8402
  32   2.0000      -0.463770       -12.6198
  33   2.0000      -0.449140       -12.2217
  34   2.0000      -0.422662       -11.5012
  35   2.0000      -0.415846       -11.3157
  36   0.0000       0.126680         3.4471
  37   0.0000       0.143205         3.8968
  38   0.0000       0.163811         4.4575
  39   0.0000       0.170669         4.6441
  40   0.0000       0.178516         4.8577

MULLIKEN ATOMIC CHARGES
-----------------------
   0 C :   -0.383719
   1 C :   -0.177252
   2 C :   -0.266093
   3 C :   -0.269867
   4 C :    0.203502
   5 O :   -0.453529
   6 C :   -0.061721
   7 O :   -0.329746
   8 C :   -0.039108
   9 H :    0.132708
  10 H :    0.120617
  11 H :    0.123234
  12 H :    0.103558
  13 H :    0.106095
  14 H :    0.134257
  15 H :    0.098267
  16 H :    0.136791
  17 H :    0.114438
  18 H :    0.316724
  19 H :    0.088868
  20 H :    0.106439
  21 H :    0.107457
  22 H :    0.088082
Sum of atomic charges:   -0.0000000

LOEWDIN ATOMIC CHARGES
----------------------
   0 C :   -0.321753
   1 C :   -0.297267
   2 C :   -0.265553
   3 C :   -0.229963
   4 C :   -0.382596
   5 O :    0.021742
   6 C :   -0.246666
   7 O :    0.114691
   8 C :   -0.244346
   9 H :    0.119973
  10 H :    0.119661
  11 H :    0.120643
  12 H :    0.133437
  13 H :    0.134752
  14 H :    0.142888
  15 H :    0.135522
  16 H :    0.149767
  17 H :    0.146548
  18 H :    0.175477
  19 H :    0.116290
  20 H :    0.120034
  21 H :    0.120567
  22 H :    0.116152

  Mayer bond orders larger than 0.1
B(  0-C ,  1-C ) :   0.9234 B(  0-C ,  9-H ) :   0.9432 B(  0-C , 10-H ) :   0.9396
B(  0-C , 11-H ) :   0.9396 B(  1-C ,  2-C ) :   0.9293 B(  1-C , 12-H ) :   0.9327
B(  1-C , 13-H ) :   0.9342 B(  2-C ,  3-C ) :   0.9403 B(  2-C , 14-H ) :   0.9293
B(  2-C , 15-H ) :   0.9298 B(  3-C ,  4-C ) :   0.8975 B(  3-C , 16-H ) :   0.9374
B(  3-C , 17-H ) :   0.9134 B(  4-C ,  5-O ) :   1.0293 B(  4-C ,  6-C ) :   0.9410
B(  4-C ,  8-C ) :   0.9439 B(  5-O , 18-H ) :   0.8380 B(  6-C ,  7-O ) :   0.9545
B(  6-C , 19-H ) :   0.8959 B(  6-C , 20-H ) :   0.9141 B(  7-O ,  8-C ) :   0.9511
B(  8-C , 21-H ) :   0.9140 B(  8-C , 22-H ) :   0.8970

MP2 TOTAL ENERGY:     -424.706146985 Eh
FINAL SINGLE POINT ENERGY      -424.706146984602

DIPOLE MOMENT
-------------
                                X             Y             Z
Electronic contribution:     -7.33786      -8.62605      -0.32058
Nuclear contribution   :      7.22289       8.78659       0.53567
                        -----------------------------------------
Total Dipole Moment    :     -0.11497       0.16054       0.21510
                        -----------------------------------------
Magnitude (a.u.)       :      0.29199
Magnitude (Debye)      :      0.74217

                             ****ORCA TERMINATED NORMALLY****
TOTAL RUN TIME: 0 days 0 hours 17 minutes 46 seconds 889 msec
