                         Program Version 3.0.3 - RELEASE   -
|  1> ! RI-MP2 RIJK def2-TZVP def2-TZVP/C def2-TZVP/JK TIGHTSCF
|  2> % maxcore 2000
|  3> % mp2 density relaxed end
|  4> *xyz 0 1
|  5>  C       -0.0026329813     1.4555396478    -0.0624471491
|  6>  N       -0.0977083507     0.0141624753     0.0562341875
|  7>  C        0.5802608572    -0.6773114149     1.0496218635
|  8>  C        1.1235820520    -0.0471686600     2.1825866304
|  9>  N        1.7386137691    -0.6923429152     3.1718668373
| 10>  C        1.8676208134    -2.0220143266     3.1053513559
| 11>  C        2.5717323354    -2.6990804698     4.2535811066
| 12>  C        1.3686773607    -2.7385822297     2.0130608705
| 13>  C        0.7249582674    -2.0698453162     0.9855207208
| 14>  H        1.0335362858     1.8225723705    -0.1299492372
| 15>  H       -0.5401592961     1.7696517011    -0.9597692367
| 16>  H       -0.4774038627     1.9460947471     0.7943266592
| 17>  H       -0.1488699651    -0.4755666855    -0.8232455941
| 18>  H        1.0543204414     1.0313547165     2.2925863126
| 19>  H        2.0330589652    -2.5311960456     5.1923489651
| 20>  H        2.6559899868    -3.7773992821     4.0941564956
| 21>  H        3.5781546633    -2.2888608440     4.3865243715
| 22>  H        1.4856229273    -3.8165696022     1.9701149302
| 23>  H        0.3293427609    -2.6162842366     0.1332822902
| 24> *
| 25>
| 26>                          ****END OF INPUT****

CARTESIAN COORDINATES (ANGSTROEM)
---------------------------------
  C     -0.002633    1.455540   -0.062447
  N     -0.097708    0.014162    0.056234
  C      0.580261   -0.677311    1.049622
  C      1.123582   -0.047169    2.182587
  N      1.738614   -0.692343    3.171867
  C      1.867621   -2.022014    3.105351
  C      2.571732   -2.699080    4.253581
  C      1.368677   -2.738582    2.013061
  C      0.724958   -2.069845    0.985521
  H      1.033536    1.822572   -0.129949
  H     -0.540159    1.769652   -0.959769
  H     -0.477404    1.946095    0.794327
  H     -0.148870   -0.475567   -0.823246
  H      1.054320    1.031355    2.292586
  H      2.033059   -2.531196    5.192349
  H      2.655990   -3.777399    4.094156
  H      3.578155   -2.288861    4.386524
  H      1.485623   -3.816570    1.970115
  H      0.329343   -2.616284    0.133282

 Total Charge           Charge          ....    0
 Multiplicity           Mult            ....    1
 Number of Electrons    NEL             ....   66
 Basis Dimension        Dim             ....  339

ORBITAL ENERGIES
----------------

  NO   OCC          E(Eh)            E(eV)
   0   2.0000     -15.567112      -423.6026
   1   2.0000     -15.552594      -423.2076
   2   2.0000     -11.274330      -306.7901
   3   2.0000     -11.260692      -306.4190
   4   2.0000     -11.258831      -306.3684
   5   2.0000     -11.255150      -306.2682
   6   2.0000     -11.240956      -305.8820
   7   2.0000     -11.231381      -305.6214
   8   2.0000     -11.213678      -305.1397
   9   2.0000      -1.259919       -34.2841
  10   2.0000      -1.225835       -33.3567
  11   2.0000      -1.070042       -29.1173
  12   2.0000      -1.038839       -28.2682
  13   2.0000      -0.952759       -25.9259
  14   2.0000      -0.913647       -24.8616
  15   2.0000      -0.846576       -23.0365
  16   2.0000      -0.810459       -22.0537
  17   2.0000      -0.712647       -19.3921
  18   2.0000      -0.676308       -18.4033
  19   2.0000      -0.653551       -17.7840
  20   2.0000      -0.621242       -16.9049
  21   2.0000      -0.607135       -16.5210
  22   2.0000      -0.594267       -16.1708
  23   2.0000      -0.574575       -15.6350
  24   2.0000      -0.559773       -15.2322
  25   2.0000      -0.542420       -14.7600
  26   2.0000      -0.528948       -14.3934
  27   2.0000      -0.517426       -14.0799
  28   2.0000      -0.508048       -13.8247
  29   2.0000      -0.439754       -11.9663
  30   2.0000      -0.404447       -11.0056
  31   2.0000      -0.365838        -9.9550
  32   2.0000      -0.287855        -7.8329
  33   0.0000       0.108222         2.9449
  34   0.0000       0.134381         3.6567
  35   0.0000       0.145834         3.9683
  36   0.0000       0.156027         4.2457
  37   0.0000       0.157144         4.2761

MULLIKEN ATOMIC CHARGES
-----------------------
   0 C :   -0.304821
   1 N :   -0.329786
   2 C :    0.260027
   3 C :   -0.149101
   4 N :   -0.255545
   5 C :    0.184877
   6 C :   -0.421178
   7 C :   -0.163977
   8 C :   -0.229354
   9 H :    0.135095
  10 H :    0.142282
  11 H :    0.144119
  12 H :    0.227539
  13 H :    0.122894
  14 H :    0.139524
  15 H :    0.123633
  16 H :    0.139660
  17 H :    0.119695
  18 H :    0.114417
Sum of atomic charges:   -0.0000000

LOEWDIN ATOMIC CHARGES
----------------------
   0 C :   -0.331386
   1 N :    0.048464
   2 C :   -0.226843
   3 C :   -0.207678
   4 N :    0.152557
   5 C :   -0.258870
   6 C :   -0.273337
   7 C :   -0.132949
   8 C :   -0.120912
   9 H :    0.109576
  10 H :    0.120113
  11 H :    0.118794
  12 H :    0.181189
  13 H :    0.139017
  14 H :    0.131766
  15 H :    0.123932
  16 H :    0.131692
  17 H :    0.148865
  18 H :    0.146009

  Mayer bond orders larger than 0.1
B(  0-C ,  1-N ) :   0.9154 B(  0-C ,  9-H ) :   0.9322 B(  0-C , 10-H ) :   0.9333
B(  0-C , 11-H ) :   0.9320 B(  1-N ,  2-C ) :   1.0875 B(  1-N , 12-H ) :   0.8753
B(  2-C ,  3-C ) :   1.2280 B(  2-C ,  8-C ) :   1.2590 B(  3-C ,  4-N ) :   1.4617
B(  3-C , 13-H ) :   0.9600 B(  4-N ,  5-C ) :   1.3166 B(  5-C ,  6-C ) :   0.8813
B(  5-C ,  7-C ) :   1.3264 B(  6-C , 14-H ) :   0.9302 B(  6-C , 15-H ) :   0.9528
B(  6-C , 16-H ) :   0.9323 B(  7-C ,  8-C ) :   1.4026 B(  7-C , 17-H ) :   0.9212
B(  8-C , 18-H ) :   0.9354

MP2 TOTAL ENERGY:     -381.441012860 Eh
FINAL SINGLE POINT ENERGY      -381.441012860189

DIPOLE MOMENT
-------------
                                X             Y             Z
Electronic contribution:     -0.42716      -1.26176       0.20176
Nuclear contribution   :      0.10880       1.16017      -1.36122
                        -----------------------------------------
Total Dipole Moment    :     -0.31836      -0.10159      -1.15946
                        -----------------------------------------
Magnitude (a.u.)       :      1.20666
Magnitude (Debye)      :      3.06709

                             ****ORCA TERMINATED NORMALLY****
TOTAL RUN TIME: 0 days 0 hours 17 minutes 33 seconds 327 msec
