                         Program Version 3.0.3 - RELEASE   -
|  1> ! RI-MP2 RIJK def2-TZVP def2-TZVP/C def2-TZVP/JK TIGHTSCF
|  2> % maxcore 2000
|  3> % mp2 density relaxed end
|  4> *xyz 0 1
|  5>  C        0.0123992644     0.8000360300    -1.3732418911
|  6>  C       -0.0262482994     0.0276469900    -0.0760183464
|  7>  C        1.1993537205    -0.4820756001     0.5541280971
|  8>  O        0.5429988384     0.6877178876     1.0560164103
|  9>  C       -1.3290217229    -0.6965133088     0.2003699529
| 10>  C       -1.9337918051    -0.6406552469     1.5459880938
| 11>  O       -2.4415336460     0.1707081152     0.4888569249
| 12>  C       -1.6094293803    -1.8106524747    -0.6749121191
| 13>  C       -1.8032824191    -2.7355486053    -1.4178643629
| 14>  H        0.9786938452     1.2948981752    -1.4929262303
| 15>  H       -0.1554797973     0.1328850210    -2.2238443769
| 16>  H       -0.7745224767     1.5601050968    -1.3744982219
| 17>  H        1.1534046746    -1.3564675925     1.2015324385
| 18>  H        2.1597492407    -0.3080290819     0.0716924379
| 19>  H       -2.5823013805    -1.4552760716     1.8627062555
| 20>  H       -1.3947455540    -0.1081700460     2.3248994925
| 21>  H       -1.9886562626    -3.5530792980    -2.0703556549
| 22> *
| 23>
| 24>                          ****END OF INPUT****

CARTESIAN COORDINATES (ANGSTROEM)
---------------------------------
  C      0.012399    0.800036   -1.373242
  C     -0.026248    0.027647   -0.076018
  C      1.199354   -0.482076    0.554128
  O      0.542999    0.687718    1.056016
  C     -1.329022   -0.696513    0.200370
  C     -1.933792   -0.640655    1.545988
  O     -2.441534    0.170708    0.488857
  C     -1.609429   -1.810652   -0.674912
  C     -1.803282   -2.735549   -1.417864
  H      0.978694    1.294898   -1.492926
  H     -0.155480    0.132885   -2.223844
  H     -0.774522    1.560105   -1.374498
  H      1.153405   -1.356468    1.201532
  H      2.159749   -0.308029    0.071692
  H     -2.582301   -1.455276    1.862706
  H     -1.394746   -0.108170    2.324899
  H     -1.988656   -3.553079   -2.070356

 Total Charge           Charge          ....    0
 Multiplicity           Mult            ....    1
 Number of Electrons    NEL             ....   66
 Basis Dimension        Dim             ....  327

ORBITAL ENERGIES
----------------

  NO   OCC          E(Eh)            E(eV)
   0   2.0000     -20.582777      -560.0858
   1   2.0000     -20.577266      -559.9359
   2   2.0000     -11.325814      -308.1911
   3   2.0000     -11.308572      -307.7219
   4   2.0000     -11.295513      -307.3665
   5   2.0000     -11.292340      -307.2802
   6   2.0000     -11.249496      -306.1143
   7   2.0000     -11.243413      -305.9488
   8   2.0000     -11.226946      -305.5007
   9   2.0000      -1.435890       -39.0726
  10   2.0000      -1.414380       -38.4872
  11   2.0000      -1.074483       -29.2382
  12   2.0000      -1.022707       -27.8293
  13   2.0000      -0.957595       -26.0575
  14   2.0000      -0.917966       -24.9791
  15   2.0000      -0.894563       -24.3423
  16   2.0000      -0.815405       -22.1883
  17   2.0000      -0.739959       -20.1353
  18   2.0000      -0.718148       -19.5418
  19   2.0000      -0.691263       -18.8102
  20   2.0000      -0.667942       -18.1756
  21   2.0000      -0.618829       -16.8392
  22   2.0000      -0.593938       -16.1619
  23   2.0000      -0.584351       -15.9010
  24   2.0000      -0.559805       -15.2331
  25   2.0000      -0.539582       -14.6828
  26   2.0000      -0.531684       -14.4679
  27   2.0000      -0.490913       -13.3584
  28   2.0000      -0.479115       -13.0374
  29   2.0000      -0.456214       -12.4142
  30   2.0000      -0.437352       -11.9010
  31   2.0000      -0.409594       -11.1456
  32   2.0000      -0.389927       -10.6104
  33   0.0000       0.146119         3.9761
  34   0.0000       0.148454         4.0396
  35   0.0000       0.155777         4.2389
  36   0.0000       0.157948         4.2980
  37   0.0000       0.173621         4.7245

MULLIKEN ATOMIC CHARGES
-----------------------
   0 C :   -0.436109
   1 C :    0.166954
   2 C :   -0.091989
   3 O :   -0.334313
   4 C :   -0.001044
   5 C :   -0.055097
   6 O :   -0.322421
   7 C :   -0.000237
   8 C :   -0.084626
   9 H :    0.140156
  10 H :    0.152054
  11 H :    0.157248
  12 H :    0.122734
  13 H :    0.120118
  14 H :    0.123699
  15 H :    0.144905
  16 H :    0.197968
Sum of atomic charges:   -0.0000000

LOEWDIN ATOMIC CHARGES
----------------------
   0 C :   -0.252557
   1 C :   -0.310255
   2 C :   -0.228836
   3 O :    0.178134
   4 C :   -0.284808
   5 C :   -0.211496
   6 O :    0.189636
   7 C :   -0.056496
   8 C :   -0.067785
   9 H :    0.133027
  10 H :    0.137113
  11 H :    0.138923
  12 H :    0.125197
  13 H :    0.123929
  14 H :    0.125718
  15 H :    0.130533
  16 H :    0.130022

  Mayer bond orders larger than 0.1
B(  0-C ,  1-C ) :   0.8935 B(  0-C ,  9-H ) :   0.9335 B(  0-C , 10-H ) :   0.9327
B(  0-C , 11-H ) :   0.9347 B(  1-C ,  2-C ) :   0.9850 B(  1-C ,  3-O ) :   0.8517
B(  1-C ,  4-C ) :   0.9399 B(  2-C ,  3-O ) :   0.8984 B(  2-C , 12-H ) :   0.8971
B(  2-C , 13-H ) :   0.9159 B(  4-C ,  5-C ) :   0.9733 B(  4-C ,  6-O ) :   0.8202
B(  4-C ,  7-C ) :   1.1614 B(  4-C ,  8-C ) :  -0.1503 B(  5-C ,  6-O ) :   0.9168
B(  5-C , 14-H ) :   0.9151 B(  5-C , 15-H ) :   0.8937 B(  7-C ,  8-C ) :   2.6027
B(  8-C , 16-H ) :   0.8787

MP2 TOTAL ENERGY:     -421.031003190 Eh
FINAL SINGLE POINT ENERGY      -421.031003190027

DIPOLE MOMENT
-------------
                                X             Y             Z
Electronic contribution:     -2.99987      -0.78006       1.82451
Nuclear contribution   :      3.53450      -0.11021      -2.06383
                        -----------------------------------------
Total Dipole Moment    :      0.53463      -0.89027      -0.23932
                        -----------------------------------------
Magnitude (a.u.)       :      1.06569
Magnitude (Debye)      :      2.70876

                             ****ORCA TERMINATED NORMALLY****
TOTAL RUN TIME: 0 days 0 hours 16 minutes 40 seconds 489 msec
