                         Program Version 3.0.3 - RELEASE   -
|  1> ! RI-MP2 RIJK def2-TZVP def2-TZVP/C def2-TZVP/JK TIGHTSCF
|  2> % maxcore 2000
|  3> % mp2 density relaxed end
|  4> *xyz 0 1
|  5>  O       -0.2061254496     1.5124956061    -0.0574666676
|  6>  C       -0.0490369879     0.1132427606    -0.2345994529
|  7>  C       -1.3310859275    -0.5596762933     0.2469459122
|  8>  C       -1.2947286867    -2.0647454632     0.1043803144
|  9>  C       -1.6311947217    -2.7430036016    -1.1857739059
| 10>  N       -2.5762559181    -2.8005156703    -0.0644862992
| 11>  C       -2.4804230356    -4.0305678343     0.7524563477
| 12>  C       -1.0998712546    -4.0085771339     1.3709749511
| 13>  C       -0.4522179983    -2.8988472369     1.0193040595
| 14>  H        0.5939827301     1.9468081527    -0.3667785397
| 15>  H        0.1266171543    -0.1411922602    -1.2923125923
| 16>  H        0.8156146761    -0.2630880008     0.3365500994
| 17>  H       -1.5032687874    -0.2833303278     1.2939658280
| 18>  H       -2.1740289319    -0.1665735116    -0.3295811126
| 19>  H       -1.9842544324    -2.1605749679    -2.0340216327
| 20>  H       -1.0699538834    -3.6389393122    -1.4435856956
| 21>  H       -3.2705132045    -4.0199629269     1.5154930075
| 22>  H       -2.6563548270    -4.9167888224     0.1289816313
| 23>  H       -0.7124958438    -4.8058342594     1.9947658144
| 24>  H        0.5445516001    -2.6133519565     1.3329114331
| 25> *
| 26>
| 27>                          ****END OF INPUT****

CARTESIAN COORDINATES (ANGSTROEM)
---------------------------------
  O     -0.206125    1.512496   -0.057467
  C     -0.049037    0.113243   -0.234599
  C     -1.331086   -0.559676    0.246946
  C     -1.294729   -2.064745    0.104380
  C     -1.631195   -2.743004   -1.185774
  N     -2.576256   -2.800516   -0.064486
  C     -2.480423   -4.030568    0.752456
  C     -1.099871   -4.008577    1.370975
  C     -0.452218   -2.898847    1.019304
  H      0.593983    1.946808   -0.366779
  H      0.126617   -0.141192   -1.292313
  H      0.815615   -0.263088    0.336550
  H     -1.503269   -0.283330    1.293966
  H     -2.174029   -0.166574   -0.329581
  H     -1.984254   -2.160575   -2.034022
  H     -1.069954   -3.638939   -1.443586
  H     -3.270513   -4.019963    1.515493
  H     -2.656355   -4.916789    0.128982
  H     -0.712496   -4.805834    1.994766
  H      0.544552   -2.613352    1.332911

 Total Charge           Charge          ....    0
 Multiplicity           Mult            ....    1
 Number of Electrons    NEL             ....   68
 Basis Dimension        Dim             ....  345

ORBITAL ENERGIES
----------------

  NO   OCC          E(Eh)            E(eV)
   0   2.0000     -20.556113      -559.3603
   1   2.0000     -15.556229      -423.3065
   2   2.0000     -11.277365      -306.8727
   3   2.0000     -11.265022      -306.5368
   4   2.0000     -11.255151      -306.2682
   5   2.0000     -11.251384      -306.1657
   6   2.0000     -11.232707      -305.6575
   7   2.0000     -11.230944      -305.6095
   8   2.0000     -11.219967      -305.3108
   9   2.0000      -1.360245       -37.0142
  10   2.0000      -1.284708       -34.9587
  11   2.0000      -1.061957       -28.8973
  12   2.0000      -1.045040       -28.4370
  13   2.0000      -0.969031       -26.3687
  14   2.0000      -0.866229       -23.5713
  15   2.0000      -0.832951       -22.6657
  16   2.0000      -0.779716       -21.2172
  17   2.0000      -0.738793       -20.1036
  18   2.0000      -0.704349       -19.1663
  19   2.0000      -0.669378       -18.2147
  20   2.0000      -0.649895       -17.6845
  21   2.0000      -0.629171       -17.1206
  22   2.0000      -0.592093       -16.1117
  23   2.0000      -0.578308       -15.7366
  24   2.0000      -0.565843       -15.3974
  25   2.0000      -0.541409       -14.7325
  26   2.0000      -0.527918       -14.3654
  27   2.0000      -0.503283       -13.6950
  28   2.0000      -0.487036       -13.2529
  29   2.0000      -0.464813       -12.6482
  30   2.0000      -0.444578       -12.0976
  31   2.0000      -0.433449       -11.7948
  32   2.0000      -0.403239       -10.9727
  33   2.0000      -0.334282        -9.0963
  34   0.0000       0.134244         3.6530
  35   0.0000       0.144268         3.9257
  36   0.0000       0.153349         4.1729
  37   0.0000       0.168393         4.5822
  38   0.0000       0.171049         4.6545

MULLIKEN ATOMIC CHARGES
-----------------------
   0 O :   -0.459754
   1 C :   -0.104180
   2 C :   -0.179484
   3 C :    0.202512
   4 C :   -0.215101
   5 N :   -0.235988
   6 C :   -0.090494
   7 C :   -0.188829
   8 C :   -0.246193
   9 H :    0.314613
  10 H :    0.101751
  11 H :    0.092013
  12 H :    0.119403
  13 H :    0.130691
  14 H :    0.123099
  15 H :    0.123651
  16 H :    0.127534
  17 H :    0.123552
  18 H :    0.130143
  19 H :    0.131061
Sum of atomic charges:    0.0000000

LOEWDIN ATOMIC CHARGES
----------------------
   0 O :   -0.049542
   1 C :   -0.345523
   2 C :   -0.221845
   3 C :   -0.261077
   4 C :   -0.219825
   5 N :    0.135911
   6 C :   -0.258196
   7 C :   -0.158222
   8 C :   -0.128730
   9 H :    0.171918
  10 H :    0.115942
  11 H :    0.113040
  12 H :    0.147389
  13 H :    0.152125
  14 H :    0.127596
  15 H :    0.129041
  16 H :    0.135456
  17 H :    0.135581
  18 H :    0.137181
  19 H :    0.141778

  Mayer bond orders larger than 0.1
B(  0-O ,  1-C ) :   1.0192 B(  0-O ,  9-H ) :   0.8485 B(  1-C ,  2-C ) :   0.9192
B(  1-C , 10-H ) :   0.9311 B(  1-C , 11-H ) :   0.9307 B(  2-C ,  3-C ) :   0.8519
B(  2-C , 12-H ) :   0.9205 B(  2-C , 13-H ) :   0.9287 B(  3-C ,  4-C ) :   0.9041
B(  3-C ,  5-N ) :   0.8765 B(  3-C ,  8-C ) :   0.9385 B(  4-C ,  5-N ) :   0.9102
B(  4-C , 14-H ) :   0.9139 B(  4-C , 15-H ) :   0.9061 B(  5-N ,  6-C ) :   0.9274
B(  6-C ,  7-C ) :   0.9757 B(  6-C , 16-H ) :   0.9108 B(  6-C , 17-H ) :   0.9247
B(  7-C ,  8-C ) :   1.7881 B(  7-C , 18-H ) :   0.9192 B(  8-C , 19-H ) :   0.9201

MP2 TOTAL ENERGY:     -402.430401663 Eh
FINAL SINGLE POINT ENERGY      -402.430401662912

DIPOLE MOMENT
-------------
                                X             Y             Z
Electronic contribution:     -0.88608       0.20714       0.74231
Nuclear contribution   :      1.85785      -0.69220      -0.93668
                        -----------------------------------------
Total Dipole Moment    :      0.97177      -0.48506      -0.19437
                        -----------------------------------------
Magnitude (a.u.)       :      1.10335
Magnitude (Debye)      :      2.80450

                             ****ORCA TERMINATED NORMALLY****
TOTAL RUN TIME: 0 days 0 hours 18 minutes 29 seconds 545 msec
