                         Program Version 3.0.3 - RELEASE   -
|  1> ! RI-MP2 RIJK def2-TZVP def2-TZVP/C def2-TZVP/JK TIGHTSCF
|  2> % maxcore 2000
|  3> % mp2 density relaxed end
|  4> *xyz 0 1
|  5>  O       -0.0185543468    -0.0608692950     0.0134158699
|  6>  C       -0.0253078648     1.1452759539     0.0290054221
|  7>  C       -1.2948319366     1.9767952294     0.0864793995
|  8>  C       -1.7174106586     2.4570902700    -1.3211314796
|  9>  C       -0.7242074061     3.3964414459    -2.0198585441
| 10>  C        0.6691242047     2.7928456284    -2.2595736090
| 11>  N        1.5097651289     2.7225011131    -1.0662631928
| 12>  C        1.3002563139     1.9355814896     0.0227949841
| 13>  O        2.0593357882     1.8647483250     0.9690997470
| 14>  H       -2.0824778682     1.3490147315     0.5116115007
| 15>  H       -1.1374333072     2.8412842848     0.7430032942
| 16>  H       -1.8855130232     1.5746028775    -1.9512489796
| 17>  H       -2.6840260881     2.9636976985    -1.2320244302
| 18>  H       -1.1428509504     3.6742551440    -2.9943386441
| 19>  H       -0.6098686822     4.3250353505    -1.4472724504
| 20>  H        0.5709392493     1.7974501642    -2.7141794324
| 21>  H        1.2114656503     3.4092209951    -2.9803759818
| 22>  H        2.3789480769     3.2366310635    -1.0530535634
| 23> *
| 24>
| 25>                          ****END OF INPUT****

CARTESIAN COORDINATES (ANGSTROEM)
---------------------------------
  O     -0.018554   -0.060869    0.013416
  C     -0.025308    1.145276    0.029005
  C     -1.294832    1.976795    0.086479
  C     -1.717411    2.457090   -1.321131
  C     -0.724207    3.396441   -2.019859
  C      0.669124    2.792846   -2.259574
  N      1.509765    2.722501   -1.066263
  C      1.300256    1.935581    0.022795
  O      2.059336    1.864748    0.969100
  H     -2.082478    1.349015    0.511612
  H     -1.137433    2.841284    0.743003
  H     -1.885513    1.574603   -1.951249
  H     -2.684026    2.963698   -1.232024
  H     -1.142851    3.674255   -2.994339
  H     -0.609869    4.325035   -1.447272
  H      0.570939    1.797450   -2.714179
  H      1.211466    3.409221   -2.980376
  H      2.378948    3.236631   -1.053054

 Total Charge           Charge          ....    0
 Multiplicity           Mult            ....    1
 Number of Electrons    NEL             ....   68
 Basis Dimension        Dim             ....  333

ORBITAL ENERGIES
----------------

  NO   OCC          E(Eh)            E(eV)
   0   2.0000     -20.567055      -559.6580
   1   2.0000     -20.531457      -558.6893
   2   2.0000     -15.598564      -424.4585
   3   2.0000     -11.361857      -309.1718
   4   2.0000     -11.346940      -308.7659
   5   2.0000     -11.292432      -307.2827
   6   2.0000     -11.254363      -306.2468
   7   2.0000     -11.253540      -306.2244
   8   2.0000     -11.250311      -306.1365
   9   2.0000      -1.415929       -38.5294
  10   2.0000      -1.384724       -37.6802
  11   2.0000      -1.250697       -34.0332
  12   2.0000      -1.103578       -30.0299
  13   2.0000      -1.035521       -28.1779
  14   2.0000      -0.930743       -25.3268
  15   2.0000      -0.905910       -24.6511
  16   2.0000      -0.816611       -22.2211
  17   2.0000      -0.747985       -20.3537
  18   2.0000      -0.710140       -19.3239
  19   2.0000      -0.699520       -19.0349
  20   2.0000      -0.654706       -17.8155
  21   2.0000      -0.636115       -17.3096
  22   2.0000      -0.624834       -17.0026
  23   2.0000      -0.612420       -16.6648
  24   2.0000      -0.605253       -16.4698
  25   2.0000      -0.591651       -16.0996
  26   2.0000      -0.545609       -14.8468
  27   2.0000      -0.533145       -14.5076
  28   2.0000      -0.510032       -13.8787
  29   2.0000      -0.500049       -13.6070
  30   2.0000      -0.491532       -13.3753
  31   2.0000      -0.480961       -13.0876
  32   2.0000      -0.407556       -11.0902
  33   2.0000      -0.397319       -10.8116
  34   0.0000       0.102174         2.7803
  35   0.0000       0.135433         3.6853
  36   0.0000       0.141170         3.8414
  37   0.0000       0.148218         4.0332
  38   0.0000       0.164062         4.4644

MULLIKEN ATOMIC CHARGES
-----------------------
   0 O :   -0.260180
   1 C :    0.207392
   2 C :   -0.211176
   3 C :   -0.243977
   4 C :   -0.191988
   5 C :   -0.180850
   6 N :   -0.305432
   7 C :    0.193759
   8 O :   -0.330486
   9 H :    0.142528
  10 H :    0.135709
  11 H :    0.130653
  12 H :    0.134984
  13 H :    0.129612
  14 H :    0.111648
  15 H :    0.147123
  16 H :    0.148417
  17 H :    0.242261
Sum of atomic charges:    0.0000000

LOEWDIN ATOMIC CHARGES
----------------------
   0 O :    0.181620
   1 C :   -0.286163
   2 C :   -0.225626
   3 C :   -0.258858
   4 C :   -0.269072
   5 C :   -0.277012
   6 N :    0.114336
   7 C :   -0.435136
   8 O :    0.105839
   9 H :    0.151913
  10 H :    0.151976
  11 H :    0.144531
  12 H :    0.143450
  13 H :    0.144474
  14 H :    0.140908
  15 H :    0.140088
  16 H :    0.141092
  17 H :    0.191639

  Mayer bond orders larger than 0.1
B(  0-O ,  1-C ) :   1.9779 B(  1-C ,  2-C ) :   0.8847 B(  1-C ,  7-C ) :   0.8729
B(  2-C ,  3-C ) :   0.9007 B(  2-C ,  9-H ) :   0.9160 B(  2-C , 10-H ) :   0.9137
B(  3-C ,  4-C ) :   0.9314 B(  3-C , 11-H ) :   0.9308 B(  3-C , 12-H ) :   0.9265
B(  4-C ,  5-C ) :   0.9064 B(  4-C , 13-H ) :   0.9239 B(  4-C , 14-H ) :   0.9206
B(  5-C ,  6-N ) :   0.9021 B(  5-C , 15-H ) :   0.9450 B(  5-C , 16-H ) :   0.9293
B(  6-N ,  7-C ) :   1.1810 B(  6-N , 17-H ) :   0.8564 B(  7-C ,  8-O ) :   1.9577

MP2 TOTAL ENERGY:     -438.415299509 Eh
FINAL SINGLE POINT ENERGY      -438.415299508727

DIPOLE MOMENT
-------------
                                X             Y             Z
Electronic contribution:      5.96655      -5.05426       5.60959
Nuclear contribution   :     -6.79989       6.52062      -7.09363
                        -----------------------------------------
Total Dipole Moment    :     -0.83334       1.46636      -1.48404
                        -----------------------------------------
Magnitude (a.u.)       :      2.24656
Magnitude (Debye)      :      5.71031

                             ****ORCA TERMINATED NORMALLY****
TOTAL RUN TIME: 0 days 0 hours 18 minutes 32 seconds 174 msec
