                         Program Version 3.0.3 - RELEASE   -
|  1> ! RI-MP2 RIJK def2-TZVP def2-TZVP/C def2-TZVP/JK TIGHTSCF
|  2> % maxcore 2000
|  3> % mp2 density relaxed end
|  4> *xyz 0 1
|  5>  C       -0.1622687383     1.5646689294    -0.0359540159
|  6>  C       -0.0390761855     0.0680202740     0.0124305180
|  7>  C       -1.2394904270    -0.8924618532     0.0716284607
|  8>  C       -0.4542261381    -1.8015380580     1.0690372871
|  9>  C        0.7375703942    -0.8413529602     0.9817315217
| 10>  C        1.2018099069    -0.6588909991    -0.4452187025
| 11>  C        1.2620911059    -1.7509962698    -1.5033871645
| 12>  C        2.4748835867    -2.6350407886    -1.3097726305
| 13>  O        3.3118612367    -2.8556042444    -2.1470599669
| 14>  H        0.8030765456     2.0491053776     0.1437947765
| 15>  H       -0.5236939077     1.9031612658    -1.0149763088
| 16>  H       -0.8670269918     1.9307034977     0.7197440431
| 17>  H       -2.1124761752    -0.4300647261     0.5388584438
| 18>  H       -1.5590819810    -1.3388560896    -0.8761888066
| 19>  H       -0.9114039925    -1.8110210152     2.0605812117
| 20>  H       -0.2747262352    -2.8396838781     0.7692851065
| 21>  H        1.3724376457    -0.5618794652     1.8153672754
| 22>  H        2.0535903425     0.0174034336    -0.5030677999
| 23>  H        0.3763770869    -2.3958025054    -1.4406624004
| 24>  H        1.2967610788    -1.3289539478    -2.5125373186
| 25>  H        2.5523444522    -3.0810369474    -0.2905529798
| 26> *
| 27>
| 28>                          ****END OF INPUT****

CARTESIAN COORDINATES (ANGSTROEM)
---------------------------------
  C     -0.162269    1.564669   -0.035954
  C     -0.039076    0.068020    0.012431
  C     -1.239490   -0.892462    0.071628
  C     -0.454226   -1.801538    1.069037
  C      0.737570   -0.841353    0.981732
  C      1.201810   -0.658891   -0.445219
  C      1.262091   -1.750996   -1.503387
  C      2.474884   -2.635041   -1.309773
  O      3.311861   -2.855604   -2.147060
  H      0.803077    2.049105    0.143795
  H     -0.523694    1.903161   -1.014976
  H     -0.867027    1.930703    0.719744
  H     -2.112476   -0.430065    0.538858
  H     -1.559082   -1.338856   -0.876189
  H     -0.911404   -1.811021    2.060581
  H     -0.274726   -2.839684    0.769285
  H      1.372438   -0.561879    1.815367
  H      2.053590    0.017403   -0.503068
  H      0.376377   -2.395803   -1.440662
  H      1.296761   -1.328954   -2.512537
  H      2.552344   -3.081037   -0.290553

 Total Charge           Charge          ....    0
 Multiplicity           Mult            ....    1
 Number of Electrons    NEL             ....   68
 Basis Dimension        Dim             ....  351

ORBITAL ENERGIES
----------------

  NO   OCC          E(Eh)            E(eV)
   0   2.0000     -20.552376      -559.2586
   1   2.0000     -11.326925      -308.2213
   2   2.0000     -11.246715      -306.0387
   3   2.0000     -11.245145      -305.9959
   4   2.0000     -11.239197      -305.8341
   5   2.0000     -11.237818      -305.7966
   6   2.0000     -11.234097      -305.6953
   7   2.0000     -11.232270      -305.6456
   8   2.0000     -11.225360      -305.4576
   9   2.0000      -1.390990       -37.8507
  10   2.0000      -1.203212       -32.7411
  11   2.0000      -1.042529       -28.3687
  12   2.0000      -0.998605       -27.1734
  13   2.0000      -0.959587       -26.1117
  14   2.0000      -0.878538       -23.9062
  15   2.0000      -0.808247       -21.9935
  16   2.0000      -0.762106       -20.7380
  17   2.0000      -0.725993       -19.7553
  18   2.0000      -0.685682       -18.6583
  19   2.0000      -0.650038       -17.6884
  20   2.0000      -0.638395       -17.3716
  21   2.0000      -0.622684       -16.9441
  22   2.0000      -0.601719       -16.3736
  23   2.0000      -0.574214       -15.6252
  24   2.0000      -0.566785       -15.4230
  25   2.0000      -0.545569       -14.8457
  26   2.0000      -0.535508       -14.5719
  27   2.0000      -0.520151       -14.1540
  28   2.0000      -0.502915       -13.6850
  29   2.0000      -0.470281       -12.7970
  30   2.0000      -0.461090       -12.5469
  31   2.0000      -0.430103       -11.7037
  32   2.0000      -0.398644       -10.8476
  33   2.0000      -0.371406       -10.1065
  34   0.0000       0.128360         3.4929
  35   0.0000       0.138594         3.7713
  36   0.0000       0.145286         3.9534
  37   0.0000       0.157479         4.2852
  38   0.0000       0.170315         4.6345

MULLIKEN ATOMIC CHARGES
-----------------------
   0 C :   -0.407078
   1 C :    0.111891
   2 C :   -0.263961
   3 C :   -0.252385
   4 C :   -0.135563
   5 C :   -0.181468
   6 C :   -0.174820
   7 C :    0.090645
   8 O :   -0.263983
   9 H :    0.131058
  10 H :    0.136311
  11 H :    0.129815
  12 H :    0.120523
  13 H :    0.122843
  14 H :    0.124439
  15 H :    0.115277
  16 H :    0.132148
  17 H :    0.125231
  18 H :    0.133631
  19 H :    0.127032
  20 H :    0.078412
Sum of atomic charges:   -0.0000000

LOEWDIN ATOMIC CHARGES
----------------------
   0 C :   -0.274512
   1 C :   -0.208302
   2 C :   -0.193433
   3 C :   -0.218287
   4 C :   -0.152365
   5 C :   -0.174174
   6 C :   -0.238665
   7 C :   -0.291139
   8 O :    0.128486
   9 H :    0.129961
  10 H :    0.129859
  11 H :    0.126935
  12 H :    0.136812
  13 H :    0.126036
  14 H :    0.135643
  15 H :    0.123110
  16 H :    0.135048
  17 H :    0.162665
  18 H :    0.156534
  19 H :    0.148398
  20 H :    0.111388

  Mayer bond orders larger than 0.1
B(  0-C ,  1-C ) :   0.8830 B(  0-C ,  9-H ) :   0.9376 B(  0-C , 10-H ) :   0.9387
B(  0-C , 11-H ) :   0.9390 B(  1-C ,  2-C ) :   0.9107 B(  1-C ,  4-C ) :   0.7954
B(  1-C ,  5-C ) :   0.8607 B(  2-C ,  3-C ) :   0.9705 B(  2-C , 12-H ) :   0.9213
B(  2-C , 13-H ) :   0.9281 B(  3-C ,  4-C ) :   0.9256 B(  3-C , 14-H ) :   0.9230
B(  3-C , 15-H ) :   0.9357 B(  4-C ,  5-C ) :   0.8877 B(  4-C , 16-H ) :   0.9182
B(  5-C ,  6-C ) :   0.8749 B(  5-C , 17-H ) :   0.9309 B(  6-C ,  7-C ) :   0.8850
B(  6-C , 18-H ) :   0.9153 B(  6-C , 19-H ) :   0.9103 B(  7-C ,  8-O ) :   2.0002
B(  7-C , 20-H ) :   0.9382

MP2 TOTAL ENERGY:     -386.391655484 Eh
FINAL SINGLE POINT ENERGY      -386.391655483688

DIPOLE MOMENT
-------------
                                X             Y             Z
Electronic contribution:      6.08860      -4.49430      -3.12692
Nuclear contribution   :     -7.01585       5.00249       3.85089
                        -----------------------------------------
Total Dipole Moment    :     -0.92725       0.50819       0.72396
                        -----------------------------------------
Magnitude (a.u.)       :      1.28147
Magnitude (Debye)      :      3.25725

                             ****ORCA TERMINATED NORMALLY****
TOTAL RUN TIME: 0 days 0 hours 19 minutes 4 seconds 923 msec
