                         Program Version 3.0.3 - RELEASE   -
|  1> ! RI-MP2 RIJK def2-TZVP def2-TZVP/C def2-TZVP/JK TIGHTSCF
|  2> % maxcore 2000
|  3> % mp2 density relaxed end
|  4> *xyz 0 1
|  5>  C       -0.1352829691     1.4994012542     0.0208256301
|  6>  C        0.0794805424    -0.0198894584     0.0234517831
|  7>  C        0.7049314331    -0.5040768135    -1.2502084887
|  8>  C       -0.0519183982    -0.8935184366    -2.4903034531
|  9>  C        0.8936434991    -1.8801336429    -1.8485351207
| 10>  C        2.3685101657    -1.5005631103    -2.0637417720
| 11>  C        2.5986899211    -0.2656371099    -2.8394400657
| 12>  N        2.1834541327    -0.1487165593    -1.4267708247
| 13>  H        0.8144822539     2.0167314913    -0.1446078335
| 14>  H       -0.8260231947     1.7987913018    -0.7743460888
| 15>  H       -0.5471013394     1.8412325721     0.9751394480
| 16>  H        0.7295292561    -0.2963392071     0.8624494478
| 17>  H       -0.8742863290    -0.5403738638     0.1731180115
| 18>  H       -1.0974125126    -1.1090033931    -2.2887050533
| 19>  H        0.1090158256    -0.4733386300    -3.4770938417
| 20>  H        0.5758565395    -2.8447339237    -1.4746911996
| 21>  H        3.1810471393    -2.1468495804    -1.7463435293
| 22>  H        3.6332345792     0.0382945027    -2.9755398459
| 23>  H        1.9439828251     0.0452147069    -3.6449446736
| 24> *
| 25>
| 26>                          ****END OF INPUT****

CARTESIAN COORDINATES (ANGSTROEM)
---------------------------------
  C     -0.135283    1.499401    0.020826
  C      0.079481   -0.019889    0.023452
  C      0.704931   -0.504077   -1.250208
  C     -0.051918   -0.893518   -2.490303
  C      0.893643   -1.880134   -1.848535
  C      2.368510   -1.500563   -2.063742
  C      2.598690   -0.265637   -2.839440
  N      2.183454   -0.148717   -1.426771
  H      0.814482    2.016731   -0.144608
  H     -0.826023    1.798791   -0.774346
  H     -0.547101    1.841233    0.975139
  H      0.729529   -0.296339    0.862449
  H     -0.874286   -0.540374    0.173118
  H     -1.097413   -1.109003   -2.288705
  H      0.109016   -0.473339   -3.477094
  H      0.575857   -2.844734   -1.474691
  H      3.181047   -2.146850   -1.746344
  H      3.633235    0.038295   -2.975540
  H      1.943983    0.045215   -3.644945

 Total Charge           Charge          ....    0
 Multiplicity           Mult            ....    1
 Number of Electrons    NEL             ....   60
 Basis Dimension        Dim             ....  314

ORBITAL ENERGIES
----------------

  NO   OCC          E(Eh)            E(eV)
   0   2.0000     -15.554812      -423.2679
   1   2.0000     -11.265707      -306.5555
   2   2.0000     -11.263503      -306.4955
   3   2.0000     -11.255689      -306.2829
   4   2.0000     -11.235454      -305.7323
   5   2.0000     -11.233384      -305.6759
   6   2.0000     -11.221299      -305.3471
   7   2.0000     -11.207637      -304.9753
   8   2.0000      -1.296970       -35.2923
   9   2.0000      -1.114366       -30.3234
  10   2.0000      -1.028783       -27.9946
  11   2.0000      -0.911805       -24.8115
  12   2.0000      -0.887008       -24.1367
  13   2.0000      -0.847125       -23.0514
  14   2.0000      -0.766870       -20.8676
  15   2.0000      -0.713203       -19.4072
  16   2.0000      -0.688063       -18.7231
  17   2.0000      -0.667182       -18.1549
  18   2.0000      -0.606888       -16.5143
  19   2.0000      -0.586751       -15.9663
  20   2.0000      -0.560889       -15.2626
  21   2.0000      -0.541818       -14.7436
  22   2.0000      -0.521376       -14.1874
  23   2.0000      -0.511065       -13.9068
  24   2.0000      -0.493508       -13.4290
  25   2.0000      -0.469801       -12.7839
  26   2.0000      -0.458623       -12.4798
  27   2.0000      -0.443040       -12.0557
  28   2.0000      -0.373678       -10.1683
  29   2.0000      -0.335565        -9.1312
  30   0.0000       0.143833         3.9139
  31   0.0000       0.158565         4.3148
  32   0.0000       0.164316         4.4713
  33   0.0000       0.178276         4.8511
  34   0.0000       0.192789         5.2461

MULLIKEN ATOMIC CHARGES
-----------------------
   0 C :   -0.416231
   1 C :   -0.185237
   2 C :    0.121450
   3 C :   -0.264403
   4 C :   -0.178049
   5 C :   -0.049266
   6 C :   -0.159880
   7 N :   -0.263112
   8 H :    0.145907
   9 H :    0.121829
  10 H :    0.131664
  11 H :    0.111390
  12 H :    0.104144
  13 H :    0.132101
  14 H :    0.125919
  15 H :    0.139235
  16 H :    0.133082
  17 H :    0.131123
  18 H :    0.118334
Sum of atomic charges:   -0.0000000

LOEWDIN ATOMIC CHARGES
----------------------
   0 C :   -0.309835
   1 C :   -0.256467
   2 C :   -0.231738
   3 C :   -0.192387
   4 C :   -0.163850
   5 C :   -0.198041
   6 C :   -0.245014
   7 N :    0.136659
   8 H :    0.126976
   9 H :    0.120252
  10 H :    0.119878
  11 H :    0.144641
  12 H :    0.141892
  13 H :    0.147776
  14 H :    0.127086
  15 H :    0.138899
  16 H :    0.134877
  17 H :    0.134800
  18 H :    0.123597

  Mayer bond orders larger than 0.1
B(  0-C ,  1-C ) :   0.9229 B(  0-C ,  8-H ) :   0.9372 B(  0-C ,  9-H ) :   0.9371
B(  0-C , 10-H ) :   0.9387 B(  1-C ,  2-C ) :   0.9356 B(  1-C , 11-H ) :   0.9280
B(  1-C , 12-H ) :   0.9245 B(  2-C ,  3-C ) :   0.9070 B(  2-C ,  4-C ) :   0.8386
B(  2-C ,  7-N ) :   0.8952 B(  3-C ,  4-C ) :   0.8840 B(  3-C , 13-H ) :   0.9202
B(  3-C , 14-H ) :   0.9017 B(  4-C ,  5-C ) :   0.9372 B(  4-C , 15-H ) :   0.9130
B(  5-C ,  6-C ) :   0.9753 B(  5-C ,  7-N ) :   0.8638 B(  5-C , 16-H ) :   0.9032
B(  6-C ,  7-N ) :   0.8985 B(  6-C , 17-H ) :   0.9249 B(  6-C , 18-H ) :   0.8982

MP2 TOTAL ENERGY:     -327.248785742 Eh
FINAL SINGLE POINT ENERGY      -327.248785741513

DIPOLE MOMENT
-------------
                                X             Y             Z
Electronic contribution:      3.44698      -3.16341      -1.80417
Nuclear contribution   :     -3.77563       2.83750       1.51683
                        -----------------------------------------
Total Dipole Moment    :     -0.32865      -0.32591      -0.28734
                        -----------------------------------------
Magnitude (a.u.)       :      0.54479
Magnitude (Debye)      :      1.38474

                             ****ORCA TERMINATED NORMALLY****
TOTAL RUN TIME: 0 days 0 hours 14 minutes 27 seconds 464 msec
