                         Program Version 3.0.3 - RELEASE   -
|  1> ! RI-MP2 RIJK def2-TZVP def2-TZVP/C def2-TZVP/JK TIGHTSCF
|  2> % maxcore 2000
|  3> % mp2 density relaxed end
|  4> *xyz 0 1
|  5>  C       -0.0419798283     1.5193726410     0.1169996439
|  6>  C       -0.0023106129     0.0357055362    -0.0359955917
|  7>  C       -0.0142298751    -0.7740032173    -1.1519837848
|  8>  C       -0.0884217275    -0.3715696842    -2.5924370705
|  9>  C        0.0672809400    -2.1273636764    -0.6834747639
| 10>  O        0.0097410666    -3.3008957161    -1.4142841056
| 11>  C        0.1160330053    -2.0962891150     0.6845339287
| 12>  O        0.1709508710    -3.0887843393     1.6076615332
| 13>  N        0.0734984293    -0.7905238934     1.0801051002
| 14>  H        0.8884655096     1.9253921842     0.5371133690
| 15>  H       -0.1924533692     1.9963151441    -0.8540733188
| 16>  H       -0.8615805171     1.8465902818     0.7704523374
| 17>  H        0.8598399042    -0.5369540459    -3.1218564108
| 18>  H       -0.8528146159    -0.9497704340    -3.1241784163
| 19>  H       -0.3365079854     0.6873761848    -2.7042983376
| 20>  H        0.7893533425    -3.3538608645    -1.9775357252
| 21>  H        0.1372033795    -3.9171008648     1.1139398752
| 22>  H        0.0716114634    -0.4893077912     2.0386678776
| 23> *
| 24>
| 25>                          ****END OF INPUT****

CARTESIAN COORDINATES (ANGSTROEM)
---------------------------------
  C     -0.041980    1.519373    0.117000
  C     -0.002311    0.035706   -0.035996
  C     -0.014230   -0.774003   -1.151984
  C     -0.088422   -0.371570   -2.592437
  C      0.067281   -2.127364   -0.683475
  O      0.009741   -3.300896   -1.414284
  C      0.116033   -2.096289    0.684534
  O      0.170951   -3.088784    1.607662
  N      0.073498   -0.790524    1.080105
  H      0.888466    1.925392    0.537113
  H     -0.192453    1.996315   -0.854073
  H     -0.861581    1.846590    0.770452
  H      0.859840   -0.536954   -3.121856
  H     -0.852815   -0.949770   -3.124178
  H     -0.336508    0.687376   -2.704298
  H      0.789353   -3.353861   -1.977536
  H      0.137203   -3.917101    1.113940
  H      0.071611   -0.489308    2.038668

 Total Charge           Charge          ....    0
 Multiplicity           Mult            ....    1
 Number of Electrons    NEL             ....   68
 Basis Dimension        Dim             ....  333

ORBITAL ENERGIES
----------------

  NO   OCC          E(Eh)            E(eV)
   0   2.0000     -20.590354      -560.2920
   1   2.0000     -20.572323      -559.8014
   2   2.0000     -15.591328      -424.2616
   3   2.0000     -11.305874      -307.6485
   4   2.0000     -11.249297      -306.1089
   5   2.0000     -11.247666      -306.0646
   6   2.0000     -11.228394      -305.5401
   7   2.0000     -11.218509      -305.2712
   8   2.0000     -11.212745      -305.1143
   9   2.0000      -1.414069       -38.4788
  10   2.0000      -1.374089       -37.3909
  11   2.0000      -1.276066       -34.7235
  12   2.0000      -1.059730       -28.8367
  13   2.0000      -1.016532       -27.6612
  14   2.0000      -0.954694       -25.9786
  15   2.0000      -0.891173       -24.2500
  16   2.0000      -0.799758       -21.7625
  17   2.0000      -0.759035       -20.6544
  18   2.0000      -0.729591       -19.8532
  19   2.0000      -0.674949       -18.3663
  20   2.0000      -0.666241       -18.1293
  21   2.0000      -0.626433       -17.0461
  22   2.0000      -0.595761       -16.2115
  23   2.0000      -0.581014       -15.8102
  24   2.0000      -0.575299       -15.6547
  25   2.0000      -0.563200       -15.3254
  26   2.0000      -0.558736       -15.2040
  27   2.0000      -0.551820       -15.0158
  28   2.0000      -0.530479       -14.4351
  29   2.0000      -0.519770       -14.1437
  30   2.0000      -0.500623       -13.6226
  31   2.0000      -0.464317       -12.6347
  32   2.0000      -0.331236        -9.0134
  33   2.0000      -0.265372        -7.2211
  34   0.0000       0.124073         3.3762
  35   0.0000       0.139798         3.8041
  36   0.0000       0.159799         4.3483
  37   0.0000       0.179193         4.8761
  38   0.0000       0.184595         5.0231

MULLIKEN ATOMIC CHARGES
-----------------------
   0 C :   -0.441280
   1 C :    0.081347
   2 C :    0.014212
   3 C :   -0.443564
   4 C :    0.042725
   5 O :   -0.493286
   6 C :    0.200009
   7 O :   -0.443479
   8 N :   -0.282672
   9 H :    0.141584
  10 H :    0.137814
  11 H :    0.138629
  12 H :    0.130818
  13 H :    0.152879
  14 H :    0.127839
  15 H :    0.342615
  16 H :    0.348738
  17 H :    0.245071
Sum of atomic charges:    0.0000000

LOEWDIN ATOMIC CHARGES
----------------------
   0 C :   -0.284746
   1 C :   -0.235371
   2 C :   -0.187102
   3 C :   -0.277996
   4 C :   -0.301133
   5 O :    0.017720
   6 C :   -0.356759
   7 O :    0.056167
   8 N :    0.206518
   9 H :    0.127385
  10 H :    0.134268
  11 H :    0.127730
  12 H :    0.125108
  13 H :    0.132518
  14 H :    0.127681
  15 H :    0.189371
  16 H :    0.204926
  17 H :    0.193716

  Mayer bond orders larger than 0.1
B(  0-C ,  1-C ) :   0.8431 B(  0-C ,  9-H ) :   0.9357 B(  0-C , 10-H ) :   0.9568
B(  0-C , 11-H ) :   0.9390 B(  1-C ,  2-C ) :   1.4886 B(  1-C ,  8-N ) :   1.1091
B(  2-C ,  3-C ) :   0.8283 B(  2-C ,  4-C ) :   1.1686 B(  3-C , 12-H ) :   0.9333
B(  3-C , 13-H ) :   0.9446 B(  3-C , 14-H ) :   0.9549 B(  4-C ,  5-O ) :   1.0545
B(  4-C ,  6-C ) :   1.4868 B(  5-O , 15-H ) :   0.8337 B(  6-C ,  7-O ) :   1.1279
B(  6-C ,  8-N ) :   1.1207 B(  7-O , 16-H ) :   0.8200 B(  8-N , 17-H ) :   0.8698

MP2 TOTAL ENERGY:     -438.398937912 Eh
FINAL SINGLE POINT ENERGY      -438.398937911863

DIPOLE MOMENT
-------------
                                X             Y             Z
Electronic contribution:      0.28463      -7.76458       4.66528
Nuclear contribution   :      0.15070       8.08066      -4.64992
                        -----------------------------------------
Total Dipole Moment    :      0.43533       0.31608       0.01536
                        -----------------------------------------
Magnitude (a.u.)       :      0.53820
Magnitude (Debye)      :      1.36800

                             ****ORCA TERMINATED NORMALLY****
TOTAL RUN TIME: 0 days 0 hours 16 minutes 2 seconds 726 msec
