                         Program Version 3.0.3 - RELEASE   -
|  1> ! RI-MP2 RIJK def2-TZVP def2-TZVP/C def2-TZVP/JK TIGHTSCF
|  2> % maxcore 2000
|  3> % mp2 density relaxed end
|  4> *xyz 0 1
|  5>  O       -0.0853769380     1.4249881312     0.0118208589
|  6>  C       -0.0322858822     0.0018450402    -0.0042901716
|  7>  C       -1.4506380936    -0.5266856187     0.0129198569
|  8>  C       -2.2605916444    -0.1537133307     1.2822888565
|  9>  C       -3.4229874598    -1.1968543133     1.2920672062
| 10>  C       -3.1505847713    -2.0368762430     0.0241358912
| 11>  C       -3.4634455110    -1.1699426619    -1.2160411509
| 12>  C       -2.3009645056    -0.1268654366    -1.2213912056
| 13>  C       -1.6077946833    -2.0657392830    -0.0010563443
| 14>  H        0.8157899844     1.7598481029     0.0011846025
| 15>  H        0.4890863408    -0.3614605049    -0.9056098420
| 16>  H        0.5177575295    -0.3805186759     0.8717472677
| 17>  H       -1.6342954400    -0.2516082915     2.1755642486
| 18>  H       -2.6097846642     0.8805205546     1.2485512781
| 19>  H       -3.3823871181    -1.8224264561     2.1893998476
| 20>  H       -4.4126054470    -0.7303353605     1.2698696681
| 21>  H       -3.6496436148    -3.0082971357     0.0217638927
| 22>  H       -3.4520450446    -1.7761056308    -2.1274299843
| 23>  H       -4.4516637125    -0.7043353669    -1.1519203933
| 24>  H       -2.6485156270     0.9062929188    -1.1542646593
| 25>  H       -1.7038230029    -0.2053968351    -2.1362828039
| 26>  H       -1.1978024869    -2.5325133094    -0.9034191060
| 27>  H       -1.1690849774    -2.5516191739     0.8773995662
| 28> *
| 29>
| 30>                          ****END OF INPUT****

CARTESIAN COORDINATES (ANGSTROEM)
---------------------------------
  O     -0.085377    1.424988    0.011821
  C     -0.032286    0.001845   -0.004290
  C     -1.450638   -0.526686    0.012920
  C     -2.260592   -0.153713    1.282289
  C     -3.422987   -1.196854    1.292067
  C     -3.150585   -2.036876    0.024136
  C     -3.463446   -1.169943   -1.216041
  C     -2.300965   -0.126865   -1.221391
  C     -1.607795   -2.065739   -0.001056
  H      0.815790    1.759848    0.001185
  H      0.489086   -0.361461   -0.905610
  H      0.517758   -0.380519    0.871747
  H     -1.634295   -0.251608    2.175564
  H     -2.609785    0.880521    1.248551
  H     -3.382387   -1.822426    2.189400
  H     -4.412605   -0.730335    1.269870
  H     -3.649644   -3.008297    0.021764
  H     -3.452045   -1.776106   -2.127430
  H     -4.451664   -0.704335   -1.151920
  H     -2.648516    0.906293   -1.154265
  H     -1.703823   -0.205397   -2.136283
  H     -1.197802   -2.532513   -0.903419
  H     -1.169085   -2.551619    0.877400

 Total Charge           Charge          ....    0
 Multiplicity           Mult            ....    1
 Number of Electrons    NEL             ....   70
 Basis Dimension        Dim             ....  363

ORBITAL ENERGIES
----------------

  NO   OCC          E(Eh)            E(eV)
   0   2.0000     -20.551238      -559.2276
   1   2.0000     -11.269434      -306.6569
   2   2.0000     -11.221869      -305.3626
   3   2.0000     -11.217288      -305.2379
   4   2.0000     -11.211957      -305.0929
   5   2.0000     -11.210022      -305.0402
   6   2.0000     -11.209988      -305.0393
   7   2.0000     -11.207383      -304.9684
   8   2.0000     -11.207362      -304.9678
   9   2.0000      -1.354609       -36.8608
  10   2.0000      -1.159429       -31.5497
  11   2.0000      -1.005531       -27.3619
  12   2.0000      -0.991882       -26.9905
  13   2.0000      -0.940142       -25.5826
  14   2.0000      -0.885975       -24.1086
  15   2.0000      -0.819915       -22.3110
  16   2.0000      -0.750664       -20.4266
  17   2.0000      -0.713724       -19.4214
  18   2.0000      -0.690154       -18.7800
  19   2.0000      -0.648836       -17.6557
  20   2.0000      -0.645085       -17.5536
  21   2.0000      -0.621102       -16.9010
  22   2.0000      -0.609331       -16.5807
  23   2.0000      -0.549209       -14.9447
  24   2.0000      -0.542495       -14.7620
  25   2.0000      -0.526959       -14.3393
  26   2.0000      -0.500159       -13.6100
  27   2.0000      -0.491546       -13.3756
  28   2.0000      -0.466847       -12.7036
  29   2.0000      -0.463097       -12.6015
  30   2.0000      -0.461076       -12.5465
  31   2.0000      -0.439763       -11.9666
  32   2.0000      -0.439417       -11.9571
  33   2.0000      -0.426045       -11.5933
  34   2.0000      -0.408826       -11.1247
  35   0.0000       0.130850         3.5606
  36   0.0000       0.142135         3.8677
  37   0.0000       0.170619         4.6428
  38   0.0000       0.172970         4.7067
  39   0.0000       0.179584         4.8867

MULLIKEN ATOMIC CHARGES
-----------------------
   0 O :   -0.470608
   1 C :   -0.083361
   2 C :    0.192165
   3 C :   -0.289647
   4 C :   -0.266590
   5 C :    0.022876
   6 C :   -0.266585
   7 C :   -0.289657
   8 C :   -0.315072
   9 H :    0.311673
  10 H :    0.096677
  11 H :    0.096684
  12 H :    0.109813
  13 H :    0.123334
  14 H :    0.113462
  15 H :    0.112050
  16 H :    0.117196
  17 H :    0.113462
  18 H :    0.112049
  19 H :    0.123338
  20 H :    0.109817
  21 H :    0.113464
  22 H :    0.113462
Sum of atomic charges:    0.0000000

LOEWDIN ATOMIC CHARGES
----------------------
   0 O :   -0.043399
   1 C :   -0.311884
   2 C :   -0.276253
   3 C :   -0.198874
   4 C :   -0.225760
   5 C :   -0.236312
   6 C :   -0.225759
   7 C :   -0.198873
   8 C :   -0.185526
   9 H :    0.170625
  10 H :    0.119235
  11 H :    0.119235
  12 H :    0.135841
  13 H :    0.137882
  14 H :    0.132900
  15 H :    0.132042
  16 H :    0.139369
  17 H :    0.132900
  18 H :    0.132042
  19 H :    0.137883
  20 H :    0.135842
  21 H :    0.138422
  22 H :    0.138421

  Mayer bond orders larger than 0.1
B(  0-O ,  1-C ) :   1.0732 B(  0-O ,  2-C ) :  -0.1135 B(  0-O ,  9-H ) :   0.8503
B(  1-C ,  2-C ) :   0.8665 B(  1-C , 10-H ) :   0.9356 B(  1-C , 11-H ) :   0.9356
B(  2-C ,  3-C ) :   0.9133 B(  2-C ,  7-C ) :   0.9133 B(  2-C ,  8-C ) :   0.9189
B(  3-C ,  4-C ) :   0.9618 B(  3-C , 12-H ) :   0.9215 B(  3-C , 13-H ) :   0.9317
B(  4-C ,  5-C ) :   0.9089 B(  4-C , 14-H ) :   0.9265 B(  4-C , 15-H ) :   0.9285
B(  5-C ,  6-C ) :   0.9089 B(  5-C ,  8-C ) :   0.9325 B(  5-C , 16-H ) :   0.9231
B(  6-C ,  7-C ) :   0.9617 B(  6-C , 17-H ) :   0.9265 B(  6-C , 18-H ) :   0.9285
B(  7-C , 19-H ) :   0.9317 B(  7-C , 20-H ) :   0.9215 B(  8-C , 21-H ) :   0.9162
B(  8-C , 22-H ) :   0.9162

MP2 TOTAL ENERGY:     -387.652189724 Eh
FINAL SINGLE POINT ENERGY      -387.652189723762

DIPOLE MOMENT
-------------
                                X             Y             Z
Electronic contribution:      1.96063       1.95464      -0.01073
Nuclear contribution   :     -1.45668      -2.22971      -0.00016
                        -----------------------------------------
Total Dipole Moment    :      0.50394      -0.27507      -0.01089
                        -----------------------------------------
Magnitude (a.u.)       :      0.57423
Magnitude (Debye)      :      1.45957

                             ****ORCA TERMINATED NORMALLY****
TOTAL RUN TIME: 0 days 0 hours 22 minutes 32 seconds 330 msec
