                         Program Version 3.0.3 - RELEASE   -
|  1> ! RI-MP2 RIJK def2-TZVP def2-TZVP/C def2-TZVP/JK TIGHTSCF
|  2> % maxcore 2000
|  3> % mp2 density relaxed end
|  4> *xyz 0 1
|  5>  C        0.0225734236     1.6059861197    -0.1686716415
|  6>  C       -0.0084520847     0.0743675112     0.0117112361
|  7>  C        0.8790023324    -0.3845663645     1.1869296909
|  8>  C        2.3588632008    -0.2584644656     0.9178145285
|  9>  O        2.8552051079     0.0250345272    -0.1486813806
| 10>  C        3.3072341731    -0.5361883088     2.0955969376
| 11>  O        2.9305023138    -0.7932765999     3.2076996676
| 12>  C       -1.3758120336    -0.4067291983     0.1995944110
| 13>  C       -2.5004237492    -0.7931423495     0.3755961296
| 14>  H        1.0434030731     1.9426177485    -0.3626519374
| 15>  H       -0.6056650713     1.9034908541    -1.0115572436
| 16>  H       -0.3552149326     2.1071550399     0.7278865516
| 17>  H        0.3992756706    -0.3789763521    -0.9005475451
| 18>  H        0.6390849674     0.1566552743     2.1098451351
| 19>  H        0.6889324255    -1.4387514309     1.4297537149
| 20>  H        4.3773595280    -0.4666825143     1.8070911464
| 21>  H       -3.4946123646    -1.1386163610     0.5163629691
| 22> *
| 23>
| 24>                          ****END OF INPUT****

CARTESIAN COORDINATES (ANGSTROEM)
---------------------------------
  C      0.022573    1.605986   -0.168672
  C     -0.008452    0.074368    0.011711
  C      0.879002   -0.384566    1.186930
  C      2.358863   -0.258464    0.917815
  O      2.855205    0.025035   -0.148681
  C      3.307234   -0.536188    2.095597
  O      2.930502   -0.793277    3.207700
  C     -1.375812   -0.406729    0.199594
  C     -2.500424   -0.793142    0.375596
  H      1.043403    1.942618   -0.362652
  H     -0.605665    1.903491   -1.011557
  H     -0.355215    2.107155    0.727887
  H      0.399276   -0.378976   -0.900548
  H      0.639085    0.156655    2.109845
  H      0.688932   -1.438751    1.429754
  H      4.377360   -0.466683    1.807091
  H     -3.494612   -1.138616    0.516363

 Total Charge           Charge          ....    0
 Multiplicity           Mult            ....    1
 Number of Electrons    NEL             ....   66
 Basis Dimension        Dim             ....  327

ORBITAL ENERGIES
----------------

  NO   OCC          E(Eh)            E(eV)
   0   2.0000     -20.599961      -560.5534
   1   2.0000     -20.590508      -560.2962
   2   2.0000     -11.362323      -309.1845
   3   2.0000     -11.360585      -309.1372
   4   2.0000     -11.271641      -306.7169
   5   2.0000     -11.260315      -306.4087
   6   2.0000     -11.238328      -305.8105
   7   2.0000     -11.229313      -305.5651
   8   2.0000     -11.227075      -305.5042
   9   2.0000      -1.440707       -39.2036
  10   2.0000      -1.422764       -38.7154
  11   2.0000      -1.122924       -30.5563
  12   2.0000      -1.028396       -27.9841
  13   2.0000      -0.992697       -27.0127
  14   2.0000      -0.927814       -25.2471
  15   2.0000      -0.865424       -23.5494
  16   2.0000      -0.764082       -20.7917
  17   2.0000      -0.731404       -19.9025
  18   2.0000      -0.705703       -19.2032
  19   2.0000      -0.699187       -19.0258
  20   2.0000      -0.663064       -18.0429
  21   2.0000      -0.650095       -17.6900
  22   2.0000      -0.619204       -16.8494
  23   2.0000      -0.594759       -16.1842
  24   2.0000      -0.572681       -15.5834
  25   2.0000      -0.547981       -14.9113
  26   2.0000      -0.524364       -14.2687
  27   2.0000      -0.519648       -14.1404
  28   2.0000      -0.514687       -14.0053
  29   2.0000      -0.506909       -13.7937
  30   2.0000      -0.430604       -11.7173
  31   2.0000      -0.392250       -10.6737
  32   2.0000      -0.390486       -10.6257
  33   0.0000       0.050118         1.3638
  34   0.0000       0.131577         3.5804
  35   0.0000       0.161609         4.3976
  36   0.0000       0.162630         4.4254
  37   0.0000       0.170387         4.6365

MULLIKEN ATOMIC CHARGES
-----------------------
   0 C :   -0.413549
   1 C :   -0.143616
   2 C :   -0.272366
   3 C :    0.216425
   4 O :   -0.270294
   5 C :    0.081663
   6 O :   -0.236784
   7 C :   -0.023723
   8 C :   -0.131375
   9 H :    0.152598
  10 H :    0.143647
  11 H :    0.129767
  12 H :    0.128104
  13 H :    0.163432
  14 H :    0.167091
  15 H :    0.116310
  16 H :    0.192672
Sum of atomic charges:    0.0000000

LOEWDIN ATOMIC CHARGES
----------------------
   0 C :   -0.268373
   1 C :   -0.258844
   2 C :   -0.201631
   3 C :   -0.321425
   4 O :    0.181419
   5 C :   -0.253637
   6 O :    0.165625
   7 C :   -0.090427
   8 C :   -0.098908
   9 H :    0.127735
  10 H :    0.130123
  11 H :    0.126870
  12 H :    0.175891
  13 H :    0.165553
  14 H :    0.171249
  15 H :    0.121586
  16 H :    0.127195

  Mayer bond orders larger than 0.1
B(  0-C ,  1-C ) :   0.9120 B(  0-C ,  9-H ) :   0.9354 B(  0-C , 10-H ) :   0.9365
B(  0-C , 11-H ) :   0.9270 B(  1-C ,  2-C ) :   0.9166 B(  1-C ,  7-C ) :   1.1212
B(  1-C ,  8-C ) :  -0.1009 B(  1-C , 12-H ) :   0.9312 B(  2-C ,  3-C ) :   0.9001
B(  2-C , 13-H ) :   0.8926 B(  2-C , 14-H ) :   0.8930 B(  3-C ,  4-O ) :   1.9142
B(  3-C ,  5-C ) :   0.8620 B(  5-C ,  6-O ) :   1.9840 B(  5-C , 15-H ) :   0.9362
B(  7-C ,  8-C ) :   2.6011 B(  8-C , 16-H ) :   0.8921

MP2 TOTAL ENERGY:     -421.091903023 Eh
FINAL SINGLE POINT ENERGY      -421.091903023348

DIPOLE MOMENT
-------------
                                X             Y             Z
Electronic contribution:      4.98007      -3.54579       2.45630
Nuclear contribution   :     -5.12763       3.60048      -2.50727
                        -----------------------------------------
Total Dipole Moment    :     -0.14756       0.05468      -0.05097
                        -----------------------------------------
Magnitude (a.u.)       :      0.16542
Magnitude (Debye)      :      0.42047

                             ****ORCA TERMINATED NORMALLY****
TOTAL RUN TIME: 0 days 0 hours 16 minutes 1 seconds 212 msec
