                         Program Version 3.0.3 - RELEASE   -
|  1> ! RI-MP2 RIJK def2-TZVP def2-TZVP/C def2-TZVP/JK TIGHTSCF
|  2> % maxcore 2000
|  3> % mp2 density relaxed end
|  4> *xyz 0 1
|  5>  C        0.0130890612     1.5260606885    -0.1388190843
|  6>  C       -0.0453193160     0.0343697957    -0.0237025248
|  7>  O        0.5194655571    -0.7073233878    -1.1330721900
|  8>  C       -0.2362045241    -1.8283148719    -0.6153881357
|  9>  C        0.4432385747    -2.1960310727     0.7306804510
| 10>  O       -0.6340865484    -2.6234655427     1.6026168068
| 11>  C       -1.0498648635    -1.2431233186     1.5525031038
| 12>  C        0.3901393791    -0.7288637383     1.2776056744
| 13>  C       -1.2999670198    -0.8916758116     0.0499795950
| 14>  H        1.0539891441     1.8666961336    -0.1591265020
| 15>  H       -0.4774050636     1.8642731539    -1.0560365741
| 16>  H       -0.4822373909     1.9972108551     0.7161617768
| 17>  H       -0.4533642750    -2.6055446974    -1.3451056209
| 18>  H        1.3184333988    -2.8425604581     0.7401164870
| 19>  H       -1.7348152419    -0.9348400053     2.3396194924
| 20>  H        1.0986942642    -0.3724153440     2.0208735972
| 21>  H       -2.2622160060    -0.7019718183    -0.4182108628
| 22> *
| 23>
| 24>                          ****END OF INPUT****

CARTESIAN COORDINATES (ANGSTROEM)
---------------------------------
  C      0.013089    1.526061   -0.138819
  C     -0.045319    0.034370   -0.023703
  O      0.519466   -0.707323   -1.133072
  C     -0.236205   -1.828315   -0.615388
  C      0.443239   -2.196031    0.730680
  O     -0.634087   -2.623466    1.602617
  C     -1.049865   -1.243123    1.552503
  C      0.390139   -0.728864    1.277606
  C     -1.299967   -0.891676    0.049980
  H      1.053989    1.866696   -0.159127
  H     -0.477405    1.864273   -1.056037
  H     -0.482237    1.997211    0.716162
  H     -0.453364   -2.605545   -1.345106
  H      1.318433   -2.842560    0.740116
  H     -1.734815   -0.934840    2.339619
  H      1.098694   -0.372415    2.020874
  H     -2.262216   -0.701972   -0.418211

 Total Charge           Charge          ....    0
 Multiplicity           Mult            ....    1
 Number of Electrons    NEL             ....   66
 Basis Dimension        Dim             ....  327

ORBITAL ENERGIES
----------------

  NO   OCC          E(Eh)            E(eV)
   0   2.0000     -20.555990      -559.3569
   1   2.0000     -20.554028      -559.3035
   2   2.0000     -11.300285      -307.4964
   3   2.0000     -11.295449      -307.3648
   4   2.0000     -11.294137      -307.3291
   5   2.0000     -11.293159      -307.3025
   6   2.0000     -11.242724      -305.9301
   7   2.0000     -11.241883      -305.9072
   8   2.0000     -11.229016      -305.5570
   9   2.0000      -1.420119       -38.6434
  10   2.0000      -1.375023       -37.4163
  11   2.0000      -1.121804       -30.5258
  12   2.0000      -1.020512       -27.7695
  13   2.0000      -0.954783       -25.9810
  14   2.0000      -0.940452       -25.5910
  15   2.0000      -0.840464       -22.8702
  16   2.0000      -0.759530       -20.6679
  17   2.0000      -0.733049       -19.9473
  18   2.0000      -0.709918       -19.3179
  19   2.0000      -0.658956       -17.9311
  20   2.0000      -0.650619       -17.7042
  21   2.0000      -0.644313       -17.5326
  22   2.0000      -0.588676       -16.0187
  23   2.0000      -0.575055       -15.6480
  24   2.0000      -0.559369       -15.2212
  25   2.0000      -0.543479       -14.7888
  26   2.0000      -0.525549       -14.3009
  27   2.0000      -0.489982       -13.3331
  28   2.0000      -0.464609       -12.6427
  29   2.0000      -0.452812       -12.3216
  30   2.0000      -0.444041       -12.0830
  31   2.0000      -0.412522       -11.2253
  32   2.0000      -0.386338       -10.5128
  33   0.0000       0.136152         3.7049
  34   0.0000       0.157863         4.2957
  35   0.0000       0.168069         4.5734
  36   0.0000       0.178196         4.8490
  37   0.0000       0.190710         5.1895

MULLIKEN ATOMIC CHARGES
-----------------------
   0 C :   -0.437893
   1 C :    0.076855
   2 O :   -0.320306
   3 C :    0.023243
   4 C :    0.020732
   5 O :   -0.321748
   6 C :   -0.070710
   7 C :   -0.051869
   8 C :   -0.041674
   9 H :    0.145629
  10 H :    0.144649
  11 H :    0.136174
  12 H :    0.138202
  13 H :    0.137575
  14 H :    0.127434
  15 H :    0.146311
  16 H :    0.147396
Sum of atomic charges:   -0.0000000

LOEWDIN ATOMIC CHARGES
----------------------
   0 C :   -0.267861
   1 C :   -0.283827
   2 O :    0.176491
   3 C :   -0.207837
   4 C :   -0.206711
   5 O :    0.157073
   6 C :   -0.214316
   7 C :   -0.112696
   8 C :   -0.114240
   9 H :    0.135851
  10 H :    0.133320
  11 H :    0.134977
  12 H :    0.133125
  13 H :    0.133494
  14 H :    0.129889
  15 H :    0.137005
  16 H :    0.136262

  Mayer bond orders larger than 0.1
B(  0-C ,  1-C ) :   0.8585 B(  0-C ,  9-H ) :   0.9412 B(  0-C , 10-H ) :   0.9432
B(  0-C , 11-H ) :   0.9357 B(  1-C ,  2-O ) :   0.9772 B(  1-C ,  7-C ) :   0.8880
B(  1-C ,  8-C ) :   0.8933 B(  2-O ,  3-C ) :   0.9249 B(  3-C ,  4-C ) :   0.8627
B(  3-C ,  8-C ) :   0.9185 B(  3-C , 12-H ) :   0.9211 B(  4-C ,  5-O ) :   0.9185
B(  4-C ,  7-C ) :   0.9150 B(  4-C , 13-H ) :   0.9214 B(  5-O ,  6-C ) :   0.9724
B(  6-C ,  7-C ) :   0.9227 B(  6-C ,  8-C ) :   0.8834 B(  6-C , 14-H ) :   0.9237
B(  7-C , 15-H ) :   0.9119 B(  8-C , 16-H ) :   0.9033

MP2 TOTAL ENERGY:     -421.055898685 Eh
FINAL SINGLE POINT ENERGY      -421.055898684931

DIPOLE MOMENT
-------------
                                X             Y             Z
Electronic contribution:      0.09228      -4.93284       0.23012
Nuclear contribution   :     -0.28954       5.55288      -0.02515
                        -----------------------------------------
Total Dipole Moment    :     -0.19726       0.62003       0.20496
                        -----------------------------------------
Magnitude (a.u.)       :      0.68218
Magnitude (Debye)      :      1.73395

                             ****ORCA TERMINATED NORMALLY****
TOTAL RUN TIME: 0 days 0 hours 16 minutes 28 seconds 51 msec
