                         Program Version 3.0.3 - RELEASE   -
|  1> ! RI-MP2 RIJK def2-TZVP def2-TZVP/C def2-TZVP/JK TIGHTSCF
|  2> % maxcore 2000
|  3> % mp2 density relaxed end
|  4> *xyz 0 1
|  5>  C       -0.0439559463     1.5320496616    -0.0871439318
|  6>  C       -0.0237747370     0.0175964259     0.0272512457
|  7>  N        1.2935506255    -0.6299771755    -0.1543571117
|  8>  C        0.6787995361    -0.6760150573     1.1866331715
|  9>  C        1.3913360951     0.0780828900     2.2948059785
| 10>  C        0.1218531183    -1.9409270895     1.6219253459
| 11>  N       -0.2818088603    -2.9549118561     2.0047499726
| 12>  C       -1.1790906016    -0.6340695108    -0.5384630698
| 13>  C       -2.1430337613    -1.1464781024    -1.0416578726
| 14>  H        0.8903395385     1.9685813333     0.2660938525
| 15>  H       -0.1742418199     1.8128088773    -1.1360122291
| 16>  H       -0.8781947817     1.9498269821     0.4832661949
| 17>  H        1.1838264271    -1.5229350408    -0.6303078443
| 18>  H        1.8618528547     0.9802959676     1.9051803249
| 19>  H        0.6922937676     0.3496510175     3.0907829238
| 20>  H        2.1735525370    -0.5530070425     2.7263238193
| 21>  H       -2.9934609619    -1.6185741504    -1.4687932403
| 22> *
| 23>
| 24>                          ****END OF INPUT****

CARTESIAN COORDINATES (ANGSTROEM)
---------------------------------
  C     -0.043956    1.532050   -0.087144
  C     -0.023775    0.017596    0.027251
  N      1.293551   -0.629977   -0.154357
  C      0.678800   -0.676015    1.186633
  C      1.391336    0.078083    2.294806
  C      0.121853   -1.940927    1.621925
  N     -0.281809   -2.954912    2.004750
  C     -1.179091   -0.634070   -0.538463
  C     -2.143034   -1.146478   -1.041658
  H      0.890340    1.968581    0.266094
  H     -0.174242    1.812809   -1.136012
  H     -0.878195    1.949827    0.483266
  H      1.183826   -1.522935   -0.630308
  H      1.861853    0.980296    1.905180
  H      0.692294    0.349651    3.090783
  H      2.173553   -0.553007    2.726324
  H     -2.993461   -1.618574   -1.468793

 Total Charge           Charge          ....    0
 Multiplicity           Mult            ....    1
 Number of Electrons    NEL             ....   64
 Basis Dimension        Dim             ....  327

ORBITAL ENERGIES
----------------

  NO   OCC          E(Eh)            E(eV)
   0   2.0000     -15.597150      -424.4200
   1   2.0000     -15.577552      -423.8867
   2   2.0000     -11.329588      -308.2938
   3   2.0000     -11.324971      -308.1681
   4   2.0000     -11.278321      -306.8987
   5   2.0000     -11.251206      -306.1609
   6   2.0000     -11.248653      -306.0914
   7   2.0000     -11.245762      -306.0128
   8   2.0000     -11.243937      -305.9631
   9   2.0000      -1.315047       -35.7843
  10   2.0000      -1.219696       -33.1896
  11   2.0000      -1.068929       -29.0870
  12   2.0000      -1.036335       -28.2001
  13   2.0000      -1.010180       -27.4884
  14   2.0000      -0.909451       -24.7474
  15   2.0000      -0.859094       -23.3771
  16   2.0000      -0.796675       -21.6786
  17   2.0000      -0.718303       -19.5460
  18   2.0000      -0.645644       -17.5689
  19   2.0000      -0.630356       -17.1529
  20   2.0000      -0.623040       -16.9538
  21   2.0000      -0.590188       -16.0598
  22   2.0000      -0.580804       -15.8045
  23   2.0000      -0.566618       -15.4185
  24   2.0000      -0.552464       -15.0333
  25   2.0000      -0.521217       -14.1830
  26   2.0000      -0.512124       -13.9356
  27   2.0000      -0.492000       -13.3880
  28   2.0000      -0.467963       -12.7339
  29   2.0000      -0.438279       -11.9262
  30   2.0000      -0.408434       -11.1140
  31   2.0000      -0.379698       -10.3321
  32   0.0000       0.123291         3.3549
  33   0.0000       0.140686         3.8283
  34   0.0000       0.146678         3.9913
  35   0.0000       0.156918         4.2700
  36   0.0000       0.163656         4.4533

MULLIKEN ATOMIC CHARGES
-----------------------
   0 C :   -0.389576
   1 C :   -0.138449
   2 N :   -0.342793
   3 C :    0.225381
   4 C :   -0.387590
   5 C :   -0.193929
   6 N :   -0.047958
   7 C :    0.057493
   8 C :   -0.099778
   9 H :    0.139542
  10 H :    0.148585
  11 H :    0.144261
  12 H :    0.240515
  13 H :    0.143684
  14 H :    0.147425
  15 H :    0.152734
  16 H :    0.200453
Sum of atomic charges:    0.0000000

LOEWDIN ATOMIC CHARGES
----------------------
   0 C :   -0.239022
   1 C :   -0.263525
   2 N :    0.091610
   3 C :   -0.268423
   4 C :   -0.238782
   5 C :   -0.152382
   6 N :    0.077820
   7 C :   -0.073302
   8 C :   -0.060630
   9 H :    0.130578
  10 H :    0.138408
  11 H :    0.135757
  12 H :    0.181415
  13 H :    0.133032
  14 H :    0.136832
  15 H :    0.139133
  16 H :    0.131481

  Mayer bond orders larger than 0.1
B(  0-C ,  1-C ) :   0.9362 B(  0-C ,  9-H ) :   0.9331 B(  0-C , 10-H ) :   0.9292
B(  0-C , 11-H ) :   0.9336 B(  1-C ,  2-N ) :   0.9218 B(  1-C ,  3-C ) :   0.8799
B(  1-C ,  7-C ) :   1.1676 B(  1-C ,  8-C ) :  -0.1205 B(  2-N ,  3-C ) :   0.9375
B(  2-N , 12-H ) :   0.8678 B(  3-C ,  4-C ) :   0.8881 B(  3-C ,  5-C ) :   0.9182
B(  4-C , 13-H ) :   0.9353 B(  4-C , 14-H ) :   0.9322 B(  4-C , 15-H ) :   0.9261
B(  5-C ,  6-N ) :   2.8536 B(  7-C ,  8-C ) :   2.5695 B(  8-C , 16-H ) :   0.8801

MP2 TOTAL ENERGY:     -380.148346403 Eh
FINAL SINGLE POINT ENERGY      -380.148346402673

DIPOLE MOMENT
-------------
                                X             Y             Z
Electronic contribution:     -2.37967      -7.04184      -0.74608
Nuclear contribution   :      2.43089       8.14873       0.36920
                        -----------------------------------------
Total Dipole Moment    :      0.05122       1.10689      -0.37688
                        -----------------------------------------
Magnitude (a.u.)       :      1.17041
Magnitude (Debye)      :      2.97496

                             ****ORCA TERMINATED NORMALLY****
TOTAL RUN TIME: 0 days 0 hours 16 minutes 41 seconds 152 msec
