                         Program Version 3.0.3 - RELEASE   -
|  1> ! RI-MP2 RIJK def2-TZVP def2-TZVP/C def2-TZVP/JK TIGHTSCF
|  2> % maxcore 2000
|  3> % mp2 density relaxed end
|  4> *xyz 0 1
|  5>  N        0.1545118721    -1.0799808210     0.2278806289
|  6>  C        0.0325499753     0.0650401639     0.1317526966
|  7>  C       -0.0624250561     1.4961600718     0.0232434309
|  8>  N       -1.1625737028     2.1363482657     0.1542571062
|  9>  C       -0.8194277351     3.5556488629    -0.0348583539
| 10>  C        0.7175280059     3.6161938557    -0.0763589545
| 11>  C        1.4983861714     4.7284467584    -0.7003472851
| 12>  C        1.5428799712     4.5139525746     0.8031781168
| 13>  N        1.0834065709     2.2197474119    -0.2834803753
| 14>  H       -1.2620528625     3.9006005859    -0.9786967808
| 15>  H       -1.2520924999     4.1598769001     0.7689070129
| 16>  H        2.3818145169     4.4692916501    -1.2740493395
| 17>  H        0.9496581221     5.5819831935    -1.0860395095
| 18>  H        1.0208752471     5.2166925660     1.4453034868
| 19>  H        2.4604902811     4.1194215011     1.2293981138
| 20>  H        1.9652329626     1.8867134294     0.0824469856
| 21> *
| 22>
| 23>                          ****END OF INPUT****

CARTESIAN COORDINATES (ANGSTROEM)
---------------------------------
  N      0.154512   -1.079981    0.227881
  C      0.032550    0.065040    0.131753
  C     -0.062425    1.496160    0.023243
  N     -1.162574    2.136348    0.154257
  C     -0.819428    3.555649   -0.034858
  C      0.717528    3.616194   -0.076359
  C      1.498386    4.728447   -0.700347
  C      1.542880    4.513953    0.803178
  N      1.083407    2.219747   -0.283480
  H     -1.262053    3.900601   -0.978697
  H     -1.252092    4.159877    0.768907
  H      2.381815    4.469292   -1.274049
  H      0.949658    5.581983   -1.086040
  H      1.020875    5.216693    1.445303
  H      2.460490    4.119422    1.229398
  H      1.965233    1.886713    0.082447

 Total Charge           Charge          ....    0
 Multiplicity           Mult            ....    1
 Number of Electrons    NEL             ....   64
 Basis Dimension        Dim             ....  321

ORBITAL ENERGIES
----------------

  NO   OCC          E(Eh)            E(eV)
   0   2.0000     -15.604955      -424.6324
   1   2.0000     -15.599039      -424.4714
   2   2.0000     -15.577152      -423.8759
   3   2.0000     -11.361488      -309.1618
   4   2.0000     -11.298179      -307.4391
   5   2.0000     -11.294202      -307.3309
   6   2.0000     -11.277273      -306.8702
   7   2.0000     -11.249749      -306.1212
   8   2.0000     -11.247965      -306.0727
   9   2.0000      -1.342634       -36.5349
  10   2.0000      -1.237875       -33.6843
  11   2.0000      -1.197898       -32.5965
  12   2.0000      -1.144889       -31.1540
  13   2.0000      -1.003850       -27.3162
  14   2.0000      -0.879234       -23.9252
  15   2.0000      -0.853204       -23.2169
  16   2.0000      -0.813661       -22.1408
  17   2.0000      -0.765949       -20.8425
  18   2.0000      -0.682889       -18.5824
  19   2.0000      -0.656935       -17.8761
  20   2.0000      -0.648305       -17.6413
  21   2.0000      -0.615999       -16.7622
  22   2.0000      -0.579859       -15.7788
  23   2.0000      -0.573698       -15.6111
  24   2.0000      -0.549412       -14.9503
  25   2.0000      -0.535679       -14.5766
  26   2.0000      -0.505943       -13.7674
  27   2.0000      -0.492272       -13.3954
  28   2.0000      -0.475784       -12.9467
  29   2.0000      -0.445971       -12.1355
  30   2.0000      -0.436409       -11.8753
  31   2.0000      -0.358927        -9.7669
  32   0.0000       0.090844         2.4720
  33   0.0000       0.117998         3.2109
  34   0.0000       0.144530         3.9329
  35   0.0000       0.154776         4.2117
  36   0.0000       0.162879         4.4322

MULLIKEN ATOMIC CHARGES
-----------------------
   0 N :   -0.038562
   1 C :   -0.203799
   2 C :    0.332636
   3 N :   -0.250387
   4 C :   -0.106576
   5 C :    0.109147
   6 C :   -0.260405
   7 C :   -0.300544
   8 N :   -0.341060
   9 H :    0.125031
  10 H :    0.132270
  11 H :    0.138723
  12 H :    0.141063
  13 H :    0.140654
  14 H :    0.137069
  15 H :    0.244741
Sum of atomic charges:   -0.0000000

LOEWDIN ATOMIC CHARGES
----------------------
   0 N :    0.096752
   1 C :   -0.128596
   2 C :   -0.341378
   3 N :    0.122228
   4 C :   -0.220065
   5 C :   -0.274406
   6 C :   -0.203103
   7 C :   -0.208192
   8 N :    0.138237
   9 H :    0.141672
  10 H :    0.139354
  11 H :    0.138117
  12 H :    0.137493
  13 H :    0.136617
  14 H :    0.133986
  15 H :    0.191286

  Mayer bond orders larger than 0.1
B(  0-N ,  1-C ) :   2.8428 B(  1-C ,  2-C ) :   0.8744 B(  2-C ,  3-N ) :   1.7629
B(  2-C ,  8-N ) :   1.0942 B(  3-N ,  4-C ) :   0.9261 B(  4-C ,  5-C ) :   0.9289
B(  4-C ,  9-H ) :   0.9165 B(  4-C , 10-H ) :   0.9197 B(  5-C ,  6-C ) :   0.8474
B(  5-C ,  7-C ) :   0.8887 B(  5-C ,  8-N ) :   0.9151 B(  6-C ,  7-C ) :   0.8802
B(  6-C , 11-H ) :   0.9203 B(  6-C , 12-H ) :   0.9258 B(  7-C , 13-H ) :   0.9206
B(  7-C , 14-H ) :   0.9207 B(  8-N , 15-H ) :   0.8566

MP2 TOTAL ENERGY:     -396.233525228 Eh
FINAL SINGLE POINT ENERGY      -396.233525227504

DIPOLE MOMENT
-------------
                                X             Y             Z
Electronic contribution:     -2.59820      -9.89857       0.04396
Nuclear contribution   :      3.57737      11.70447      -0.00483
                        -----------------------------------------
Total Dipole Moment    :      0.97917       1.80591       0.03914
                        -----------------------------------------
Magnitude (a.u.)       :      2.05466
Magnitude (Debye)      :      5.22252

                             ****ORCA TERMINATED NORMALLY****
TOTAL RUN TIME: 0 days 0 hours 17 minutes 0 seconds 981 msec
