                         Program Version 3.0.3 - RELEASE   -
|  1> ! RI-MP2 RIJK def2-TZVP def2-TZVP/C def2-TZVP/JK TIGHTSCF
|  2> % maxcore 2000
|  3> % mp2 density relaxed end
|  4> *xyz 0 1
|  5>  O        0.0038717947     1.4067798953    -0.0487656527
|  6>  C        0.0142336702    -0.0011523497     0.0340347979
|  7>  C        0.6001157625    -0.5479396642     1.3718515561
|  8>  N       -0.1766035068    -1.7600763142     1.5582260291
|  9>  C       -0.1319025207    -2.9004862755     2.2998361330
| 10>  N       -1.1798224588    -3.6618260478     2.0599158250
| 11>  C       -1.9374766703    -2.9818395939     1.1283744576
| 12>  C       -1.3309047820    -1.7965090888     0.8052768403
| 13>  C       -1.4358774263    -0.5466329453    -0.0114898429
| 14>  H        0.8919796859     1.7118040957    -0.2576291108
| 15>  H        0.5831454456    -0.4396134902    -0.7979005774
| 16>  H        1.6723230253    -0.7572855246     1.3217994786
| 17>  H        0.4158936273     0.1771910014     2.1736283873
| 18>  H        0.6747053922    -3.1272818386     2.9805523437
| 19>  H       -2.8613575722    -3.3926974556     0.7514231494
| 20>  H       -2.1006017081     0.1961006367     0.4479172559
| 21>  H       -1.7804405184    -0.7087791206    -1.0351726399
| 22> *
| 23>
| 24>                          ****END OF INPUT****

CARTESIAN COORDINATES (ANGSTROEM)
---------------------------------
  O      0.003872    1.406780   -0.048766
  C      0.014234   -0.001152    0.034035
  C      0.600116   -0.547940    1.371852
  N     -0.176604   -1.760076    1.558226
  C     -0.131903   -2.900486    2.299836
  N     -1.179822   -3.661826    2.059916
  C     -1.937477   -2.981840    1.128374
  C     -1.330905   -1.796509    0.805277
  C     -1.435877   -0.546633   -0.011490
  H      0.891980    1.711804   -0.257629
  H      0.583145   -0.439613   -0.797901
  H      1.672323   -0.757286    1.321799
  H      0.415894    0.177191    2.173628
  H      0.674705   -3.127282    2.980552
  H     -2.861358   -3.392697    0.751423
  H     -2.100602    0.196101    0.447917
  H     -1.780441   -0.708779   -1.035173

 Total Charge           Charge          ....    0
 Multiplicity           Mult            ....    1
 Number of Electrons    NEL             ....   66
 Basis Dimension        Dim             ....  327

ORBITAL ENERGIES
----------------

  NO   OCC          E(Eh)            E(eV)
   0   2.0000     -20.579650      -560.0008
   1   2.0000     -15.610958      -424.7958
   2   2.0000     -15.537467      -422.7960
   3   2.0000     -11.309860      -307.7569
   4   2.0000     -11.287329      -307.1439
   5   2.0000     -11.285929      -307.1057
   6   2.0000     -11.255284      -306.2718
   7   2.0000     -11.245883      -306.0160
   8   2.0000     -11.232984      -305.6650
   9   2.0000      -1.389040       -37.7977
  10   2.0000      -1.344622       -36.5890
  11   2.0000      -1.190636       -32.3989
  12   2.0000      -1.062114       -28.9016
  13   2.0000      -1.010138       -27.4872
  14   2.0000      -0.944790       -25.7091
  15   2.0000      -0.835215       -22.7274
  16   2.0000      -0.803926       -21.8759
  17   2.0000      -0.762369       -20.7451
  18   2.0000      -0.736674       -20.0459
  19   2.0000      -0.704463       -19.1694
  20   2.0000      -0.649393       -17.6709
  21   2.0000      -0.624302       -16.9881
  22   2.0000      -0.592902       -16.1337
  23   2.0000      -0.579720       -15.7750
  24   2.0000      -0.575446       -15.6587
  25   2.0000      -0.563791       -15.3415
  26   2.0000      -0.550707       -14.9855
  27   2.0000      -0.538815       -14.6619
  28   2.0000      -0.493474       -13.4281
  29   2.0000      -0.462991       -12.5986
  30   2.0000      -0.424232       -11.5439
  31   2.0000      -0.377166       -10.2632
  32   2.0000      -0.307329        -8.3629
  33   0.0000       0.114635         3.1194
  34   0.0000       0.147751         4.0205
  35   0.0000       0.155593         4.2339
  36   0.0000       0.161418         4.3924
  37   0.0000       0.176821         4.8115

MULLIKEN ATOMIC CHARGES
-----------------------
   0 O :   -0.451928
   1 C :    0.044222
   2 C :   -0.188600
   3 N :   -0.031747
   4 C :   -0.005755
   5 N :   -0.283876
   6 C :   -0.159851
   7 C :   -0.034278
   8 C :   -0.118488
   9 H :    0.322951
  10 H :    0.095767
  11 H :    0.136859
  12 H :    0.129516
  13 H :    0.144970
  14 H :    0.130777
  15 H :    0.130336
  16 H :    0.139124
Sum of atomic charges:    0.0000000

LOEWDIN ATOMIC CHARGES
----------------------
   0 O :   -0.008756
   1 C :   -0.323521
   2 C :   -0.211538
   3 N :    0.269895
   4 C :   -0.308788
   5 N :    0.081901
   6 C :   -0.243022
   7 C :   -0.211358
   8 C :   -0.195284
   9 H :    0.178912
  10 H :    0.137248
  11 H :    0.133929
  12 H :    0.139133
  13 H :    0.130116
  14 H :    0.132166
  15 H :    0.152728
  16 H :    0.146238

  Mayer bond orders larger than 0.1
B(  0-O ,  1-C ) :   1.0508 B(  0-O ,  9-H ) :   0.8427 B(  1-C ,  2-C ) :   0.9350
B(  1-C ,  8-C ) :   0.9215 B(  1-C , 10-H ) :   0.9409 B(  2-C ,  3-N ) :   0.8737
B(  2-C , 11-H ) :   0.9175 B(  2-C , 12-H ) :   0.9043 B(  3-N ,  4-C ) :   1.1621
B(  3-N ,  7-C ) :   1.0806 B(  4-C ,  5-N ) :   1.5448 B(  4-C , 13-H ) :   0.9229
B(  5-N ,  6-C ) :   1.3117 B(  6-C ,  7-C ) :   1.4970 B(  6-C , 14-H ) :   0.9460
B(  7-C ,  8-C ) :   0.8889 B(  8-C , 15-H ) :   0.8960 B(  8-C , 16-H ) :   0.9265

MP2 TOTAL ENERGY:     -417.345178737 Eh
FINAL SINGLE POINT ENERGY      -417.345178737009

DIPOLE MOMENT
-------------
                                X             Y             Z
Electronic contribution:     -0.82305      -2.79379       1.59669
Nuclear contribution   :      2.02131       4.06556      -2.21089
                        -----------------------------------------
Total Dipole Moment    :      1.19826       1.27177      -0.61420
                        -----------------------------------------
Magnitude (a.u.)       :      1.85215
Magnitude (Debye)      :      4.70780

                             ****ORCA TERMINATED NORMALLY****
TOTAL RUN TIME: 0 days 0 hours 17 minutes 9 seconds 374 msec
