                         Program Version 3.0.3 - RELEASE   -
|  1> ! RI-MP2 RIJK def2-TZVP def2-TZVP/C def2-TZVP/JK TIGHTSCF
|  2> % maxcore 2000
|  3> % mp2 density relaxed end
|  4> *xyz 0 1
|  5>  C       -0.1919133060     1.3217685448    -0.0802296588
|  6>  C        0.0355684921    -0.1718777700     0.0163638439
|  7>  C        1.4468969622    -0.6661140323    -0.1798111588
|  8>  C        0.8148606146    -0.6686824613     1.2086012758
|  9>  C        0.9745937094    -2.2261266979     1.2611352384
| 10>  C        1.3106918788    -2.9491920365     2.5281539139
| 11>  C        1.5605360220    -2.2129782433    -0.1027617562
| 12>  N        0.2169466572    -2.7989687998     0.1245216332
| 13>  C        0.1897057938    -4.2532449317     0.0388653162
| 14>  H        0.6626814851     1.8866384686     0.3088761764
| 15>  H       -0.3469924073     1.6287728366    -1.1202990668
| 16>  H       -1.0763271490     1.6217611892     0.4924842784
| 17>  H       -0.7719296408    -0.7927425894    -0.3530296285
| 18>  H        2.2404742615    -0.0309437234    -0.5535407929
| 19>  H        1.0516997507    -0.0321713515     2.0532840449
| 20>  H        0.4656067689    -2.9205226461     3.2277396183
| 21>  H        1.5721853016    -3.9956511709     2.3554334921
| 22>  H        2.1625059821    -2.4710326201     3.0240878248
| 23>  H        2.3490155569    -2.8196072481    -0.5325132139
| 24>  H        1.1315739805    -4.7538799641     0.3172654894
| 25>  H       -0.6041655569    -4.6413637492     0.6854428044
| 26>  H       -0.0443481975    -4.5348034637    -0.9930229940
| 27> *
| 28>
| 29>                          ****END OF INPUT****

CARTESIAN COORDINATES (ANGSTROEM)
---------------------------------
  C     -0.191913    1.321769   -0.080230
  C      0.035568   -0.171878    0.016364
  C      1.446897   -0.666114   -0.179811
  C      0.814861   -0.668682    1.208601
  C      0.974594   -2.226127    1.261135
  C      1.310692   -2.949192    2.528154
  C      1.560536   -2.212978   -0.102762
  N      0.216947   -2.798969    0.124522
  C      0.189706   -4.253245    0.038865
  H      0.662681    1.886638    0.308876
  H     -0.346992    1.628773   -1.120299
  H     -1.076327    1.621761    0.492484
  H     -0.771930   -0.792743   -0.353030
  H      2.240474   -0.030944   -0.553541
  H      1.051700   -0.032171    2.053284
  H      0.465607   -2.920523    3.227740
  H      1.572185   -3.995651    2.355433
  H      2.162506   -2.471033    3.024088
  H      2.349016   -2.819607   -0.532513
  H      1.131574   -4.753880    0.317265
  H     -0.604166   -4.641364    0.685443
  H     -0.044348   -4.534803   -0.993023

 Total Charge           Charge          ....    0
 Multiplicity           Mult            ....    1
 Number of Electrons    NEL             ....   68
 Basis Dimension        Dim             ....  357

ORBITAL ENERGIES
----------------

  NO   OCC          E(Eh)            E(eV)
   0   2.0000     -15.551412      -423.1754
   1   2.0000     -11.260790      -306.4217
   2   2.0000     -11.250948      -306.1539
   3   2.0000     -11.243205      -305.9432
   4   2.0000     -11.224050      -305.4219
   5   2.0000     -11.224020      -305.4211
   6   2.0000     -11.222620      -305.3830
   7   2.0000     -11.221477      -305.3519
   8   2.0000     -11.211699      -305.0858
   9   2.0000      -1.285098       -34.9693
  10   2.0000      -1.137300       -30.9475
  11   2.0000      -1.012005       -27.5380
  12   2.0000      -0.979270       -26.6473
  13   2.0000      -0.930671       -25.3249
  14   2.0000      -0.852836       -23.2069
  15   2.0000      -0.814179       -22.1549
  16   2.0000      -0.740519       -20.1505
  17   2.0000      -0.718984       -19.5645
  18   2.0000      -0.670218       -18.2376
  19   2.0000      -0.646645       -17.5961
  20   2.0000      -0.594898       -16.1880
  21   2.0000      -0.592109       -16.1121
  22   2.0000      -0.575699       -15.6656
  23   2.0000      -0.561217       -15.2715
  24   2.0000      -0.555241       -15.1089
  25   2.0000      -0.542126       -14.7520
  26   2.0000      -0.527941       -14.3660
  27   2.0000      -0.507087       -13.7985
  28   2.0000      -0.486170       -13.2293
  29   2.0000      -0.468115       -12.7381
  30   2.0000      -0.425775       -11.5859
  31   2.0000      -0.392292       -10.6748
  32   2.0000      -0.387535       -10.5454
  33   2.0000      -0.310471        -8.4484
  34   0.0000       0.140519         3.8237
  35   0.0000       0.152764         4.1569
  36   0.0000       0.164004         4.4628
  37   0.0000       0.172995         4.7074
  38   0.0000       0.192658         5.2425

MULLIKEN ATOMIC CHARGES
-----------------------
   0 C :   -0.434954
   1 C :   -0.033535
   2 C :   -0.118881
   3 C :   -0.190629
   4 C :    0.151461
   5 C :   -0.416722
   6 C :   -0.131311
   7 N :   -0.222537
   8 C :   -0.341667
   9 H :    0.125928
  10 H :    0.135939
  11 H :    0.135166
  12 H :    0.149232
  13 H :    0.128666
  14 H :    0.127062
  15 H :    0.140045
  16 H :    0.135263
  17 H :    0.142079
  18 H :    0.127248
  19 H :    0.105462
  20 H :    0.141622
  21 H :    0.145062
Sum of atomic charges:    0.0000000

LOEWDIN ATOMIC CHARGES
----------------------
   0 C :   -0.289454
   1 C :   -0.211625
   2 C :   -0.147253
   3 C :   -0.127443
   4 C :   -0.239204
   5 C :   -0.275237
   6 C :   -0.175847
   7 N :    0.122830
   8 C :   -0.333064
   9 H :    0.125821
  10 H :    0.125265
  11 H :    0.125306
  12 H :    0.152520
  13 H :    0.137663
  14 H :    0.138916
  15 H :    0.131932
  16 H :    0.129034
  17 H :    0.133927
  18 H :    0.133510
  19 H :    0.103785
  20 H :    0.118901
  21 H :    0.119718

  Mayer bond orders larger than 0.1
B(  0-C ,  1-C ) :   0.8673 B(  0-C ,  9-H ) :   0.9389 B(  0-C , 10-H ) :   0.9436
B(  0-C , 11-H ) :   0.9425 B(  1-C ,  2-C ) :   0.8851 B(  1-C ,  3-C ) :   0.8762
B(  1-C , 12-H ) :   0.8995 B(  2-C ,  3-C ) :   0.8962 B(  2-C ,  6-C ) :   0.8673
B(  2-C , 13-H ) :   0.9309 B(  3-C ,  4-C ) :   0.8655 B(  3-C , 14-H ) :   0.9346
B(  4-C ,  5-C ) :   0.8594 B(  4-C ,  6-C ) :   0.9313 B(  4-C ,  7-N ) :   0.8753
B(  5-C , 15-H ) :   0.9440 B(  5-C , 16-H ) :   0.9394 B(  5-C , 17-H ) :   0.9363
B(  6-C ,  7-N ) :   0.9478 B(  6-C , 18-H ) :   0.9219 B(  7-N ,  8-C ) :   0.8791
B(  8-C , 19-H ) :   0.9236 B(  8-C , 20-H ) :   0.9390 B(  8-C , 21-H ) :   0.9391

MP2 TOTAL ENERGY:     -366.461052316 Eh
FINAL SINGLE POINT ENERGY      -366.461052315600

DIPOLE MOMENT
-------------
                                X             Y             Z
Electronic contribution:      0.63374       0.13490      -1.48132
Nuclear contribution   :     -0.23425      -0.38634       1.71989
                        -----------------------------------------
Total Dipole Moment    :      0.39948      -0.25144       0.23857
                        -----------------------------------------
Magnitude (a.u.)       :      0.52889
Magnitude (Debye)      :      1.34433

                             ****ORCA TERMINATED NORMALLY****
TOTAL RUN TIME: 0 days 0 hours 19 minutes 3 seconds 454 msec
