                         Program Version 3.0.3 - RELEASE   -
|  1> ! RI-MP2 RIJK def2-TZVP def2-TZVP/C def2-TZVP/JK TIGHTSCF
|  2> % maxcore 2000
|  3> % mp2 density relaxed end
|  4> *xyz 0 1
|  5>  C        0.0259567773     1.5321099444    -0.1275127728
|  6>  C        0.0533224226     0.0773450400    -0.0761430310
|  7>  C        0.0614475224    -1.1263161789    -0.0275823994
|  8>  C        0.0841900197    -2.5940993392    -0.0143328784
|  9>  C       -1.3324980867    -3.1605553724     0.1435310078
| 10>  O        0.5781282899    -3.1116834767    -1.2570026964
| 11>  C        0.9752861862    -3.1451557498     1.1041779205
| 12>  C        2.0658076022    -2.3920268831     1.7325009039
| 13>  O        0.8208257237    -2.6030867925     2.4090357492
| 14>  H        0.9516530476     1.9345402128    -0.5532215798
| 15>  H       -0.8066325339     1.8914879569    -0.7418823656
| 16>  H       -0.0914491523     1.9581955083     0.8747483476
| 17>  H       -1.9741777451    -2.7911759837    -0.6589042880
| 18>  H       -1.2951222513    -4.2525481709     0.0900486977
| 19>  H       -1.7492892877    -2.8613173519     1.1075745410
| 20>  H        1.3945013149    -2.6415629407    -1.4598227666
| 21>  H        1.0511825228    -4.2330679444     1.0629044834
| 22>  H        2.9173981216    -2.9296646833     2.1469110828
| 23>  H        2.2523016062    -1.3650232551     1.4268056639
| 24> *
| 25>
| 26>                          ****END OF INPUT****

CARTESIAN COORDINATES (ANGSTROEM)
---------------------------------
  C      0.025957    1.532110   -0.127513
  C      0.053322    0.077345   -0.076143
  C      0.061448   -1.126316   -0.027582
  C      0.084190   -2.594099   -0.014333
  C     -1.332498   -3.160555    0.143531
  O      0.578128   -3.111683   -1.257003
  C      0.975286   -3.145156    1.104178
  C      2.065808   -2.392027    1.732501
  O      0.820826   -2.603087    2.409036
  H      0.951653    1.934540   -0.553222
  H     -0.806633    1.891488   -0.741882
  H     -0.091449    1.958196    0.874748
  H     -1.974178   -2.791176   -0.658904
  H     -1.295122   -4.252548    0.090049
  H     -1.749289   -2.861317    1.107575
  H      1.394501   -2.641563   -1.459823
  H      1.051183   -4.233068    1.062904
  H      2.917398   -2.929665    2.146911
  H      2.252302   -1.365023    1.426806

 Total Charge           Charge          ....    0
 Multiplicity           Mult            ....    1
 Number of Electrons    NEL             ....   68
 Basis Dimension        Dim             ....  339

ORBITAL ENERGIES
----------------

  NO   OCC          E(Eh)            E(eV)
   0   2.0000     -20.571751      -559.7858
   1   2.0000     -20.566619      -559.6461
   2   2.0000     -11.319610      -308.0223
   3   2.0000     -11.290960      -307.2426
   4   2.0000     -11.284282      -307.0609
   5   2.0000     -11.252827      -306.2050
   6   2.0000     -11.234935      -305.7181
   7   2.0000     -11.221625      -305.3559
   8   2.0000     -11.219478      -305.2975
   9   2.0000      -1.417308       -38.5669
  10   2.0000      -1.373332       -37.3703
  11   2.0000      -1.080943       -29.4140
  12   2.0000      -1.039501       -28.2863
  13   2.0000      -0.958020       -26.0690
  14   2.0000      -0.938318       -25.5329
  15   2.0000      -0.881295       -23.9813
  16   2.0000      -0.822207       -22.3734
  17   2.0000      -0.735155       -20.0046
  18   2.0000      -0.698009       -18.9938
  19   2.0000      -0.674624       -18.3574
  20   2.0000      -0.636008       -17.3067
  21   2.0000      -0.607991       -16.5443
  22   2.0000      -0.592520       -16.1233
  23   2.0000      -0.591435       -16.0938
  24   2.0000      -0.579659       -15.7733
  25   2.0000      -0.548987       -14.9387
  26   2.0000      -0.543958       -14.8018
  27   2.0000      -0.531820       -14.4715
  28   2.0000      -0.526307       -14.3215
  29   2.0000      -0.482780       -13.1371
  30   2.0000      -0.446854       -12.1595
  31   2.0000      -0.442342       -12.0367
  32   2.0000      -0.382864       -10.4183
  33   2.0000      -0.375768       -10.2252
  34   0.0000       0.125418         3.4128
  35   0.0000       0.147347         4.0095
  36   0.0000       0.161672         4.3993
  37   0.0000       0.171393         4.6638
  38   0.0000       0.184035         5.0078

MULLIKEN ATOMIC CHARGES
-----------------------
   0 C :   -0.492537
   1 C :    0.069671
   2 C :   -0.118774
   3 C :    0.182770
   4 C :   -0.399867
   5 O :   -0.454927
   6 C :   -0.006903
   7 C :   -0.070406
   8 O :   -0.329987
   9 H :    0.161582
  10 H :    0.167155
  11 H :    0.169694
  12 H :    0.142218
  13 H :    0.137388
  14 H :    0.148393
  15 H :    0.318612
  16 H :    0.127154
  17 H :    0.120544
  18 H :    0.128220
Sum of atomic charges:   -0.0000000

LOEWDIN ATOMIC CHARGES
----------------------
   0 C :   -0.292227
   1 C :   -0.087848
   2 C :   -0.046795
   3 C :   -0.384647
   4 C :   -0.243847
   5 O :    0.021163
   6 C :   -0.261776
   7 C :   -0.258428
   8 O :    0.158388
   9 H :    0.141064
  10 H :    0.143013
  11 H :    0.143808
  12 H :    0.132647
  13 H :    0.130660
  14 H :    0.136517
  15 H :    0.179100
  16 H :    0.144307
  17 H :    0.119803
  18 H :    0.125098

  Mayer bond orders larger than 0.1
B(  0-C ,  1-C ) :   0.8400 B(  0-C ,  9-H ) :   0.9474 B(  0-C , 10-H ) :   0.9477
B(  0-C , 11-H ) :   0.9494 B(  1-C ,  2-C ) :   2.6547 B(  1-C ,  3-C ) :  -0.1074
B(  2-C ,  3-C ) :   1.1061 B(  3-C ,  4-C ) :   0.8633 B(  3-C ,  5-O ) :   0.9139
B(  3-C ,  6-C ) :   0.9283 B(  4-C , 12-H ) :   0.9373 B(  4-C , 13-H ) :   0.9351
B(  4-C , 14-H ) :   0.9306 B(  5-O , 15-H ) :   0.8380 B(  6-C ,  7-C ) :   0.9460
B(  6-C ,  8-O ) :   0.9161 B(  6-C , 16-H ) :   0.9314 B(  7-C ,  8-O ) :   0.8988
B(  7-C , 17-H ) :   0.9161 B(  7-C , 18-H ) :   0.9148

MP2 TOTAL ENERGY:     -422.265450095 Eh
FINAL SINGLE POINT ENERGY      -422.265450095183

DIPOLE MOMENT
-------------
                                X             Y             Z
Electronic contribution:      1.65418      -2.58466       0.71441
Nuclear contribution   :     -1.09432       3.22628      -0.96466
                        -----------------------------------------
Total Dipole Moment    :      0.55986       0.64162      -0.25025
                        -----------------------------------------
Magnitude (a.u.)       :      0.88755
Magnitude (Debye)      :      2.25598

                             ****ORCA TERMINATED NORMALLY****
TOTAL RUN TIME: 0 days 0 hours 16 minutes 58 seconds 318 msec
