                         Program Version 3.0.3 - RELEASE   -
|  1> ! RI-MP2 RIJK def2-TZVP def2-TZVP/C def2-TZVP/JK TIGHTSCF
|  2> % maxcore 2000
|  3> % mp2 density relaxed end
|  4> *xyz 0 1
|  5>  C       -0.0718222118     1.4592347675    -0.0224962979
|  6>  N        0.0083190561     0.0144127727    -0.0099466099
|  7>  C        0.1152716696    -0.7789075444    -1.1115970828
|  8>  O        0.1497386451    -0.1608633038    -2.3240626525
|  9>  C        0.1675717603    -2.0981878541    -0.7333799802
| 10>  C        0.0873685457    -2.1174752873     0.6970183863
| 11>  C        0.1053425929    -3.3311265100     1.5744456716
| 12>  C       -0.0097155652    -0.8117634341     1.1209676845
| 13>  N       -0.1154370655    -0.2186461648     2.3998515852
| 14>  H        0.8194098558     1.8983208928    -0.4822296605
| 15>  H       -0.9489168044     1.7993701932    -0.5823796391
| 16>  H       -0.1490037157     1.7903784593     1.0130880854
| 17>  H        0.2243073573    -0.8402321280    -3.0005934506
| 18>  H        0.2526822191    -2.9498242609    -1.3919742744
| 19>  H        1.0277296679    -3.9125327102     1.4531813909
| 20>  H        0.0306762202    -3.0505365098     2.6299027145
| 21>  H       -0.7282381284    -4.0097049430     1.3548283219
| 22>  H       -0.9496638067    -0.5091106470     2.8975309813
| 23>  H        0.6842760279    -0.4180460883     2.9903504263
| 24> *
| 25>
| 26>                          ****END OF INPUT****

CARTESIAN COORDINATES (ANGSTROEM)
---------------------------------
  C     -0.071822    1.459235   -0.022496
  N      0.008319    0.014413   -0.009947
  C      0.115272   -0.778908   -1.111597
  O      0.149739   -0.160863   -2.324063
  C      0.167572   -2.098188   -0.733380
  C      0.087369   -2.117475    0.697018
  C      0.105343   -3.331127    1.574446
  C     -0.009716   -0.811763    1.120968
  N     -0.115437   -0.218646    2.399852
  H      0.819410    1.898321   -0.482230
  H     -0.948917    1.799370   -0.582380
  H     -0.149004    1.790378    1.013088
  H      0.224307   -0.840232   -3.000593
  H      0.252682   -2.949824   -1.391974
  H      1.027730   -3.912533    1.453181
  H      0.030676   -3.050537    2.629903
  H     -0.728238   -4.009705    1.354828
  H     -0.949664   -0.509111    2.897531
  H      0.684276   -0.418046    2.990350

 Total Charge           Charge          ....    0
 Multiplicity           Mult            ....    1
 Number of Electrons    NEL             ....   68
 Basis Dimension        Dim             ....  339

ORBITAL ENERGIES
----------------

  NO   OCC          E(Eh)            E(eV)
   0   2.0000     -20.590810      -560.3044
   1   2.0000     -15.586793      -424.1382
   2   2.0000     -15.551775      -423.1853
   3   2.0000     -11.307276      -307.6866
   4   2.0000     -11.261600      -306.4437
   5   2.0000     -11.250173      -306.1328
   6   2.0000     -11.214011      -305.1487
   7   2.0000     -11.206534      -304.9453
   8   2.0000     -11.190831      -304.5180
   9   2.0000      -1.412094       -38.4250
  10   2.0000      -1.286809       -35.0158
  11   2.0000      -1.174098       -31.9488
  12   2.0000      -1.075325       -29.2611
  13   2.0000      -0.980794       -26.6888
  14   2.0000      -0.924221       -25.1493
  15   2.0000      -0.894001       -24.3270
  16   2.0000      -0.786894       -21.4125
  17   2.0000      -0.740006       -20.1366
  18   2.0000      -0.703140       -19.1334
  19   2.0000      -0.668841       -18.2001
  20   2.0000      -0.639671       -17.4063
  21   2.0000      -0.627403       -17.0725
  22   2.0000      -0.626073       -17.0363
  23   2.0000      -0.585234       -15.9250
  24   2.0000      -0.566987       -15.4285
  25   2.0000      -0.558244       -15.1906
  26   2.0000      -0.557416       -15.1680
  27   2.0000      -0.545976       -14.8568
  28   2.0000      -0.511564       -13.9204
  29   2.0000      -0.496526       -13.5112
  30   2.0000      -0.481689       -13.1074
  31   2.0000      -0.416438       -11.3319
  32   2.0000      -0.323652        -8.8070
  33   2.0000      -0.266987        -7.2651
  34   0.0000       0.126317         3.4373
  35   0.0000       0.140503         3.8233
  36   0.0000       0.165455         4.5023
  37   0.0000       0.178365         4.8536
  38   0.0000       0.187978         5.1151

MULLIKEN ATOMIC CHARGES
-----------------------
   0 C :   -0.329928
   1 N :   -0.013074
   2 C :    0.238509
   3 O :   -0.447281
   4 C :   -0.322286
   5 C :    0.061713
   6 C :   -0.451167
   7 C :    0.058433
   8 N :   -0.604161
   9 H :    0.141560
  10 H :    0.141523
  11 H :    0.176602
  12 H :    0.337559
  13 H :    0.122632
  14 H :    0.138797
  15 H :    0.113480
  16 H :    0.138792
  17 H :    0.249147
  18 H :    0.249149
Sum of atomic charges:   -0.0000000

LOEWDIN ATOMIC CHARGES
----------------------
   0 C :   -0.275895
   1 N :    0.253285
   2 C :   -0.349773
   3 O :    0.059430
   4 C :   -0.192977
   5 C :   -0.209494
   6 C :   -0.281107
   7 C :   -0.299590
   8 N :   -0.116424
   9 H :    0.121756
  10 H :    0.121749
  11 H :    0.130841
  12 H :    0.197544
  13 H :    0.135664
  14 H :    0.127563
  15 H :    0.122879
  16 H :    0.127556
  17 H :    0.163496
  18 H :    0.163497

  Mayer bond orders larger than 0.1
B(  0-C ,  1-N ) :   0.8637 B(  0-C ,  9-H ) :   0.9312 B(  0-C , 10-H ) :   0.9312
B(  0-C , 11-H ) :   0.9232 B(  1-N ,  2-C ) :   1.1644 B(  1-N ,  7-C ) :   1.0846
B(  2-C ,  3-O ) :   1.0858 B(  2-C ,  4-C ) :   1.4422 B(  3-O , 12-H ) :   0.8329
B(  4-C ,  5-C ) :   1.2086 B(  4-C , 13-H ) :   0.9151 B(  5-C ,  6-C ) :   0.8360
B(  5-C ,  7-C ) :   1.4766 B(  6-C , 14-H ) :   0.9406 B(  6-C , 15-H ) :   0.9582
B(  6-C , 16-H ) :   0.9406 B(  7-C ,  8-N ) :   0.9927 B(  8-N , 17-H ) :   0.8900
B(  8-N , 18-H ) :   0.8900

MP2 TOTAL ENERGY:     -418.531803725 Eh
FINAL SINGLE POINT ENERGY      -418.531803724854

DIPOLE MOMENT
-------------
                                X             Y             Z
Electronic contribution:      0.18873       1.42689      -4.71538
Nuclear contribution   :     -0.19084      -1.52563       4.82839
                        -----------------------------------------
Total Dipole Moment    :     -0.00211      -0.09874       0.11302
                        -----------------------------------------
Magnitude (a.u.)       :      0.15009
Magnitude (Debye)      :      0.38150

                             ****ORCA TERMINATED NORMALLY****
TOTAL RUN TIME: 0 days 0 hours 18 minutes 8 seconds 284 msec
