                         Program Version 3.0.3 - RELEASE   -
|  1> ! RI-MP2 RIJK def2-TZVP def2-TZVP/C def2-TZVP/JK TIGHTSCF
|  2> % maxcore 2000
|  3> % mp2 density relaxed end
|  4> *xyz 0 1
|  5>  C       -0.0687869927     1.4400382961    -0.0136283685
|  6>  C        0.0243698409    -0.0641052381    -0.0849386586
|  7>  C        0.7661908114    -0.7127805281    -1.1911074413
|  8>  N        1.3595170942    -0.6184347748     0.2095262163
|  9>  C        1.1761431626    -2.1126005860     0.3440975781
| 10>  C        0.6612662727    -2.2156187694    -1.0943538725
| 11>  C       -0.2643123917    -3.1395878929    -1.7842842283
| 12>  N        1.1924763248    -3.1804222535    -2.0470865386
| 13>  H        0.8315997699     1.9012260820    -0.4287165183
| 14>  H       -0.9365639886     1.8037334398    -0.5739444833
| 15>  H       -0.1680583049     1.7720237826     1.0247390976
| 16>  H       -0.8341074022    -0.6004205011     0.3218386858
| 17>  H        1.1805075407    -0.1570101709    -2.0290959477
| 18>  H        2.1416111333    -2.6047732916     0.4778142335
| 19>  H        0.4966827640    -2.3997308315     1.1538948901
| 20>  H       -0.6550319474    -4.0127750408    -1.2683773056
| 21>  H       -0.9250739499    -2.7281882524    -2.5438575169
| 22>  H        1.4013854329    -2.7256292995    -2.9334352416
| 23> *
| 24>
| 25>                          ****END OF INPUT****

CARTESIAN COORDINATES (ANGSTROEM)
---------------------------------
  C     -0.068787    1.440038   -0.013628
  C      0.024370   -0.064105   -0.084939
  C      0.766191   -0.712781   -1.191107
  N      1.359517   -0.618435    0.209526
  C      1.176143   -2.112601    0.344098
  C      0.661266   -2.215619   -1.094354
  C     -0.264312   -3.139588   -1.784284
  N      1.192476   -3.180422   -2.047087
  H      0.831600    1.901226   -0.428717
  H     -0.936564    1.803733   -0.573944
  H     -0.168058    1.772024    1.024739
  H     -0.834107   -0.600421    0.321839
  H      1.180508   -0.157010   -2.029096
  H      2.141611   -2.604773    0.477814
  H      0.496683   -2.399731    1.153895
  H     -0.655032   -4.012775   -1.268377
  H     -0.925074   -2.728188   -2.543858
  H      1.401385   -2.725629   -2.933435

 Total Charge           Charge          ....    0
 Multiplicity           Mult            ....    1
 Number of Electrons    NEL             ....   60
 Basis Dimension        Dim             ....  308

ORBITAL ENERGIES
----------------

  NO   OCC          E(Eh)            E(eV)
   0   2.0000     -15.561858      -423.4597
   1   2.0000     -15.561055      -423.4378
   2   2.0000     -11.272963      -306.7529
   3   2.0000     -11.265445      -306.5483
   4   2.0000     -11.263971      -306.5082
   5   2.0000     -11.258200      -306.3512
   6   2.0000     -11.254262      -306.2440
   7   2.0000     -11.221925      -305.3641
   8   2.0000      -1.304132       -35.4872
   9   2.0000      -1.251121       -34.0447
  10   2.0000      -1.024221       -27.8705
  11   2.0000      -0.933413       -25.3994
  12   2.0000      -0.912562       -24.8321
  13   2.0000      -0.880862       -23.9695
  14   2.0000      -0.795864       -21.6566
  15   2.0000      -0.743022       -20.2186
  16   2.0000      -0.706660       -19.2292
  17   2.0000      -0.651706       -17.7338
  18   2.0000      -0.626079       -17.0365
  19   2.0000      -0.602241       -16.3878
  20   2.0000      -0.585559       -15.9339
  21   2.0000      -0.549315       -14.9476
  22   2.0000      -0.532800       -14.4982
  23   2.0000      -0.507571       -13.8117
  24   2.0000      -0.499801       -13.6003
  25   2.0000      -0.463644       -12.6164
  26   2.0000      -0.443435       -12.0665
  27   2.0000      -0.431163       -11.7325
  28   2.0000      -0.419044       -11.4028
  29   2.0000      -0.351488        -9.5645
  30   0.0000       0.138894         3.7795
  31   0.0000       0.146578         3.9886
  32   0.0000       0.157359         4.2820
  33   0.0000       0.173375         4.7178
  34   0.0000       0.191314         5.2059

MULLIKEN ATOMIC CHARGES
-----------------------
   0 C :   -0.414447
   1 C :    0.067693
   2 C :   -0.147608
   3 N :   -0.252967
   4 C :   -0.119828
   5 C :    0.073819
   6 C :   -0.202319
   7 N :   -0.372522
   8 H :    0.140010
   9 H :    0.127421
  10 H :    0.134984
  11 H :    0.118090
  12 H :    0.129920
  13 H :    0.127956
  14 H :    0.117300
  15 H :    0.122581
  16 H :    0.129475
  17 H :    0.220441
Sum of atomic charges:    0.0000000

LOEWDIN ATOMIC CHARGES
----------------------
   0 C :   -0.288471
   1 C :   -0.270866
   2 C :   -0.169794
   3 N :    0.120921
   4 C :   -0.198874
   5 C :   -0.298866
   6 C :   -0.243941
   7 N :    0.007505
   8 H :    0.131871
   9 H :    0.125936
  10 H :    0.128260
  11 H :    0.142377
  12 H :    0.136129
  13 H :    0.136355
  14 H :    0.124326
  15 H :    0.126582
  16 H :    0.123061
  17 H :    0.167489

  Mayer bond orders larger than 0.1
B(  0-C ,  1-C ) :   0.8767 B(  0-C ,  8-H ) :   0.9409 B(  0-C ,  9-H ) :   0.9365
B(  0-C , 10-H ) :   0.9377 B(  1-C ,  2-C ) :   0.9228 B(  1-C ,  3-N ) :   0.8317
B(  1-C , 11-H ) :   0.9090 B(  2-C ,  3-N ) :   0.9351 B(  2-C ,  5-C ) :   0.9461
B(  2-C , 12-H ) :   0.8830 B(  3-N ,  4-C ) :   0.9325 B(  4-C ,  5-C ) :   0.9354
B(  4-C , 13-H ) :   0.9094 B(  4-C , 14-H ) :   0.9344 B(  5-C ,  6-C ) :   0.9098
B(  5-C ,  7-N ) :   0.9277 B(  6-C ,  7-N ) :   0.9546 B(  6-C , 15-H ) :   0.9131
B(  6-C , 16-H ) :   0.9195 B(  7-N , 17-H ) :   0.8713

MP2 TOTAL ENERGY:     -343.301234593 Eh
FINAL SINGLE POINT ENERGY      -343.301234593430

DIPOLE MOMENT
-------------
                                X             Y             Z
Electronic contribution:      2.37627      -2.92901      -0.70191
Nuclear contribution   :     -3.22536       3.17428       0.30650
                        -----------------------------------------
Total Dipole Moment    :     -0.84909       0.24527      -0.39541
                        -----------------------------------------
Magnitude (a.u.)       :      0.96822
Magnitude (Debye)      :      2.46103

                             ****ORCA TERMINATED NORMALLY****
TOTAL RUN TIME: 0 days 0 hours 12 minutes 59 seconds 41 msec
