                         Program Version 3.0.3 - RELEASE   -
|  1> ! RI-MP2 RIJK def2-TZVP def2-TZVP/C def2-TZVP/JK TIGHTSCF
|  2> % maxcore 2000
|  3> % mp2 density relaxed end
|  4> *xyz 0 1
|  5>  C        0.0277233563     1.5754518546     0.1308839970
|  6>  C        0.0974397928     0.0805956972     0.0521751302
|  7>  C       -0.8882719931    -0.8587636753     0.6808056966
|  8>  C        0.5606268862    -0.8566549862     1.1404338547
|  9>  C        1.4864893328    -1.8384588246     0.4728717108
| 10>  O        1.1708845658    -3.1930357856     0.7032851493
| 11>  C        1.3326554042    -1.5153057047    -1.0263930768
| 12>  O        1.7382699211    -2.1941894655    -1.9269143737
| 13>  O        0.6207825570    -0.3784649047    -1.2017901245
| 14>  H        1.0172535475     2.0214160219    -0.0098273979
| 15>  H       -0.6406634703     1.9744629686    -0.6384672405
| 16>  H       -0.3550207839     1.8820984416     1.1080022188
| 17>  H       -1.6181257671    -0.4383723475     1.3634508352
| 18>  H       -1.2398802698    -1.7057562011     0.1016572108
| 19>  H        0.8016863777    -0.4833466854     2.1276975417
| 20>  H        2.5294224146    -1.6227851514     0.7580806244
| 21>  H        1.5340077378    -3.6850670618    -0.0459023761
| 22> *
| 23>
| 24>                          ****END OF INPUT****

CARTESIAN COORDINATES (ANGSTROEM)
---------------------------------
  C      0.027723    1.575452    0.130884
  C      0.097440    0.080596    0.052175
  C     -0.888272   -0.858764    0.680806
  C      0.560627   -0.856655    1.140434
  C      1.486489   -1.838459    0.472872
  O      1.170885   -3.193036    0.703285
  C      1.332655   -1.515306   -1.026393
  O      1.738270   -2.194189   -1.926914
  O      0.620783   -0.378465   -1.201790
  H      1.017254    2.021416   -0.009827
  H     -0.640663    1.974463   -0.638467
  H     -0.355021    1.882098    1.108002
  H     -1.618126   -0.438372    1.363451
  H     -1.239880   -1.705756    0.101657
  H      0.801686   -0.483347    2.127698
  H      2.529422   -1.622785    0.758081
  H      1.534008   -3.685067   -0.045902

 Total Charge           Charge          ....    0
 Multiplicity           Mult            ....    1
 Number of Electrons    NEL             ....   68
 Basis Dimension        Dim             ....  327

ORBITAL ENERGIES
----------------

  NO   OCC          E(Eh)            E(eV)
   0   2.0000     -20.614929      -560.9607
   1   2.0000     -20.575015      -559.8746
   2   2.0000     -20.556113      -559.3603
   3   2.0000     -11.387444      -309.8681
   4   2.0000     -11.320312      -308.0414
   5   2.0000     -11.316286      -307.9318
   6   2.0000     -11.257018      -306.3190
   7   2.0000     -11.250148      -306.1321
   8   2.0000     -11.242433      -305.9222
   9   2.0000      -1.476289       -40.1719
  10   2.0000      -1.389880       -37.8206
  11   2.0000      -1.377044       -37.4713
  12   2.0000      -1.170608       -31.8539
  13   2.0000      -1.035151       -28.1679
  14   2.0000      -0.973912       -26.5015
  15   2.0000      -0.853794       -23.2329
  16   2.0000      -0.825112       -22.4524
  17   2.0000      -0.793533       -21.5931
  18   2.0000      -0.721587       -19.6354
  19   2.0000      -0.698489       -19.0069
  20   2.0000      -0.677550       -18.4371
  21   2.0000      -0.653732       -17.7890
  22   2.0000      -0.637081       -17.3359
  23   2.0000      -0.612928       -16.6786
  24   2.0000      -0.592453       -16.1215
  25   2.0000      -0.584586       -15.9074
  26   2.0000      -0.574123       -15.6227
  27   2.0000      -0.555984       -15.1291
  28   2.0000      -0.537674       -14.6309
  29   2.0000      -0.503644       -13.7049
  30   2.0000      -0.479592       -13.0504
  31   2.0000      -0.447633       -12.1807
  32   2.0000      -0.437614       -11.9081
  33   2.0000      -0.413494       -11.2517
  34   0.0000       0.123647         3.3646
  35   0.0000       0.144982         3.9452
  36   0.0000       0.160772         4.3748
  37   0.0000       0.163991         4.4624
  38   0.0000       0.173576         4.7232

MULLIKEN ATOMIC CHARGES
-----------------------
   0 C :   -0.400373
   1 C :    0.196273
   2 C :   -0.278751
   3 C :   -0.112377
   4 C :    0.039091
   5 O :   -0.459931
   6 C :    0.208390
   7 O :   -0.293813
   8 O :   -0.204552
   9 H :    0.139924
  10 H :    0.149986
  11 H :    0.132621
  12 H :    0.140464
  13 H :    0.153947
  14 H :    0.144995
  15 H :    0.110541
  16 H :    0.333565
Sum of atomic charges:    0.0000000

LOEWDIN ATOMIC CHARGES
----------------------
   0 C :   -0.260309
   1 C :   -0.295891
   2 C :   -0.166708
   3 C :   -0.161449
   4 C :   -0.305173
   5 O :   -0.001690
   6 C :   -0.445640
   7 O :    0.138747
   8 O :    0.313000
   9 H :    0.133211
  10 H :    0.135720
  11 H :    0.136006
  12 H :    0.142545
  13 H :    0.147515
  14 H :    0.150835
  15 H :    0.152475
  16 H :    0.186806

  Mayer bond orders larger than 0.1
B(  0-C ,  1-C ) :   0.9145 B(  0-C ,  9-H ) :   0.9298 B(  0-C , 10-H ) :   0.9341
B(  0-C , 11-H ) :   0.9314 B(  1-C ,  2-C ) :   0.9169 B(  1-C ,  3-C ) :   0.8647
B(  1-C ,  8-O ) :   0.8694 B(  2-C ,  3-C ) :   0.8555 B(  2-C , 12-H ) :   0.9214
B(  2-C , 13-H ) :   0.9003 B(  3-C ,  4-C ) :   0.9233 B(  3-C , 14-H ) :   0.9158
B(  4-C ,  5-O ) :   1.0586 B(  4-C ,  6-C ) :   0.9183 B(  4-C , 15-H ) :   0.9227
B(  5-O , 16-H ) :   0.8216 B(  6-C ,  7-O ) :   2.0024 B(  6-C ,  8-O ) :   1.1309

MP2 TOTAL ENERGY:     -458.258697350 Eh
FINAL SINGLE POINT ENERGY      -458.258697350426

DIPOLE MOMENT
-------------
                                X             Y             Z
Electronic contribution:      3.10140      -5.06690      -4.42014
Nuclear contribution   :     -3.34471       5.95785       5.41099
                        -----------------------------------------
Total Dipole Moment    :     -0.24331       0.89095       0.99085
                        -----------------------------------------
Magnitude (a.u.)       :      1.35454
Magnitude (Debye)      :      3.44297

                             ****ORCA TERMINATED NORMALLY****
TOTAL RUN TIME: 0 days 0 hours 17 minutes 6 seconds 981 msec
