                         Program Version 3.0.3 - RELEASE   -
|  1> ! RI-MP2 RIJK def2-TZVP def2-TZVP/C def2-TZVP/JK TIGHTSCF
|  2> % maxcore 2000
|  3> % mp2 density relaxed end
|  4> *xyz 0 1
|  5>  C       -0.0295733216    -1.2258217666    -0.0042022485
|  6>  C       -0.0348628273    -0.0243489735     0.0023666708
|  7>  C       -0.0063710242     1.4323034186     0.0103282074
|  8>  C        1.4284337448     1.9945636628    -0.0012507639
|  9>  C        1.4260610202     3.5354977220     0.0075135351
| 10>  C        2.7746047577     4.0970898986    -0.0029157549
| 11>  N        3.8475391245     4.5258294375    -0.0118575752
| 12>  H       -0.0366796454    -2.2876611375    -0.0097714010
| 13>  H       -0.5572070597     1.8151259371    -0.8592693942
| 14>  H       -0.5391506389     1.8051961863     0.8953501931
| 15>  H        1.9761041008     1.6225356533     0.8693027375
| 16>  H        1.9580506425     1.6324550061    -0.8870243077
| 17>  H        0.8829622882     3.9202959716    -0.8640277318
| 18>  H        0.9009393584     3.9103338836     0.8942614033
| 19> *
| 20>
| 21>                          ****END OF INPUT****

CARTESIAN COORDINATES (ANGSTROEM)
---------------------------------
  C     -0.029573   -1.225822   -0.004202
  C     -0.034863   -0.024349    0.002367
  C     -0.006371    1.432303    0.010328
  C      1.428434    1.994564   -0.001251
  C      1.426061    3.535498    0.007514
  C      2.774605    4.097090   -0.002916
  N      3.847539    4.525829   -0.011858
  H     -0.036680   -2.287661   -0.009771
  H     -0.557207    1.815126   -0.859269
  H     -0.539151    1.805196    0.895350
  H      1.976104    1.622536    0.869303
  H      1.958051    1.632455   -0.887024
  H      0.882962    3.920296   -0.864028
  H      0.900939    3.910334    0.894261

 Total Charge           Charge          ....    0
 Multiplicity           Mult            ....    1
 Number of Electrons    NEL             ....   50
 Basis Dimension        Dim             ....  259

ORBITAL ENERGIES
----------------

  NO   OCC          E(Eh)            E(eV)
   0   2.0000     -15.571873      -423.7322
   1   2.0000     -11.291144      -307.2476
   2   2.0000     -11.276350      -306.8451
   3   2.0000     -11.274751      -306.8016
   4   2.0000     -11.264428      -306.5207
   5   2.0000     -11.245381      -306.0024
   6   2.0000     -11.232897      -305.6627
   7   2.0000      -1.221964       -33.2513
   8   2.0000      -1.124118       -30.5888
   9   2.0000      -1.056816       -28.7574
  10   2.0000      -0.984652       -26.7937
  11   2.0000      -0.871963       -23.7273
  12   2.0000      -0.739848       -20.1323
  13   2.0000      -0.706911       -19.2360
  14   2.0000      -0.685033       -18.6407
  15   2.0000      -0.643329       -17.5059
  16   2.0000      -0.609259       -16.5788
  17   2.0000      -0.588277       -16.0078
  18   2.0000      -0.555053       -15.1038
  19   2.0000      -0.541403       -14.7323
  20   2.0000      -0.526600       -14.3295
  21   2.0000      -0.462013       -12.5720
  22   2.0000      -0.461149       -12.5485
  23   2.0000      -0.398487       -10.8434
  24   2.0000      -0.398423       -10.8416
  25   0.0000       0.109223         2.9721
  26   0.0000       0.152267         4.1434
  27   0.0000       0.153757         4.1839
  28   0.0000       0.159725         4.3463
  29   0.0000       0.164240         4.4692

MULLIKEN ATOMIC CHARGES
-----------------------
   0 C :   -0.101124
   1 C :   -0.026584
   2 C :   -0.378405
   3 C :   -0.212529
   4 C :   -0.127641
   5 C :   -0.178101
   6 N :   -0.056227
   7 H :    0.195073
   8 H :    0.145414
   9 H :    0.145398
  10 H :    0.141388
  11 H :    0.141388
  12 H :    0.155990
  13 H :    0.155963
Sum of atomic charges:   -0.0000000

LOEWDIN ATOMIC CHARGES
----------------------
   0 C :   -0.097699
   1 C :   -0.113428
   2 C :   -0.248450
   3 C :   -0.229555
   4 C :   -0.245766
   5 C :   -0.193190
   6 N :    0.057999
   7 H :    0.127853
   8 H :    0.157852
   9 H :    0.157854
  10 H :    0.149136
  11 H :    0.149135
  12 H :    0.164132
  13 H :    0.164128

  Mayer bond orders larger than 0.1
B(  0-C ,  1-C ) :   2.6141 B(  0-C ,  2-C ) :  -0.1238 B(  0-C ,  7-H ) :   0.8915
B(  1-C ,  2-C ) :   1.1383 B(  2-C ,  3-C ) :   0.9325 B(  2-C ,  8-H ) :   0.9187
B(  2-C ,  9-H ) :   0.9186 B(  3-C ,  4-C ) :   0.9177 B(  3-C , 10-H ) :   0.9242
B(  3-C , 11-H ) :   0.9242 B(  4-C ,  5-C ) :   0.9420 B(  4-C , 12-H ) :   0.9060
B(  4-C , 13-H ) :   0.9060 B(  5-C ,  6-N ) :   2.8785

MP2 TOTAL ENERGY:     -286.897237336 Eh
FINAL SINGLE POINT ENERGY      -286.897237336156

DIPOLE MOMENT
-------------
                                X             Y             Z
Electronic contribution:      3.14321       1.50030      -0.02374
Nuclear contribution   :     -4.51875      -1.99739       0.03528
                        -----------------------------------------
Total Dipole Moment    :     -1.37554      -0.49709       0.01154
                        -----------------------------------------
Magnitude (a.u.)       :      1.46264
Magnitude (Debye)      :      3.71774

                             ****ORCA TERMINATED NORMALLY****
TOTAL RUN TIME: 0 days 0 hours 6 minutes 38 seconds 897 msec
