                         Program Version 3.0.3 - RELEASE   -
|  1> ! RI-MP2 RIJK def2-TZVP def2-TZVP/C def2-TZVP/JK TIGHTSCF
|  2> % maxcore 2000
|  3> % mp2 density relaxed end
|  4> *xyz 0 1
|  5>  C       -0.2179319179     1.6016673290    -0.0861512281
|  6>  C        0.0513496406     0.1033787136    -0.0651940524
|  7>  C        0.7230930083    -0.5847986648    -1.2654652881
|  8>  C        2.1693875207    -0.2428379609    -1.4045084033
|  9>  O        2.6326707468     1.0488531375    -1.1516689917
| 10>  C        1.7864743791    -1.2211719204    -0.3346081415
| 11>  C        1.1656354733    -0.5099431161     0.8800274195
| 12>  C        2.0382774453     0.3799517665     1.6383085931
| 13>  N        2.7428555185     1.0668716354     2.2466297985
| 14>  H        0.6916861713     2.1679149302    -0.2843967982
| 15>  H       -0.9469350402     1.8358791473    -0.8695810056
| 16>  H       -0.6397526295     1.9317554871     0.8691550100
| 17>  H       -0.8761465979    -0.4280553429     0.1673476131
| 18>  H        0.1745723990    -1.0466265276    -2.0779225327
| 19>  H        2.6403590836    -0.7250193550    -2.2626964701
| 20>  H        3.4266423284     0.9981659116    -0.6079757427
| 21>  H        2.1751263826    -2.2316946297    -0.3026720990
| 22>  H        0.7221475180    -1.2211719909     1.5804231990
| 23> *
| 24>
| 25>                          ****END OF INPUT****

CARTESIAN COORDINATES (ANGSTROEM)
---------------------------------
  C     -0.217932    1.601667   -0.086151
  C      0.051350    0.103379   -0.065194
  C      0.723093   -0.584799   -1.265465
  C      2.169388   -0.242838   -1.404508
  O      2.632671    1.048853   -1.151669
  C      1.786474   -1.221172   -0.334608
  C      1.165635   -0.509943    0.880027
  C      2.038277    0.379952    1.638309
  N      2.742856    1.066872    2.246630
  H      0.691686    2.167915   -0.284397
  H     -0.946935    1.835879   -0.869581
  H     -0.639753    1.931755    0.869155
  H     -0.876147   -0.428055    0.167348
  H      0.174572   -1.046627   -2.077923
  H      2.640359   -0.725019   -2.262696
  H      3.426642    0.998166   -0.607976
  H      2.175126   -2.231695   -0.302672
  H      0.722148   -1.221172    1.580423

 Total Charge           Charge          ....    0
 Multiplicity           Mult            ....    1
 Number of Electrons    NEL             ....   66
 Basis Dimension        Dim             ....  333

ORBITAL ENERGIES
----------------

  NO   OCC          E(Eh)            E(eV)
   0   2.0000     -20.570710      -559.7575
   1   2.0000     -15.565466      -423.5579
   2   2.0000     -11.303039      -307.5713
   3   2.0000     -11.287230      -307.1411
   4   2.0000     -11.270313      -306.6808
   5   2.0000     -11.262817      -306.4768
   6   2.0000     -11.261917      -306.4523
   7   2.0000     -11.253703      -306.2288
   8   2.0000     -11.215648      -305.1933
   9   2.0000      -1.384367       -37.6705
  10   2.0000      -1.223010       -33.2798
  11   2.0000      -1.199591       -32.6425
  12   2.0000      -1.043468       -28.3942
  13   2.0000      -0.991901       -26.9910
  14   2.0000      -0.885226       -24.0882
  15   2.0000      -0.826905       -22.5012
  16   2.0000      -0.768606       -20.9148
  17   2.0000      -0.735870       -20.0240
  18   2.0000      -0.704217       -19.1627
  19   2.0000      -0.663101       -18.0439
  20   2.0000      -0.619574       -16.8595
  21   2.0000      -0.611057       -16.6277
  22   2.0000      -0.581212       -15.8156
  23   2.0000      -0.576406       -15.6848
  24   2.0000      -0.557795       -15.1784
  25   2.0000      -0.526365       -14.3231
  26   2.0000      -0.522628       -14.2214
  27   2.0000      -0.501814       -13.6550
  28   2.0000      -0.475134       -12.9291
  29   2.0000      -0.453844       -12.3497
  30   2.0000      -0.441391       -12.0109
  31   2.0000      -0.420551       -11.4438
  32   2.0000      -0.403739       -10.9863
  33   0.0000       0.122382         3.3302
  34   0.0000       0.142505         3.8778
  35   0.0000       0.148972         4.0537
  36   0.0000       0.156802         4.2668
  37   0.0000       0.179046         4.8721

MULLIKEN ATOMIC CHARGES
-----------------------
   0 C :   -0.411749
   1 C :   -0.039556
   2 C :   -0.116249
   3 C :    0.026828
   4 O :   -0.467376
   5 C :   -0.180569
   6 C :    0.065407
   7 C :   -0.258525
   8 N :   -0.054432
   9 H :    0.171244
  10 H :    0.131149
  11 H :    0.131667
  12 H :    0.110323
  13 H :    0.142218
  14 H :    0.119843
  15 H :    0.337995
  16 H :    0.140173
  17 H :    0.151610
Sum of atomic charges:    0.0000000

LOEWDIN ATOMIC CHARGES
----------------------
   0 C :   -0.289321
   1 C :   -0.189246
   2 C :   -0.134271
   3 C :   -0.305549
   4 O :    0.017754
   5 C :   -0.133722
   6 C :   -0.173287
   7 C :   -0.178397
   8 N :    0.053238
   9 H :    0.133632
  10 H :    0.128435
  11 H :    0.127122
  12 H :    0.157062
  13 H :    0.139034
  14 H :    0.146258
  15 H :    0.186839
  16 H :    0.138859
  17 H :    0.175560

  Mayer bond orders larger than 0.1
B(  0-C ,  1-C ) :   0.9103 B(  0-C ,  9-H ) :   0.9287 B(  0-C , 10-H ) :   0.9331
B(  0-C , 11-H ) :   0.9321 B(  1-C ,  2-C ) :   0.9176 B(  1-C ,  6-C ) :   0.9369
B(  1-C , 12-H ) :   0.9296 B(  2-C ,  3-C ) :   0.8627 B(  2-C ,  5-C ) :   0.7933
B(  2-C , 13-H ) :   0.9191 B(  3-C ,  4-O ) :   1.0140 B(  3-C ,  5-C ) :   0.9089
B(  3-C , 14-H ) :   0.9589 B(  4-O , 15-H ) :   0.8281 B(  5-C ,  6-C ) :   0.8825
B(  5-C , 16-H ) :   0.9205 B(  6-C ,  7-C ) :   0.9262 B(  6-C , 17-H ) :   0.9071
B(  7-C ,  8-N ) :   2.8579

MP2 TOTAL ENERGY:     -401.241114126 Eh
FINAL SINGLE POINT ENERGY      -401.241114125934

DIPOLE MOMENT
-------------
                                X             Y             Z
Electronic contribution:      4.75465      -0.61517       2.91963
Nuclear contribution   :     -5.44875      -0.65462      -3.66641
                        -----------------------------------------
Total Dipole Moment    :     -0.69410      -1.26979      -0.74678
                        -----------------------------------------
Magnitude (a.u.)       :      1.62845
Magnitude (Debye)      :      4.13918

                             ****ORCA TERMINATED NORMALLY****
TOTAL RUN TIME: 0 days 0 hours 19 minutes 29 seconds 520 msec
