                         Program Version 3.0.3 - RELEASE   -
|  1> ! RI-MP2 RIJK def2-TZVP def2-TZVP/C def2-TZVP/JK TIGHTSCF
|  2> % maxcore 2000
|  3> % mp2 density relaxed end
|  4> *xyz 0 1
|  5>  C        0.2955700542     1.5589122830     0.8160898061
|  6>  O       -0.1316246792     0.2175574958     0.9070563783
|  7>  C        0.7386277288    -0.6866440378     0.2615595741
|  8>  C        0.2739256075    -2.1099535296     0.5141799185
|  9>  N       -0.3965270807    -2.2830995858     1.6918200637
| 10>  N        0.6284677653    -2.9915025033    -0.3476867153
| 11>  C        0.3423620082    -4.3906718016    -0.0708442420
| 12>  C       -1.0889835769    -4.7110601156     0.0850818902
| 13>  N       -2.2168371260    -4.9159929263     0.2406561044
| 14>  H        0.3483986715     1.8949450054    -0.2298707756
| 15>  H       -0.4362941670     2.1700781721     1.3485247230
| 16>  H        1.2854971141     1.7000398123     1.2762291492
| 17>  H        0.7736110497    -0.5221054497    -0.8225898897
| 18>  H        1.7652612293    -0.5756432940     0.6500129137
| 19>  H       -0.7505175331    -1.4303770509     2.1013798076
| 20>  H       -0.9897571919    -3.0919818583     1.7986825803
| 21>  H        0.7294337945    -4.9953143835    -0.8971694689
| 22>  H        0.8507363217    -4.7407128323     0.8421535725
| 23> *
| 24>
| 25>                          ****END OF INPUT****

CARTESIAN COORDINATES (ANGSTROEM)
---------------------------------
  C      0.295570    1.558912    0.816090
  O     -0.131625    0.217557    0.907056
  C      0.738628   -0.686644    0.261560
  C      0.273926   -2.109954    0.514180
  N     -0.396527   -2.283100    1.691820
  N      0.628468   -2.991503   -0.347687
  C      0.342362   -4.390672   -0.070844
  C     -1.088984   -4.711060    0.085082
  N     -2.216837   -4.915993    0.240656
  H      0.348399    1.894945   -0.229871
  H     -0.436294    2.170078    1.348525
  H      1.285497    1.700040    1.276229
  H      0.773611   -0.522105   -0.822590
  H      1.765261   -0.575643    0.650013
  H     -0.750518   -1.430377    2.101380
  H     -0.989757   -3.091982    1.798683
  H      0.729434   -4.995314   -0.897169
  H      0.850736   -4.740713    0.842154

 Total Charge           Charge          ....    0
 Multiplicity           Mult            ....    1
 Number of Electrons    NEL             ....   68
 Basis Dimension        Dim             ....  333

ORBITAL ENERGIES
----------------

  NO   OCC          E(Eh)            E(eV)
   0   2.0000     -20.581789      -560.0589
   1   2.0000     -15.585116      -424.0926
   2   2.0000     -15.571444      -423.7205
   3   2.0000     -15.544228      -422.9799
   4   2.0000     -11.332226      -308.3655
   5   2.0000     -11.302404      -307.5540
   6   2.0000     -11.300051      -307.4900
   7   2.0000     -11.290023      -307.2171
   8   2.0000     -11.274286      -306.7889
   9   2.0000      -1.404707       -38.2240
  10   2.0000      -1.285641       -34.9841
  11   2.0000      -1.219900       -33.1952
  12   2.0000      -1.178370       -32.0651
  13   2.0000      -1.033700       -28.1284
  14   2.0000      -0.978643       -26.6302
  15   2.0000      -0.901987       -24.5443
  16   2.0000      -0.794180       -21.6107
  17   2.0000      -0.746228       -20.3059
  18   2.0000      -0.716746       -19.5036
  19   2.0000      -0.687571       -18.7098
  20   2.0000      -0.681174       -18.5357
  21   2.0000      -0.653450       -17.7813
  22   2.0000      -0.636692       -17.3253
  23   2.0000      -0.622521       -16.9397
  24   2.0000      -0.582930       -15.8623
  25   2.0000      -0.561104       -15.2684
  26   2.0000      -0.546419       -14.8688
  27   2.0000      -0.517912       -14.0931
  28   2.0000      -0.510263       -13.8850
  29   2.0000      -0.477568       -12.9953
  30   2.0000      -0.460007       -12.5174
  31   2.0000      -0.451213       -12.2781
  32   2.0000      -0.417453       -11.3595
  33   2.0000      -0.378607       -10.3024
  34   0.0000       0.127476         3.4688
  35   0.0000       0.138201         3.7606
  36   0.0000       0.158087         4.3018
  37   0.0000       0.167444         4.5564
  38   0.0000       0.174660         4.7527

MULLIKEN ATOMIC CHARGES
-----------------------
   0 C :   -0.214433
   1 O :   -0.329304
   2 C :   -0.021873
   3 C :    0.205088
   4 N :   -0.505461
   5 N :   -0.306841
   6 C :   -0.054925
   7 C :   -0.197337
   8 N :   -0.071360
   9 H :    0.122564
  10 H :    0.143082
  11 H :    0.117891
  12 H :    0.128418
  13 H :    0.111174
  14 H :    0.275697
  15 H :    0.269277
  16 H :    0.166658
  17 H :    0.161684
Sum of atomic charges:   -0.0000000

LOEWDIN ATOMIC CHARGES
----------------------
   0 C :   -0.351321
   1 O :    0.123609
   2 C :   -0.281230
   3 C :   -0.369179
   4 N :   -0.013080
   5 N :    0.070855
   6 C :   -0.292031
   7 C :   -0.207417
   8 N :    0.051192
   9 H :    0.106387
  10 H :    0.115348
  11 H :    0.103894
  12 H :    0.137387
  13 H :    0.132682
  14 H :    0.181083
  15 H :    0.177102
  16 H :    0.158303
  17 H :    0.156417

  Mayer bond orders larger than 0.1
B(  0-C ,  1-O ) :   0.9063 B(  0-C ,  9-H ) :   0.9372 B(  0-C , 10-H ) :   0.9379
B(  0-C , 11-H ) :   0.9378 B(  1-O ,  2-C ) :   0.9141 B(  2-C ,  3-C ) :   0.9434
B(  2-C , 12-H ) :   0.9229 B(  2-C , 13-H ) :   0.9015 B(  3-C ,  4-N ) :   1.1380
B(  3-C ,  5-N ) :   1.8273 B(  4-N , 14-H ) :   0.8488 B(  4-N , 15-H ) :   0.8607
B(  5-N ,  6-C ) :   0.9292 B(  6-C ,  7-C ) :   0.8842 B(  6-C , 16-H ) :   0.9148
B(  6-C , 17-H ) :   0.9140 B(  7-C ,  8-N ) :   2.8256

MP2 TOTAL ENERGY:     -434.547014065 Eh
FINAL SINGLE POINT ENERGY      -434.547014064602

DIPOLE MOMENT
-------------
                                X             Y             Z
Electronic contribution:     -3.63635      -8.10165      -1.01901
Nuclear contribution   :      4.64609       9.15318       1.57406
                        -----------------------------------------
Total Dipole Moment    :      1.00974       1.05153       0.55504
                        -----------------------------------------
Magnitude (a.u.)       :      1.55992
Magnitude (Debye)      :      3.96501

                             ****ORCA TERMINATED NORMALLY****
TOTAL RUN TIME: 0 days 0 hours 14 minutes 55 seconds 145 msec
