                         Program Version 3.0.3 - RELEASE   -
|  1> ! RI-MP2 RIJK def2-TZVP def2-TZVP/C def2-TZVP/JK TIGHTSCF
|  2> % maxcore 2000
|  3> % mp2 density relaxed end
|  4> *xyz 0 1
|  5>  C       -0.2682047254     1.5491057855     0.0514775735
|  6>  C        0.0037113242     0.0797159441    -0.0159740746
|  7>  C        0.0966337209    -0.6745086369    -1.1266739672
|  8>  C        0.2189708088    -2.1034847651    -0.7521806941
|  9>  C        1.2659934329    -3.2278087530    -0.8708911706
| 10>  C        1.3014791699    -3.2813886037     0.7038869081
| 11>  C        0.2361583847    -2.1659195764     0.7181139881
| 12>  C        0.1397416631    -0.7572088973     1.2666068706
| 13>  O       -0.8995987746    -2.6346174995    -0.0059322260
| 14>  H        0.4914009593     2.0673622174     0.6505703715
| 15>  H       -0.2876401105     2.0008300587    -0.9437972456
| 16>  H       -1.2341151150     1.7502425692     0.5323541316
| 17>  H        0.0307908634    -0.2955821777    -2.1399281920
| 18>  H        0.9320560292    -4.1270898297    -1.3928408381
| 19>  H        2.2124627125    -2.8894652019    -1.2978214190
| 20>  H        1.0063351147    -4.2188397972     1.1809480679
| 21>  H        2.2646880418    -2.9573502167     1.1054633876
| 22>  H        1.0397431118    -0.4773518657     1.8293915683
| 23>  H       -0.7130101019    -0.6084963939     1.9397037401
| 24> *
| 25>
| 26>                          ****END OF INPUT****

CARTESIAN COORDINATES (ANGSTROEM)
---------------------------------
  C     -0.268205    1.549106    0.051478
  C      0.003711    0.079716   -0.015974
  C      0.096634   -0.674509   -1.126674
  C      0.218971   -2.103485   -0.752181
  C      1.265993   -3.227809   -0.870891
  C      1.301479   -3.281389    0.703887
  C      0.236158   -2.165920    0.718114
  C      0.139742   -0.757209    1.266607
  O     -0.899599   -2.634617   -0.005932
  H      0.491401    2.067362    0.650570
  H     -0.287640    2.000830   -0.943797
  H     -1.234115    1.750243    0.532354
  H      0.030791   -0.295582   -2.139928
  H      0.932056   -4.127090   -1.392841
  H      2.212463   -2.889465   -1.297821
  H      1.006335   -4.218840    1.180948
  H      2.264688   -2.957350    1.105463
  H      1.039743   -0.477352    1.829392
  H     -0.713010   -0.608496    1.939704

 Total Charge           Charge          ....    0
 Multiplicity           Mult            ....    1
 Number of Electrons    NEL             ....   66
 Basis Dimension        Dim             ....  339

ORBITAL ENERGIES
----------------

  NO   OCC          E(Eh)            E(eV)
   0   2.0000     -20.560445      -559.4782
   1   2.0000     -11.271305      -306.7078
   2   2.0000     -11.270337      -306.6815
   3   2.0000     -11.247121      -306.0497
   4   2.0000     -11.240497      -305.8695
   5   2.0000     -11.236837      -305.7699
   6   2.0000     -11.236135      -305.7508
   7   2.0000     -11.228894      -305.5537
   8   2.0000     -11.226377      -305.4852
   9   2.0000      -1.412909       -38.4472
  10   2.0000      -1.121096       -30.5066
  11   2.0000      -1.070519       -29.1303
  12   2.0000      -0.978696       -26.6317
  13   2.0000      -0.970582       -26.4109
  14   2.0000      -0.867716       -23.6118
  15   2.0000      -0.835815       -22.7437
  16   2.0000      -0.740651       -20.1541
  17   2.0000      -0.711072       -19.3493
  18   2.0000      -0.684901       -18.6371
  19   2.0000      -0.630690       -17.1619
  20   2.0000      -0.606056       -16.4916
  21   2.0000      -0.591956       -16.1079
  22   2.0000      -0.579871       -15.7791
  23   2.0000      -0.561472       -15.2784
  24   2.0000      -0.552977       -15.0473
  25   2.0000      -0.537854       -14.6358
  26   2.0000      -0.515046       -14.0151
  27   2.0000      -0.500907       -13.6304
  28   2.0000      -0.488024       -13.2798
  29   2.0000      -0.471390       -12.8272
  30   2.0000      -0.430200       -11.7063
  31   2.0000      -0.383701       -10.4410
  32   2.0000      -0.331134        -9.0106
  33   0.0000       0.134112         3.6494
  34   0.0000       0.139703         3.8015
  35   0.0000       0.157087         4.2745
  36   0.0000       0.162989         4.4351
  37   0.0000       0.183639         4.9971

MULLIKEN ATOMIC CHARGES
-----------------------
   0 C :   -0.411476
   1 C :    0.102427
   2 C :   -0.375779
   3 C :    0.292147
   4 C :   -0.214607
   5 C :   -0.215513
   6 C :    0.111879
   7 C :   -0.255203
   8 O :   -0.317333
   9 H :    0.137209
  10 H :    0.138637
  11 H :    0.144675
  12 H :    0.130409
  13 H :    0.122620
  14 H :    0.116833
  15 H :    0.121784
  16 H :    0.114598
  17 H :    0.124418
  18 H :    0.132274
Sum of atomic charges:   -0.0000000

LOEWDIN ATOMIC CHARGES
----------------------
   0 C :   -0.274874
   1 C :   -0.152730
   2 C :   -0.111160
   3 C :   -0.240807
   4 C :   -0.191176
   5 C :   -0.192826
   6 C :   -0.250751
   7 C :   -0.176439
   8 O :    0.219357
   9 H :    0.131168
  10 H :    0.131721
  11 H :    0.134278
  12 H :    0.141051
  13 H :    0.131165
  14 H :    0.136536
  15 H :    0.130520
  16 H :    0.135839
  17 H :    0.148894
  18 H :    0.150235

  Mayer bond orders larger than 0.1
B(  0-C ,  1-C ) :   0.8839 B(  0-C ,  9-H ) :   0.9312 B(  0-C , 10-H ) :   0.9432
B(  0-C , 11-H ) :   0.9259 B(  1-C ,  2-C ) :   1.7352 B(  1-C ,  7-C ) :   0.9526
B(  2-C ,  3-C ) :   0.9759 B(  2-C , 12-H ) :   0.9181 B(  3-C ,  4-C ) :   0.9217
B(  3-C ,  6-C ) :   0.8010 B(  3-C ,  8-O ) :   0.8834 B(  4-C ,  5-C ) :   1.0089
B(  4-C , 13-H ) :   0.9134 B(  4-C , 14-H ) :   0.9098 B(  5-C ,  6-C ) :   0.9470
B(  5-C , 15-H ) :   0.9144 B(  5-C , 16-H ) :   0.9086 B(  6-C ,  7-C ) :   0.9871
B(  6-C ,  8-O ) :   0.9467 B(  7-C , 17-H ) :   0.8987 B(  7-C , 18-H ) :   0.8959

MP2 TOTAL ENERGY:     -385.170075471 Eh
FINAL SINGLE POINT ENERGY      -385.170075470890

DIPOLE MOMENT
-------------
                                X             Y             Z
Electronic contribution:     -2.55801      -4.01806      -1.15145
Nuclear contribution   :      3.26975       4.58244       1.29092
                        -----------------------------------------
Total Dipole Moment    :      0.71174       0.56438       0.13947
                        -----------------------------------------
Magnitude (a.u.)       :      0.91900
Magnitude (Debye)      :      2.33591

                             ****ORCA TERMINATED NORMALLY****
TOTAL RUN TIME: 0 days 0 hours 20 minutes 45 seconds 359 msec
