                         Program Version 3.0.3 - RELEASE   -
|  1> ! RI-MP2 RIJK def2-TZVP def2-TZVP/C def2-TZVP/JK TIGHTSCF
|  2> % maxcore 2000
|  3> % mp2 density relaxed end
|  4> *xyz 0 1
|  5>  O       -1.0917640209     0.9391477087     0.0575754362
|  6>  C        0.0687217888     0.9575165317    -0.2761552396
|  7>  C        1.1618792730     1.8766197647     0.1233500419
|  8>  C        1.1824726258     3.3928811617    -0.1823127923
|  9>  O       -0.0138646476     4.0969716691    -0.2817702713
| 10>  C       -0.4961306574     4.4342216197     1.0122714848
| 11>  C       -1.2021683887     3.3771058573     1.8030128485
| 12>  C        0.2783683395     3.6280326459     2.0266372334
| 13>  C        1.3578629177     2.9305528203     1.2292084462
| 14>  H        0.4335679962     0.2122924678    -1.0192995597
| 15>  H        2.1199951886     1.4398033257    -0.1537298900
| 16>  H        1.9646598973     3.7625203539    -0.8382812780
| 17>  H       -0.7430032181     5.4863923393     1.1064928506
| 18>  H       -1.8592450171     3.7362387921     2.5896189239
| 19>  H       -1.5130388856     2.4706761929     1.3032213952
| 20>  H        0.6012308088     4.0569518697     2.9675512054
| 21>  H        2.3394793897     2.8985388095     1.6877556246
| 22> *
| 23>
| 24>                          ****END OF INPUT****

CARTESIAN COORDINATES (ANGSTROEM)
---------------------------------
  O     -1.091764    0.939148    0.057575
  C      0.068722    0.957517   -0.276155
  C      1.161879    1.876620    0.123350
  C      1.182473    3.392881   -0.182313
  O     -0.013865    4.096972   -0.281770
  C     -0.496131    4.434222    1.012271
  C     -1.202168    3.377106    1.803013
  C      0.278368    3.628033    2.026637
  C      1.357863    2.930553    1.229208
  H      0.433568    0.212292   -1.019300
  H      2.119995    1.439803   -0.153730
  H      1.964660    3.762520   -0.838281
  H     -0.743003    5.486392    1.106493
  H     -1.859245    3.736239    2.589619
  H     -1.513039    2.470676    1.303221
  H      0.601231    4.056952    2.967551
  H      2.339479    2.898539    1.687756

 Total Charge           Charge          ....    0
 Multiplicity           Mult            ....    1
 Number of Electrons    NEL             ....   66
 Basis Dimension        Dim             ....  327

ORBITAL ENERGIES
----------------

  NO   OCC          E(Eh)            E(eV)
   0   2.0000     -20.572859      -559.8159
   1   2.0000     -20.553067      -559.2774
   2   2.0000     -11.337617      -308.5122
   3   2.0000     -11.305832      -307.6473
   4   2.0000     -11.283050      -307.0274
   5   2.0000     -11.262094      -306.4572
   6   2.0000     -11.256494      -306.3048
   7   2.0000     -11.242684      -305.9290
   8   2.0000     -11.220047      -305.3130
   9   2.0000      -1.406882       -38.2832
  10   2.0000      -1.392467       -37.8910
  11   2.0000      -1.154770       -31.4229
  12   2.0000      -1.127273       -30.6747
  13   2.0000      -0.948998       -25.8235
  14   2.0000      -0.870056       -23.6754
  15   2.0000      -0.833868       -22.6907
  16   2.0000      -0.786365       -21.3981
  17   2.0000      -0.738950       -20.1078
  18   2.0000      -0.731274       -19.8990
  19   2.0000      -0.673076       -18.3153
  20   2.0000      -0.655706       -17.8427
  21   2.0000      -0.635229       -17.2855
  22   2.0000      -0.619686       -16.8625
  23   2.0000      -0.600891       -16.3511
  24   2.0000      -0.564157       -15.3515
  25   2.0000      -0.544204       -14.8086
  26   2.0000      -0.529024       -14.3955
  27   2.0000      -0.512524       -13.9465
  28   2.0000      -0.475414       -12.9367
  29   2.0000      -0.427090       -11.6217
  30   2.0000      -0.423020       -11.5110
  31   2.0000      -0.386868       -10.5272
  32   2.0000      -0.379976       -10.3397
  33   0.0000       0.120022         3.2660
  34   0.0000       0.133875         3.6429
  35   0.0000       0.158183         4.3044
  36   0.0000       0.180338         4.9072
  37   0.0000       0.184552         5.0219

MULLIKEN ATOMIC CHARGES
-----------------------
   0 O :   -0.292655
   1 C :    0.142021
   2 C :   -0.163671
   3 C :    0.057857
   4 O :   -0.302098
   5 C :    0.039601
   6 C :   -0.260865
   7 C :   -0.179169
   8 C :   -0.103038
   9 H :    0.084279
  10 H :    0.130465
  11 H :    0.131426
  12 H :    0.123796
  13 H :    0.124510
  14 H :    0.193740
  15 H :    0.132970
  16 H :    0.140830
Sum of atomic charges:    0.0000000

LOEWDIN ATOMIC CHARGES
----------------------
   0 O :    0.127921
   1 C :   -0.292049
   2 C :   -0.187513
   3 C :   -0.235524
   4 O :    0.228829
   5 C :   -0.248565
   6 C :   -0.195898
   7 C :   -0.185306
   8 C :   -0.156530
   9 H :    0.120531
  10 H :    0.165205
  11 H :    0.137536
  12 H :    0.133611
  13 H :    0.137676
  14 H :    0.144624
  15 H :    0.149400
  16 H :    0.156051

  Mayer bond orders larger than 0.1
B(  0-O ,  1-C ) :   1.9255 B(  1-C ,  2-C ) :   0.9175 B(  1-C ,  9-H ) :   0.9415
B(  2-C ,  3-C ) :   0.7868 B(  2-C ,  8-C ) :   0.8208 B(  2-C , 10-H ) :   0.9092
B(  3-C ,  4-O ) :   1.0328 B(  3-C ,  8-C ) :   0.9089 B(  3-C , 11-H ) :   0.9411
B(  4-O ,  5-C ) :   0.9203 B(  5-C ,  6-C ) :   0.8765 B(  5-C ,  7-C ) :   0.9155
B(  5-C , 12-H ) :   0.9386 B(  6-C ,  7-C ) :   0.8874 B(  6-C , 13-H ) :   0.9244
B(  6-C , 14-H ) :   0.8902 B(  7-C ,  8-C ) :   0.9442 B(  7-C , 15-H ) :   0.9244
B(  8-C , 16-H ) :   0.9204

MP2 TOTAL ENERGY:     -421.068919154 Eh
FINAL SINGLE POINT ENERGY      -421.068919154384

DIPOLE MOMENT
-------------
                                X             Y             Z
Electronic contribution:     -1.08142      -0.99402      -2.35265
Nuclear contribution   :      2.27570       1.27125       2.73574
                        -----------------------------------------
Total Dipole Moment    :      1.19428       0.27722       0.38309
                        -----------------------------------------
Magnitude (a.u.)       :      1.28449
Magnitude (Debye)      :      3.26491

                             ****ORCA TERMINATED NORMALLY****
TOTAL RUN TIME: 0 days 0 hours 18 minutes 34 seconds 979 msec
