                         Program Version 3.0.3 - RELEASE   -
|  1> ! RI-MP2 RIJK def2-TZVP def2-TZVP/C def2-TZVP/JK TIGHTSCF
|  2> % maxcore 2000
|  3> % mp2 density relaxed end
|  4> *xyz 0 1
|  5>  C        0.2133726223     1.6019159598    -0.2404994870
|  6>  C       -0.0251029059     0.1227708729     0.0793838152
|  7>  N        0.4724916737    -0.7585673196    -0.9737599959
|  8>  C        1.7435772562    -1.2360570097    -0.6780396869
|  9>  O        2.4916653575    -1.8231001621    -1.4273320654
| 10>  N        1.9802694956    -0.9034795500     0.6502125486
| 11>  C        0.7556594213    -0.4463081245     1.3166485858
| 12>  C        1.0734209430     0.5860093559     2.4000099366
| 13>  C       -0.0244126251    -1.6283185780     1.9236071967
| 14>  H        1.2794896732     1.8130648532    -0.3647227494
| 15>  H       -0.2943950948     1.8640992475    -1.1748548598
| 16>  H       -0.1848182984     2.2526372647     0.5434329589
| 17>  H       -1.0984699928    -0.0407379882     0.2308311254
| 18>  H        0.2785070605    -0.5599480377    -1.9431937940
| 19>  H        2.6415585161    -1.4817264501     1.1465793601
| 20>  H        1.6870266349     1.4012814816     2.0122543204
| 21>  H        0.1553667536     1.0056564050     2.8239612139
| 22>  H        1.6242010981     0.1110636680     3.2189969527
| 23>  H        0.5826620235    -2.1422432000     2.6766462098
| 24>  H       -0.9411408237    -1.2827950173     2.4132544274
| 25>  H       -0.2969920290    -2.3502489514     1.1490799970
| 26> *
| 27>
| 28>                          ****END OF INPUT****

CARTESIAN COORDINATES (ANGSTROEM)
---------------------------------
  C      0.213373    1.601916   -0.240499
  C     -0.025103    0.122771    0.079384
  N      0.472492   -0.758567   -0.973760
  C      1.743577   -1.236057   -0.678040
  O      2.491665   -1.823100   -1.427332
  N      1.980269   -0.903480    0.650213
  C      0.755659   -0.446308    1.316649
  C      1.073421    0.586009    2.400010
  C     -0.024413   -1.628319    1.923607
  H      1.279490    1.813065   -0.364723
  H     -0.294395    1.864099   -1.174855
  H     -0.184818    2.252637    0.543433
  H     -1.098470   -0.040738    0.230831
  H      0.278507   -0.559948   -1.943194
  H      2.641559   -1.481726    1.146579
  H      1.687027    1.401281    2.012254
  H      0.155367    1.005656    2.823961
  H      1.624201    0.111064    3.218997
  H      0.582662   -2.142243    2.676646
  H     -0.941141   -1.282795    2.413254
  H     -0.296992   -2.350249    1.149080

 Total Charge           Charge          ....    0
 Multiplicity           Mult            ....    1
 Number of Electrons    NEL             ....   70
 Basis Dimension        Dim             ....  351

ORBITAL ENERGIES
----------------

  NO   OCC          E(Eh)            E(eV)
   0   2.0000     -20.505365      -557.9793
   1   2.0000     -15.572801      -423.7574
   2   2.0000     -15.571322      -423.7172
   3   2.0000     -11.363775      -309.2240
   4   2.0000     -11.289260      -307.1964
   5   2.0000     -11.281503      -306.9853
   6   2.0000     -11.229240      -305.5631
   7   2.0000     -11.229221      -305.5626
   8   2.0000     -11.226366      -305.4849
   9   2.0000      -1.387625       -37.7592
  10   2.0000      -1.280885       -34.8547
  11   2.0000      -1.181120       -32.1399
  12   2.0000      -1.072863       -29.1941
  13   2.0000      -1.000635       -27.2287
  14   2.0000      -0.950417       -25.8622
  15   2.0000      -0.880000       -23.9460
  16   2.0000      -0.823703       -22.4141
  17   2.0000      -0.788875       -21.4664
  18   2.0000      -0.690009       -18.7761
  19   2.0000      -0.661737       -18.0068
  20   2.0000      -0.641349       -17.4520
  21   2.0000      -0.626350       -17.0438
  22   2.0000      -0.615936       -16.7605
  23   2.0000      -0.606292       -16.4981
  24   2.0000      -0.572006       -15.5651
  25   2.0000      -0.564324       -15.3560
  26   2.0000      -0.549282       -14.9467
  27   2.0000      -0.547693       -14.9035
  28   2.0000      -0.536439       -14.5972
  29   2.0000      -0.523180       -14.2364
  30   2.0000      -0.505395       -13.7525
  31   2.0000      -0.473157       -12.8752
  32   2.0000      -0.427881       -11.6432
  33   2.0000      -0.398459       -10.8426
  34   2.0000      -0.391435       -10.6515
  35   0.0000       0.117889         3.2079
  36   0.0000       0.145660         3.9636
  37   0.0000       0.160185         4.3588
  38   0.0000       0.166725         4.5368
  39   0.0000       0.189577         5.1586

MULLIKEN ATOMIC CHARGES
-----------------------
   0 C :   -0.467774
   1 C :    0.069310
   2 N :   -0.363145
   3 C :    0.289408
   4 O :   -0.357803
   5 N :   -0.371260
   6 C :    0.219512
   7 C :   -0.414646
   8 C :   -0.453174
   9 H :    0.157833
  10 H :    0.135980
  11 H :    0.134583
  12 H :    0.112873
  13 H :    0.235465
  14 H :    0.233287
  15 H :    0.149232
  16 H :    0.132634
  17 H :    0.136475
  18 H :    0.130373
  19 H :    0.128765
  20 H :    0.162070
Sum of atomic charges:   -0.0000000

LOEWDIN ATOMIC CHARGES
----------------------
   0 C :   -0.294429
   1 C :   -0.257315
   2 N :    0.104875
   3 C :   -0.542774
   4 O :    0.061670
   5 N :    0.126173
   6 C :   -0.329961
   7 C :   -0.269261
   8 C :   -0.271798
   9 H :    0.131084
  10 H :    0.124914
  11 H :    0.126242
  12 H :    0.149264
  13 H :    0.183699
  14 H :    0.185737
  15 H :    0.129311
  16 H :    0.129249
  17 H :    0.128692
  18 H :    0.124470
  19 H :    0.126396
  20 H :    0.133762

  Mayer bond orders larger than 0.1
B(  0-C ,  1-C ) :   0.9028 B(  0-C ,  9-H ) :   0.9408 B(  0-C , 10-H ) :   0.9336
B(  0-C , 11-H ) :   0.9357 B(  1-C ,  2-N ) :   0.8648 B(  1-C ,  6-C ) :   0.8617
B(  1-C , 12-H ) :   0.9246 B(  2-N ,  3-C ) :   1.0952 B(  2-N , 13-H ) :   0.8748
B(  3-C ,  4-O ) :   2.0200 B(  3-C ,  5-N ) :   1.0948 B(  5-N ,  6-C ) :   0.8034
B(  5-N , 14-H ) :   0.8718 B(  6-C ,  7-C ) :   0.8936 B(  6-C ,  8-C ) :   0.9318
B(  7-C , 15-H ) :   0.9375 B(  7-C , 16-H ) :   0.9414 B(  7-C , 17-H ) :   0.9303
B(  8-C , 18-H ) :   0.9317 B(  8-C , 19-H ) :   0.9330 B(  8-C , 20-H ) :   0.9312

MP2 TOTAL ENERGY:     -419.776828440 Eh
FINAL SINGLE POINT ENERGY      -419.776828440289

DIPOLE MOMENT
-------------
                                X             Y             Z
Electronic contribution:      4.76142      -5.27394      -7.04587
Nuclear contribution   :     -5.81959       6.13980       8.12504
                        -----------------------------------------
Total Dipole Moment    :     -1.05817       0.86586       1.07918
                        -----------------------------------------
Magnitude (a.u.)       :      1.74185
Magnitude (Debye)      :      4.42744

                             ****ORCA TERMINATED NORMALLY****
TOTAL RUN TIME: 0 days 0 hours 20 minutes 59 seconds 90 msec
