                         Program Version 3.0.3 - RELEASE   -
|  1> ! RI-MP2 RIJK def2-TZVP def2-TZVP/C def2-TZVP/JK TIGHTSCF
|  2> % maxcore 2000
|  3> % mp2 density relaxed end
|  4> *xyz 0 1
|  5>  O        0.2351856569     1.3300104158     0.3824692102
|  6>  C        0.0760369312    -0.0487580430     0.1602215438
|  7>  C       -1.3949868403    -0.5171878244    -0.0462272511
|  8>  C       -2.5330896159     0.4944114068    -0.2995344580
|  9>  C       -2.9123028020     0.1955766425    -1.7436419511
| 10>  C       -2.0227896587    -0.6052911101    -2.3315919164
| 11>  N       -1.0113053417    -1.0078158545    -1.4089022369
| 12>  C        0.2770376454    -0.4513706262    -1.3248908097
| 13>  O        1.1330460053    -0.2525524073    -2.1399828072
| 14>  H        1.0174477420     1.6113618611    -0.1071984613
| 15>  H        0.6360108307    -0.6486984038     0.8896767259
| 16>  H       -1.7020026584    -1.3330723954     0.6120835665
| 17>  H       -3.3621337475     0.3480814652     0.3980997743
| 18>  H       -2.1901369265     1.5305701060    -0.1881126509
| 19>  H       -3.7765696382     0.6236198709    -2.2337997030
| 20>  H       -1.9818134023    -0.9481012536    -3.3554230950
| 21> *
| 22>
| 23>                          ****END OF INPUT****

CARTESIAN COORDINATES (ANGSTROEM)
---------------------------------
  O      0.235186    1.330010    0.382469
  C      0.076037   -0.048758    0.160222
  C     -1.394987   -0.517188   -0.046227
  C     -2.533090    0.494411   -0.299534
  C     -2.912303    0.195577   -1.743642
  C     -2.022790   -0.605291   -2.331592
  N     -1.011305   -1.007816   -1.408902
  C      0.277038   -0.451371   -1.324891
  O      1.133046   -0.252552   -2.139983
  H      1.017448    1.611362   -0.107198
  H      0.636011   -0.648698    0.889677
  H     -1.702003   -1.333072    0.612084
  H     -3.362134    0.348081    0.398100
  H     -2.190137    1.530570   -0.188113
  H     -3.776570    0.623620   -2.233800
  H     -1.981813   -0.948101   -3.355423

 Total Charge           Charge          ....    0
 Multiplicity           Mult            ....    1
 Number of Electrons    NEL             ....   66
 Basis Dimension        Dim             ....  321

ORBITAL ENERGIES
----------------

  NO   OCC          E(Eh)            E(eV)
   0   2.0000     -20.582890      -560.0889
   1   2.0000     -20.554344      -559.3121
   2   2.0000     -15.590804      -424.2474
   3   2.0000     -11.363324      -309.2118
   4   2.0000     -11.312257      -307.8222
   5   2.0000     -11.283371      -307.0361
   6   2.0000     -11.277071      -306.8647
   7   2.0000     -11.244817      -305.9870
   8   2.0000     -11.241686      -305.9018
   9   2.0000      -1.417429       -38.5702
  10   2.0000      -1.385616       -37.7045
  11   2.0000      -1.296524       -35.2802
  12   2.0000      -1.087305       -29.5871
  13   2.0000      -1.034444       -28.1487
  14   2.0000      -0.924046       -25.1446
  15   2.0000      -0.860058       -23.4034
  16   2.0000      -0.793080       -21.5808
  17   2.0000      -0.731871       -19.9152
  18   2.0000      -0.721343       -19.6287
  19   2.0000      -0.716069       -19.4852
  20   2.0000      -0.680395       -18.5145
  21   2.0000      -0.639283       -17.3958
  22   2.0000      -0.608735       -16.5645
  23   2.0000      -0.597705       -16.2644
  24   2.0000      -0.563577       -15.3357
  25   2.0000      -0.554210       -15.0808
  26   2.0000      -0.540049       -14.6955
  27   2.0000      -0.522787       -14.2258
  28   2.0000      -0.520027       -14.1507
  29   2.0000      -0.475324       -12.9342
  30   2.0000      -0.445567       -12.1245
  31   2.0000      -0.428748       -11.6668
  32   2.0000      -0.339011        -9.2249
  33   0.0000       0.124208         3.3799
  34   0.0000       0.143200         3.8967
  35   0.0000       0.155659         4.2357
  36   0.0000       0.159472         4.3395
  37   0.0000       0.170542         4.6407

MULLIKEN ATOMIC CHARGES
-----------------------
   0 O :   -0.474858
   1 C :    0.028757
   2 C :    0.021808
   3 C :   -0.209952
   4 C :   -0.187163
   5 C :   -0.109518
   6 N :   -0.089028
   7 C :    0.157316
   8 O :   -0.288116
   9 H :    0.339188
  10 H :    0.114850
  11 H :    0.122471
  12 H :    0.128531
  13 H :    0.150902
  14 H :    0.140838
  15 H :    0.153974
Sum of atomic charges:    0.0000000

LOEWDIN ATOMIC CHARGES
----------------------
   0 O :   -0.002462
   1 C :   -0.277057
   2 C :   -0.168200
   3 C :   -0.215105
   4 C :   -0.161790
   5 C :   -0.182982
   6 N :    0.218141
   7 C :   -0.389620
   8 O :    0.135863
   9 H :    0.189866
  10 H :    0.135607
  11 H :    0.141747
  12 H :    0.141149
  13 H :    0.150886
  14 H :    0.141475
  15 H :    0.142483

  Mayer bond orders larger than 0.1
B(  0-O ,  1-C ) :   0.9958 B(  0-O ,  9-H ) :   0.8260 B(  1-C ,  2-C ) :   0.8849
B(  1-C ,  7-C ) :   0.8939 B(  1-C , 10-H ) :   0.9183 B(  2-C ,  3-C ) :   0.9678
B(  2-C ,  6-N ) :   0.8953 B(  2-C , 11-H ) :   0.9094 B(  3-C ,  4-C ) :   0.9322
B(  3-C , 12-H ) :   0.9335 B(  3-C , 13-H ) :   0.8872 B(  4-C ,  5-C ) :   1.7620
B(  4-C , 14-H ) :   0.9237 B(  5-C ,  6-N ) :   0.9590 B(  5-C , 15-H ) :   0.9261
B(  6-N ,  7-C ) :   1.0541 B(  7-C ,  8-O ) :   2.0273

MP2 TOTAL ENERGY:     -437.169806203 Eh
FINAL SINGLE POINT ENERGY      -437.169806203247

DIPOLE MOMENT
-------------
                                X             Y             Z
Electronic contribution:      4.30671      -1.46197      -2.04778
Nuclear contribution   :     -5.05236       1.48434       2.50478
                        -----------------------------------------
Total Dipole Moment    :     -0.74564       0.02236       0.45700
                        -----------------------------------------
Magnitude (a.u.)       :      0.87483
Magnitude (Debye)      :      2.22365

                             ****ORCA TERMINATED NORMALLY****
TOTAL RUN TIME: 0 days 0 hours 17 minutes 5 seconds 91 msec
