                         Program Version 3.0.3 - RELEASE   -
|  1> ! RI-MP2 RIJK def2-TZVP def2-TZVP/C def2-TZVP/JK TIGHTSCF
|  2> % maxcore 2000
|  3> % mp2 density relaxed end
|  4> *xyz 0 1
|  5>  O       -0.1395802475     1.3681105985     0.3886547697
|  6>  C        0.0386586524     0.0192331121    -0.0586670812
|  7>  C       -1.3375099634    -0.6123707155     0.0189195849
|  8>  C       -1.5925023744    -2.1177259062     0.0250697925
|  9>  C       -1.5064520920    -2.6125554823     1.4805397639
| 10>  C       -1.1749802201    -1.4118825403     2.3634636756
| 11>  C       -2.0767275261    -0.5977372523     1.3884006033
| 12>  O       -2.7423707753     0.5414679457     1.7993211993
| 13>  C       -2.7669602496    -1.9658892672     0.9661255221
| 14>  H        0.7174499639     1.8023812612     0.4214174257
| 15>  H        0.4266721191    -0.0064739324    -1.0885344811
| 16>  H        0.7564244755    -0.5145852605     0.5789720700
| 17>  H       -1.9966529395    -0.1337454365    -0.7143000118
| 18>  H       -1.5053112245    -2.8062737094    -0.8057240736
| 19>  H       -1.3512791806    -3.6613449183     1.6972960535
| 20>  H       -1.6677995630    -1.4925654528     3.3360537575
| 21>  H       -0.1318846477    -1.1057912302     2.5029405622
| 22>  H       -2.1615858655     1.2825101697     1.5817831912
| 23>  H       -3.7923398917    -2.2980350033     0.9053490462
| 24> *
| 25>
| 26>                          ****END OF INPUT****

CARTESIAN COORDINATES (ANGSTROEM)
---------------------------------
  O     -0.139580    1.368111    0.388655
  C      0.038659    0.019233   -0.058667
  C     -1.337510   -0.612371    0.018920
  C     -1.592502   -2.117726    0.025070
  C     -1.506452   -2.612555    1.480540
  C     -1.174980   -1.411883    2.363464
  C     -2.076728   -0.597737    1.388401
  O     -2.742371    0.541468    1.799321
  C     -2.766960   -1.965889    0.966126
  H      0.717450    1.802381    0.421417
  H      0.426672   -0.006474   -1.088534
  H      0.756424   -0.514585    0.578972
  H     -1.996653   -0.133745   -0.714300
  H     -1.505311   -2.806274   -0.805724
  H     -1.351279   -3.661345    1.697296
  H     -1.667800   -1.492565    3.336054
  H     -0.131885   -1.105791    2.502941
  H     -2.161586    1.282510    1.581783
  H     -3.792340   -2.298035    0.905349

 Total Charge           Charge          ....    0
 Multiplicity           Mult            ....    1
 Number of Electrons    NEL             ....   68
 Basis Dimension        Dim             ....  339

ORBITAL ENERGIES
----------------

  NO   OCC          E(Eh)            E(eV)
   0   2.0000     -20.568192      -559.6890
   1   2.0000     -20.548657      -559.1574
   2   2.0000     -11.288403      -307.1730
   3   2.0000     -11.278989      -306.9169
   4   2.0000     -11.235074      -305.7219
   5   2.0000     -11.233316      -305.6741
   6   2.0000     -11.228042      -305.5306
   7   2.0000     -11.227327      -305.5111
   8   2.0000     -11.217843      -305.2530
   9   2.0000      -1.372298       -37.3421
  10   2.0000      -1.361535       -37.0493
  11   2.0000      -1.223354       -33.2891
  12   2.0000      -1.014684       -27.6109
  13   2.0000      -0.960826       -26.1454
  14   2.0000      -0.896109       -24.3844
  15   2.0000      -0.831274       -22.6201
  16   2.0000      -0.750058       -20.4101
  17   2.0000      -0.728726       -19.8296
  18   2.0000      -0.715929       -19.4814
  19   2.0000      -0.698821       -19.0159
  20   2.0000      -0.657381       -17.8882
  21   2.0000      -0.614137       -16.7115
  22   2.0000      -0.611261       -16.6333
  23   2.0000      -0.584170       -15.8961
  24   2.0000      -0.567563       -15.4442
  25   2.0000      -0.551006       -14.9936
  26   2.0000      -0.531458       -14.4617
  27   2.0000      -0.508784       -13.8447
  28   2.0000      -0.499193       -13.5837
  29   2.0000      -0.460169       -12.5218
  30   2.0000      -0.422652       -11.5010
  31   2.0000      -0.409668       -11.1476
  32   2.0000      -0.392633       -10.6841
  33   2.0000      -0.364464        -9.9176
  34   0.0000       0.127238         3.4623
  35   0.0000       0.157193         4.2774
  36   0.0000       0.169956         4.6247
  37   0.0000       0.175314         4.7705
  38   0.0000       0.183682         4.9982

MULLIKEN ATOMIC CHARGES
-----------------------
   0 O :   -0.496589
   1 C :   -0.100652
   2 C :   -0.058840
   3 C :   -0.175773
   4 C :   -0.184732
   5 C :   -0.189944
   6 C :    0.279453
   7 O :   -0.471040
   8 C :   -0.225562
   9 H :    0.320860
  10 H :    0.107641
  11 H :    0.110861
  12 H :    0.109511
  13 H :    0.134160
  14 H :    0.131600
  15 H :    0.109932
  16 H :    0.104592
  17 H :    0.341051
  18 H :    0.153470
Sum of atomic charges:   -0.0000000

LOEWDIN ATOMIC CHARGES
----------------------
   0 O :   -0.058619
   1 C :   -0.316645
   2 C :   -0.196887
   3 C :   -0.145134
   4 C :   -0.166735
   5 C :   -0.184506
   6 C :   -0.292461
   7 O :    0.026536
   8 C :   -0.100884
   9 H :    0.173052
  10 H :    0.118229
  11 H :    0.118654
  12 H :    0.163764
  13 H :    0.137508
  14 H :    0.136794
  15 H :    0.143482
  16 H :    0.119912
  17 H :    0.188506
  18 H :    0.135433

  Mayer bond orders larger than 0.1
B(  0-O ,  1-C ) :   0.9781 B(  0-O ,  9-H ) :   0.8457 B(  1-C ,  2-C ) :   0.9109
B(  1-C , 10-H ) :   0.9330 B(  1-C , 11-H ) :   0.9213 B(  2-C ,  3-C ) :   0.9305
B(  2-C ,  6-C ) :   0.9352 B(  2-C , 12-H ) :   0.9258 B(  3-C ,  4-C ) :   0.8185
B(  3-C ,  8-C ) :   0.8467 B(  3-C , 13-H ) :   0.9222 B(  4-C ,  5-C ) :   0.9540
B(  4-C ,  8-C ) :   0.8722 B(  4-C , 14-H ) :   0.9371 B(  5-C ,  6-C ) :   0.9205
B(  5-C , 15-H ) :   0.9142 B(  5-C , 16-H ) :   0.9196 B(  6-C ,  7-O ) :   1.0169
B(  6-C ,  8-C ) :   0.8960 B(  7-O , 17-H ) :   0.8175 B(  8-C , 18-H ) :   0.9044

MP2 TOTAL ENERGY:     -422.270546192 Eh
FINAL SINGLE POINT ENERGY      -422.270546192000

DIPOLE MOMENT
-------------
                                X             Y             Z
Electronic contribution:     -2.44477       1.47967       0.42582
Nuclear contribution   :      3.49137      -1.62852      -0.85788
                        -----------------------------------------
Total Dipole Moment    :      1.04660      -0.14886      -0.43206
                        -----------------------------------------
Magnitude (a.u.)       :      1.14201
Magnitude (Debye)      :      2.90277

                             ****ORCA TERMINATED NORMALLY****
TOTAL RUN TIME: 0 days 0 hours 17 minutes 28 seconds 676 msec
