                         Program Version 3.0.3 - RELEASE   -
|  1> ! RI-MP2 RIJK def2-TZVP def2-TZVP/C def2-TZVP/JK TIGHTSCF
|  2> % maxcore 2000
|  3> % mp2 density relaxed end
|  4> *xyz 0 1
|  5>  C        0.2523777831     1.1051068200    -0.5349937351
|  6>  N       -0.3547817815     0.0450591673     0.2750302621
|  7>  C        0.5148399356    -0.5201829863     1.3206970093
|  8>  C       -0.2454206570    -0.7764582355     2.5395277265
|  9>  C       -0.8823807924    -0.9803082110     3.5372857017
| 10>  C        1.1105457752    -1.8691155238     0.7749412566
| 11>  O        0.1070280331    -2.6235436890     0.1639433525
| 12>  C        2.2315257914    -1.5910440052    -0.1577276082
| 13>  N        3.1033734769    -1.3664095421    -0.8826922669
| 14>  H        1.1004178404     0.7070899258    -1.0963048390
| 15>  H       -0.4877158420     1.4655418936    -1.2539255805
| 16>  H        0.6056495706     1.9598089003     0.0626930911
| 17>  H       -1.2118991617     0.3737215570     0.7004033180
| 18>  H        1.3482143375     0.1584052322     1.5573041906
| 19>  H       -1.4383623371    -1.1622714256     4.4241950555
| 20>  H        1.5142537204    -2.4439046776     1.6140864239
| 21>  H       -0.4526714925    -1.9559360701    -0.2750632681
| 22> *
| 23>
| 24>                          ****END OF INPUT****

CARTESIAN COORDINATES (ANGSTROEM)
---------------------------------
  C      0.252378    1.105107   -0.534994
  N     -0.354782    0.045059    0.275030
  C      0.514840   -0.520183    1.320697
  C     -0.245421   -0.776458    2.539528
  C     -0.882381   -0.980308    3.537286
  C      1.110546   -1.869116    0.774941
  O      0.107028   -2.623544    0.163943
  C      2.231526   -1.591044   -0.157728
  N      3.103373   -1.366410   -0.882692
  H      1.100418    0.707090   -1.096305
  H     -0.487716    1.465542   -1.253926
  H      0.605650    1.959809    0.062693
  H     -1.211899    0.373722    0.700403
  H      1.348214    0.158405    1.557304
  H     -1.438362   -1.162271    4.424195
  H      1.514254   -2.443905    1.614086
  H     -0.452671   -1.955936   -0.275063

 Total Charge           Charge          ....    0
 Multiplicity           Mult            ....    1
 Number of Electrons    NEL             ....   66
 Basis Dimension        Dim             ....  327

ORBITAL ENERGIES
----------------

  NO   OCC          E(Eh)            E(eV)
   0   2.0000     -20.577016      -559.9291
   1   2.0000     -15.584632      -424.0794
   2   2.0000     -15.578530      -423.9134
   3   2.0000     -11.344455      -308.6983
   4   2.0000     -11.322478      -308.1003
   5   2.0000     -11.276405      -306.8466
   6   2.0000     -11.266486      -306.5767
   7   2.0000     -11.257362      -306.3284
   8   2.0000     -11.250897      -306.1525
   9   2.0000      -1.398143       -38.0454
  10   2.0000      -1.245753       -33.8987
  11   2.0000      -1.222696       -33.2712
  12   2.0000      -1.083135       -29.4736
  13   2.0000      -1.023324       -27.8461
  14   2.0000      -0.952669       -25.9234
  15   2.0000      -0.884544       -24.0697
  16   2.0000      -0.776921       -21.1411
  17   2.0000      -0.736940       -20.0532
  18   2.0000      -0.711540       -19.3620
  19   2.0000      -0.697184       -18.9713
  20   2.0000      -0.671201       -18.2643
  21   2.0000      -0.620595       -16.8872
  22   2.0000      -0.618643       -16.8341
  23   2.0000      -0.576581       -15.6896
  24   2.0000      -0.572267       -15.5722
  25   2.0000      -0.550777       -14.9874
  26   2.0000      -0.538172       -14.6444
  27   2.0000      -0.499385       -13.5890
  28   2.0000      -0.472161       -12.8481
  29   2.0000      -0.467211       -12.7134
  30   2.0000      -0.431328       -11.7370
  31   2.0000      -0.414116       -11.2687
  32   2.0000      -0.403284       -10.9739
  33   0.0000       0.120014         3.2657
  34   0.0000       0.141645         3.8544
  35   0.0000       0.151948         4.1347
  36   0.0000       0.153048         4.1646
  37   0.0000       0.156125         4.2484

MULLIKEN ATOMIC CHARGES
-----------------------
   0 C :   -0.306823
   1 N :   -0.408471
   2 C :   -0.218095
   3 C :   -0.022572
   4 C :   -0.074628
   5 C :    0.225546
   6 O :   -0.449087
   7 C :   -0.184236
   8 N :   -0.062539
   9 H :    0.162074
  10 H :    0.144158
  11 H :    0.126572
  12 H :    0.232559
  13 H :    0.148248
  14 H :    0.202215
  15 H :    0.145462
  16 H :    0.339618
Sum of atomic charges:    0.0000000

LOEWDIN ATOMIC CHARGES
----------------------
   0 C :   -0.336295
   1 N :   -0.014185
   2 C :   -0.265301
   3 C :   -0.093542
   4 C :   -0.071603
   5 C :   -0.319306
   6 O :    0.022049
   7 C :   -0.170296
   8 N :    0.064516
   9 H :    0.125005
  10 H :    0.120183
  11 H :    0.107603
  12 H :    0.178810
  13 H :    0.167786
  14 H :    0.131308
  15 H :    0.170938
  16 H :    0.182329

  Mayer bond orders larger than 0.1
B(  0-C ,  1-N ) :   0.8905 B(  0-C ,  9-H ) :   0.9301 B(  0-C , 10-H ) :   0.9336
B(  0-C , 11-H ) :   0.9316 B(  1-N ,  2-C ) :   0.9633 B(  1-N , 12-H ) :   0.8786
B(  2-C ,  3-C ) :   1.1042 B(  2-C ,  4-C ) :  -0.1135 B(  2-C ,  5-C ) :   0.8723
B(  2-C ,  6-O ) :   0.1365 B(  2-C , 13-H ) :   0.9525 B(  3-C ,  4-C ) :   2.6127
B(  4-C , 14-H ) :   0.8804 B(  5-C ,  6-O ) :   1.0048 B(  5-C ,  7-C ) :   0.8441
B(  5-C , 15-H ) :   0.9288 B(  6-O , 16-H ) :   0.7892 B(  7-C ,  8-N ) :   2.8509

MP2 TOTAL ENERGY:     -417.256589619 Eh
FINAL SINGLE POINT ENERGY      -417.256589618505

DIPOLE MOMENT
-------------
                                X             Y             Z
Electronic contribution:      2.62520      -5.18572       1.07097
Nuclear contribution   :     -3.73760       6.21108      -0.06550
                        -----------------------------------------
Total Dipole Moment    :     -1.11240       1.02535       1.00547
                        -----------------------------------------
Magnitude (a.u.)       :      1.81652
Magnitude (Debye)      :      4.61724

                             ****ORCA TERMINATED NORMALLY****
TOTAL RUN TIME: 0 days 0 hours 15 minutes 57 seconds 73 msec
