                         Program Version 3.0.3 - RELEASE   -
|  1> ! RI-MP2 RIJK def2-TZVP def2-TZVP/C def2-TZVP/JK TIGHTSCF
|  2> % maxcore 2000
|  3> % mp2 density relaxed end
|  4> *xyz 0 1
|  5>  N       -0.5810483564     0.8994794585    -0.7088793287
|  6>  C       -0.1693812550    -0.0810947673    -0.0012751296
|  7>  N       -1.0132646300    -0.7985837720     0.8034274446
|  8>  C       -2.3731198836    -0.3463474231     1.0043184923
|  9>  C       -3.2297125818    -0.5020421880    -0.2542142771
| 10>  O       -4.3196038304    -0.0124094946    -0.3639755547
| 11>  C        1.2645992428    -0.5662801608    -0.0005382026
| 12>  O        2.1220241751    -0.0435090598    -0.6599608018
| 13>  H        0.2013956382     1.2642362630    -1.2544968796
| 14>  H       -0.6074704467    -1.4201082406     1.4824837949
| 15>  H       -2.8310123195    -0.9511975487     1.7938455236
| 16>  H       -2.4156549218     0.7061164448     1.3101736153
| 17>  H       -2.7762895919    -1.1410572251    -1.0427775500
| 18>  H        1.4839254811    -1.4425898664     0.6512993035
| 19> *
| 20>
| 21>                          ****END OF INPUT****

CARTESIAN COORDINATES (ANGSTROEM)
---------------------------------
  N     -0.581048    0.899479   -0.708879
  C     -0.169381   -0.081095   -0.001275
  N     -1.013265   -0.798584    0.803427
  C     -2.373120   -0.346347    1.004318
  C     -3.229713   -0.502042   -0.254214
  O     -4.319604   -0.012409   -0.363976
  C      1.264599   -0.566280   -0.000538
  O      2.122024   -0.043509   -0.659961
  H      0.201396    1.264236   -1.254497
  H     -0.607470   -1.420108    1.482484
  H     -2.831012   -0.951198    1.793846
  H     -2.415655    0.706116    1.310174
  H     -2.776290   -1.141057   -1.042778
  H      1.483925   -1.442590    0.651299

 Total Charge           Charge          ....    0
 Multiplicity           Mult            ....    1
 Number of Electrons    NEL             ....   60
 Basis Dimension        Dim             ....  284

ORBITAL ENERGIES
----------------

  NO   OCC          E(Eh)            E(eV)
   0   2.0000     -20.601185      -560.5868
   1   2.0000     -20.558771      -559.4326
   2   2.0000     -15.611979      -424.8235
   3   2.0000     -15.555977      -423.2997
   4   2.0000     -11.371884      -309.4447
   5   2.0000     -11.343011      -308.6590
   6   2.0000     -11.336757      -308.4888
   7   2.0000     -11.292409      -307.2821
   8   2.0000      -1.439311       -39.1656
   9   2.0000      -1.400935       -38.1214
  10   2.0000      -1.308687       -35.6112
  11   2.0000      -1.187469       -32.3127
  12   2.0000      -1.023015       -27.8377
  13   2.0000      -0.920596       -25.0507
  14   2.0000      -0.830231       -22.5917
  15   2.0000      -0.798716       -21.7342
  16   2.0000      -0.751867       -20.4593
  17   2.0000      -0.709247       -19.2996
  18   2.0000      -0.671197       -18.2642
  19   2.0000      -0.662287       -18.0217
  20   2.0000      -0.652106       -17.7447
  21   2.0000      -0.620676       -16.8895
  22   2.0000      -0.606700       -16.5092
  23   2.0000      -0.587730       -15.9930
  24   2.0000      -0.529144       -14.3987
  25   2.0000      -0.502324       -13.6689
  26   2.0000      -0.499132       -13.5821
  27   2.0000      -0.441285       -12.0080
  28   2.0000      -0.433322       -11.7913
  29   2.0000      -0.382986       -10.4216
  30   0.0000       0.058570         1.5938
  31   0.0000       0.107553         2.9267
  32   0.0000       0.133430         3.6308
  33   0.0000       0.156347         4.2544
  34   0.0000       0.167751         4.5647

MULLIKEN ATOMIC CHARGES
-----------------------
   0 N :   -0.404078
   1 C :    0.190521
   2 N :   -0.368643
   3 C :   -0.045610
   4 C :    0.105910
   5 O :   -0.259692
   6 C :    0.090536
   7 O :   -0.245268
   8 H :    0.235701
   9 H :    0.241574
  10 H :    0.146318
  11 H :    0.143447
  12 H :    0.085671
  13 H :    0.083615
Sum of atomic charges:    0.0000000

LOEWDIN ATOMIC CHARGES
----------------------
   0 N :   -0.041929
   1 C :   -0.409131
   2 N :    0.094351
   3 C :   -0.279175
   4 C :   -0.291814
   5 O :    0.141668
   6 C :   -0.259769
   7 O :    0.162533
   8 H :    0.173658
   9 H :    0.185028
  10 H :    0.148529
  11 H :    0.149164
  12 H :    0.112778
  13 H :    0.114108

  Mayer bond orders larger than 0.1
B(  0-N ,  1-C ) :   1.8677 B(  0-N ,  8-H ) :   0.8510 B(  1-C ,  2-N ) :   1.0988
B(  1-C ,  6-C ) :   0.8259 B(  2-N ,  3-C ) :   0.8742 B(  2-N ,  9-H ) :   0.8754
B(  3-C ,  4-C ) :   0.8478 B(  3-C , 10-H ) :   0.9085 B(  3-C , 11-H ) :   0.9087
B(  4-C ,  5-O ) :   2.0064 B(  4-C , 12-H ) :   0.9372 B(  6-C ,  7-O ) :   1.9720
B(  6-C , 13-H ) :   0.9413

MP2 TOTAL ENERGY:     -415.196921082 Eh
FINAL SINGLE POINT ENERGY      -415.196921082168

DIPOLE MOMENT
-------------
                                X             Y             Z
Electronic contribution:      1.36458       0.56262      -1.65665
Nuclear contribution   :     -0.66236      -1.78395       2.89844
                        -----------------------------------------
Total Dipole Moment    :      0.70221      -1.22134       1.24179
                        -----------------------------------------
Magnitude (a.u.)       :      1.87798
Magnitude (Debye)      :      4.77344

                             ****ORCA TERMINATED NORMALLY****
TOTAL RUN TIME: 0 days 0 hours 8 minutes 59 seconds 246 msec
