                         Program Version 3.0.3 - RELEASE   -
|  1> ! RI-MP2 RIJK def2-TZVP def2-TZVP/C def2-TZVP/JK TIGHTSCF
|  2> % maxcore 2000
|  3> % mp2 density relaxed end
|  4> *xyz 0 1
|  5>  N        0.6539076708     0.0360209367     0.8022499292
|  6>  C       -0.1724213418     0.3220472487    -0.2324970707
|  7>  O        0.0242036008     1.2004754502    -1.0517404489
|  8>  C       -1.4329928349    -0.5446884856    -0.3075446607
|  9>  C       -1.6460619643    -1.1051231947    -1.7179716911
| 10>  C       -2.7539850389    -2.1231654134    -1.6947011721
| 11>  C       -3.1869081880    -2.6610321188    -0.5570672220
| 12>  C       -2.5669383017    -2.3255783625     0.7707719726
| 13>  O       -1.3559830987    -1.5966708572     0.6471282978
| 14>  H        1.5157399575     0.5470374665     0.8917836022
| 15>  H        0.4480400339    -0.7422199272     1.4050096496
| 16>  H       -2.2812066699     0.1147574785    -0.0595483106
| 17>  H       -1.8745079457    -0.2783900275    -2.3969975764
| 18>  H       -0.7144129340    -1.5545237744    -2.0874440204
| 19>  H       -3.2015897108    -2.4064802532    -2.6433633856
| 20>  H       -4.0092206916    -3.3710414328    -0.5404879333
| 21>  H       -3.2856981325    -1.7679251105     1.3985702582
| 22>  H       -2.3122040502    -3.2404142129     1.3190277422
| 23> *
| 24>
| 25>                          ****END OF INPUT****

CARTESIAN COORDINATES (ANGSTROEM)
---------------------------------
  N      0.653908    0.036021    0.802250
  C     -0.172421    0.322047   -0.232497
  O      0.024204    1.200475   -1.051740
  C     -1.432993   -0.544688   -0.307545
  C     -1.646062   -1.105123   -1.717972
  C     -2.753985   -2.123165   -1.694701
  C     -3.186908   -2.661032   -0.557067
  C     -2.566938   -2.325578    0.770772
  O     -1.355983   -1.596671    0.647128
  H      1.515740    0.547037    0.891784
  H      0.448040   -0.742220    1.405010
  H     -2.281207    0.114757   -0.059548
  H     -1.874508   -0.278390   -2.396998
  H     -0.714413   -1.554524   -2.087444
  H     -3.201590   -2.406480   -2.643363
  H     -4.009221   -3.371041   -0.540488
  H     -3.285698   -1.767925    1.398570
  H     -2.312204   -3.240414    1.319028

 Total Charge           Charge          ....    0
 Multiplicity           Mult            ....    1
 Number of Electrons    NEL             ....   68
 Basis Dimension        Dim             ....  333

ORBITAL ENERGIES
----------------

  NO   OCC          E(Eh)            E(eV)
   0   2.0000     -20.574352      -559.8566
   1   2.0000     -20.512980      -558.1866
   2   2.0000     -15.577226      -423.8779
   3   2.0000     -11.347513      -308.7815
   4   2.0000     -11.298672      -307.4525
   5   2.0000     -11.294029      -307.3261
   6   2.0000     -11.239414      -305.8400
   7   2.0000     -11.236489      -305.7604
   8   2.0000     -11.235219      -305.7259
   9   2.0000      -1.402591       -38.1664
  10   2.0000      -1.373694       -37.3801
  11   2.0000      -1.208135       -32.8750
  12   2.0000      -1.094435       -29.7811
  13   2.0000      -1.049708       -28.5640
  14   2.0000      -0.909655       -24.7530
  15   2.0000      -0.896110       -24.3844
  16   2.0000      -0.793580       -21.5944
  17   2.0000      -0.743033       -20.2189
  18   2.0000      -0.738202       -20.0875
  19   2.0000      -0.685727       -18.6596
  20   2.0000      -0.676886       -18.4190
  21   2.0000      -0.646464       -17.5912
  22   2.0000      -0.623001       -16.9527
  23   2.0000      -0.600974       -16.3533
  24   2.0000      -0.583034       -15.8652
  25   2.0000      -0.577485       -15.7142
  26   2.0000      -0.562894       -15.3171
  27   2.0000      -0.533103       -14.5065
  28   2.0000      -0.517473       -14.0811
  29   2.0000      -0.486526       -13.2391
  30   2.0000      -0.437057       -11.8929
  31   2.0000      -0.416625       -11.3370
  32   2.0000      -0.408181       -11.1072
  33   2.0000      -0.362524        -9.8648
  34   0.0000       0.131139         3.5685
  35   0.0000       0.150706         4.1009
  36   0.0000       0.154875         4.2144
  37   0.0000       0.164807         4.4846
  38   0.0000       0.171687         4.6718

MULLIKEN ATOMIC CHARGES
-----------------------
   0 N :   -0.462927
   1 C :    0.239690
   2 O :   -0.361676
   3 C :    0.089618
   4 C :   -0.146728
   5 C :   -0.219032
   6 C :   -0.155566
   7 C :   -0.038715
   8 O :   -0.342507
   9 H :    0.255828
  10 H :    0.278690
  11 H :    0.098510
  12 H :    0.145461
  13 H :    0.120633
  14 H :    0.128213
  15 H :    0.129476
  16 H :    0.110303
  17 H :    0.130728
Sum of atomic charges:   -0.0000000

LOEWDIN ATOMIC CHARGES
----------------------
   0 N :   -0.000757
   1 C :   -0.466356
   2 O :    0.078897
   3 C :   -0.271303
   4 C :   -0.223912
   5 C :   -0.166151
   6 C :   -0.181865
   7 C :   -0.301849
   8 O :    0.166291
   9 H :    0.173154
  10 H :    0.176723
  11 H :    0.155266
  12 H :    0.155431
  13 H :    0.152159
  14 H :    0.143771
  15 H :    0.144810
  16 H :    0.128415
  17 H :    0.137276

  Mayer bond orders larger than 0.1
B(  0-N ,  1-C ) :   1.1912 B(  0-N ,  9-H ) :   0.8602 B(  0-N , 10-H ) :   0.8487
B(  1-C ,  2-O ) :   1.9776 B(  1-C ,  3-C ) :   0.8848 B(  3-C ,  4-C ) :   0.9428
B(  3-C ,  8-O ) :   0.8719 B(  3-C , 11-H ) :   0.9179 B(  4-C ,  5-C ) :   0.9181
B(  4-C , 12-H ) :   0.9214 B(  4-C , 13-H ) :   0.8969 B(  5-C ,  6-C ) :   1.8032
B(  5-C , 14-H ) :   0.9317 B(  6-C ,  7-C ) :   0.9377 B(  6-C , 15-H ) :   0.9182
B(  7-C ,  8-O ) :   0.9442 B(  7-C , 16-H ) :   0.9401 B(  7-C , 17-H ) :   0.9191

MP2 TOTAL ENERGY:     -438.402487818 Eh
FINAL SINGLE POINT ENERGY      -438.402487818039

DIPOLE MOMENT
-------------
                                X             Y             Z
Electronic contribution:      3.11226       2.94888       0.44970
Nuclear contribution   :     -3.47432      -3.91887       0.31229
                        -----------------------------------------
Total Dipole Moment    :     -0.36206      -0.96999       0.76199
                        -----------------------------------------
Magnitude (a.u.)       :      1.28553
Magnitude (Debye)      :      3.26757

                             ****ORCA TERMINATED NORMALLY****
TOTAL RUN TIME: 0 days 0 hours 17 minutes 21 seconds 83 msec
