                         Program Version 3.0.3 - RELEASE   -
|  1> ! RI-MP2 RIJK def2-TZVP def2-TZVP/C def2-TZVP/JK TIGHTSCF
|  2> % maxcore 2000
|  3> % mp2 density relaxed end
|  4> *xyz 0 1
|  5>  O       -0.0013400892     1.4073340680     0.0020092145
|  6>  C        0.0149394001    -0.0047476100    -0.0906769585
|  7>  C       -1.3754100648    -0.5717176640     0.0522023230
|  8>  C       -2.1473549815    -0.4614911193     1.3920063019
|  9>  N       -2.6571132102    -1.8723250637     1.2567087545
| 10>  C       -3.1211481138    -2.0278942080    -0.1548148363
| 11>  C       -3.4110834069    -0.7840819651    -0.9823793040
| 12>  O       -2.1755172604    -0.0602291070    -1.0174628266
| 13>  C       -1.6781743602    -2.0879542466     0.1281378263
| 14>  H       -0.6636426831     1.7092141621    -0.6308431111
| 15>  H        0.4435795869    -0.3465251780    -1.0465904053
| 16>  H        0.6549441645    -0.3719920469     0.7175441125
| 17>  H       -1.4914685410    -0.4135342695     2.2640256585
| 18>  H       -2.9141704859     0.3154146048     1.4668106566
| 19>  H       -3.7059419717    -2.9265603379    -0.3136275334
| 20>  H       -3.6996703382    -1.0437639064    -2.0068090999
| 21>  H       -4.2088921870    -0.1672355733    -0.5471852526
| 22>  H       -1.0181020575    -2.9431650694     0.0521022499
| 23> *
| 24>
| 25>                          ****END OF INPUT****

CARTESIAN COORDINATES (ANGSTROEM)
---------------------------------
  O     -0.001340    1.407334    0.002009
  C      0.014939   -0.004748   -0.090677
  C     -1.375410   -0.571718    0.052202
  C     -2.147355   -0.461491    1.392006
  N     -2.657113   -1.872325    1.256709
  C     -3.121148   -2.027894   -0.154815
  C     -3.411083   -0.784082   -0.982379
  O     -2.175517   -0.060229   -1.017463
  C     -1.678174   -2.087954    0.128138
  H     -0.663643    1.709214   -0.630843
  H      0.443580   -0.346525   -1.046590
  H      0.654944   -0.371992    0.717544
  H     -1.491469   -0.413534    2.264026
  H     -2.914170    0.315415    1.466811
  H     -3.705942   -2.926560   -0.313628
  H     -3.699670   -1.043764   -2.006809
  H     -4.208892   -0.167236   -0.547185
  H     -1.018102   -2.943165    0.052102

 Total Charge           Charge          ....    0
 Multiplicity           Mult            ....    1
 Number of Electrons    NEL             ....   68
 Basis Dimension        Dim             ....  333

ORBITAL ENERGIES
----------------

  NO   OCC          E(Eh)            E(eV)
   0   2.0000     -20.569586      -559.7269
   1   2.0000     -20.557279      -559.3920
   2   2.0000     -15.572774      -423.7567
   3   2.0000     -11.300048      -307.4900
   4   2.0000     -11.292075      -307.2730
   5   2.0000     -11.282830      -307.0214
   6   2.0000     -11.273510      -306.7678
   7   2.0000     -11.268967      -306.6442
   8   2.0000     -11.258841      -306.3686
   9   2.0000      -1.409104       -38.3437
  10   2.0000      -1.360719       -37.0270
  11   2.0000      -1.286194       -34.9991
  12   2.0000      -1.052476       -28.6393
  13   2.0000      -0.971658       -26.4402
  14   2.0000      -0.937678       -25.5155
  15   2.0000      -0.881492       -23.9866
  16   2.0000      -0.811577       -22.0841
  17   2.0000      -0.752279       -20.4706
  18   2.0000      -0.727245       -19.7893
  19   2.0000      -0.681935       -18.5564
  20   2.0000      -0.664951       -18.0942
  21   2.0000      -0.640983       -17.4420
  22   2.0000      -0.614657       -16.7257
  23   2.0000      -0.597190       -16.2504
  24   2.0000      -0.582775       -15.8581
  25   2.0000      -0.564950       -15.3731
  26   2.0000      -0.549741       -14.9592
  27   2.0000      -0.537553       -14.6276
  28   2.0000      -0.491394       -13.3715
  29   2.0000      -0.479339       -13.0435
  30   2.0000      -0.447526       -12.1778
  31   2.0000      -0.433279       -11.7901
  32   2.0000      -0.423275       -11.5179
  33   2.0000      -0.377848       -10.2818
  34   0.0000       0.142466         3.8767
  35   0.0000       0.157032         4.2731
  36   0.0000       0.162651         4.4260
  37   0.0000       0.172546         4.6952
  38   0.0000       0.181569         4.9408

MULLIKEN ATOMIC CHARGES
-----------------------
   0 O :   -0.472613
   1 C :    0.006364
   2 C :    0.133261
   3 C :   -0.141542
   4 N :   -0.221269
   5 C :   -0.102073
   6 C :   -0.035841
   7 O :   -0.338192
   8 C :   -0.135619
   9 H :    0.328332
  10 H :    0.105575
  11 H :    0.113904
  12 H :    0.126290
  13 H :    0.113037
  14 H :    0.138364
  15 H :    0.124513
  16 H :    0.105349
  17 H :    0.152159
Sum of atomic charges:    0.0000000

LOEWDIN ATOMIC CHARGES
----------------------
   0 O :   -0.037702
   1 C :   -0.308569
   2 C :   -0.333993
   3 C :   -0.201763
   4 N :    0.117647
   5 C :   -0.235286
   6 C :   -0.271899
   7 O :    0.177444
   8 C :   -0.155837
   9 H :    0.179715
  10 H :    0.126476
  11 H :    0.136555
  12 H :    0.138417
  13 H :    0.125535
  14 H :    0.148792
  15 H :    0.132450
  16 H :    0.126434
  17 H :    0.135584

  Mayer bond orders larger than 0.1
B(  0-O ,  1-C ) :   0.9101 B(  0-O ,  9-H ) :   0.8321 B(  1-C ,  2-C ) :   0.9440
B(  1-C , 10-H ) :   0.9203 B(  1-C , 11-H ) :   0.9279 B(  2-C ,  3-C ) :   0.9401
B(  2-C ,  7-O ) :   0.9343 B(  2-C ,  8-C ) :   0.8761 B(  3-C ,  4-N ) :   0.9378
B(  3-C , 12-H ) :   0.9133 B(  3-C , 13-H ) :   0.9170 B(  4-N ,  5-C ) :   0.9124
B(  4-N ,  8-C ) :   0.9015 B(  5-C ,  6-C ) :   0.9640 B(  5-C ,  8-C ) :   0.8956
B(  5-C , 14-H ) :   0.9304 B(  6-C ,  7-O ) :   0.9387 B(  6-C , 15-H ) :   0.9193
B(  6-C , 16-H ) :   0.9138 B(  8-C , 17-H ) :   0.8876

MP2 TOTAL ENERGY:     -438.317169890 Eh
FINAL SINGLE POINT ENERGY      -438.317169889562

DIPOLE MOMENT
-------------
                                X             Y             Z
Electronic contribution:     -0.02593      -0.12439      -0.15159
Nuclear contribution   :     -0.31727      -0.31230      -0.41329
                        -----------------------------------------
Total Dipole Moment    :     -0.34321      -0.43669      -0.56488
                        -----------------------------------------
Magnitude (a.u.)       :      0.79220
Magnitude (Debye)      :      2.01362

                             ****ORCA TERMINATED NORMALLY****
TOTAL RUN TIME: 0 days 0 hours 17 minutes 48 seconds 243 msec
