                         Program Version 3.0.3 - RELEASE   -
|  1> ! RI-MP2 RIJK def2-TZVP def2-TZVP/C def2-TZVP/JK TIGHTSCF
|  2> % maxcore 2000
|  3> % mp2 density relaxed end
|  4> *xyz 0 1
|  5>  C       -0.0266773265     1.5197469275    -0.0366510022
|  6>  C       -0.0154307630     0.0161037060     0.0567557587
|  7>  C       -1.2807690276    -0.7590472351    -0.3044688963
|  8>  O       -1.0721221895    -2.0843864148     0.1589812459
|  9>  C       -0.3043976386    -2.0027895385     1.3583678349
| 10>  C        0.6181625933    -0.8126227445     1.1516767634
| 11>  N        1.2376486063    -0.6846234548    -0.1846161808
| 12>  C        1.3632137086    -0.2372163622     2.2956967944
| 13>  O        1.1585028854    -0.5396938984     3.4469812400
| 14>  H        0.9385652916     1.9362177603     0.2571213098
| 15>  H       -0.2236374347     1.8332925140    -1.0680836750
| 16>  H       -0.8061955488     1.9499967685     0.6003314001
| 17>  H       -2.1514048947    -0.2884791814     0.1808790451
| 18>  H       -1.4693875593    -0.8068759271    -1.3827258548
| 19>  H       -0.9328554536    -1.8329142499     2.2437274931
| 20>  H        0.2198633109    -2.9551818644     1.4808143529
| 21>  H        1.0759354826    -1.5465986614    -0.7052860382
| 22>  H        2.1404401674     0.5025165862     2.0085156387
| 23> *
| 24>
| 25>                          ****END OF INPUT****

CARTESIAN COORDINATES (ANGSTROEM)
---------------------------------
  C     -0.026677    1.519747   -0.036651
  C     -0.015431    0.016104    0.056756
  C     -1.280769   -0.759047   -0.304469
  O     -1.072122   -2.084386    0.158981
  C     -0.304398   -2.002790    1.358368
  C      0.618163   -0.812623    1.151677
  N      1.237649   -0.684623   -0.184616
  C      1.363214   -0.237216    2.295697
  O      1.158503   -0.539694    3.446981
  H      0.938565    1.936218    0.257121
  H     -0.223637    1.833293   -1.068084
  H     -0.806196    1.949997    0.600331
  H     -2.151405   -0.288479    0.180879
  H     -1.469388   -0.806876   -1.382726
  H     -0.932855   -1.832914    2.243727
  H      0.219863   -2.955182    1.480814
  H      1.075935   -1.546599   -0.705286
  H      2.140440    0.502517    2.008516

 Total Charge           Charge          ....    0
 Multiplicity           Mult            ....    1
 Number of Electrons    NEL             ....   68
 Basis Dimension        Dim             ....  333

ORBITAL ENERGIES
----------------

  NO   OCC          E(Eh)            E(eV)
   0   2.0000     -20.574855      -559.8703
   1   2.0000     -20.562729      -559.5403
   2   2.0000     -15.581240      -423.9871
   3   2.0000     -11.339386      -308.5604
   4   2.0000     -11.296861      -307.4032
   5   2.0000     -11.294487      -307.3386
   6   2.0000     -11.292552      -307.2860
   7   2.0000     -11.282158      -307.0031
   8   2.0000     -11.241333      -305.8922
   9   2.0000      -1.409210       -38.3466
  10   2.0000      -1.399310       -38.0772
  11   2.0000      -1.285257       -34.9736
  12   2.0000      -1.042429       -28.3659
  13   2.0000      -1.004574       -27.3359
  14   2.0000      -0.949075       -25.8256
  15   2.0000      -0.903832       -24.5945
  16   2.0000      -0.815412       -22.1885
  17   2.0000      -0.754460       -20.5299
  18   2.0000      -0.713485       -19.4149
  19   2.0000      -0.686201       -18.6725
  20   2.0000      -0.675107       -18.3706
  21   2.0000      -0.650307       -17.6958
  22   2.0000      -0.631872       -17.1941
  23   2.0000      -0.596115       -16.2211
  24   2.0000      -0.580197       -15.7880
  25   2.0000      -0.573721       -15.6117
  26   2.0000      -0.552556       -15.0358
  27   2.0000      -0.541638       -14.7387
  28   2.0000      -0.527550       -14.3554
  29   2.0000      -0.487097       -13.2546
  30   2.0000      -0.461262       -12.5516
  31   2.0000      -0.446244       -12.1429
  32   2.0000      -0.434109       -11.8127
  33   2.0000      -0.398919       -10.8551
  34   0.0000       0.114260         3.1092
  35   0.0000       0.126788         3.4501
  36   0.0000       0.162335         4.4174
  37   0.0000       0.173092         4.7101
  38   0.0000       0.178114         4.8467

MULLIKEN ATOMIC CHARGES
-----------------------
   0 C :   -0.406538
   1 C :    0.049752
   2 C :   -0.009066
   3 O :   -0.328383
   4 C :   -0.018071
   5 C :    0.076103
   6 N :   -0.366007
   7 C :    0.034946
   8 O :   -0.272807
   9 H :    0.146836
  10 H :    0.140511
  11 H :    0.140743
  12 H :    0.099921
  13 H :    0.127305
  14 H :    0.120651
  15 H :    0.128836
  16 H :    0.235472
  17 H :    0.099794
Sum of atomic charges:   -0.0000000

LOEWDIN ATOMIC CHARGES
----------------------
   0 C :   -0.261989
   1 C :   -0.289244
   2 C :   -0.268178
   3 O :    0.153075
   4 C :   -0.254890
   5 C :   -0.268420
   6 N :    0.074691
   7 C :   -0.259438
   8 O :    0.135096
   9 H :    0.134565
  10 H :    0.133888
  11 H :    0.132658
  12 H :    0.130820
  13 H :    0.133903
  14 H :    0.136344
  15 H :    0.135645
  16 H :    0.179311
  17 H :    0.122164

  Mayer bond orders larger than 0.1
B(  0-C ,  1-C ) :   0.8938 B(  0-C ,  9-H ) :   0.9348 B(  0-C , 10-H ) :   0.9307
B(  0-C , 11-H ) :   0.9369 B(  1-C ,  2-C ) :   0.9609 B(  1-C ,  5-C ) :   0.8093
B(  1-C ,  6-N ) :   0.9061 B(  2-C ,  3-O ) :   0.9232 B(  2-C , 12-H ) :   0.9123
B(  2-C , 13-H ) :   0.9180 B(  3-O ,  4-C ) :   0.9106 B(  4-C ,  5-C ) :   0.9553
B(  4-C , 14-H ) :   0.9131 B(  4-C , 15-H ) :   0.9168 B(  5-C ,  6-N ) :   0.8998
B(  5-C ,  7-C ) :   0.8505 B(  6-N , 16-H ) :   0.8584 B(  7-C ,  8-O ) :   1.9924
B(  7-C , 17-H ) :   0.9653

MP2 TOTAL ENERGY:     -438.359734822 Eh
FINAL SINGLE POINT ENERGY      -438.359734821891

DIPOLE MOMENT
-------------
                                X             Y             Z
Electronic contribution:      2.15826      -3.72065       3.29620
Nuclear contribution   :     -2.57645       4.16729      -4.09519
                        -----------------------------------------
Total Dipole Moment    :     -0.41819       0.44664      -0.79899
                        -----------------------------------------
Magnitude (a.u.)       :      1.00636
Magnitude (Debye)      :      2.55796

                             ****ORCA TERMINATED NORMALLY****
TOTAL RUN TIME: 0 days 0 hours 17 minutes 32 seconds 864 msec
