                         Program Version 3.0.3 - RELEASE   -
|  1> ! RI-MP2 RIJK def2-TZVP def2-TZVP/C def2-TZVP/JK TIGHTSCF
|  2> % maxcore 2000
|  3> % mp2 density relaxed end
|  4> *xyz 0 1
|  5>  C        0.2619354737     1.5098689437    -0.1374552777
|  6>  C       -0.0705844574     0.0302826935     0.0123889929
|  7>  C       -1.4605507432    -0.3059758960     0.6464375891
|  8>  C       -0.7653620588    -1.2339160553     1.6830952452
|  9>  C        0.6292828438    -0.7633214457     1.1708017398
| 10>  C        1.6029546599    -1.7552523904     0.5033232270
| 11>  N        1.3626374166    -1.7615721366    -0.9572955162
| 12>  C        0.0153832607    -2.2062654916    -1.3341616441
| 13>  C        0.3127623035    -0.7540337867    -1.2401326591
| 14>  H        1.3099238411     1.6539249904    -0.4244723043
| 15>  H       -0.3612990133     1.9794039965    -0.9078980100
| 16>  H        0.0923767412     2.0488156997     0.8004230399
| 17>  H       -1.9327318192     0.5667585588     1.1058048818
| 18>  H       -2.1873151267    -0.7741877096    -0.0212809224
| 19>  H       -0.9739169396    -0.9976428672     2.7293324417
| 20>  H       -0.9572006998    -2.3011997029     1.5416632030
| 21>  H        1.1451706927    -0.1298003931     1.8969814827
| 22>  H        2.6384229641    -1.4327913000     0.6566833089
| 23>  H        1.5168937926    -2.7722583256     0.9030293224
| 24>  H       -0.0500508541    -2.6817476882    -2.3095720264
| 25>  H       -0.6170864025    -2.6621195412    -0.5777916618
| 26>  H        0.4405089445    -0.1856455425    -2.1587959925
| 27> *
| 28>
| 29>                          ****END OF INPUT****

CARTESIAN COORDINATES (ANGSTROEM)
---------------------------------
  C      0.261935    1.509869   -0.137455
  C     -0.070584    0.030283    0.012389
  C     -1.460551   -0.305976    0.646438
  C     -0.765362   -1.233916    1.683095
  C      0.629283   -0.763321    1.170802
  C      1.602955   -1.755252    0.503323
  N      1.362637   -1.761572   -0.957296
  C      0.015383   -2.206265   -1.334162
  C      0.312762   -0.754034   -1.240133
  H      1.309924    1.653925   -0.424472
  H     -0.361299    1.979404   -0.907898
  H      0.092377    2.048816    0.800423
  H     -1.932732    0.566759    1.105805
  H     -2.187315   -0.774188   -0.021281
  H     -0.973917   -0.997643    2.729332
  H     -0.957201   -2.301200    1.541663
  H      1.145171   -0.129800    1.896981
  H      2.638423   -1.432791    0.656683
  H      1.516894   -2.772258    0.903029
  H     -0.050051   -2.681748   -2.309572
  H     -0.617086   -2.662120   -0.577792
  H      0.440509   -0.185646   -2.158796

 Total Charge           Charge          ....    0
 Multiplicity           Mult            ....    1
 Number of Electrons    NEL             ....   68
 Basis Dimension        Dim             ....  357

ORBITAL ENERGIES
----------------

  NO   OCC          E(Eh)            E(eV)
   0   2.0000     -15.549768      -423.1307
   1   2.0000     -11.249350      -306.1104
   2   2.0000     -11.245908      -306.0167
   3   2.0000     -11.243493      -305.9510
   4   2.0000     -11.234557      -305.7079
   5   2.0000     -11.223114      -305.3965
   6   2.0000     -11.221516      -305.3530
   7   2.0000     -11.219724      -305.3042
   8   2.0000     -11.215928      -305.2009
   9   2.0000      -1.272771       -34.6339
  10   2.0000      -1.126419       -30.6514
  11   2.0000      -1.013038       -27.5662
  12   2.0000      -0.980269       -26.6745
  13   2.0000      -0.887312       -24.1450
  14   2.0000      -0.868129       -23.6230
  15   2.0000      -0.825305       -22.4577
  16   2.0000      -0.779421       -21.2091
  17   2.0000      -0.728565       -19.8253
  18   2.0000      -0.668377       -18.1875
  19   2.0000      -0.629172       -17.1206
  20   2.0000      -0.609212       -16.5775
  21   2.0000      -0.588968       -16.0266
  22   2.0000      -0.580144       -15.7865
  23   2.0000      -0.567778       -15.4500
  24   2.0000      -0.558088       -15.1863
  25   2.0000      -0.554705       -15.0943
  26   2.0000      -0.517692       -14.0871
  27   2.0000      -0.472431       -12.8555
  28   2.0000      -0.454601       -12.3703
  29   2.0000      -0.453295       -12.3348
  30   2.0000      -0.442505       -12.0412
  31   2.0000      -0.416806       -11.3419
  32   2.0000      -0.410401       -11.1676
  33   2.0000      -0.361887        -9.8474
  34   0.0000       0.135623         3.6905
  35   0.0000       0.154704         4.2097
  36   0.0000       0.161897         4.4054
  37   0.0000       0.170864         4.6494
  38   0.0000       0.183375         4.9899

MULLIKEN ATOMIC CHARGES
-----------------------
   0 C :   -0.447998
   1 C :    0.285197
   2 C :   -0.291918
   3 C :   -0.252013
   4 C :   -0.126668
   5 C :   -0.165501
   6 N :   -0.214936
   7 C :   -0.183744
   8 C :   -0.173400
   9 H :    0.140412
  10 H :    0.135878
  11 H :    0.131203
  12 H :    0.112979
  13 H :    0.117391
  14 H :    0.112175
  15 H :    0.117603
  16 H :    0.102519
  17 H :    0.122046
  18 H :    0.118546
  19 H :    0.124559
  20 H :    0.120446
  21 H :    0.115225
Sum of atomic charges:    0.0000000

LOEWDIN ATOMIC CHARGES
----------------------
   0 C :   -0.272956
   1 C :   -0.235436
   2 C :   -0.196637
   3 C :   -0.223681
   4 C :   -0.175141
   5 C :   -0.257136
   6 N :    0.106222
   7 C :   -0.244038
   8 C :   -0.203823
   9 H :    0.129557
  10 H :    0.127493
  11 H :    0.125161
  12 H :    0.132429
  13 H :    0.128541
  14 H :    0.126565
  15 H :    0.126153
  16 H :    0.146116
  17 H :    0.133531
  18 H :    0.132217
  19 H :    0.124832
  20 H :    0.126765
  21 H :    0.143267

  Mayer bond orders larger than 0.1
B(  0-C ,  1-C ) :   0.8548 B(  0-C ,  9-H ) :   0.9384 B(  0-C , 10-H ) :   0.9404
B(  0-C , 11-H ) :   0.9399 B(  1-C ,  2-C ) :   0.8770 B(  1-C ,  4-C ) :   0.8799
B(  1-C ,  8-C ) :   0.9383 B(  2-C ,  3-C ) :   0.9757 B(  2-C , 12-H ) :   0.9104
B(  2-C , 13-H ) :   0.9191 B(  3-C ,  4-C ) :   0.9457 B(  3-C , 14-H ) :   0.9182
B(  3-C , 15-H ) :   0.9247 B(  4-C ,  5-C ) :   0.9331 B(  4-C , 16-H ) :   0.9035
B(  5-C ,  6-N ) :   0.9225 B(  5-C , 17-H ) :   0.9326 B(  5-C , 18-H ) :   0.9305
B(  6-N ,  7-C ) :   0.9033 B(  6-N ,  8-C ) :   0.8883 B(  7-C ,  8-C ) :   0.9337
B(  7-C , 19-H ) :   0.9223 B(  7-C , 20-H ) :   0.9147 B(  8-C , 21-H ) :   0.9162

MP2 TOTAL ENERGY:     -366.524671090 Eh
FINAL SINGLE POINT ENERGY      -366.524671090327

DIPOLE MOMENT
-------------
                                X             Y             Z
Electronic contribution:      1.99873      -2.27609      -2.07886
Nuclear contribution   :     -2.45496       2.50577       2.48247
                        -----------------------------------------
Total Dipole Moment    :     -0.45623       0.22969       0.40362
                        -----------------------------------------
Magnitude (a.u.)       :      0.65101
Magnitude (Debye)      :      1.65472

                             ****ORCA TERMINATED NORMALLY****
TOTAL RUN TIME: 0 days 0 hours 22 minutes 33 seconds 679 msec
