                         Program Version 3.0.3 - RELEASE   -
|  1> ! RI-MP2 RIJK def2-TZVP def2-TZVP/C def2-TZVP/JK TIGHTSCF
|  2> % maxcore 2000
|  3> % mp2 density relaxed end
|  4> *xyz 0 1
|  5>  C       -0.2131547421    -1.1901678280     0.2037307254
|  6>  C       -0.0943546444     0.0052471448     0.1492166895
|  7>  C        0.0302021414     1.4344301323     0.0521049110
|  8>  O        0.7133466060     2.1216439113     1.1161869671
|  9>  C        1.3352962559     2.0991356287    -0.1699820974
| 10>  C        2.6642817081     1.3501476940    -0.2913698668
| 11>  C        3.4736974983     2.1571244194    -1.3255137334
| 12>  C        2.9660626465     3.6009269020    -1.1450287277
| 13>  C        1.4512893097     3.4193391723    -0.9372100330
| 14>  H       -0.3179792603    -2.2454662724     0.2621546640
| 15>  H       -0.8649829037     1.9487782226    -0.2998557250
| 16>  H        3.1528280393     1.3740817272     0.6888252582
| 17>  H        2.5279080013     0.3000144693    -0.5602704779
| 18>  H        4.5534133621     2.0596613355    -1.1862137309
| 19>  H        3.2437657785     1.8092863659    -2.3399254559
| 20>  H        3.4160016939     4.0432101179    -0.2481837761
| 21>  H        3.2072288086     4.2527993585    -1.9887247446
| 22>  H        0.9487202135     3.3281324503    -1.9078111230
| 23>  H        0.9710860875     4.2330796081    -0.3884791337
| 24> *
| 25>
| 26>                          ****END OF INPUT****

CARTESIAN COORDINATES (ANGSTROEM)
---------------------------------
  C     -0.213155   -1.190168    0.203731
  C     -0.094355    0.005247    0.149217
  C      0.030202    1.434430    0.052105
  O      0.713347    2.121644    1.116187
  C      1.335296    2.099136   -0.169982
  C      2.664282    1.350148   -0.291370
  C      3.473697    2.157124   -1.325514
  C      2.966063    3.600927   -1.145029
  C      1.451289    3.419339   -0.937210
  H     -0.317979   -2.245466    0.262155
  H     -0.864983    1.948778   -0.299856
  H      3.152828    1.374082    0.688825
  H      2.527908    0.300014   -0.560270
  H      4.553413    2.059661   -1.186214
  H      3.243766    1.809286   -2.339925
  H      3.416002    4.043210   -0.248184
  H      3.207229    4.252799   -1.988725
  H      0.948720    3.328132   -1.907811
  H      0.971086    4.233080   -0.388479

 Total Charge           Charge          ....    0
 Multiplicity           Mult            ....    1
 Number of Electrons    NEL             ....   66
 Basis Dimension        Dim             ....  339

ORBITAL ENERGIES
----------------

  NO   OCC          E(Eh)            E(eV)
   0   2.0000     -20.571214      -559.7712
   1   2.0000     -11.307675      -307.6975
   2   2.0000     -11.297744      -307.4273
   3   2.0000     -11.241077      -305.8852
   4   2.0000     -11.234213      -305.6985
   5   2.0000     -11.229896      -305.5810
   6   2.0000     -11.226947      -305.5008
   7   2.0000     -11.226305      -305.4833
   8   2.0000     -11.225046      -305.4490
   9   2.0000      -1.416585       -38.5472
  10   2.0000      -1.120608       -30.4933
  11   2.0000      -1.051264       -28.6063
  12   2.0000      -0.977616       -26.6023
  13   2.0000      -0.954879       -25.9836
  14   2.0000      -0.919972       -25.0337
  15   2.0000      -0.802322       -21.8323
  16   2.0000      -0.775891       -21.1131
  17   2.0000      -0.726606       -19.7720
  18   2.0000      -0.686017       -18.6675
  19   2.0000      -0.681178       -18.5358
  20   2.0000      -0.649279       -17.6678
  21   2.0000      -0.605736       -16.4829
  22   2.0000      -0.585620       -15.9355
  23   2.0000      -0.555371       -15.1124
  24   2.0000      -0.523059       -14.2331
  25   2.0000      -0.512110       -13.9352
  26   2.0000      -0.492028       -13.3888
  27   2.0000      -0.482112       -13.1189
  28   2.0000      -0.473190       -12.8761
  29   2.0000      -0.456421       -12.4199
  30   2.0000      -0.437409       -11.9025
  31   2.0000      -0.401634       -10.9290
  32   2.0000      -0.376347       -10.2409
  33   0.0000       0.133054         3.6206
  34   0.0000       0.148277         4.0348
  35   0.0000       0.154994         4.2176
  36   0.0000       0.164212         4.4684
  37   0.0000       0.174005         4.7349

MULLIKEN ATOMIC CHARGES
-----------------------
   0 C :   -0.103955
   1 C :    0.035626
   2 C :   -0.212814
   3 O :   -0.313776
   4 C :    0.201808
   5 C :   -0.251472
   6 C :   -0.218576
   7 C :   -0.220967
   8 C :   -0.253307
   9 H :    0.194565
  10 H :    0.133307
  11 H :    0.130440
  12 H :    0.143260
  13 H :    0.126273
  14 H :    0.110858
  15 H :    0.115236
  16 H :    0.125853
  17 H :    0.121006
  18 H :    0.136631
Sum of atomic charges:    0.0000000

LOEWDIN ATOMIC CHARGES
----------------------
   0 C :   -0.077944
   1 C :   -0.087904
   2 C :   -0.238305
   3 O :    0.194743
   4 C :   -0.271377
   5 C :   -0.207447
   6 C :   -0.252878
   7 C :   -0.253592
   8 C :   -0.214417
   9 H :    0.128707
  10 H :    0.154828
  11 H :    0.150171
  12 H :    0.144551
  13 H :    0.133421
  14 H :    0.137027
  15 H :    0.139315
  16 H :    0.132247
  17 H :    0.144980
  18 H :    0.143872

  Mayer bond orders larger than 0.1
B(  0-C ,  1-C ) :   2.5879 B(  0-C ,  2-C ) :  -0.1245 B(  0-C ,  9-H ) :   0.8939
B(  1-C ,  2-C ) :   1.1001 B(  2-C ,  3-O ) :   0.9304 B(  2-C ,  4-C ) :   0.9330
B(  2-C , 10-H ) :   0.9505 B(  3-O ,  4-C ) :   0.9362 B(  4-C ,  5-C ) :   0.9113
B(  4-C ,  8-C ) :   0.8894 B(  5-C ,  6-C ) :   0.9298 B(  5-C , 11-H ) :   0.9321
B(  5-C , 12-H ) :   0.9217 B(  6-C ,  7-C ) :   0.9226 B(  6-C , 13-H ) :   0.9332
B(  6-C , 14-H ) :   0.9284 B(  7-C ,  8-C ) :   0.9392 B(  7-C , 15-H ) :   0.9301
B(  7-C , 16-H ) :   0.9327 B(  8-C , 17-H ) :   0.9273 B(  8-C , 18-H ) :   0.9249

MP2 TOTAL ENERGY:     -385.168352886 Eh
FINAL SINGLE POINT ENERGY      -385.168352886406

DIPOLE MOMENT
-------------
                                X             Y             Z
Electronic contribution:     -6.10406      -3.73013       4.26604
Nuclear contribution   :      6.33807       3.68778      -5.01487
                        -----------------------------------------
Total Dipole Moment    :      0.23401      -0.04234      -0.74883
                        -----------------------------------------
Magnitude (a.u.)       :      0.78569
Magnitude (Debye)      :      1.99706

                             ****ORCA TERMINATED NORMALLY****
TOTAL RUN TIME: 0 days 0 hours 18 minutes 41 seconds 505 msec
