                         Program Version 3.0.3 - RELEASE   -
|  1> ! RI-MP2 RIJK def2-TZVP def2-TZVP/C def2-TZVP/JK TIGHTSCF
|  2> % maxcore 2000
|  3> % mp2 density relaxed end
|  4> *xyz 0 1
|  5>  O       -0.3892037416     1.3530882091     0.1135911146
|  6>  C       -0.1604013688    -0.0149164638     0.0683462631
|  7>  C       -0.1941408103    -0.7804229281    -1.2284144345
|  8>  C       -1.2932970040    -0.9673949540    -0.2024547306
|  9>  C       -1.0930178682    -2.1273326268     0.7626825671
| 10>  O        0.2581294426    -2.0289675786     1.2048777417
| 11>  C        0.6400519167    -0.6505733896     1.1968525635
| 12>  C       -2.0427676423    -2.0497486968     1.8948695425
| 13>  N       -2.7855117394    -1.9928531513     2.7779466567
| 14>  H        0.3719672095     1.8012950582    -0.2707262355
| 15>  H       -0.4730858964    -0.2179385233    -2.1122710269
| 16>  H        0.5209896529    -1.5815114775    -1.3884398525
| 17>  H       -2.2923853547    -0.6065823368    -0.4077114035
| 18>  H       -1.2001344189    -3.1124588768     0.2960329003
| 19>  H        1.7257871617    -0.6276815404     1.0612796201
| 20>  H        0.3835176111    -0.1500746835     2.1412122741
| 21> *
| 22>
| 23>                          ****END OF INPUT****

CARTESIAN COORDINATES (ANGSTROEM)
---------------------------------
  O     -0.389204    1.353088    0.113591
  C     -0.160401   -0.014916    0.068346
  C     -0.194141   -0.780423   -1.228414
  C     -1.293297   -0.967395   -0.202455
  C     -1.093018   -2.127333    0.762683
  O      0.258129   -2.028968    1.204878
  C      0.640052   -0.650573    1.196853
  C     -2.042768   -2.049749    1.894870
  N     -2.785512   -1.992853    2.777947
  H      0.371967    1.801295   -0.270726
  H     -0.473086   -0.217939   -2.112271
  H      0.520990   -1.581511   -1.388440
  H     -2.292385   -0.606582   -0.407711
  H     -1.200134   -3.112459    0.296033
  H      1.725787   -0.627682    1.061280
  H      0.383518   -0.150075    2.141212

 Total Charge           Charge          ....    0
 Multiplicity           Mult            ....    1
 Number of Electrons    NEL             ....   66
 Basis Dimension        Dim             ....  321

ORBITAL ENERGIES
----------------

  NO   OCC          E(Eh)            E(eV)
   0   2.0000     -20.590863      -560.3059
   1   2.0000     -20.590087      -560.2848
   2   2.0000     -15.576625      -423.8615
   3   2.0000     -11.345496      -308.7266
   4   2.0000     -11.314193      -307.8748
   5   2.0000     -11.298890      -307.4584
   6   2.0000     -11.273826      -306.7764
   7   2.0000     -11.263265      -306.4890
   8   2.0000     -11.254284      -306.2446
   9   2.0000      -1.422272       -38.7020
  10   2.0000      -1.397377       -38.0246
  11   2.0000      -1.221207       -33.2307
  12   2.0000      -1.166715       -31.7479
  13   2.0000      -1.043339       -28.3907
  14   2.0000      -0.944342       -25.6968
  15   2.0000      -0.838175       -22.8079
  16   2.0000      -0.813630       -22.1400
  17   2.0000      -0.763690       -20.7811
  18   2.0000      -0.721830       -19.6420
  19   2.0000      -0.690470       -18.7887
  20   2.0000      -0.665934       -18.1210
  21   2.0000      -0.640451       -17.4276
  22   2.0000      -0.607829       -16.5399
  23   2.0000      -0.590121       -16.0580
  24   2.0000      -0.579347       -15.7648
  25   2.0000      -0.563749       -15.3404
  26   2.0000      -0.540355       -14.7038
  27   2.0000      -0.519496       -14.1362
  28   2.0000      -0.475099       -12.9281
  29   2.0000      -0.469329       -12.7711
  30   2.0000      -0.466579       -12.6963
  31   2.0000      -0.431823       -11.7505
  32   2.0000      -0.419955       -11.4275
  33   0.0000       0.122184         3.3248
  34   0.0000       0.136379         3.7111
  35   0.0000       0.158145         4.3033
  36   0.0000       0.160756         4.3744
  37   0.0000       0.170618         4.6427

MULLIKEN ATOMIC CHARGES
-----------------------
   0 O :   -0.445777
   1 C :    0.118503
   2 C :   -0.309888
   3 C :   -0.143786
   4 C :    0.235607
   5 O :   -0.311526
   6 C :   -0.054073
   7 C :   -0.224854
   8 N :   -0.047314
   9 H :    0.333118
  10 H :    0.152888
  11 H :    0.147443
  12 H :    0.160382
  13 H :    0.143511
  14 H :    0.124605
  15 H :    0.121161
Sum of atomic charges:   -0.0000000

LOEWDIN ATOMIC CHARGES
----------------------
   0 O :    0.039941
   1 C :   -0.357110
   2 C :   -0.180352
   3 C :   -0.152530
   4 C :   -0.279305
   5 O :    0.191759
   6 C :   -0.251899
   7 C :   -0.155388
   8 N :    0.073217
   9 H :    0.188496
  10 H :    0.144342
  11 H :    0.143003
  12 H :    0.160624
  13 H :    0.167743
  14 H :    0.132170
  15 H :    0.135291

  Mayer bond orders larger than 0.1
B(  0-O ,  1-C ) :   1.0531 B(  0-O ,  9-H ) :   0.8335 B(  1-C ,  2-C ) :   0.9073
B(  1-C ,  3-C ) :   0.8629 B(  1-C ,  6-C ) :   0.9688 B(  2-C ,  3-C ) :   0.8716
B(  2-C , 10-H ) :   0.9265 B(  2-C , 11-H ) :   0.8962 B(  3-C ,  4-C ) :   0.9233
B(  3-C , 12-H ) :   0.9051 B(  4-C ,  5-O ) :   0.9215 B(  4-C ,  7-C ) :   0.9224
B(  4-C , 13-H ) :   0.8984 B(  5-O ,  6-C ) :   0.9100 B(  6-C , 14-H ) :   0.9173
B(  6-C , 15-H ) :   0.9141 B(  7-C ,  8-N ) :   2.8616

MP2 TOTAL ENERGY:     -437.160871434 Eh
FINAL SINGLE POINT ENERGY      -437.160871433702

DIPOLE MOMENT
-------------
                                X             Y             Z
Electronic contribution:     -2.76921      -1.76844       3.72909
Nuclear contribution   :      3.92557       2.22121      -5.31296
                        -----------------------------------------
Total Dipole Moment    :      1.15635       0.45278      -1.58386
                        -----------------------------------------
Magnitude (a.u.)       :      2.01266
Magnitude (Debye)      :      5.11577

                             ****ORCA TERMINATED NORMALLY****
TOTAL RUN TIME: 0 days 0 hours 16 minutes 7 seconds 143 msec
