                         Program Version 3.0.3 - RELEASE   -
|  1> ! RI-MP2 RIJK def2-TZVP def2-TZVP/C def2-TZVP/JK TIGHTSCF
|  2> % maxcore 2000
|  3> % mp2 density relaxed end
|  4> *xyz 0 1
|  5>  C        0.0176945810     1.4787802584    -0.0087060228
|  6>  C        0.0046943839    -0.0261067866     0.0777985909
|  7>  N       -0.0413846020    -0.6642119230     1.1841253531
|  8>  O       -0.0584598618     0.2090993098     2.2872870913
|  9>  C        0.0505195229    -0.8228707977    -1.2009041163
| 10>  C        1.3640965565    -0.6064966303    -2.0233898959
| 11>  C        1.5412135451    -1.9333662978    -2.7220755998
| 12>  C        0.7527549237    -2.8769612002    -2.2114633254
| 13>  C       -0.0936327878    -2.3609943338    -1.0736239431
| 14>  H        0.9515584921     1.8797162100     0.4001741798
| 15>  H       -0.0859440466     1.8194405511    -1.0406963680
| 16>  H       -0.7911117122     1.8999071573     0.5953510242
| 17>  H       -0.1195976739    -0.4046697087     3.0264698449
| 18>  H       -0.7721124799    -0.4604100423    -1.8328759995
| 19>  H        1.2895638244     0.2407009353    -2.7141563914
| 20>  H        2.2189772438    -0.3970092300    -1.3644721964
| 21>  H        2.2665399496    -2.0793692694    -3.5150249593
| 22>  H        0.7344862330    -3.9145616661    -2.5267768287
| 23>  H        0.2823416519    -2.7138361062    -0.1063606503
| 24>  H       -1.1406380037    -2.6779632698    -1.1305960972
| 25> *
| 26>
| 27>                          ****END OF INPUT****

CARTESIAN COORDINATES (ANGSTROEM)
---------------------------------
  C      0.017695    1.478780   -0.008706
  C      0.004694   -0.026107    0.077799
  N     -0.041385   -0.664212    1.184125
  O     -0.058460    0.209099    2.287287
  C      0.050520   -0.822871   -1.200904
  C      1.364097   -0.606497   -2.023390
  C      1.541214   -1.933366   -2.722076
  C      0.752755   -2.876961   -2.211463
  C     -0.093633   -2.360994   -1.073624
  H      0.951558    1.879716    0.400174
  H     -0.085944    1.819441   -1.040696
  H     -0.791112    1.899907    0.595351
  H     -0.119598   -0.404670    3.026470
  H     -0.772112   -0.460410   -1.832876
  H      1.289564    0.240701   -2.714156
  H      2.218977   -0.397009   -1.364472
  H      2.266540   -2.079369   -3.515025
  H      0.734486   -3.914562   -2.526777
  H      0.282342   -2.713836   -0.106361
  H     -1.140638   -2.677963   -1.130596

 Total Charge           Charge          ....    0
 Multiplicity           Mult            ....    1
 Number of Electrons    NEL             ....   68
 Basis Dimension        Dim             ....  345

ORBITAL ENERGIES
----------------

  NO   OCC          E(Eh)            E(eV)
   0   2.0000     -20.584263      -560.1263
   1   2.0000     -15.604237      -424.6129
   2   2.0000     -11.274791      -306.8027
   3   2.0000     -11.239969      -305.8551
   4   2.0000     -11.230954      -305.6098
   5   2.0000     -11.227278      -305.5098
   6   2.0000     -11.223627      -305.4104
   7   2.0000     -11.221872      -305.3627
   8   2.0000     -11.219411      -305.2957
   9   2.0000      -1.410844       -38.3910
  10   2.0000      -1.173299       -31.9271
  11   2.0000      -1.120849       -30.4999
  12   2.0000      -0.992848       -27.0168
  13   2.0000      -0.964107       -26.2347
  14   2.0000      -0.954846       -25.9827
  15   2.0000      -0.819981       -22.3128
  16   2.0000      -0.729824       -19.8595
  17   2.0000      -0.726235       -19.7619
  18   2.0000      -0.690861       -18.7993
  19   2.0000      -0.675359       -18.3775
  20   2.0000      -0.634409       -17.2632
  21   2.0000      -0.614684       -16.7264
  22   2.0000      -0.599018       -16.3001
  23   2.0000      -0.563990       -15.3470
  24   2.0000      -0.550960       -14.9924
  25   2.0000      -0.546607       -14.8739
  26   2.0000      -0.534883       -14.5549
  27   2.0000      -0.500071       -13.6076
  28   2.0000      -0.496107       -13.4998
  29   2.0000      -0.491374       -13.3710
  30   2.0000      -0.474597       -12.9144
  31   2.0000      -0.425917       -11.5898
  32   2.0000      -0.374152       -10.1812
  33   2.0000      -0.344115        -9.3639
  34   0.0000       0.131787         3.5861
  35   0.0000       0.156169         4.2496
  36   0.0000       0.160738         4.3739
  37   0.0000       0.164202         4.4682
  38   0.0000       0.168490         4.5848

MULLIKEN ATOMIC CHARGES
-----------------------
   0 C :   -0.418693
   1 C :    0.055108
   2 N :   -0.113281
   3 O :   -0.375718
   4 C :   -0.058013
   5 C :   -0.179876
   6 C :   -0.183475
   7 C :   -0.166328
   8 C :   -0.188417
   9 H :    0.149175
  10 H :    0.136881
  11 H :    0.159890
  12 H :    0.333702
  13 H :    0.106917
  14 H :    0.118586
  15 H :    0.119030
  16 H :    0.125131
  17 H :    0.124910
  18 H :    0.134483
  19 H :    0.119988
Sum of atomic charges:    0.0000000

LOEWDIN ATOMIC CHARGES
----------------------
   0 C :   -0.281947
   1 C :   -0.288680
   2 N :    0.020436
   3 O :   -0.075251
   4 C :   -0.195094
   5 C :   -0.211544
   6 C :   -0.167561
   7 C :   -0.161505
   8 C :   -0.215457
   9 H :    0.139353
  10 H :    0.129851
  11 H :    0.138694
  12 H :    0.168183
  13 H :    0.164493
  14 H :    0.134978
  15 H :    0.144143
  16 H :    0.135397
  17 H :    0.135684
  18 H :    0.147725
  19 H :    0.138103

  Mayer bond orders larger than 0.1
B(  0-C ,  1-C ) :   0.9282 B(  0-C ,  9-H ) :   0.9174 B(  0-C , 10-H ) :   0.9370
B(  0-C , 11-H ) :   0.9219 B(  1-C ,  2-N ) :   1.8209 B(  1-C ,  4-C ) :   0.9529
B(  2-N ,  3-O ) :   0.8099 B(  3-O , 12-H ) :   0.8471 B(  4-C ,  5-C ) :   0.9094
B(  4-C ,  8-C ) :   0.9424 B(  4-C , 13-H ) :   0.9181 B(  5-C ,  6-C ) :   0.9400
B(  5-C , 14-H ) :   0.9206 B(  5-C , 15-H ) :   0.9036 B(  6-C ,  7-C ) :   1.7968
B(  6-C , 16-H ) :   0.9292 B(  7-C ,  8-C ) :   0.9463 B(  7-C , 17-H ) :   0.9304
B(  8-C , 18-H ) :   0.9010 B(  8-C , 19-H ) :   0.9283

MP2 TOTAL ENERGY:     -402.424546396 Eh
FINAL SINGLE POINT ENERGY      -402.424546395975

DIPOLE MOMENT
-------------
                                X             Y             Z
Electronic contribution:     -0.64743      -1.63826       3.85227
Nuclear contribution   :      0.64771       1.76376      -3.98950
                        -----------------------------------------
Total Dipole Moment    :      0.00028       0.12550      -0.13723
                        -----------------------------------------
Magnitude (a.u.)       :      0.18596
Magnitude (Debye)      :      0.47267

                             ****ORCA TERMINATED NORMALLY****
TOTAL RUN TIME: 0 days 0 hours 17 minutes 26 seconds 58 msec
