                         Program Version 3.0.3 - RELEASE   -
|  1> ! RI-MP2 RIJK def2-TZVP def2-TZVP/C def2-TZVP/JK TIGHTSCF
|  2> % maxcore 2000
|  3> % mp2 density relaxed end
|  4> *xyz 0 1
|  5>  O       -0.5664470999     0.7791857103     0.8842156044
|  6>  C        0.0593139236     1.0057576570    -0.1173493700
|  7>  C        1.3381170505     1.8151166846    -0.1739665828
|  8>  C        1.2490128022     2.9509050555    -1.2055383413
|  9>  C        2.5661189560     3.7153905020    -1.3358502755
| 10>  C        2.5040288787     4.8367506436    -2.3475013654
| 11>  O        1.5400822801     5.1241805144    -3.0095429592
| 12>  C        3.7626034422     5.6047814295    -2.4909107176
| 13>  N        4.7534434210     6.1923499684    -2.5906011795
| 14>  H       -0.2788838758     0.6167522243    -1.1067886377
| 15>  H        1.5552998100     2.1910616239     0.8302608498
| 16>  H        2.1472520018     1.1261828615    -0.4594568094
| 17>  H        0.9672070626     2.5493231637    -2.1852728021
| 18>  H        0.4534815648     3.6491539660    -0.9252772049
| 19>  H        2.8797120981     4.1509660844    -0.3765374359
| 20>  H        3.3936309040     3.0526799607    -1.6279495329
| 21> *
| 22>
| 23>                          ****END OF INPUT****

CARTESIAN COORDINATES (ANGSTROEM)
---------------------------------
  O     -0.566447    0.779186    0.884216
  C      0.059314    1.005758   -0.117349
  C      1.338117    1.815117   -0.173967
  C      1.249013    2.950905   -1.205538
  C      2.566119    3.715391   -1.335850
  C      2.504029    4.836751   -2.347501
  O      1.540082    5.124181   -3.009543
  C      3.762603    5.604781   -2.490911
  N      4.753443    6.192350   -2.590601
  H     -0.278884    0.616752   -1.106789
  H      1.555300    2.191062    0.830261
  H      2.147252    1.126183   -0.459457
  H      0.967207    2.549323   -2.185273
  H      0.453482    3.649154   -0.925277
  H      2.879712    4.150966   -0.376537
  H      3.393631    3.052680   -1.627950

 Total Charge           Charge          ....    0
 Multiplicity           Mult            ....    1
 Number of Electrons    NEL             ....   66
 Basis Dimension        Dim             ....  321

ORBITAL ENERGIES
----------------

  NO   OCC          E(Eh)            E(eV)
   0   2.0000     -20.611240      -560.8603
   1   2.0000     -20.570907      -559.7628
   2   2.0000     -15.618275      -424.9949
   3   2.0000     -11.408717      -310.4470
   4   2.0000     -11.346085      -308.7427
   5   2.0000     -11.305564      -307.6400
   6   2.0000     -11.287934      -307.1603
   7   2.0000     -11.269956      -306.6711
   8   2.0000     -11.263743      -306.5020
   9   2.0000      -1.454812       -39.5874
  10   2.0000      -1.409968       -38.3672
  11   2.0000      -1.254270       -34.1304
  12   2.0000      -1.129576       -30.7373
  13   2.0000      -1.049403       -28.5557
  14   2.0000      -0.947374       -25.7794
  15   2.0000      -0.856401       -23.3039
  16   2.0000      -0.812196       -22.1010
  17   2.0000      -0.744962       -20.2714
  18   2.0000      -0.702717       -19.1219
  19   2.0000      -0.691496       -18.8166
  20   2.0000      -0.670385       -18.2421
  21   2.0000      -0.641924       -17.4676
  22   2.0000      -0.619382       -16.8543
  23   2.0000      -0.604768       -16.4566
  24   2.0000      -0.584779       -15.9126
  25   2.0000      -0.562178       -15.2976
  26   2.0000      -0.548924       -14.9370
  27   2.0000      -0.525898       -14.3104
  28   2.0000      -0.513503       -13.9731
  29   2.0000      -0.504459       -13.7270
  30   2.0000      -0.497821       -13.5464
  31   2.0000      -0.490189       -13.3387
  32   2.0000      -0.433301       -11.7907
  33   0.0000       0.053834         1.4649
  34   0.0000       0.103484         2.8159
  35   0.0000       0.119872         3.2619
  36   0.0000       0.138966         3.7815
  37   0.0000       0.150630         4.0988

MULLIKEN ATOMIC CHARGES
-----------------------
   0 O :   -0.255150
   1 C :    0.092971
   2 C :   -0.136914
   3 C :   -0.277765
   4 C :   -0.266998
   5 C :    0.321642
   6 O :   -0.234047
   7 C :   -0.150419
   8 N :   -0.032241
   9 H :    0.075705
  10 H :    0.127967
  11 H :    0.128361
  12 H :    0.136596
  13 H :    0.145749
  14 H :    0.164707
  15 H :    0.159838
Sum of atomic charges:    0.0000000

LOEWDIN ATOMIC CHARGES
----------------------
   0 O :    0.138500
   1 C :   -0.295047
   2 C :   -0.260529
   3 C :   -0.251800
   4 C :   -0.228449
   5 C :   -0.319375
   6 O :    0.212841
   7 C :   -0.135430
   8 N :    0.102113
   9 H :    0.111181
  10 H :    0.146729
  11 H :    0.152492
  12 H :    0.147302
  13 H :    0.149757
  14 H :    0.165459
  15 H :    0.164257

  Mayer bond orders larger than 0.1
B(  0-O ,  1-C ) :   2.0110 B(  1-C ,  2-C ) :   0.8749 B(  1-C ,  9-H ) :   0.9392
B(  2-C ,  3-C ) :   0.9035 B(  2-C , 10-H ) :   0.9018 B(  2-C , 11-H ) :   0.9139
B(  3-C ,  4-C ) :   0.9331 B(  3-C , 12-H ) :   0.9324 B(  3-C , 13-H ) :   0.9238
B(  4-C ,  5-C ) :   0.9339 B(  4-C , 14-H ) :   0.8968 B(  4-C , 15-H ) :   0.8987
B(  5-C ,  6-O ) :   1.9660 B(  5-C ,  7-C ) :   0.9052 B(  7-C ,  8-N ) :   2.7963

MP2 TOTAL ENERGY:     -437.183412820 Eh
FINAL SINGLE POINT ENERGY      -437.183412820304

DIPOLE MOMENT
-------------
                                X             Y             Z
Electronic contribution:      1.96919       5.97487      -3.32966
Nuclear contribution   :     -1.73053      -6.72650       3.34669
                        -----------------------------------------
Total Dipole Moment    :      0.23866      -0.75163       0.01703
                        -----------------------------------------
Magnitude (a.u.)       :      0.78879
Magnitude (Debye)      :      2.00495

                             ****ORCA TERMINATED NORMALLY****
TOTAL RUN TIME: 0 days 0 hours 11 minutes 58 seconds 857 msec
