                         Program Version 3.0.3 - RELEASE   -
|  1> ! RI-MP2 RIJK def2-TZVP def2-TZVP/C def2-TZVP/JK TIGHTSCF
|  2> % maxcore 2000
|  3> % mp2 density relaxed end
|  4> *xyz 0 1
|  5>  C       -0.1120193410     1.5701214534     0.0591792592
|  6>  C       -0.0772534885     0.0484229489    -0.1081317978
|  7>  C       -1.4397478495    -0.6067112802     0.0667866929
|  8>  C       -1.4734816059    -2.1324400231    -0.0675616006
|  9>  C       -2.7467139377    -2.5078066938     0.7097513769
| 10>  C       -2.9168945575    -1.3235044991     1.7160516894
| 11>  O       -1.8941947075    -0.3745646831     1.4030081899
| 12>  C       -4.2496765057    -0.7184312441     1.6534688901
| 13>  C       -5.3460903497    -0.2281896308     1.6003207645
| 14>  H        0.8865961941     2.0020909189    -0.0566447187
| 15>  H       -0.7656358630     2.0351571669    -0.6871556025
| 16>  H       -0.4908291917     1.8390074812     1.0484444290
| 17>  H        0.3010860886    -0.2140001367    -1.1041394689
| 18>  H        0.6116329291    -0.3947987088     0.6215255201
| 19>  H       -2.1555675656    -0.1585946965    -0.6449546798
| 20>  H       -1.4986280269    -2.4685034763    -1.1073005334
| 21>  H       -0.5831055491    -2.5582332650     0.4078414551
| 22>  H       -3.6125944966    -2.5606014512     0.0465120793
| 23>  H       -2.6658911162    -3.4642452313     1.2297998101
| 24>  H       -2.7295210347    -1.6516598249     2.7451385857
| 25>  H       -6.3123400952     0.2105909656     1.5608719496
| 26> *
| 27>
| 28>                          ****END OF INPUT****

CARTESIAN COORDINATES (ANGSTROEM)
---------------------------------
  C     -0.112019    1.570121    0.059179
  C     -0.077253    0.048423   -0.108132
  C     -1.439748   -0.606711    0.066787
  C     -1.473482   -2.132440   -0.067562
  C     -2.746714   -2.507807    0.709751
  C     -2.916895   -1.323504    1.716052
  O     -1.894195   -0.374565    1.403008
  C     -4.249677   -0.718431    1.653469
  C     -5.346090   -0.228190    1.600321
  H      0.886596    2.002091   -0.056645
  H     -0.765636    2.035157   -0.687156
  H     -0.490829    1.839007    1.048444
  H      0.301086   -0.214000   -1.104139
  H      0.611633   -0.394799    0.621526
  H     -2.155568   -0.158595   -0.644955
  H     -1.498628   -2.468503   -1.107301
  H     -0.583106   -2.558233    0.407841
  H     -3.612594   -2.560601    0.046512
  H     -2.665891   -3.464245    1.229800
  H     -2.729521   -1.651660    2.745139
  H     -6.312340    0.210591    1.560872

 Total Charge           Charge          ....    0
 Multiplicity           Mult            ....    1
 Number of Electrons    NEL             ....   68
 Basis Dimension        Dim             ....  351

ORBITAL ENERGIES
----------------

  NO   OCC          E(Eh)            E(eV)
   0   2.0000     -20.554164      -559.3072
   1   2.0000     -11.305611      -307.6413
   2   2.0000     -11.276462      -306.8481
   3   2.0000     -11.234668      -305.7109
   4   2.0000     -11.230803      -305.6057
   5   2.0000     -11.227350      -305.5117
   6   2.0000     -11.223421      -305.4048
   7   2.0000     -11.220079      -305.3139
   8   2.0000     -11.207251      -304.9648
   9   2.0000      -1.381506       -37.5927
  10   2.0000      -1.073135       -29.2015
  11   2.0000      -1.068347       -29.0712
  12   2.0000      -1.022443       -27.8221
  13   2.0000      -0.964190       -26.2369
  14   2.0000      -0.867375       -23.6025
  15   2.0000      -0.822541       -22.3825
  16   2.0000      -0.789959       -21.4959
  17   2.0000      -0.723118       -19.6770
  18   2.0000      -0.686871       -18.6907
  19   2.0000      -0.673820       -18.3356
  20   2.0000      -0.653430       -17.7807
  21   2.0000      -0.596034       -16.2189
  22   2.0000      -0.575580       -15.6623
  23   2.0000      -0.567952       -15.4548
  24   2.0000      -0.557121       -15.1600
  25   2.0000      -0.518179       -14.1004
  26   2.0000      -0.500907       -13.6304
  27   2.0000      -0.497667       -13.5422
  28   2.0000      -0.482135       -13.1196
  29   2.0000      -0.475830       -12.9480
  30   2.0000      -0.458272       -12.4702
  31   2.0000      -0.429525       -11.6880
  32   2.0000      -0.393022       -10.6947
  33   2.0000      -0.383072       -10.4239
  34   0.0000       0.134018         3.6468
  35   0.0000       0.151109         4.1119
  36   0.0000       0.162790         4.4297
  37   0.0000       0.166346         4.5265
  38   0.0000       0.170027         4.6267

MULLIKEN ATOMIC CHARGES
-----------------------
   0 C :   -0.392587
   1 C :   -0.174933
   2 C :    0.025393
   3 C :   -0.207146
   4 C :   -0.258642
   5 C :    0.066971
   6 O :   -0.305163
   7 C :   -0.084410
   8 C :   -0.163831
   9 H :    0.130088
  10 H :    0.117567
  11 H :    0.146740
  12 H :    0.105855
  13 H :    0.106003
  14 H :    0.077026
  15 H :    0.122894
  16 H :    0.113903
  17 H :    0.136256
  18 H :    0.127091
  19 H :    0.120691
  20 H :    0.190233
Sum of atomic charges:    0.0000000

LOEWDIN ATOMIC CHARGES
----------------------
   0 C :   -0.316583
   1 C :   -0.274804
   2 C :   -0.313619
   3 C :   -0.237646
   4 C :   -0.217968
   5 C :   -0.288367
   6 O :    0.200881
   7 C :   -0.088239
   8 C :   -0.094203
   9 H :    0.119663
  10 H :    0.120462
  11 H :    0.126838
  12 H :    0.140610
  13 H :    0.139880
  14 H :    0.140270
  15 H :    0.138031
  16 H :    0.140497
  17 H :    0.143929
  18 H :    0.136764
  19 H :    0.156727
  20 H :    0.126876

  Mayer bond orders larger than 0.1
B(  0-C ,  1-C ) :   0.9259 B(  0-C ,  9-H ) :   0.9402 B(  0-C , 10-H ) :   0.9368
B(  0-C , 11-H ) :   0.9370 B(  1-C ,  2-C ) :   0.9244 B(  1-C , 12-H ) :   0.9318
B(  1-C , 13-H ) :   0.9264 B(  2-C ,  3-C ) :   0.9347 B(  2-C ,  6-O ) :   0.9334
B(  2-C , 14-H ) :   0.9179 B(  3-C ,  4-C ) :   0.9249 B(  3-C , 15-H ) :   0.9235
B(  3-C , 16-H ) :   0.9221 B(  4-C ,  5-C ) :   0.9123 B(  4-C , 17-H ) :   0.9316
B(  4-C , 18-H ) :   0.9287 B(  5-C ,  6-O ) :   0.9263 B(  5-C ,  7-C ) :   1.1056
B(  5-C , 19-H ) :   0.9226 B(  7-C ,  8-C ) :   2.5955 B(  8-C , 20-H ) :   0.8999

MP2 TOTAL ENERGY:     -386.385089047 Eh
FINAL SINGLE POINT ENERGY      -386.385089047084

DIPOLE MOMENT
-------------
                                X             Y             Z
Electronic contribution:     -6.60759      -1.22000       4.30009
Nuclear contribution   :      6.64394       0.71807      -4.71778
                        -----------------------------------------
Total Dipole Moment    :      0.03635      -0.50192      -0.41770
                        -----------------------------------------
Magnitude (a.u.)       :      0.65400
Magnitude (Debye)      :      1.66234

                             ****ORCA TERMINATED NORMALLY****
TOTAL RUN TIME: 0 days 0 hours 31 minutes 48 seconds 215 msec
