                         Program Version 3.0.3 - RELEASE   -
|  1> ! RI-MP2 RIJK def2-TZVP def2-TZVP/C def2-TZVP/JK TIGHTSCF
|  2> % maxcore 2000
|  3> % mp2 density relaxed end
|  4> *xyz 0 1
|  5>  C       -0.1909361160     1.5791681707    -0.0958849979
|  6>  C       -0.0910270036     0.0523049680    -0.0904453396
|  7>  C        0.8829737729    -0.4799388381    -1.1543989875
|  8>  C        0.9815338053    -1.9729407316    -1.1519059176
|  9>  C        1.6100926197    -2.9022410655    -0.0911630495
| 10>  C        1.9596398577    -3.8537415363    -1.2764829268
| 11>  O        2.6516112900    -4.8210561587    -1.3823689704
| 12>  C        1.2652560789    -2.9252928313    -2.2653358293
| 13>  O       -0.0688452892    -2.7423532767    -1.7365317089
| 14>  H        0.7820922630     2.0417717381     0.1038338034
| 15>  H       -0.5405314199     1.9497358851    -1.0657589783
| 16>  H       -0.8906617982     1.9324918404     0.6672430913
| 17>  H        0.2306627454    -0.2937226239     0.8999830877
| 18>  H       -1.0792320637    -0.3886886876    -0.2653605430
| 19>  H        0.5596986273    -0.1542358683    -2.1498923001
| 20>  H        1.8823790923    -0.0579822716    -0.9862363059
| 21>  H        2.5262124851    -2.5262143230     0.3749525911
| 22>  H        0.9261469868    -3.2776450791     0.6721658639
| 23>  H        1.4083332463    -2.7749499007    -3.3292503326
| 24> *
| 25>
| 26>                          ****END OF INPUT****

CARTESIAN COORDINATES (ANGSTROEM)
---------------------------------
  C     -0.190936    1.579168   -0.095885
  C     -0.091027    0.052305   -0.090445
  C      0.882974   -0.479939   -1.154399
  C      0.981534   -1.972941   -1.151906
  C      1.610093   -2.902241   -0.091163
  C      1.959640   -3.853742   -1.276483
  O      2.651611   -4.821056   -1.382369
  C      1.265256   -2.925293   -2.265336
  O     -0.068845   -2.742353   -1.736532
  H      0.782092    2.041772    0.103834
  H     -0.540531    1.949736   -1.065759
  H     -0.890662    1.932492    0.667243
  H      0.230663   -0.293723    0.899983
  H     -1.079232   -0.388689   -0.265361
  H      0.559699   -0.154236   -2.149892
  H      1.882379   -0.057982   -0.986236
  H      2.526212   -2.526214    0.374953
  H      0.926147   -3.277645    0.672166
  H      1.408333   -2.774950   -3.329250

 Total Charge           Charge          ....    0
 Multiplicity           Mult            ....    1
 Number of Electrons    NEL             ....   68
 Basis Dimension        Dim             ....  339

ORBITAL ENERGIES
----------------

  NO   OCC          E(Eh)            E(eV)
   0   2.0000     -20.592480      -560.3499
   1   2.0000     -20.563145      -559.5516
   2   2.0000     -11.347539      -308.7822
   3   2.0000     -11.316891      -307.9483
   4   2.0000     -11.304118      -307.6007
   5   2.0000     -11.255053      -306.2656
   6   2.0000     -11.247788      -306.0679
   7   2.0000     -11.236581      -305.7629
   8   2.0000     -11.225524      -305.4620
   9   2.0000      -1.444334       -39.3023
  10   2.0000      -1.403209       -38.1833
  11   2.0000      -1.099584       -29.9212
  12   2.0000      -1.073716       -29.2173
  13   2.0000      -0.976140       -26.5621
  14   2.0000      -0.924739       -25.1634
  15   2.0000      -0.843990       -22.9661
  16   2.0000      -0.789137       -21.4735
  17   2.0000      -0.757237       -20.6055
  18   2.0000      -0.693051       -18.8589
  19   2.0000      -0.673828       -18.3358
  20   2.0000      -0.649721       -17.6798
  21   2.0000      -0.635203       -17.2848
  22   2.0000      -0.603047       -16.4098
  23   2.0000      -0.593976       -16.1629
  24   2.0000      -0.581802       -15.8316
  25   2.0000      -0.562081       -15.2950
  26   2.0000      -0.530163       -14.4265
  27   2.0000      -0.527735       -14.3604
  28   2.0000      -0.512147       -13.9362
  29   2.0000      -0.499918       -13.6035
  30   2.0000      -0.487634       -13.2692
  31   2.0000      -0.482111       -13.1189
  32   2.0000      -0.424624       -11.5546
  33   2.0000      -0.399978       -10.8839
  34   0.0000       0.121741         3.3127
  35   0.0000       0.131711         3.5840
  36   0.0000       0.150952         4.1076
  37   0.0000       0.154011         4.1909
  38   0.0000       0.172277         4.6879

MULLIKEN ATOMIC CHARGES
-----------------------
   0 C :   -0.392157
   1 C :   -0.207216
   2 C :   -0.271650
   3 C :    0.199608
   4 C :   -0.200100
   5 C :    0.148447
   6 O :   -0.245233
   7 C :   -0.032284
   8 O :   -0.308071
   9 H :    0.123071
  10 H :    0.127921
  11 H :    0.139285
  12 H :    0.114532
  13 H :    0.130516
  14 H :    0.129347
  15 H :    0.120417
  16 H :    0.133746
  17 H :    0.141118
  18 H :    0.148702
Sum of atomic charges:    0.0000000

LOEWDIN ATOMIC CHARGES
----------------------
   0 C :   -0.318234
   1 C :   -0.283888
   2 C :   -0.231726
   3 C :   -0.276856
   4 C :   -0.168689
   5 C :   -0.291720
   6 O :    0.172291
   7 C :   -0.180439
   8 O :    0.204555
   9 H :    0.120879
  10 H :    0.122105
  11 H :    0.123103
  12 H :    0.136825
  13 H :    0.141418
  14 H :    0.152420
  15 H :    0.149695
  16 H :    0.148781
  17 H :    0.143214
  18 H :    0.136268

  Mayer bond orders larger than 0.1
B(  0-C ,  1-C ) :   0.9184 B(  0-C ,  9-H ) :   0.9375 B(  0-C , 10-H ) :   0.9401
B(  0-C , 11-H ) :   0.9433 B(  1-C ,  2-C ) :   0.9319 B(  1-C , 12-H ) :   0.9296
B(  1-C , 13-H ) :   0.9342 B(  2-C ,  3-C ) :   0.9000 B(  2-C , 14-H ) :   0.9230
B(  2-C , 15-H ) :   0.9201 B(  3-C ,  4-C ) :   0.9291 B(  3-C ,  7-C ) :   0.8843
B(  3-C ,  8-O ) :   0.8745 B(  4-C ,  5-C ) :   0.9247 B(  4-C ,  7-C ) :  -0.1061
B(  4-C , 16-H ) :   0.9002 B(  4-C , 17-H ) :   0.8880 B(  5-C ,  6-O ) :   2.0282
B(  5-C ,  7-C ) :   0.8604 B(  7-C ,  8-O ) :   0.8773 B(  7-C , 18-H ) :   0.9097

MP2 TOTAL ENERGY:     -422.295253918 Eh
FINAL SINGLE POINT ENERGY      -422.295253918054

DIPOLE MOMENT
-------------
                                X             Y             Z
Electronic contribution:      3.77612     -13.93963      -4.56961
Nuclear contribution   :     -3.78514      15.26315       4.78274
                        -----------------------------------------
Total Dipole Moment    :     -0.00902       1.32351       0.21313
                        -----------------------------------------
Magnitude (a.u.)       :      1.34059
Magnitude (Debye)      :      3.40752

                             ****ORCA TERMINATED NORMALLY****
TOTAL RUN TIME: 0 days 0 hours 17 minutes 13 seconds 579 msec
