                         Program Version 3.0.3 - RELEASE   -
|  1> ! RI-MP2 RIJK def2-TZVP def2-TZVP/C def2-TZVP/JK TIGHTSCF
|  2> % maxcore 2000
|  3> % mp2 density relaxed end
|  4> *xyz 0 1
|  5>  C       -0.0065648742     1.4365456511    -0.0656565177
|  6>  C        0.0024122129    -0.0516600883     0.0093300282
|  7>  O        0.1270681820    -0.8045748015    -1.1893295509
|  8>  C       -0.2169921132    -1.9844980841    -0.4006898776
|  9>  C        1.0616612611    -2.2348284511     0.4320133947
| 10>  C        0.7057728002    -0.9282819807     1.1347264070
| 11>  C        1.2629698478    -0.3638673556     2.3597479553
| 12>  O        2.2504868243    -0.7862092417     2.9183921577
| 13>  C       -0.7872182324    -1.0629505256     0.7371146360
| 14>  H        0.9463934251     1.8102909230    -0.4525839745
| 15>  H       -0.8062237878     1.7733189232    -0.7325179900
| 16>  H       -0.1733748820     1.8749854972     0.9216034414
| 17>  H       -0.7376292952    -2.7522826767    -0.9672836798
| 18>  H        0.9568146103    -3.0829906277     1.1124708984
| 19>  H        1.9973457141    -2.3008371336    -0.1282380514
| 20>  H        0.7060797205     0.5119436229     2.7681332820
| 21>  H       -1.6811005134    -1.0451345206     1.3455943711
| 22> *
| 23>
| 24>                          ****END OF INPUT****

CARTESIAN COORDINATES (ANGSTROEM)
---------------------------------
  C     -0.006565    1.436546   -0.065657
  C      0.002412   -0.051660    0.009330
  O      0.127068   -0.804575   -1.189330
  C     -0.216992   -1.984498   -0.400690
  C      1.061661   -2.234828    0.432013
  C      0.705773   -0.928282    1.134726
  C      1.262970   -0.363867    2.359748
  O      2.250487   -0.786209    2.918392
  C     -0.787218   -1.062951    0.737115
  H      0.946393    1.810291   -0.452584
  H     -0.806224    1.773319   -0.732518
  H     -0.173375    1.874985    0.921603
  H     -0.737629   -2.752283   -0.967284
  H      0.956815   -3.082991    1.112471
  H      1.997346   -2.300837   -0.128238
  H      0.706080    0.511944    2.768133
  H     -1.681101   -1.045135    1.345594

 Total Charge           Charge          ....    0
 Multiplicity           Mult            ....    1
 Number of Electrons    NEL             ....   66
 Basis Dimension        Dim             ....  327

ORBITAL ENERGIES
----------------

  NO   OCC          E(Eh)            E(eV)
   0   2.0000     -20.569479      -559.7240
   1   2.0000     -20.551406      -559.2322
   2   2.0000     -11.334930      -308.4391
   3   2.0000     -11.323076      -308.1166
   4   2.0000     -11.311920      -307.8130
   5   2.0000     -11.264000      -306.5090
   6   2.0000     -11.258868      -306.3694
   7   2.0000     -11.243864      -305.9611
   8   2.0000     -11.241187      -305.8882
   9   2.0000      -1.424239       -38.7555
  10   2.0000      -1.388724       -37.7891
  11   2.0000      -1.169682       -31.8287
  12   2.0000      -1.047190       -28.4955
  13   2.0000      -0.957372       -26.0514
  14   2.0000      -0.941861       -25.6293
  15   2.0000      -0.854408       -23.2496
  16   2.0000      -0.760298       -20.6888
  17   2.0000      -0.736265       -20.0348
  18   2.0000      -0.702635       -19.1197
  19   2.0000      -0.680276       -18.5112
  20   2.0000      -0.649580       -17.6760
  21   2.0000      -0.636355       -17.3161
  22   2.0000      -0.612331       -16.6624
  23   2.0000      -0.582364       -15.8469
  24   2.0000      -0.569906       -15.5079
  25   2.0000      -0.546049       -14.8587
  26   2.0000      -0.542617       -14.7654
  27   2.0000      -0.529487       -14.4081
  28   2.0000      -0.504326       -13.7234
  29   2.0000      -0.451361       -12.2822
  30   2.0000      -0.429579       -11.6894
  31   2.0000      -0.405326       -11.0295
  32   2.0000      -0.381561       -10.3828
  33   0.0000       0.120096         3.2680
  34   0.0000       0.136154         3.7049
  35   0.0000       0.152000         4.1361
  36   0.0000       0.169934         4.6241
  37   0.0000       0.175407         4.7731

MULLIKEN ATOMIC CHARGES
-----------------------
   0 C :   -0.416766
   1 C :    0.161532
   2 O :   -0.305987
   3 C :    0.019010
   4 C :   -0.158511
   5 C :    0.019345
   6 C :    0.040978
   7 O :   -0.275735
   8 C :   -0.158105
   9 H :    0.157166
  10 H :    0.151485
  11 H :    0.136412
  12 H :    0.144565
  13 H :    0.127809
  14 H :    0.126166
  15 H :    0.064746
  16 H :    0.165888
Sum of atomic charges:   -0.0000000

LOEWDIN ATOMIC CHARGES
----------------------
   0 C :   -0.258155
   1 C :   -0.268029
   2 O :    0.201311
   3 C :   -0.183180
   4 C :   -0.168939
   5 C :   -0.162769
   6 C :   -0.285171
   7 O :    0.124260
   8 C :   -0.082989
   9 H :    0.139793
  10 H :    0.137447
  11 H :    0.135928
  12 H :    0.130833
  13 H :    0.148902
  14 H :    0.135484
  15 H :    0.115082
  16 H :    0.140192

  Mayer bond orders larger than 0.1
B(  0-C ,  1-C ) :   0.8720 B(  0-C ,  9-H ) :   0.9339 B(  0-C , 10-H ) :   0.9347
B(  0-C , 11-H ) :   0.9347 B(  1-C ,  2-O ) :   0.9994 B(  1-C ,  5-C ) :   0.7618
B(  1-C ,  8-C ) :   0.9130 B(  2-O ,  3-C ) :   0.8886 B(  3-C ,  4-C ) :   0.9398
B(  3-C ,  8-C ) :   0.9383 B(  3-C , 12-H ) :   0.9117 B(  4-C ,  5-C ) :   0.8878
B(  4-C , 13-H ) :   0.9200 B(  4-C , 14-H ) :   0.9117 B(  5-C ,  6-C ) :   0.8671
B(  5-C ,  7-O ) :  -0.1174 B(  5-C ,  8-C ) :   0.7537 B(  5-C , 15-H ) :  -0.1034
B(  6-C ,  7-O ) :   2.0113 B(  6-C , 15-H ) :   0.9711 B(  8-C , 16-H ) :   0.8787

MP2 TOTAL ENERGY:     -421.062778494 Eh
FINAL SINGLE POINT ENERGY      -421.062778494272

DIPOLE MOMENT
-------------
                                X             Y             Z
Electronic contribution:      1.52747      -2.34785       1.10270
Nuclear contribution   :     -2.68818       2.48893      -1.32883
                        -----------------------------------------
Total Dipole Moment    :     -1.16071       0.14108      -0.22613
                        -----------------------------------------
Magnitude (a.u.)       :      1.19092
Magnitude (Debye)      :      3.02708

                             ****ORCA TERMINATED NORMALLY****
TOTAL RUN TIME: 0 days 0 hours 18 minutes 14 seconds 695 msec
