                         Program Version 3.0.3 - RELEASE   -
|  1> ! RI-MP2 RIJK def2-TZVP def2-TZVP/C def2-TZVP/JK TIGHTSCF
|  2> % maxcore 2000
|  3> % mp2 density relaxed end
|  4> *xyz 0 1
|  5>  C        0.4330218864     0.9072647799     0.6752778110
|  6>  C       -0.4055138595     0.2041964783    -0.3973765357
|  7>  C        0.4089328959    -0.3183175559    -1.5915307046
|  8>  C        1.2569349296    -1.5434439086    -1.2235588825
|  9>  C        2.3065207355    -1.9413582179    -2.2641504177
| 10>  N        1.7943159878    -2.2755103354    -3.4835516062
| 11>  O        3.4945568664    -1.9847876102    -2.0058797009
| 12>  O       -0.4603278056    -0.7166879552    -2.6600872553
| 13>  C       -0.9259889772     0.3432297123    -3.4698882194
| 14>  H        1.1522563074     0.2311625114     1.1467987546
| 15>  H        0.9960453961     1.7464179772     0.2517884802
| 16>  H       -0.2088988364     1.3050782862     1.4667314808
| 17>  H       -0.9599704288    -0.6356395383     0.0387183957
| 18>  H       -1.1573454436     0.9071742731    -0.7731221518
| 19>  H        1.0702170853     0.4859036932    -1.9551993470
| 20>  H        1.8053204637    -1.3541485610    -0.3004413081
| 21>  H        0.5732131322    -2.3835771957    -1.0511281061
| 22>  H        0.8343861767    -2.0464737359    -3.6900304357
| 23>  H        2.4442146519    -2.4501407170    -4.2327921820
| 24>  H       -1.5378968887     1.0626949596    -2.9093462267
| 25>  H       -0.0931435019     0.8880302391    -3.9393666310
| 26>  H       -1.5470638832    -0.0998570991    -4.2523554318
| 27> *
| 28>
| 29>                          ****END OF INPUT****

CARTESIAN COORDINATES (ANGSTROEM)
---------------------------------
  C      0.433022    0.907265    0.675278
  C     -0.405514    0.204196   -0.397377
  C      0.408933   -0.318318   -1.591531
  C      1.256935   -1.543444   -1.223559
  C      2.306521   -1.941358   -2.264150
  N      1.794316   -2.275510   -3.483552
  O      3.494557   -1.984788   -2.005880
  O     -0.460328   -0.716688   -2.660087
  C     -0.925989    0.343230   -3.469888
  H      1.152256    0.231163    1.146799
  H      0.996045    1.746418    0.251788
  H     -0.208899    1.305078    1.466731
  H     -0.959970   -0.635640    0.038718
  H     -1.157345    0.907174   -0.773122
  H      1.070217    0.485904   -1.955199
  H      1.805320   -1.354149   -0.300441
  H      0.573213   -2.383577   -1.051128
  H      0.834386   -2.046474   -3.690030
  H      2.444215   -2.450141   -4.232792
  H     -1.537897    1.062695   -2.909346
  H     -0.093144    0.888030   -3.939367
  H     -1.547064   -0.099857   -4.252355

 Total Charge           Charge          ....    0
 Multiplicity           Mult            ....    1
 Number of Electrons    NEL             ....   72
 Basis Dimension        Dim             ....  357

ORBITAL ENERGIES
----------------

  NO   OCC          E(Eh)            E(eV)
   0   2.0000     -20.571746      -559.7857
   1   2.0000     -20.508790      -558.0726
   2   2.0000     -15.566685      -423.5910
   3   2.0000     -11.340911      -308.6019
   4   2.0000     -11.298225      -307.4403
   5   2.0000     -11.285311      -307.0889
   6   2.0000     -11.235158      -305.7242
   7   2.0000     -11.233010      -305.6657
   8   2.0000     -11.225009      -305.4480
   9   2.0000      -1.390271       -37.8312
  10   2.0000      -1.370918       -37.3046
  11   2.0000      -1.198655       -32.6170
  12   2.0000      -1.085923       -29.5495
  13   2.0000      -1.011064       -27.5125
  14   2.0000      -0.942772       -25.6541
  15   2.0000      -0.890567       -24.2336
  16   2.0000      -0.809185       -22.0190
  17   2.0000      -0.781660       -21.2701
  18   2.0000      -0.718660       -19.5557
  19   2.0000      -0.689274       -18.7561
  20   2.0000      -0.668815       -18.1994
  21   2.0000      -0.648951       -17.6589
  22   2.0000      -0.632824       -17.2200
  23   2.0000      -0.613841       -16.7035
  24   2.0000      -0.597455       -16.2576
  25   2.0000      -0.565927       -15.3997
  26   2.0000      -0.563248       -15.3268
  27   2.0000      -0.539368       -14.6769
  28   2.0000      -0.538528       -14.6541
  29   2.0000      -0.517116       -14.0714
  30   2.0000      -0.505881       -13.7657
  31   2.0000      -0.494361       -13.4522
  32   2.0000      -0.473811       -12.8930
  33   2.0000      -0.437885       -11.9155
  34   2.0000      -0.412280       -11.2187
  35   2.0000      -0.401822       -10.9341
  36   0.0000       0.128754         3.5036
  37   0.0000       0.147185         4.0051
  38   0.0000       0.155550         4.2327
  39   0.0000       0.165900         4.5144
  40   0.0000       0.176684         4.8078

MULLIKEN ATOMIC CHARGES
-----------------------
   0 C :   -0.420351
   1 C :   -0.175187
   2 C :    0.068186
   3 C :   -0.198206
   4 C :    0.227032
   5 N :   -0.471665
   6 O :   -0.348673
   7 O :   -0.351814
   8 C :   -0.223381
   9 H :    0.133371
  10 H :    0.128317
  11 H :    0.139334
  12 H :    0.115583
  13 H :    0.108313
  14 H :    0.091817
  15 H :    0.131489
  16 H :    0.136666
  17 H :    0.273716
  18 H :    0.249894
  19 H :    0.118298
  20 H :    0.124818
  21 H :    0.142444
Sum of atomic charges:    0.0000000

LOEWDIN ATOMIC CHARGES
----------------------
   0 C :   -0.315281
   1 C :   -0.273688
   2 C :   -0.314541
   3 C :   -0.206757
   4 C :   -0.482637
   5 N :   -0.019085
   6 O :    0.074175
   7 O :    0.138995
   8 C :   -0.362553
   9 H :    0.121049
  10 H :    0.122903
  11 H :    0.124081
  12 H :    0.140846
  13 H :    0.137222
  14 H :    0.142342
  15 H :    0.155353
  16 H :    0.154723
  17 H :    0.170729
  18 H :    0.169530
  19 H :    0.103647
  20 H :    0.104330
  21 H :    0.114619

  Mayer bond orders larger than 0.1
B(  0-C ,  1-C ) :   0.9174 B(  0-C ,  9-H ) :   0.9384 B(  0-C , 10-H ) :   0.9362
B(  0-C , 11-H ) :   0.9374 B(  1-C ,  2-C ) :   0.9062 B(  1-C , 12-H ) :   0.9295
B(  1-C , 13-H ) :   0.9311 B(  2-C ,  3-C ) :   0.8884 B(  2-C ,  7-O ) :   0.8652
B(  2-C , 14-H ) :   0.9418 B(  3-C ,  4-C ) :   0.9162 B(  3-C , 15-H ) :   0.9244
B(  3-C , 16-H ) :   0.9048 B(  4-C ,  5-N ) :   1.1691 B(  4-C ,  6-O ) :   2.0203
B(  5-N , 17-H ) :   0.8449 B(  5-N , 18-H ) :   0.8628 B(  7-O ,  8-C ) :   0.8938
B(  8-C , 19-H ) :   0.9322 B(  8-C , 20-H ) :   0.9367 B(  8-C , 21-H ) :   0.9395

MP2 TOTAL ENERGY:     -440.799447954 Eh
FINAL SINGLE POINT ENERGY      -440.799447953920

DIPOLE MOMENT
-------------
                                X             Y             Z
Electronic contribution:      6.04259      -6.83536      -4.09123
Nuclear contribution   :     -7.41192       7.60154       3.63353
                        -----------------------------------------
Total Dipole Moment    :     -1.36933       0.76618      -0.45771
                        -----------------------------------------
Magnitude (a.u.)       :      1.63450
Magnitude (Debye)      :      4.15458

                             ****ORCA TERMINATED NORMALLY****
TOTAL RUN TIME: 0 days 0 hours 17 minutes 54 seconds 760 msec
