                         Program Version 3.0.3 - RELEASE   -
|  1> ! RI-MP2 RIJK def2-TZVP def2-TZVP/C def2-TZVP/JK TIGHTSCF
|  2> % maxcore 2000
|  3> % mp2 density relaxed end
|  4> *xyz 0 1
|  5>  C        0.7191457632     1.4725231016     0.3423412091
|  6>  N       -0.1332539458     0.6116335566    -0.4668121742
|  7>  C        0.5439660276    -0.2416187202    -1.3900536016
|  8>  C        1.2054000339    -1.6161635024    -1.0098341642
|  9>  C        0.8940257176    -2.2102014858     0.3494931034
| 10>  O        0.4616247976    -2.2739846680    -2.0788916692
| 11>  C       -0.3313264323    -1.1091204289    -2.3442279812
| 12>  C       -1.7288776913    -1.2727143750    -1.9222906267
| 13>  N       -2.8200310419    -1.3979451555    -1.5614670342
| 14>  H        1.4324520765     0.9382395389     0.9915907759
| 15>  H        1.2971680467     2.1312703216    -0.3155995648
| 16>  H        0.0919797568     2.1043785804     0.9768692995
| 17>  H       -0.8001454361     0.1040155027     0.1022858870
| 18>  H        1.2406000787     0.3683066670    -1.9722564675
| 19>  H        2.2800185865    -1.6732622441    -1.2184354150
| 20>  H       -0.1709958048    -2.1395550604     0.5897214291
| 21>  H        1.1691997287    -3.2689840795     0.3604670126
| 22>  H        1.4655150806    -1.7016084694     1.1330294210
| 23>  H       -0.3119212722    -0.8249091496    -3.4017961291
| 24> *
| 25>
| 26>                          ****END OF INPUT****

CARTESIAN COORDINATES (ANGSTROEM)
---------------------------------
  C      0.719146    1.472523    0.342341
  N     -0.133254    0.611634   -0.466812
  C      0.543966   -0.241619   -1.390054
  C      1.205400   -1.616164   -1.009834
  C      0.894026   -2.210201    0.349493
  O      0.461625   -2.273985   -2.078892
  C     -0.331326   -1.109120   -2.344228
  C     -1.728878   -1.272714   -1.922291
  N     -2.820031   -1.397945   -1.561467
  H      1.432452    0.938240    0.991591
  H      1.297168    2.131270   -0.315600
  H      0.091980    2.104379    0.976869
  H     -0.800145    0.104016    0.102286
  H      1.240600    0.368307   -1.972256
  H      2.280019   -1.673262   -1.218435
  H     -0.170996   -2.139555    0.589721
  H      1.169200   -3.268984    0.360467
  H      1.465515   -1.701608    1.133029
  H     -0.311921   -0.824909   -3.401796

 Total Charge           Charge          ....    0
 Multiplicity           Mult            ....    1
 Number of Electrons    NEL             ....   68
 Basis Dimension        Dim             ....  339

ORBITAL ENERGIES
----------------

  NO   OCC          E(Eh)            E(eV)
   0   2.0000     -20.577375      -559.9388
   1   2.0000     -15.577007      -423.8719
   2   2.0000     -15.565553      -423.5602
   3   2.0000     -11.336856      -308.4915
   4   2.0000     -11.301831      -307.5385
   5   2.0000     -11.292005      -307.2711
   6   2.0000     -11.274954      -306.8071
   7   2.0000     -11.263373      -306.4919
   8   2.0000     -11.233152      -305.6696
   9   2.0000      -1.410395       -38.3788
  10   2.0000      -1.232844       -33.5474
  11   2.0000      -1.219645       -33.1882
  12   2.0000      -1.040100       -28.3026
  13   2.0000      -1.028350       -27.9828
  14   2.0000      -0.938395       -25.5350
  15   2.0000      -0.902862       -24.5681
  16   2.0000      -0.794136       -21.6095
  17   2.0000      -0.735351       -20.0099
  18   2.0000      -0.726079       -19.7576
  19   2.0000      -0.658502       -17.9188
  20   2.0000      -0.635086       -17.2816
  21   2.0000      -0.618715       -16.8361
  22   2.0000      -0.602543       -16.3960
  23   2.0000      -0.588979       -16.0269
  24   2.0000      -0.575078       -15.6487
  25   2.0000      -0.559683       -15.2297
  26   2.0000      -0.553514       -15.0619
  27   2.0000      -0.534057       -14.5324
  28   2.0000      -0.511327       -13.9139
  29   2.0000      -0.500249       -13.6125
  30   2.0000      -0.469490       -12.7755
  31   2.0000      -0.455013       -12.3815
  32   2.0000      -0.448013       -12.1911
  33   2.0000      -0.381672       -10.3858
  34   0.0000       0.121591         3.3087
  35   0.0000       0.139127         3.7858
  36   0.0000       0.144996         3.9455
  37   0.0000       0.154829         4.2131
  38   0.0000       0.167231         4.5506

MULLIKEN ATOMIC CHARGES
-----------------------
   0 C :   -0.311227
   1 N :   -0.307028
   2 C :   -0.128138
   3 C :    0.126701
   4 C :   -0.438756
   5 O :   -0.317762
   6 C :    0.258466
   7 C :   -0.227218
   8 N :   -0.053178
   9 H :    0.115073
  10 H :    0.133702
  11 H :    0.147008
  12 H :    0.219183
  13 H :    0.120368
  14 H :    0.101520
  15 H :    0.140440
  16 H :    0.150717
  17 H :    0.131548
  18 H :    0.138579
Sum of atomic charges:    0.0000000

LOEWDIN ATOMIC CHARGES
----------------------
   0 C :   -0.340780
   1 N :   -0.003613
   2 C :   -0.254140
   3 C :   -0.274672
   4 C :   -0.296533
   5 O :    0.174398
   6 C :   -0.256810
   7 C :   -0.167909
   8 N :    0.071415
   9 H :    0.099714
  10 H :    0.118111
  11 H :    0.120409
  12 H :    0.175501
  13 H :    0.151878
  14 H :    0.134559
  15 H :    0.127362
  16 H :    0.134324
  17 H :    0.128685
  18 H :    0.158102

  Mayer bond orders larger than 0.1
B(  0-C ,  1-N ) :   0.9221 B(  0-C ,  9-H ) :   0.9297 B(  0-C , 10-H ) :   0.9375
B(  0-C , 11-H ) :   0.9383 B(  1-N ,  2-C ) :   1.0780 B(  1-N , 12-H ) :   0.8674
B(  2-C ,  3-C ) :   0.9213 B(  2-C ,  6-C ) :   0.9127 B(  2-C , 13-H ) :   0.9229
B(  3-C ,  4-C ) :   0.8850 B(  3-C ,  5-O ) :   0.9148 B(  3-C , 14-H ) :   0.9121
B(  4-C , 15-H ) :   0.9372 B(  4-C , 16-H ) :   0.9316 B(  4-C , 17-H ) :   0.9248
B(  5-O ,  6-C ) :   0.9842 B(  6-C ,  7-C ) :   0.8881 B(  6-C , 18-H ) :   0.9007
B(  7-C ,  8-N ) :   2.8350

MP2 TOTAL ENERGY:     -418.482668920 Eh
FINAL SINGLE POINT ENERGY      -418.482668919937

DIPOLE MOMENT
-------------
                                X             Y             Z
Electronic contribution:     -6.43511      -3.83712      -7.09570
Nuclear contribution   :      7.99797       4.53484       7.53107
                        -----------------------------------------
Total Dipole Moment    :      1.56285       0.69772       0.43537
                        -----------------------------------------
Magnitude (a.u.)       :      1.76603
Magnitude (Debye)      :      4.48890

                             ****ORCA TERMINATED NORMALLY****
TOTAL RUN TIME: 0 days 0 hours 18 minutes 24 seconds 772 msec
