                         Program Version 3.0.3 - RELEASE   -
|  1> ! RI-MP2 RIJK def2-TZVP def2-TZVP/C def2-TZVP/JK TIGHTSCF
|  2> % maxcore 2000
|  3> % mp2 density relaxed end
|  4> *xyz 0 1
|  5>  C       -0.0177968539     1.5280496599     0.0398790221
|  6>  C       -0.0588623794     0.0356795751    -0.0361072397
|  7>  C       -0.0781874839    -0.7456370778    -1.1279320825
|  8>  C        0.0062603538    -2.1874845967    -0.7033902884
|  9>  C        1.3436374568    -2.5678571709     0.0132799132
| 10>  C        0.6525285833    -3.0169392172     1.2730152173
| 11>  C        1.3597744721    -1.6871867396     1.2616132390
| 12>  C        0.0293183716    -0.8704978315     1.1728157859
| 13>  C       -0.5987769843    -2.2314672437     0.7374154649
| 14>  H        0.9101695687     1.8775168471     0.5114635723
| 15>  H       -0.0826682686     1.9844875878    -0.9520361039
| 16>  H       -0.8411144687     1.9207552168     0.6503946968
| 17>  H       -0.0560967580    -0.3995156992    -2.1556216055
| 18>  H       -0.3445060102    -2.9456959737    -1.4042276264
| 19>  H        2.2568651901    -2.9401308613    -0.4326193442
| 20>  H        0.7660402354    -3.8939881209     1.8924433157
| 21>  H        2.2838517406    -1.4035991528     1.7484082913
| 22>  H       -0.2965566673    -0.4608832424     2.1306134015
| 23>  H       -1.6514941580    -2.4539750791     0.9065520708
| 24> *
| 25>
| 26>                          ****END OF INPUT****

CARTESIAN COORDINATES (ANGSTROEM)
---------------------------------
  C     -0.017797    1.528050    0.039879
  C     -0.058862    0.035680   -0.036107
  C     -0.078187   -0.745637   -1.127932
  C      0.006260   -2.187485   -0.703390
  C      1.343637   -2.567857    0.013280
  C      0.652529   -3.016939    1.273015
  C      1.359774   -1.687187    1.261613
  C      0.029318   -0.870498    1.172816
  C     -0.598777   -2.231467    0.737415
  H      0.910170    1.877517    0.511464
  H     -0.082668    1.984488   -0.952036
  H     -0.841114    1.920755    0.650395
  H     -0.056097   -0.399516   -2.155622
  H     -0.344506   -2.945696   -1.404228
  H      2.256865   -2.940131   -0.432619
  H      0.766040   -3.893988    1.892443
  H      2.283852   -1.403599    1.748408
  H     -0.296557   -0.460883    2.130613
  H     -1.651494   -2.453975    0.906552

 Total Charge           Charge          ....    0
 Multiplicity           Mult            ....    1
 Number of Electrons    NEL             ....   64
 Basis Dimension        Dim             ....  339

ORBITAL ENERGIES
----------------

  NO   OCC          E(Eh)            E(eV)
   0   2.0000     -11.231041      -305.6122
   1   2.0000     -11.228269      -305.5367
   2   2.0000     -11.227763      -305.5230
   3   2.0000     -11.227246      -305.5089
   4   2.0000     -11.226601      -305.4913
   5   2.0000     -11.225244      -305.4544
   6   2.0000     -11.222201      -305.3716
   7   2.0000     -11.219076      -305.2866
   8   2.0000     -11.206476      -304.9437
   9   2.0000      -1.236701       -33.6523
  10   2.0000      -1.082640       -29.4601
  11   2.0000      -0.985776       -26.8243
  12   2.0000      -0.952481       -25.9183
  13   2.0000      -0.905178       -24.6312
  14   2.0000      -0.827462       -22.5164
  15   2.0000      -0.767920       -20.8962
  16   2.0000      -0.718573       -19.5534
  17   2.0000      -0.698269       -19.0009
  18   2.0000      -0.680571       -18.5193
  19   2.0000      -0.633154       -17.2290
  20   2.0000      -0.590288       -16.0626
  21   2.0000      -0.572243       -15.5715
  22   2.0000      -0.551816       -15.0157
  23   2.0000      -0.536715       -14.6048
  24   2.0000      -0.513687       -13.9781
  25   2.0000      -0.504336       -13.7237
  26   2.0000      -0.496896       -13.5212
  27   2.0000      -0.440494       -11.9864
  28   2.0000      -0.435926       -11.8622
  29   2.0000      -0.382413       -10.4060
  30   2.0000      -0.358271        -9.7490
  31   2.0000      -0.322876        -8.7859
  32   0.0000       0.142507         3.8778
  33   0.0000       0.150678         4.1002
  34   0.0000       0.164958         4.4887
  35   0.0000       0.175894         4.7863
  36   0.0000       0.182372         4.9626

MULLIKEN ATOMIC CHARGES
-----------------------
   0 C :   -0.452929
   1 C :   -0.014094
   2 C :   -0.226014
   3 C :   -0.029035
   4 C :   -0.166112
   5 C :   -0.231745
   6 C :   -0.163497
   7 C :   -0.049508
   8 C :    0.016709
   9 H :    0.138748
  10 H :    0.136664
  11 H :    0.139779
  12 H :    0.117822
  13 H :    0.120332
  14 H :    0.130691
  15 H :    0.141710
  16 H :    0.132899
  17 H :    0.121218
  18 H :    0.136363
Sum of atomic charges:    0.0000000

LOEWDIN ATOMIC CHARGES
----------------------
   0 C :   -0.277164
   1 C :   -0.160075
   2 C :   -0.117589
   3 C :   -0.159898
   4 C :   -0.136384
   5 C :   -0.136474
   6 C :   -0.135891
   7 C :   -0.133066
   8 C :   -0.096072
   9 H :    0.131431
  10 H :    0.129679
  11 H :    0.130106
  12 H :    0.134658
  13 H :    0.145082
  14 H :    0.135848
  15 H :    0.130518
  16 H :    0.135997
  17 H :    0.146950
  18 H :    0.132344

  Mayer bond orders larger than 0.1
B(  0-C ,  1-C ) :   0.8740 B(  0-C ,  9-H ) :   0.9261 B(  0-C , 10-H ) :   0.9520
B(  0-C , 11-H ) :   0.9421 B(  1-C ,  2-C ) :   1.7373 B(  1-C ,  7-C ) :   0.9621
B(  2-C ,  3-C ) :   0.9734 B(  2-C , 12-H ) :   0.9286 B(  3-C ,  4-C ) :   0.8754
B(  3-C ,  8-C ) :   0.9485 B(  3-C , 13-H ) :   0.9250 B(  4-C ,  5-C ) :   0.8446
B(  4-C ,  6-C ) :   0.8771 B(  4-C , 14-H ) :   0.9268 B(  5-C ,  6-C ) :   0.8585
B(  5-C ,  8-C ) :   0.9287 B(  5-C , 15-H ) :   0.9182 B(  6-C ,  7-C ) :   0.8672
B(  6-C , 16-H ) :   0.9236 B(  7-C ,  8-C ) :   0.9480 B(  7-C , 17-H ) :   0.9176
B(  8-C , 18-H ) :   0.9037

MP2 TOTAL ENERGY:     -348.059562795 Eh
FINAL SINGLE POINT ENERGY      -348.059562794624

DIPOLE MOMENT
-------------
                                X             Y             Z
Electronic contribution:      0.05963      -3.68256       0.11625
Nuclear contribution   :      0.01158       3.71850      -0.02360
                        -----------------------------------------
Total Dipole Moment    :      0.07121       0.03594       0.09265
                        -----------------------------------------
Magnitude (a.u.)       :      0.12225
Magnitude (Debye)      :      0.31074

                             ****ORCA TERMINATED NORMALLY****
TOTAL RUN TIME: 0 days 0 hours 20 minutes 3 seconds 939 msec
