                         Program Version 3.0.3 - RELEASE   -
|  1> ! RI-MP2 RIJK def2-TZVP def2-TZVP/C def2-TZVP/JK TIGHTSCF
|  2> % maxcore 2000
|  3> % mp2 density relaxed end
|  4> *xyz 0 1
|  5>  C        0.0845217019     1.6476093548    -0.0300311834
|  6>  C        0.0938726911     0.1446687641     0.0175314884
|  7>  C        0.5414430845    -0.8581181081    -1.0802330741
|  8>  C       -0.6271525861    -1.6923388662    -0.7634438764
|  9>  N        0.7381103790    -1.8796516248     0.0026264446
| 10>  C        0.7625048183    -0.7390888960     1.0681787174
| 11>  C       -0.2526458913    -0.7694067728     2.2514697838
| 12>  C       -1.5415743043    -0.9638027437     1.4484828871
| 13>  C       -1.2364981862    -0.6816579601     0.1652556607
| 14>  H        1.0954998940     2.0505015140    -0.1569094429
| 15>  H       -0.5301909106     2.0109334161    -0.8608812428
| 16>  H       -0.3330090655     2.0643552325     0.8931678460
| 17>  H        1.1790666230    -0.7812662220    -1.9520263271
| 18>  H       -1.0079238951    -2.5961120079    -1.2213151888
| 19>  H        1.8117442639    -0.5820182599     1.3342525783
| 20>  H       -0.1416923048    -1.6224324762     2.9307178403
| 21>  H       -0.1378711425     0.1374467152     2.8616067554
| 22>  H       -2.2672017592    -1.7168979791     1.7402584434
| 23> *
| 24>
| 25>                          ****END OF INPUT****

CARTESIAN COORDINATES (ANGSTROEM)
---------------------------------
  C      0.084522    1.647609   -0.030031
  C      0.093873    0.144669    0.017531
  C      0.541443   -0.858118   -1.080233
  C     -0.627153   -1.692339   -0.763444
  N      0.738110   -1.879652    0.002626
  C      0.762505   -0.739089    1.068179
  C     -0.252646   -0.769407    2.251470
  C     -1.541574   -0.963803    1.448483
  C     -1.236498   -0.681658    0.165256
  H      1.095500    2.050502   -0.156909
  H     -0.530191    2.010933   -0.860881
  H     -0.333009    2.064355    0.893168
  H      1.179067   -0.781266   -1.952026
  H     -1.007924   -2.596112   -1.221315
  H      1.811744   -0.582018    1.334253
  H     -0.141692   -1.622432    2.930718
  H     -0.137871    0.137447    2.861607
  H     -2.267202   -1.716898    1.740258

 Total Charge           Charge          ....    0
 Multiplicity           Mult            ....    1
 Number of Electrons    NEL             ....   64
 Basis Dimension        Dim             ....  333

ORBITAL ENERGIES
----------------

  NO   OCC          E(Eh)            E(eV)
   0   2.0000     -15.563719      -423.5103
   1   2.0000     -11.280115      -306.9475
   2   2.0000     -11.265302      -306.5444
   3   2.0000     -11.261389      -306.4380
   4   2.0000     -11.243968      -305.9639
   5   2.0000     -11.241828      -305.9057
   6   2.0000     -11.240793      -305.8775
   7   2.0000     -11.235742      -305.7401
   8   2.0000     -11.223346      -305.4028
   9   2.0000      -1.311355       -35.6838
  10   2.0000      -1.102748       -30.0073
  11   2.0000      -1.016728       -27.6666
  12   2.0000      -1.005401       -27.3584
  13   2.0000      -0.898392       -24.4465
  14   2.0000      -0.872127       -23.7318
  15   2.0000      -0.826802       -22.4984
  16   2.0000      -0.739693       -20.1281
  17   2.0000      -0.681501       -18.5446
  18   2.0000      -0.672398       -18.2969
  19   2.0000      -0.629745       -17.1362
  20   2.0000      -0.612422       -16.6649
  21   2.0000      -0.587364       -15.9830
  22   2.0000      -0.565278       -15.3820
  23   2.0000      -0.558680       -15.2024
  24   2.0000      -0.533268       -14.5109
  25   2.0000      -0.519030       -14.1235
  26   2.0000      -0.472221       -12.8498
  27   2.0000      -0.461141       -12.5483
  28   2.0000      -0.427552       -11.6343
  29   2.0000      -0.416527       -11.3343
  30   2.0000      -0.364850        -9.9281
  31   2.0000      -0.307199        -8.3593
  32   0.0000       0.083039         2.2596
  33   0.0000       0.138036         3.7561
  34   0.0000       0.160996         4.3809
  35   0.0000       0.177464         4.8290
  36   0.0000       0.182420         4.9639

MULLIKEN ATOMIC CHARGES
-----------------------
   0 C :   -0.400996
   1 C :    0.223963
   2 C :   -0.161289
   3 C :   -0.136780
   4 N :   -0.212193
   5 C :   -0.077341
   6 C :   -0.225077
   7 C :   -0.200693
   8 C :   -0.034654
   9 H :    0.136961
  10 H :    0.141015
  11 H :    0.139447
  12 H :    0.148057
  13 H :    0.143515
  14 H :    0.118595
  15 H :    0.135140
  16 H :    0.132592
  17 H :    0.129737
Sum of atomic charges:   -0.0000000

LOEWDIN ATOMIC CHARGES
----------------------
   0 C :   -0.270146
   1 C :   -0.190904
   2 C :   -0.157686
   3 C :   -0.148795
   4 N :    0.139262
   5 C :   -0.179031
   6 C :   -0.215194
   7 C :   -0.110974
   8 C :   -0.097050
   9 H :    0.129040
  10 H :    0.132657
  11 H :    0.133372
  12 H :    0.130665
  13 H :    0.137115
  14 H :    0.141906
  15 H :    0.146691
  16 H :    0.142546
  17 H :    0.136527

  Mayer bond orders larger than 0.1
B(  0-C ,  1-C ) :   0.8343 B(  0-C ,  9-H ) :   0.9392 B(  0-C , 10-H ) :   0.9368
B(  0-C , 11-H ) :   0.9407 B(  1-C ,  2-C ) :   0.9053 B(  1-C ,  5-C ) :   0.8989
B(  1-C ,  8-C ) :   0.8292 B(  2-C ,  3-C ) :   0.9215 B(  2-C ,  4-N ) :   0.8631
B(  2-C , 12-H ) :   0.8894 B(  3-C ,  4-N ) :   0.8764 B(  3-C ,  8-C ) :   0.9502
B(  3-C , 13-H ) :   0.9054 B(  4-N ,  5-C ) :   0.9442 B(  5-C ,  6-C ) :   0.9662
B(  5-C , 14-H ) :   0.9053 B(  6-C ,  7-C ) :   0.9564 B(  6-C , 15-H ) :   0.9070
B(  6-C , 16-H ) :   0.8983 B(  7-C ,  8-C ) :   1.7032 B(  7-C , 17-H ) :   0.9219

MP2 TOTAL ENERGY:     -364.009887959 Eh
FINAL SINGLE POINT ENERGY      -364.009887958614

DIPOLE MOMENT
-------------
                                X             Y             Z
Electronic contribution:     -0.81197      -3.85849      -2.08541
Nuclear contribution   :      0.83633       4.29045       2.20345
                        -----------------------------------------
Total Dipole Moment    :      0.02435       0.43195       0.11804
                        -----------------------------------------
Magnitude (a.u.)       :      0.44845
Magnitude (Debye)      :      1.13988

                             ****ORCA TERMINATED NORMALLY****
TOTAL RUN TIME: 0 days 0 hours 22 minutes 29 seconds 733 msec
