                         Program Version 3.0.3 - RELEASE   -
|  1> ! RI-MP2 RIJK def2-TZVP def2-TZVP/C def2-TZVP/JK TIGHTSCF
|  2> % maxcore 2000
|  3> % mp2 density relaxed end
|  4> *xyz 0 1
|  5>  C        0.0344708747     1.5696467605     0.0479378275
|  6>  C        0.0117700601     0.0448308768     0.0415750198
|  7>  O        0.6928343631    -0.4721106547     1.1875923524
|  8>  C        2.0263770943    -0.6541531718     1.0885104922
|  9>  N        2.6912808775    -1.0102591340     2.0982162886
| 10>  C       -1.4125309859    -0.5550007667     0.0541424066
| 11>  C       -1.4000843286    -2.0946304716     0.0306533342
| 12>  C       -2.1926303475    -0.0566701789     1.1934195876
| 13>  N       -2.8260459243     0.3343492795     2.0771028227
| 14>  H        1.0645134999     1.9347642406     0.0072236185
| 15>  H       -0.5022348136     1.9671375173    -0.8192756291
| 16>  H       -0.4327956112     1.9544620264     0.9579012088
| 17>  H        0.5014535862    -0.3335751552    -0.8674439711
| 18>  H        2.4169721117    -0.4768072489     0.0760167309
| 19>  H        3.6712379145    -1.1246743116     1.8484098865
| 20>  H       -1.9102463498    -0.1881535496    -0.8525360742
| 21>  H       -0.8967174689    -2.4845299870     0.9166481846
| 22>  H       -2.4184561382    -2.4881188193     0.0027186095
| 23>  H       -0.8690171440    -2.4469114119    -0.8588161861
| 24> *
| 25>
| 26>                          ****END OF INPUT****

CARTESIAN COORDINATES (ANGSTROEM)
---------------------------------
  C      0.034471    1.569647    0.047938
  C      0.011770    0.044831    0.041575
  O      0.692834   -0.472111    1.187592
  C      2.026377   -0.654153    1.088510
  N      2.691281   -1.010259    2.098216
  C     -1.412531   -0.555001    0.054142
  C     -1.400084   -2.094630    0.030653
  C     -2.192630   -0.056670    1.193420
  N     -2.826046    0.334349    2.077103
  H      1.064513    1.934764    0.007224
  H     -0.502235    1.967138   -0.819276
  H     -0.432796    1.954462    0.957901
  H      0.501454   -0.333575   -0.867444
  H      2.416972   -0.476807    0.076017
  H      3.671238   -1.124674    1.848410
  H     -1.910246   -0.188154   -0.852536
  H     -0.896717   -2.484530    0.916648
  H     -2.418456   -2.488119    0.002719
  H     -0.869017   -2.446911   -0.858816

 Total Charge           Charge          ....    0
 Multiplicity           Mult            ....    1
 Number of Electrons    NEL             ....   68
 Basis Dimension        Dim             ....  339

ORBITAL ENERGIES
----------------

  NO   OCC          E(Eh)            E(eV)
   0   2.0000     -20.603547      -560.6510
   1   2.0000     -15.568599      -423.6431
   2   2.0000     -15.549105      -423.1126
   3   2.0000     -11.348857      -308.8181
   4   2.0000     -11.328912      -308.2754
   5   2.0000     -11.296627      -307.3969
   6   2.0000     -11.271244      -306.7061
   7   2.0000     -11.246635      -306.0365
   8   2.0000     -11.242001      -305.9104
   9   2.0000      -1.442459       -39.2513
  10   2.0000      -1.221374       -33.2353
  11   2.0000      -1.209249       -32.9053
  12   2.0000      -1.117430       -30.4068
  13   2.0000      -1.027426       -27.9577
  14   2.0000      -0.917921       -24.9779
  15   2.0000      -0.881014       -23.9736
  16   2.0000      -0.836542       -22.7635
  17   2.0000      -0.746690       -20.3185
  18   2.0000      -0.695186       -18.9170
  19   2.0000      -0.672872       -18.3098
  20   2.0000      -0.663720       -18.0607
  21   2.0000      -0.630770       -17.1641
  22   2.0000      -0.600870       -16.3505
  23   2.0000      -0.582975       -15.8636
  24   2.0000      -0.575405       -15.6576
  25   2.0000      -0.555992       -15.1293
  26   2.0000      -0.546847       -14.8805
  27   2.0000      -0.539827       -14.6894
  28   2.0000      -0.517706       -14.0875
  29   2.0000      -0.513490       -13.9728
  30   2.0000      -0.457472       -12.4485
  31   2.0000      -0.456178       -12.4132
  32   2.0000      -0.445839       -12.1319
  33   2.0000      -0.410884       -11.1807
  34   0.0000       0.110052         2.9947
  35   0.0000       0.135583         3.6894
  36   0.0000       0.137547         3.7428
  37   0.0000       0.151707         4.1282
  38   0.0000       0.167861         4.5677

MULLIKEN ATOMIC CHARGES
-----------------------
   0 C :   -0.392748
   1 C :    0.014524
   2 O :   -0.219035
   3 C :    0.059632
   4 N :   -0.335936
   5 C :    0.109301
   6 C :   -0.421605
   7 C :   -0.224998
   8 N :   -0.050033
   9 H :    0.139549
  10 H :    0.135499
  11 H :    0.174040
  12 H :    0.107357
  13 H :    0.082206
  14 H :    0.226823
  15 H :    0.133888
  16 H :    0.173592
  17 H :    0.154095
  18 H :    0.133848
Sum of atomic charges:   -0.0000000

LOEWDIN ATOMIC CHARGES
----------------------
   0 C :   -0.280504
   1 C :   -0.305730
   2 O :    0.274273
   3 C :   -0.400908
   4 N :   -0.073601
   5 C :   -0.247723
   6 C :   -0.263447
   7 C :   -0.169706
   8 N :    0.067696
   9 H :    0.128619
  10 H :    0.131420
  11 H :    0.140252
  12 H :    0.143798
  13 H :    0.107400
  14 H :    0.169351
  15 H :    0.180720
  16 H :    0.138054
  17 H :    0.132659
  18 H :    0.127377

  Mayer bond orders larger than 0.1
B(  0-C ,  1-C ) :   0.9351 B(  0-C ,  9-H ) :   0.9255 B(  0-C , 10-H ) :   0.9303
B(  0-C , 11-H ) :   0.9271 B(  1-C ,  2-O ) :   0.8625 B(  1-C ,  5-C ) :   0.8807
B(  1-C , 12-H ) :   0.9303 B(  2-O ,  3-C ) :   1.0416 B(  3-C ,  4-N ) :   1.9628
B(  3-C , 13-H ) :   0.9203 B(  4-N , 14-H ) :   0.8480 B(  5-C ,  6-C ) :   0.8814
B(  5-C ,  7-C ) :   0.9206 B(  5-C , 15-H ) :   0.9091 B(  6-C , 16-H ) :   0.9291
B(  6-C , 17-H ) :   0.9321 B(  6-C , 18-H ) :   0.9326 B(  7-C ,  8-N ) :   2.8668

MP2 TOTAL ENERGY:     -418.517229861 Eh
FINAL SINGLE POINT ENERGY      -418.517229861319

DIPOLE MOMENT
-------------
                                X             Y             Z
Electronic contribution:     -1.57069       0.23530       5.19153
Nuclear contribution   :      2.48943      -0.35910      -7.58272
                        -----------------------------------------
Total Dipole Moment    :      0.91874      -0.12381      -2.39120
                        -----------------------------------------
Magnitude (a.u.)       :      2.56461
Magnitude (Debye)      :      6.51872

                             ****ORCA TERMINATED NORMALLY****
TOTAL RUN TIME: 0 days 0 hours 18 minutes 25 seconds 128 msec
