                         Program Version 3.0.3 - RELEASE   -
|  1> ! RI-MP2 RIJK def2-TZVP def2-TZVP/C def2-TZVP/JK TIGHTSCF
|  2> % maxcore 2000
|  3> % mp2 density relaxed end
|  4> *xyz 0 1
|  5>  C        0.1221385480     1.7240936857     0.1929612198
|  6>  C       -0.0056232438     0.2119099317     0.0611747271
|  7>  C       -1.3881554003    -0.2768650987     0.3900294767
|  8>  O       -1.9499722349    -1.1818147425    -0.1788388709
|  9>  C        0.5797469854    -0.4597799627    -1.1889566121
| 10>  O        1.9880276610    -0.1736691069    -1.2049232635
| 11>  C        1.5186758888    -1.2804956563    -0.4156659498
| 12>  C        1.0651646806    -0.6680226173     0.9142927130
| 13>  O        2.0226816666     0.0141549297     1.6568860047
| 14>  H        1.1252683421     2.0495232660    -0.0896717894
| 15>  H       -0.5935371419     2.2408821061    -0.4554149396
| 16>  H       -0.0594229130     2.0405744082     1.2247016306
| 17>  H       -1.8698176953     0.2494990367     1.2463520190
| 18>  H        0.0970550093    -0.6672683663    -2.1348143560
| 19>  H        1.9508922678    -2.2537872917    -0.6148915829
| 20>  H        0.5680337149    -1.3780068044     1.5790460219
| 21>  H        2.5844801649     0.4762130527     1.0210088513
| 22> *
| 23>
| 24>                          ****END OF INPUT****

CARTESIAN COORDINATES (ANGSTROEM)
---------------------------------
  C      0.122139    1.724094    0.192961
  C     -0.005623    0.211910    0.061175
  C     -1.388155   -0.276865    0.390029
  O     -1.949972   -1.181815   -0.178839
  C      0.579747   -0.459780   -1.188957
  O      1.988028   -0.173669   -1.204923
  C      1.518676   -1.280496   -0.415666
  C      1.065165   -0.668023    0.914293
  O      2.022682    0.014155    1.656886
  H      1.125268    2.049523   -0.089672
  H     -0.593537    2.240882   -0.455415
  H     -0.059423    2.040574    1.224702
  H     -1.869818    0.249499    1.246352
  H      0.097055   -0.667268   -2.134814
  H      1.950892   -2.253787   -0.614892
  H      0.568034   -1.378007    1.579046
  H      2.584480    0.476213    1.021009

 Total Charge           Charge          ....    0
 Multiplicity           Mult            ....    1
 Number of Electrons    NEL             ....   68
 Basis Dimension        Dim             ....  327

ORBITAL ENERGIES
----------------

  NO   OCC          E(Eh)            E(eV)
   0   2.0000     -20.589480      -560.2682
   1   2.0000     -20.576708      -559.9207
   2   2.0000     -20.568206      -559.6893
   3   2.0000     -11.342497      -308.6450
   4   2.0000     -11.315346      -307.9062
   5   2.0000     -11.304664      -307.6155
   6   2.0000     -11.300975      -307.5152
   7   2.0000     -11.267359      -306.6004
   8   2.0000     -11.237258      -305.7813
   9   2.0000      -1.442677       -39.2572
  10   2.0000      -1.406211       -38.2649
  11   2.0000      -1.384711       -37.6799
  12   2.0000      -1.118740       -30.4425
  13   2.0000      -1.002780       -27.2870
  14   2.0000      -0.907538       -24.6954
  15   2.0000      -0.893671       -24.3180
  16   2.0000      -0.837911       -22.8007
  17   2.0000      -0.784402       -21.3447
  18   2.0000      -0.730126       -19.8677
  19   2.0000      -0.679813       -18.4987
  20   2.0000      -0.667374       -18.1602
  21   2.0000      -0.658659       -17.9230
  22   2.0000      -0.634661       -17.2700
  23   2.0000      -0.623209       -16.9584
  24   2.0000      -0.574982       -15.6461
  25   2.0000      -0.562388       -15.3034
  26   2.0000      -0.554937       -15.1006
  27   2.0000      -0.545332       -14.8393
  28   2.0000      -0.535967       -14.5844
  29   2.0000      -0.511027       -13.9058
  30   2.0000      -0.487205       -13.2575
  31   2.0000      -0.436519       -11.8783
  32   2.0000      -0.425019       -11.5653
  33   2.0000      -0.416109       -11.3229
  34   0.0000       0.115998         3.1565
  35   0.0000       0.139508         3.7962
  36   0.0000       0.155106         4.2207
  37   0.0000       0.163008         4.4357
  38   0.0000       0.178220         4.8496

MULLIKEN ATOMIC CHARGES
-----------------------
   0 C :   -0.443061
   1 C :    0.180838
   2 C :    0.017178
   3 O :   -0.270002
   4 C :    0.012261
   5 O :   -0.336953
   6 C :   -0.059911
   7 C :    0.041151
   8 O :   -0.444129
   9 H :    0.141464
  10 H :    0.145246
  11 H :    0.150679
  12 H :    0.091070
  13 H :    0.158597
  14 H :    0.145715
  15 H :    0.134086
  16 H :    0.335771
Sum of atomic charges:   -0.0000000

LOEWDIN ATOMIC CHARGES
----------------------
   0 C :   -0.267441
   1 C :   -0.248143
   2 C :   -0.257614
   3 O :    0.138564
   4 C :   -0.191211
   5 O :    0.166825
   6 C :   -0.221917
   7 C :   -0.263964
   8 O :    0.016626
   9 H :    0.131695
  10 H :    0.131815
  11 H :    0.134409
  12 H :    0.120015
  13 H :    0.139820
  14 H :    0.134065
  15 H :    0.149208
  16 H :    0.187248

  Mayer bond orders larger than 0.1
B(  0-C ,  1-C ) :   0.9021 B(  0-C ,  9-H ) :   0.9305 B(  0-C , 10-H ) :   0.9348
B(  0-C , 11-H ) :   0.9254 B(  1-C ,  2-C ) :   0.8288 B(  1-C ,  3-O ) :  -0.1009
B(  1-C ,  4-C ) :   0.8591 B(  1-C ,  7-C ) :   0.8310 B(  2-C ,  3-O ) :   2.0009
B(  2-C , 12-H ) :   0.9566 B(  4-C ,  5-O ) :   0.8894 B(  4-C ,  6-C ) :   0.9306
B(  4-C , 13-H ) :   0.9000 B(  5-O ,  6-C ) :   0.8824 B(  6-C ,  7-C ) :   0.9263
B(  6-C , 14-H ) :   0.9309 B(  7-C ,  8-O ) :   1.0110 B(  7-C , 15-H ) :   0.9207
B(  8-O , 16-H ) :   0.8232

MP2 TOTAL ENERGY:     -458.193740397 Eh
FINAL SINGLE POINT ENERGY      -458.193740397371

DIPOLE MOMENT
-------------
                                X             Y             Z
Electronic contribution:      0.05379      -3.85560      -1.33537
Nuclear contribution   :      0.09072       4.19823       1.34022
                        -----------------------------------------
Total Dipole Moment    :      0.14451       0.34263       0.00485
                        -----------------------------------------
Magnitude (a.u.)       :      0.37189
Magnitude (Debye)      :      0.94527

                             ****ORCA TERMINATED NORMALLY****
TOTAL RUN TIME: 0 days 0 hours 17 minutes 32 seconds 26 msec
