                         Program Version 3.0.3 - RELEASE   -
|  1> ! RI-MP2 RIJK def2-TZVP def2-TZVP/C def2-TZVP/JK TIGHTSCF
|  2> % maxcore 2000
|  3> % mp2 density relaxed end
|  4> *xyz 0 1
|  5>  O        0.0096189593    -0.0653571624     0.0046614881
|  6>  C        0.0348362489     1.1493794467     0.0103018024
|  7>  N       -1.0627623906     1.9994236931     0.0287678267
|  8>  C       -0.7518458904     3.4287352488     0.0302969596
|  9>  C        0.7514325021     3.3982236687     0.0093222789
| 10>  C        1.1624698334     2.0894685523    -0.0018287162
| 11>  N        2.5245219883     2.0496376634    -0.0214042661
| 12>  C        2.9867202832     3.3441572154    -0.0221682149
| 13>  C        1.9074095404     4.2137199695    -0.0032329237
| 14>  H       -1.9980495695     1.6306135633     0.0389597843
| 15>  H       -1.1799968576     3.9320941884    -0.8472535242
| 16>  H       -1.1555409875     3.9248658099     0.9234067999
| 17>  H        3.0894435805     1.2177743459    -0.0329579941
| 18>  H        4.0453528824     3.5506770323    -0.0361279763
| 19>  H        1.9736965172     5.2907143647     0.0004727856
| 20> *
| 21>
| 22>                          ****END OF INPUT****

CARTESIAN COORDINATES (ANGSTROEM)
---------------------------------
  O      0.009619   -0.065357    0.004661
  C      0.034836    1.149379    0.010302
  N     -1.062762    1.999424    0.028768
  C     -0.751846    3.428735    0.030297
  C      0.751433    3.398224    0.009322
  C      1.162470    2.089469   -0.001829
  N      2.524522    2.049638   -0.021404
  C      2.986720    3.344157   -0.022168
  C      1.907410    4.213720   -0.003233
  H     -1.998050    1.630614    0.038960
  H     -1.179997    3.932094   -0.847254
  H     -1.155541    3.924866    0.923407
  H      3.089444    1.217774   -0.032958
  H      4.045353    3.550677   -0.036128
  H      1.973697    5.290714    0.000473

 Total Charge           Charge          ....    0
 Multiplicity           Mult            ....    1
 Number of Electrons    NEL             ....   64
 Basis Dimension        Dim             ....  315

ORBITAL ENERGIES
----------------

  NO   OCC          E(Eh)            E(eV)
   0   2.0000     -20.513120      -558.1904
   1   2.0000     -15.624042      -425.1518
   2   2.0000     -15.576533      -423.8590
   3   2.0000     -11.352206      -308.9092
   4   2.0000     -11.284939      -307.0788
   5   2.0000     -11.280057      -306.9460
   6   2.0000     -11.256010      -306.2916
   7   2.0000     -11.237693      -305.7932
   8   2.0000     -11.232156      -305.6425
   9   2.0000      -1.376101       -37.4456
  10   2.0000      -1.311578       -35.6899
  11   2.0000      -1.242519       -33.8107
  12   2.0000      -1.072168       -29.1752
  13   2.0000      -1.013188       -27.5702
  14   2.0000      -0.959826       -26.1182
  15   2.0000      -0.849108       -23.1054
  16   2.0000      -0.803741       -21.8709
  17   2.0000      -0.768620       -20.9152
  18   2.0000      -0.698889       -19.0177
  19   2.0000      -0.670504       -18.2453
  20   2.0000      -0.650921       -17.7125
  21   2.0000      -0.635106       -17.2821
  22   2.0000      -0.603680       -16.4270
  23   2.0000      -0.592061       -16.1108
  24   2.0000      -0.579702       -15.7745
  25   2.0000      -0.554134       -15.0787
  26   2.0000      -0.539183       -14.6719
  27   2.0000      -0.536454       -14.5977
  28   2.0000      -0.421880       -11.4799
  29   2.0000      -0.392934       -10.6923
  30   2.0000      -0.363128        -9.8812
  31   2.0000      -0.315481        -8.5847
  32   0.0000       0.119729         3.2580
  33   0.0000       0.137386         3.7385
  34   0.0000       0.140318         3.8182
  35   0.0000       0.166113         4.5202
  36   0.0000       0.174504         4.7485

MULLIKEN ATOMIC CHARGES
-----------------------
   0 O :   -0.351204
   1 C :    0.168915
   2 N :   -0.300315
   3 C :   -0.079844
   4 C :    0.000029
   5 C :    0.084741
   6 N :   -0.275565
   7 C :   -0.020393
   8 C :   -0.281362
   9 H :    0.240570
  10 H :    0.133061
  11 H :    0.133036
  12 H :    0.260598
  13 H :    0.151580
  14 H :    0.136153
Sum of atomic charges:    0.0000000

LOEWDIN ATOMIC CHARGES
----------------------
   0 O :    0.070346
   1 C :   -0.422914
   2 N :    0.117576
   3 C :   -0.220588
   4 C :   -0.142538
   5 C :   -0.177636
   6 N :    0.219255
   7 C :   -0.212768
   8 C :   -0.165655
   9 H :    0.179897
  10 H :    0.139241
  11 H :    0.139227
  12 H :    0.201019
  13 H :    0.134281
  14 H :    0.141257

  Mayer bond orders larger than 0.1
B(  0-O ,  1-C ) :   2.0333 B(  1-C ,  2-N ) :   1.1924 B(  1-C ,  5-C ) :   0.9075
B(  2-N ,  3-C ) :   0.9111 B(  2-N ,  5-C ) :  -0.1233 B(  2-N ,  9-H ) :   0.8667
B(  3-C ,  4-C ) :   0.9720 B(  3-C , 10-H ) :   0.9109 B(  3-C , 11-H ) :   0.9109
B(  4-C ,  5-C ) :   1.3490 B(  4-C ,  8-C ) :   1.2661 B(  5-C ,  6-N ) :   1.1383
B(  6-N ,  7-C ) :   1.1289 B(  6-N , 12-H ) :   0.8634 B(  7-C ,  8-C ) :   1.4705
B(  7-C , 13-H ) :   0.9194 B(  8-C , 14-H ) :   0.9293

MP2 TOTAL ENERGY:     -416.173178119 Eh
FINAL SINGLE POINT ENERGY      -416.173178118881

DIPOLE MOMENT
-------------
                                X             Y             Z
Electronic contribution:      0.38322      -3.90782      -0.02066
Nuclear contribution   :     -0.07764       5.06828       0.02072
                        -----------------------------------------
Total Dipole Moment    :      0.30557       1.16045       0.00006
                        -----------------------------------------
Magnitude (a.u.)       :      1.20001
Magnitude (Debye)      :      3.05018

                             ****ORCA TERMINATED NORMALLY****
TOTAL RUN TIME: 0 days 0 hours 15 minutes 33 seconds 281 msec
