                         Program Version 3.0.3 - RELEASE   -
|  1> ! RI-MP2 RIJK def2-TZVP def2-TZVP/C def2-TZVP/JK TIGHTSCF
|  2> % maxcore 2000
|  3> % mp2 density relaxed end
|  4> *xyz 0 1
|  5>  C       -0.0499739225     1.4654485555    -0.0386210388
|  6>  C       -0.0108999373    -0.0288306255    -0.0248736061
|  7>  C        0.0098358343    -0.8723085652    -1.0597718168
|  8>  C        0.0198723890    -2.3064422213    -0.5807425708
|  9>  C        1.1278076425    -3.1817420996    -1.1515517353
| 10>  O        1.5827096665    -3.0607393674    -2.2586883359
| 11>  N        0.0716835760    -2.2515775112     0.9005886350
| 12>  C        1.2866335490    -1.6164763082     1.4416264129
| 13>  C        0.0449500273    -0.8142769487     1.2493784403
| 14>  H        0.8307021329     1.8898477438     0.4590446603
| 15>  H       -0.0899890298     1.8563862907    -1.0580337612
| 16>  H       -0.9266003408     1.8396287679     0.5047460221
| 17>  H        0.0509785666    -0.6081552415    -2.1084792033
| 18>  H       -0.9153770898    -2.8227461931    -0.8613672454
| 19>  H        1.4758137884    -3.9789245694    -0.4572371826
| 20>  H        1.5664594056    -1.9737154371     2.4286110183
| 21>  H        2.1170065474    -1.4037288829     0.7712436385
| 22>  H       -0.5589133252    -0.5155394468     2.1030470888
| 23> *
| 24>
| 25>                          ****END OF INPUT****

CARTESIAN COORDINATES (ANGSTROEM)
---------------------------------
  C     -0.049974    1.465449   -0.038621
  C     -0.010900   -0.028831   -0.024874
  C      0.009836   -0.872309   -1.059772
  C      0.019872   -2.306442   -0.580743
  C      1.127808   -3.181742   -1.151552
  O      1.582710   -3.060739   -2.258688
  N      0.071684   -2.251578    0.900589
  C      1.286634   -1.616476    1.441626
  C      0.044950   -0.814277    1.249378
  H      0.830702    1.889848    0.459045
  H     -0.089989    1.856386   -1.058034
  H     -0.926600    1.839629    0.504746
  H      0.050979   -0.608155   -2.108479
  H     -0.915377   -2.822746   -0.861367
  H      1.475814   -3.978925   -0.457237
  H      1.566459   -1.973715    2.428611
  H      2.117007   -1.403729    0.771244
  H     -0.558913   -0.515539    2.103047

 Total Charge           Charge          ....    0
 Multiplicity           Mult            ....    1
 Number of Electrons    NEL             ....   66
 Basis Dimension        Dim             ....  333

ORBITAL ENERGIES
----------------

  NO   OCC          E(Eh)            E(eV)
   0   2.0000     -20.560469      -559.4788
   1   2.0000     -15.574488      -423.8034
   2   2.0000     -11.334262      -308.4210
   3   2.0000     -11.278024      -306.8906
   4   2.0000     -11.272825      -306.7492
   5   2.0000     -11.267841      -306.6135
   6   2.0000     -11.249632      -306.1180
   7   2.0000     -11.236357      -305.7568
   8   2.0000     -11.231786      -305.6324
   9   2.0000      -1.400554       -38.1110
  10   2.0000      -1.300367       -35.3848
  11   2.0000      -1.090245       -29.6671
  12   2.0000      -1.045047       -28.4372
  13   2.0000      -0.945943       -25.7404
  14   2.0000      -0.874788       -23.8042
  15   2.0000      -0.850856       -23.1530
  16   2.0000      -0.781057       -21.2536
  17   2.0000      -0.745873       -20.2962
  18   2.0000      -0.688913       -18.7463
  19   2.0000      -0.663636       -18.0584
  20   2.0000      -0.645311       -17.5598
  21   2.0000      -0.618123       -16.8200
  22   2.0000      -0.603191       -16.4137
  23   2.0000      -0.586307       -15.9542
  24   2.0000      -0.579629       -15.7725
  25   2.0000      -0.544617       -14.8198
  26   2.0000      -0.510826       -13.9003
  27   2.0000      -0.505940       -13.7673
  28   2.0000      -0.491959       -13.3869
  29   2.0000      -0.477956       -13.0058
  30   2.0000      -0.419835       -11.4243
  31   2.0000      -0.412021       -11.2117
  32   2.0000      -0.340173        -9.2566
  33   0.0000       0.128667         3.5012
  34   0.0000       0.136930         3.7261
  35   0.0000       0.143133         3.8949
  36   0.0000       0.164896         4.4870
  37   0.0000       0.169996         4.6258

MULLIKEN ATOMIC CHARGES
-----------------------
   0 C :   -0.432384
   1 C :    0.035720
   2 C :   -0.270933
   3 C :    0.139519
   4 C :    0.050270
   5 O :   -0.258944
   6 N :   -0.247969
   7 C :   -0.200127
   8 C :   -0.036777
   9 H :    0.144520
  10 H :    0.145214
  11 H :    0.145221
  12 H :    0.144052
  13 H :    0.126909
  14 H :    0.101212
  15 H :    0.134009
  16 H :    0.143515
  17 H :    0.136973
Sum of atomic charges:    0.0000000

LOEWDIN ATOMIC CHARGES
----------------------
   0 C :   -0.266265
   1 C :   -0.175350
   2 C :   -0.111349
   3 C :   -0.262578
   4 C :   -0.267632
   5 O :    0.140882
   6 N :    0.137233
   7 C :   -0.232670
   8 C :   -0.199359
   9 H :    0.134173
  10 H :    0.133387
  11 H :    0.134312
  12 H :    0.146083
  13 H :    0.166829
  14 H :    0.118131
  15 H :    0.127351
  16 H :    0.133174
  17 H :    0.143648

  Mayer bond orders larger than 0.1
B(  0-C ,  1-C ) :   0.8871 B(  0-C ,  9-H ) :   0.9262 B(  0-C , 10-H ) :   0.9459
B(  0-C , 11-H ) :   0.9336 B(  1-C ,  2-C ) :   1.7460 B(  1-C ,  8-C ) :   0.9503
B(  2-C ,  3-C ) :   0.9458 B(  2-C , 12-H ) :   0.9135 B(  3-C ,  4-C ) :   0.8372
B(  3-C ,  6-N ) :   0.9341 B(  3-C , 13-H ) :   0.8739 B(  4-C ,  5-O ) :   2.0129
B(  4-C , 14-H ) :   0.9455 B(  6-N ,  7-C ) :   0.8577 B(  6-N ,  8-C ) :   0.9366
B(  7-C ,  8-C ) :   0.9072 B(  7-C , 15-H ) :   0.9247 B(  7-C , 16-H ) :   0.9116
B(  8-C , 17-H ) :   0.9012

MP2 TOTAL ENERGY:     -401.236477813 Eh
FINAL SINGLE POINT ENERGY      -401.236477812664

DIPOLE MOMENT
-------------
                                X             Y             Z
Electronic contribution:      0.51896      -5.88391      -2.63663
Nuclear contribution   :     -0.70519       6.57869       3.27198
                        -----------------------------------------
Total Dipole Moment    :     -0.18624       0.69478       0.63535
                        -----------------------------------------
Magnitude (a.u.)       :      0.95972
Magnitude (Debye)      :      2.43942

                             ****ORCA TERMINATED NORMALLY****
TOTAL RUN TIME: 0 days 0 hours 18 minutes 14 seconds 248 msec
