                         Program Version 3.0.3 - RELEASE   -
|  1> ! RI-MP2 RIJK def2-TZVP def2-TZVP/C def2-TZVP/JK TIGHTSCF
|  2> % maxcore 2000
|  3> % mp2 density relaxed end
|  4> *xyz 0 1
|  5>  C        0.0039807520     1.5335146978     0.0646195136
|  6>  C        0.0292874588     0.0163799928     0.0254663696
|  7>  C        0.6613609665    -0.5531086365    -1.2492471683
|  8>  C        0.9217798704    -2.0378018212    -1.1422999293
|  9>  N        0.8646357846    -2.8006092607    -2.1489743050
| 10>  O        1.3221135470    -2.4844631781     0.0896851363
| 11>  C        0.7741658456    -1.8204195731     1.2342217328
| 12>  O        0.8011329255    -0.4391728683     1.1416936259
| 13>  H        1.0203622837     1.9326687880    -0.0057924868
| 14>  H       -0.5828659992     1.9258856593    -0.7709741395
| 15>  H       -0.4409327855     1.8843604622     0.9993566259
| 16>  H       -0.9966944193    -0.3761490940     0.1305947256
| 17>  H        0.0465101910    -0.3682661242    -2.1317717471
| 18>  H        1.6283561617    -0.0563290809    -1.4004841131
| 19>  H        1.1104873697    -3.7552006314    -1.8765981102
| 20>  H       -0.2579335057    -2.1847073115     1.3745167353
| 21>  H        1.3994327432    -2.1153787203     2.0781854144
| 22> *
| 23>
| 24>                          ****END OF INPUT****

CARTESIAN COORDINATES (ANGSTROEM)
---------------------------------
  C      0.003981    1.533515    0.064620
  C      0.029287    0.016380    0.025466
  C      0.661361   -0.553109   -1.249247
  C      0.921780   -2.037802   -1.142300
  N      0.864636   -2.800609   -2.148974
  O      1.322114   -2.484463    0.089685
  C      0.774166   -1.820420    1.234222
  O      0.801133   -0.439173    1.141694
  H      1.020362    1.932669   -0.005792
  H     -0.582866    1.925886   -0.770974
  H     -0.440933    1.884360    0.999357
  H     -0.996694   -0.376149    0.130595
  H      0.046510   -0.368266   -2.131772
  H      1.628356   -0.056329   -1.400484
  H      1.110487   -3.755201   -1.876598
  H     -0.257934   -2.184707    1.374517
  H      1.399433   -2.115379    2.078185

 Total Charge           Charge          ....    0
 Multiplicity           Mult            ....    1
 Number of Electrons    NEL             ....   62
 Basis Dimension        Dim             ....  302

ORBITAL ENERGIES
----------------

  NO   OCC          E(Eh)            E(eV)
   0   2.0000     -20.593869      -560.3877
   1   2.0000     -20.581636      -560.0548
   2   2.0000     -15.534955      -422.7276
   3   2.0000     -11.350028      -308.8500
   4   2.0000     -11.339262      -308.5570
   5   2.0000     -11.303162      -307.5747
   6   2.0000     -11.243826      -305.9601
   7   2.0000     -11.230008      -305.5840
   8   2.0000      -1.453683       -39.5567
   9   2.0000      -1.382308       -37.6145
  10   2.0000      -1.198860       -32.6226
  11   2.0000      -1.080011       -29.3886
  12   2.0000      -0.980395       -26.6779
  13   2.0000      -0.935595       -25.4588
  14   2.0000      -0.841422       -22.8963
  15   2.0000      -0.775450       -21.1011
  16   2.0000      -0.716280       -19.4910
  17   2.0000      -0.701091       -19.0776
  18   2.0000      -0.683235       -18.5918
  19   2.0000      -0.652455       -17.7542
  20   2.0000      -0.627623       -17.0785
  21   2.0000      -0.606403       -16.5011
  22   2.0000      -0.569258       -15.4903
  23   2.0000      -0.553501       -15.0615
  24   2.0000      -0.548972       -14.9383
  25   2.0000      -0.521313       -14.1857
  26   2.0000      -0.499756       -13.5991
  27   2.0000      -0.481522       -13.1029
  28   2.0000      -0.456929       -12.4337
  29   2.0000      -0.438377       -11.9289
  30   2.0000      -0.401856       -10.9351
  31   0.0000       0.132094         3.5945
  32   0.0000       0.152256         4.1431
  33   0.0000       0.163531         4.4499
  34   0.0000       0.174949         4.7606
  35   0.0000       0.185702         5.0532

MULLIKEN ATOMIC CHARGES
-----------------------
   0 C :   -0.367628
   1 C :    0.044157
   2 C :   -0.131381
   3 C :    0.087982
   4 N :   -0.360631
   5 O :   -0.268591
   6 C :    0.065770
   7 O :   -0.289220
   8 H :    0.134962
   9 H :    0.130754
  10 H :    0.142911
  11 H :    0.087594
  12 H :    0.135032
  13 H :    0.129945
  14 H :    0.220495
  15 H :    0.096947
  16 H :    0.140901
Sum of atomic charges:   -0.0000000

LOEWDIN ATOMIC CHARGES
----------------------
   0 C :   -0.285477
   1 C :   -0.336745
   2 C :   -0.206646
   3 C :   -0.410824
   4 N :   -0.049372
   5 O :    0.217304
   6 C :   -0.371127
   7 O :    0.193030
   8 H :    0.129537
   9 H :    0.130606
  10 H :    0.129097
  11 H :    0.139588
  12 H :    0.156779
  13 H :    0.159868
  14 H :    0.167104
  15 H :    0.110629
  16 H :    0.126648

  Mayer bond orders larger than 0.1
B(  0-C ,  1-C ) :   0.9220 B(  0-C ,  8-H ) :   0.9352 B(  0-C ,  9-H ) :   0.9310
B(  0-C , 10-H ) :   0.9375 B(  1-C ,  2-C ) :   0.9215 B(  1-C ,  7-O ) :   0.8946
B(  1-C , 11-H ) :   0.9308 B(  2-C ,  3-C ) :   0.9171 B(  2-C , 12-H ) :   0.9047
B(  2-C , 13-H ) :   0.9042 B(  3-C ,  4-N ) :   2.0559 B(  3-C ,  5-O ) :   1.0646
B(  4-N , 14-H ) :   0.8558 B(  5-O ,  6-C ) :   0.8995 B(  6-C ,  7-O ) :   1.0173
B(  6-C , 15-H ) :   0.9323 B(  6-C , 16-H ) :   0.9299

MP2 TOTAL ENERGY:     -400.369234741 Eh
FINAL SINGLE POINT ENERGY      -400.369234740920

DIPOLE MOMENT
-------------
                                X             Y             Z
Electronic contribution:      2.50675      -5.68621       0.31590
Nuclear contribution   :     -2.94337       6.11635       0.33138
                        -----------------------------------------
Total Dipole Moment    :     -0.43661       0.43014       0.64729
                        -----------------------------------------
Magnitude (a.u.)       :      0.89142
Magnitude (Debye)      :      2.26581

                             ****ORCA TERMINATED NORMALLY****
TOTAL RUN TIME: 0 days 0 hours 12 minutes 2 seconds 491 msec
