                         Program Version 3.0.3 - RELEASE   -
|  1> ! RI-MP2 RIJK def2-TZVP def2-TZVP/C def2-TZVP/JK TIGHTSCF
|  2> % maxcore 2000
|  3> % mp2 density relaxed end
|  4> *xyz 0 1
|  5>  C        0.0442982327     1.5066197520     0.0737617184
|  6>  C        0.0924200342    -0.0051070111     0.0435943454
|  7>  C        0.9578312133    -0.8056566919    -1.0035310998
|  8>  C        0.7576081047    -1.9546431520     0.0438448091
|  9>  C        0.8704104937    -0.8331572353     1.1103057970
| 10>  C       -0.7515703974    -2.2098631632    -0.1220572082
| 11>  C       -1.7753627183    -1.7670903874     0.8783561589
| 12>  O       -1.5717616174    -1.7902032203     2.2641343530
| 13>  C       -1.2519082698    -0.7523649323    -0.1166294566
| 14>  H        1.0516204639     1.9333235965     0.1203055442
| 15>  H       -0.4479897739     1.9082117548    -0.8199737523
| 16>  H       -0.5120845420     1.8677391266     0.9464259458
| 17>  H        0.5398901529    -0.9491263828    -2.0048630856
| 18>  H        1.9911027737    -0.4497430502    -1.0673575256
| 19>  H        1.4030785368    -2.8327307180     0.0674572260
| 20>  H        1.9011041993    -0.4766966846     1.1910560656
| 21>  H        0.4363606212    -0.9890863838     2.0921405126
| 22>  H       -1.0535566455    -2.9270100897    -0.8787130082
| 23>  H       -2.7768794430    -2.1090836991     0.6035634980
| 24>  H       -2.1036235520    -1.0840466410     2.6470158186
| 25>  H       -1.9409788670    -0.3705920872    -0.8650009359
| 26> *
| 27>
| 28>                          ****END OF INPUT****

CARTESIAN COORDINATES (ANGSTROEM)
---------------------------------
  C      0.044298    1.506620    0.073762
  C      0.092420   -0.005107    0.043594
  C      0.957831   -0.805657   -1.003531
  C      0.757608   -1.954643    0.043845
  C      0.870410   -0.833157    1.110306
  C     -0.751570   -2.209863   -0.122057
  C     -1.775363   -1.767090    0.878356
  O     -1.571762   -1.790203    2.264134
  C     -1.251908   -0.752365   -0.116629
  H      1.051620    1.933324    0.120306
  H     -0.447990    1.908212   -0.819974
  H     -0.512085    1.867739    0.946426
  H      0.539890   -0.949126   -2.004863
  H      1.991103   -0.449743   -1.067358
  H      1.403079   -2.832731    0.067457
  H      1.901104   -0.476697    1.191056
  H      0.436361   -0.989086    2.092141
  H     -1.053557   -2.927010   -0.878713
  H     -2.776879   -2.109084    0.603563
  H     -2.103624   -1.084047    2.647016
  H     -1.940979   -0.370592   -0.865001

 Total Charge           Charge          ....    0
 Multiplicity           Mult            ....    1
 Number of Electrons    NEL             ....   68
 Basis Dimension        Dim             ....  351

ORBITAL ENERGIES
----------------

  NO   OCC          E(Eh)            E(eV)
   0   2.0000     -20.559772      -559.4598
   1   2.0000     -11.286404      -307.1187
   2   2.0000     -11.239635      -305.8460
   3   2.0000     -11.231346      -305.6204
   4   2.0000     -11.225214      -305.4536
   5   2.0000     -11.224372      -305.4307
   6   2.0000     -11.218393      -305.2680
   7   2.0000     -11.212350      -305.1036
   8   2.0000     -11.207644      -304.9755
   9   2.0000      -1.368738       -37.2453
  10   2.0000      -1.199658       -32.6443
  11   2.0000      -1.071649       -29.1610
  12   2.0000      -0.989944       -26.9378
  13   2.0000      -0.891069       -24.2472
  14   2.0000      -0.872565       -23.7437
  15   2.0000      -0.827586       -22.5198
  16   2.0000      -0.738174       -20.0867
  17   2.0000      -0.735451       -20.0126
  18   2.0000      -0.687722       -18.7139
  19   2.0000      -0.670676       -18.2500
  20   2.0000      -0.621492       -16.9116
  21   2.0000      -0.616861       -16.7857
  22   2.0000      -0.575895       -15.6709
  23   2.0000      -0.567955       -15.4548
  24   2.0000      -0.553874       -15.0717
  25   2.0000      -0.532149       -14.4805
  26   2.0000      -0.513045       -13.9607
  27   2.0000      -0.480691       -13.0803
  28   2.0000      -0.468427       -12.7466
  29   2.0000      -0.447807       -12.1854
  30   2.0000      -0.437256       -11.8983
  31   2.0000      -0.422553       -11.4983
  32   2.0000      -0.392652       -10.6846
  33   2.0000      -0.367656       -10.0044
  34   0.0000       0.130022         3.5381
  35   0.0000       0.152539         4.1508
  36   0.0000       0.156142         4.2488
  37   0.0000       0.170608         4.6425
  38   0.0000       0.187298         5.0966

MULLIKEN ATOMIC CHARGES
-----------------------
   0 C :   -0.395382
   1 C :    0.140075
   2 C :   -0.286266
   3 C :   -0.012349
   4 C :   -0.265000
   5 C :   -0.174238
   6 C :    0.016061
   7 O :   -0.466836
   8 C :   -0.206660
   9 H :    0.130271
  10 H :    0.129285
  11 H :    0.129060
  12 H :    0.112374
  13 H :    0.110483
  14 H :    0.127694
  15 H :    0.107836
  16 H :    0.141455
  17 H :    0.124500
  18 H :    0.099480
  19 H :    0.321919
  20 H :    0.116239
Sum of atomic charges:   -0.0000000

LOEWDIN ATOMIC CHARGES
----------------------
   0 C :   -0.276071
   1 C :   -0.241337
   2 C :   -0.167874
   3 C :   -0.181285
   4 C :   -0.175522
   5 C :   -0.152980
   6 C :   -0.298490
   7 O :   -0.007409
   8 C :   -0.144382
   9 H :    0.126396
  10 H :    0.126814
  11 H :    0.127115
  12 H :    0.126642
  13 H :    0.131499
  14 H :    0.133623
  15 H :    0.137923
  16 H :    0.129580
  17 H :    0.142706
  18 H :    0.140573
  19 H :    0.179902
  20 H :    0.142575

  Mayer bond orders larger than 0.1
B(  0-C ,  1-C ) :   0.8467 B(  0-C ,  9-H ) :   0.9420 B(  0-C , 10-H ) :   0.9404
B(  0-C , 11-H ) :   0.9432 B(  1-C ,  2-C ) :   0.8972 B(  1-C ,  4-C ) :   0.9416
B(  1-C ,  8-C ) :   0.8707 B(  2-C ,  3-C ) :   0.9079 B(  2-C , 12-H ) :   0.9243
B(  2-C , 13-H ) :   0.9197 B(  3-C ,  4-C ) :   0.9286 B(  3-C ,  5-C ) :   0.8815
B(  3-C , 14-H ) :   0.9137 B(  4-C , 15-H ) :   0.9220 B(  4-C , 16-H ) :   0.9045
B(  5-C ,  6-C ) :   0.8759 B(  5-C ,  8-C ) :   0.8840 B(  5-C , 17-H ) :   0.9292
B(  6-C ,  7-O ) :   1.0556 B(  6-C ,  8-C ) :   0.8935 B(  6-C , 18-H ) :   0.9626
B(  7-O , 19-H ) :   0.8411 B(  8-C , 20-H ) :   0.9259

MP2 TOTAL ENERGY:     -386.377166474 Eh
FINAL SINGLE POINT ENERGY      -386.377166474063

DIPOLE MOMENT
-------------
                                X             Y             Z
Electronic contribution:     -2.43504      -4.07027       2.27074
Nuclear contribution   :      2.13102       4.52537      -2.52393
                        -----------------------------------------
Total Dipole Moment    :     -0.30402       0.45511      -0.25318
                        -----------------------------------------
Magnitude (a.u.)       :      0.60304
Magnitude (Debye)      :      1.53279

                             ****ORCA TERMINATED NORMALLY****
TOTAL RUN TIME: 0 days 0 hours 20 minutes 18 seconds 672 msec
