                         Program Version 3.0.3 - RELEASE   -
|  1> ! RI-MP2 RIJK def2-TZVP def2-TZVP/C def2-TZVP/JK TIGHTSCF
|  2> % maxcore 2000
|  3> % mp2 density relaxed end
|  4> *xyz 0 1
|  5>  C       -0.0077401941     1.4842065364    -0.0316037780
|  6>  C        0.0076222092    -0.0323085240     0.0110179234
|  7>  O        0.6607580635    -0.4847006750    -1.1818165511
|  8>  C        0.7889059248    -1.8108641501    -1.3358032805
|  9>  C        1.3881837197    -2.4494591562    -2.3697080672
| 10>  O        1.2785169051    -3.8167639481    -2.1034776137
| 11>  C        0.6240532128    -3.8763262320    -0.9364093658
| 12>  N        0.4321663775    -5.1204745451    -0.3912481700
| 13>  N        0.2949991587    -2.7283003223    -0.4187712840
| 14>  H        1.0103956019     1.8816408314    -0.0715943757
| 15>  H       -0.5508055087     1.8424665759    -0.9107810860
| 16>  H       -0.4987415783     1.8776661564     0.8634568735
| 17>  H        0.5473275407    -0.4048684031     0.8891579659
| 18>  H       -1.0072549816    -0.4439585191     0.0528885171
| 19>  H        1.8851437384    -2.1637688819    -3.2762731262
| 20>  H        0.3689875594    -5.8697886314    -1.0646428244
| 21>  H       -0.2964376592    -5.1396300819     0.3063074530
| 22> *
| 23>
| 24>                          ****END OF INPUT****

CARTESIAN COORDINATES (ANGSTROEM)
---------------------------------
  C     -0.007740    1.484207   -0.031604
  C      0.007622   -0.032309    0.011018
  O      0.660758   -0.484701   -1.181817
  C      0.788906   -1.810864   -1.335803
  C      1.388184   -2.449459   -2.369708
  O      1.278517   -3.816764   -2.103478
  C      0.624053   -3.876326   -0.936409
  N      0.432166   -5.120475   -0.391248
  N      0.294999   -2.728300   -0.418771
  H      1.010396    1.881641   -0.071594
  H     -0.550806    1.842467   -0.910781
  H     -0.498742    1.877666    0.863457
  H      0.547328   -0.404868    0.889158
  H     -1.007255   -0.443959    0.052889
  H      1.885144   -2.163769   -3.276273
  H      0.368988   -5.869789   -1.064643
  H     -0.296438   -5.139630    0.306307

 Total Charge           Charge          ....    0
 Multiplicity           Mult            ....    1
 Number of Electrons    NEL             ....   68
 Basis Dimension        Dim             ....  327

ORBITAL ENERGIES
----------------

  NO   OCC          E(Eh)            E(eV)
   0   2.0000     -20.624387      -561.2181
   1   2.0000     -20.579799      -560.0048
   2   2.0000     -15.593798      -424.3288
   3   2.0000     -15.546354      -423.0378
   4   2.0000     -11.376555      -309.5718
   5   2.0000     -11.317140      -307.9550
   6   2.0000     -11.279252      -306.9240
   7   2.0000     -11.256548      -306.3062
   8   2.0000     -11.216582      -305.2187
   9   2.0000      -1.482175       -40.3320
  10   2.0000      -1.410876       -38.3919
  11   2.0000      -1.251834       -34.0641
  12   2.0000      -1.207555       -32.8592
  13   2.0000      -1.038193       -28.2507
  14   2.0000      -0.980757       -26.6878
  15   2.0000      -0.861850       -23.4521
  16   2.0000      -0.822601       -22.3841
  17   2.0000      -0.805570       -21.9207
  18   2.0000      -0.747902       -20.3514
  19   2.0000      -0.703349       -19.1391
  20   2.0000      -0.681292       -18.5389
  21   2.0000      -0.661690       -18.0055
  22   2.0000      -0.648442       -17.6450
  23   2.0000      -0.623222       -16.9587
  24   2.0000      -0.607671       -16.5356
  25   2.0000      -0.554567       -15.0905
  26   2.0000      -0.548195       -14.9172
  27   2.0000      -0.534201       -14.5364
  28   2.0000      -0.504305       -13.7228
  29   2.0000      -0.501721       -13.6525
  30   2.0000      -0.481429       -13.1004
  31   2.0000      -0.456475       -12.4213
  32   2.0000      -0.417920       -11.3722
  33   2.0000      -0.297427        -8.0934
  34   0.0000       0.128099         3.4858
  35   0.0000       0.147179         4.0049
  36   0.0000       0.173097         4.7102
  37   0.0000       0.185460         5.0466
  38   0.0000       0.192063         5.2263

MULLIKEN ATOMIC CHARGES
-----------------------
   0 C :   -0.356072
   1 C :   -0.043931
   2 O :   -0.282411
   3 C :    0.205769
   4 C :   -0.116081
   5 O :   -0.226940
   6 C :    0.369581
   7 N :   -0.502852
   8 N :   -0.351871
   9 H :    0.130735
  10 H :    0.130036
  11 H :    0.126021
  12 H :    0.113265
  13 H :    0.111122
  14 H :    0.156171
  15 H :    0.265929
  16 H :    0.271530
Sum of atomic charges:   -0.0000000

LOEWDIN ATOMIC CHARGES
----------------------
   0 C :   -0.316415
   1 C :   -0.314230
   2 O :    0.245947
   3 C :   -0.388212
   4 C :   -0.246920
   5 O :    0.324965
   6 C :   -0.468459
   7 N :   -0.050272
   8 N :    0.097534
   9 H :    0.124489
  10 H :    0.124282
  11 H :    0.126207
  12 H :    0.125303
  13 H :    0.124616
  14 H :    0.131971
  15 H :    0.177433
  16 H :    0.181760

  Mayer bond orders larger than 0.1
B(  0-C ,  1-C ) :   0.9408 B(  0-C ,  9-H ) :   0.9346 B(  0-C , 10-H ) :   0.9345
B(  0-C , 11-H ) :   0.9349 B(  1-C ,  2-O ) :   0.8423 B(  1-C , 12-H ) :   0.9290
B(  1-C , 13-H ) :   0.9287 B(  2-O ,  3-C ) :   1.0993 B(  3-C ,  4-C ) :   1.5842
B(  3-C ,  8-N ) :   1.1332 B(  4-C ,  5-O ) :   0.9349 B(  4-C , 14-H ) :   0.9252
B(  5-O ,  6-C ) :   1.1419 B(  6-C ,  7-N ) :   1.0936 B(  6-C ,  8-N ) :   1.6098
B(  7-N , 15-H ) :   0.8659 B(  7-N , 16-H ) :   0.8677

MP2 TOTAL ENERGY:     -454.432339849 Eh
FINAL SINGLE POINT ENERGY      -454.432339848715

DIPOLE MOMENT
-------------
                                X             Y             Z
Electronic contribution:      2.58902      -8.24701      -4.07781
Nuclear contribution   :     -3.09389       7.74940       4.18643
                        -----------------------------------------
Total Dipole Moment    :     -0.50487      -0.49761       0.10862
                        -----------------------------------------
Magnitude (a.u.)       :      0.71715
Magnitude (Debye)      :      1.82285

                             ****ORCA TERMINATED NORMALLY****
TOTAL RUN TIME: 0 days 0 hours 13 minutes 48 seconds 445 msec
