                         Program Version 3.0.3 - RELEASE   -
|  1> ! RI-MP2 RIJK def2-TZVP def2-TZVP/C def2-TZVP/JK TIGHTSCF
|  2> % maxcore 2000
|  3> % mp2 density relaxed end
|  4> *xyz 0 1
|  5>  C        0.2161550688     1.6327534098    -0.0277090627
|  6>  C        0.0595855209     0.1219365662     0.0499511851
|  7>  N        0.9358112535    -0.6837020630    -0.8522801407
|  8>  C        1.3689398123    -1.6015720335     0.2436904599
|  9>  C        2.8696606251    -1.8386447250     0.3643861801
| 10>  C        3.4234974722    -2.6858799006    -0.7829385358
| 11>  O        4.8143397784    -2.9336786695    -0.6630418625
| 12>  C        0.7108974363    -0.6208501237     1.2305760372
| 13>  O        0.7520720699    -0.4574740970     2.4130690971
| 14>  H        1.2707501841     1.9130867623     0.0380659805
| 15>  H       -0.1821440045     2.0178632246    -0.9714776347
| 16>  H       -0.3259712505     2.1090677728     0.7950780083
| 17>  H       -1.0051447837    -0.1539006212    -0.0130174323
| 18>  H        0.4365976548    -1.1443820386    -1.6042184087
| 19>  H        0.8312460846    -2.5638315664     0.2536108409
| 20>  H        3.3784997699    -0.8662644413     0.3779722823
| 21>  H        3.0798026336    -2.3330072680     1.3195493818
| 22>  H        2.9470596662    -3.6734111680    -0.7816570177
| 23>  H        3.1810585602    -2.2068081012    -1.7441159058
| 24>  H        5.2699917880    -2.0889019988    -0.7349723022
| 25> *
| 26>
| 27>                          ****END OF INPUT****

CARTESIAN COORDINATES (ANGSTROEM)
---------------------------------
  C      0.216155    1.632753   -0.027709
  C      0.059586    0.121937    0.049951
  N      0.935811   -0.683702   -0.852280
  C      1.368940   -1.601572    0.243690
  C      2.869661   -1.838645    0.364386
  C      3.423497   -2.685880   -0.782939
  O      4.814340   -2.933679   -0.663042
  C      0.710897   -0.620850    1.230576
  O      0.752072   -0.457474    2.413069
  H      1.270750    1.913087    0.038066
  H     -0.182144    2.017863   -0.971478
  H     -0.325971    2.109068    0.795078
  H     -1.005145   -0.153901   -0.013017
  H      0.436598   -1.144382   -1.604218
  H      0.831246   -2.563832    0.253611
  H      3.378500   -0.866264    0.377972
  H      3.079803   -2.333007    1.319549
  H      2.947060   -3.673411   -0.781657
  H      3.181059   -2.206808   -1.744116
  H      5.269992   -2.088902   -0.734972

 Total Charge           Charge          ....    0
 Multiplicity           Mult            ....    1
 Number of Electrons    NEL             ....   70
 Basis Dimension        Dim             ....  345

ORBITAL ENERGIES
----------------

  NO   OCC          E(Eh)            E(eV)
   0   2.0000     -20.563951      -559.5736
   1   2.0000     -20.558215      -559.4175
   2   2.0000     -15.564263      -423.5251
   3   2.0000     -11.337435      -308.5073
   4   2.0000     -11.280100      -306.9471
   5   2.0000     -11.279059      -306.9188
   6   2.0000     -11.279007      -306.9174
   7   2.0000     -11.232818      -305.6605
   8   2.0000     -11.228738      -305.5495
   9   2.0000      -1.407147       -38.2904
  10   2.0000      -1.362546       -37.0768
  11   2.0000      -1.253846       -34.1189
  12   2.0000      -1.057234       -28.7688
  13   2.0000      -1.007861       -27.4253
  14   2.0000      -0.940285       -25.5865
  15   2.0000      -0.881969       -23.9996
  16   2.0000      -0.823861       -22.4184
  17   2.0000      -0.734610       -19.9898
  18   2.0000      -0.701215       -19.0810
  19   2.0000      -0.696686       -18.9578
  20   2.0000      -0.651387       -17.7251
  21   2.0000      -0.639543       -17.4028
  22   2.0000      -0.629838       -17.1388
  23   2.0000      -0.595086       -16.1931
  24   2.0000      -0.591426       -16.0935
  25   2.0000      -0.569541       -15.4980
  26   2.0000      -0.547647       -14.9022
  27   2.0000      -0.532115       -14.4796
  28   2.0000      -0.519438       -14.1346
  29   2.0000      -0.515073       -14.0159
  30   2.0000      -0.504044       -13.7157
  31   2.0000      -0.485741       -13.2177
  32   2.0000      -0.452951       -12.3254
  33   2.0000      -0.402453       -10.9513
  34   2.0000      -0.395756       -10.7691
  35   0.0000       0.105300         2.8654
  36   0.0000       0.137106         3.7309
  37   0.0000       0.146817         3.9951
  38   0.0000       0.157921         4.2972
  39   0.0000       0.163936         4.4609

MULLIKEN ATOMIC CHARGES
-----------------------
   0 C :   -0.386191
   1 C :    0.032781
   2 N :   -0.374708
   3 C :   -0.016658
   4 C :   -0.219962
   5 C :   -0.037172
   6 O :   -0.469700
   7 C :    0.104469
   8 O :   -0.245163
   9 H :    0.128413
  10 H :    0.133081
  11 H :    0.137528
  12 H :    0.115072
  13 H :    0.213032
  14 H :    0.123625
  15 H :    0.100049
  16 H :    0.129266
  17 H :    0.104978
  18 H :    0.112798
  19 H :    0.314462
Sum of atomic charges:    0.0000000

LOEWDIN ATOMIC CHARGES
----------------------
   0 C :   -0.290890
   1 C :   -0.269045
   2 N :    0.017060
   3 C :   -0.245081
   4 C :   -0.258630
   5 C :   -0.349896
   6 O :   -0.049744
   7 C :   -0.278615
   8 O :    0.175967
   9 H :    0.127401
  10 H :    0.126118
  11 H :    0.131479
  12 H :    0.147858
  13 H :    0.159099
  14 H :    0.150527
  15 H :    0.139671
  16 H :    0.148060
  17 H :    0.127481
  18 H :    0.117332
  19 H :    0.173848

  Mayer bond orders larger than 0.1
B(  0-C ,  1-C ) :   0.9053 B(  0-C ,  9-H ) :   0.9362 B(  0-C , 10-H ) :   0.9348
B(  0-C , 11-H ) :   0.9314 B(  1-C ,  2-N ) :   0.9574 B(  1-C ,  3-C ) :  -0.1009
B(  1-C ,  7-C ) :   0.8705 B(  1-C , 12-H ) :   0.8993 B(  2-N ,  3-C ) :   0.9587
B(  2-N , 13-H ) :   0.8742 B(  3-C ,  4-C ) :   0.8893 B(  3-C ,  7-C ) :   0.8310
B(  3-C , 14-H ) :   0.8946 B(  4-C ,  5-C ) :   0.9195 B(  4-C , 15-H ) :   0.9200
B(  4-C , 16-H ) :   0.9235 B(  5-C ,  6-O ) :   0.9324 B(  5-C , 17-H ) :   0.9202
B(  5-C , 18-H ) :   0.9431 B(  6-O , 19-H ) :   0.8473 B(  7-C ,  8-O ) :   2.0753

MP2 TOTAL ENERGY:     -439.556286811 Eh
FINAL SINGLE POINT ENERGY      -439.556286810829

DIPOLE MOMENT
-------------
                                X             Y             Z
Electronic contribution:     -0.43349      -1.89459       4.03563
Nuclear contribution   :     -0.24320       2.16285      -4.93244
                        -----------------------------------------
Total Dipole Moment    :     -0.67669       0.26826      -0.89682
                        -----------------------------------------
Magnitude (a.u.)       :      1.15506
Magnitude (Debye)      :      2.93592

                             ****ORCA TERMINATED NORMALLY****
TOTAL RUN TIME: 0 days 0 hours 15 minutes 58 seconds 41 msec
