                         Program Version 3.0.3 - RELEASE   -
|  1> ! RI-MP2 RIJK def2-TZVP def2-TZVP/C def2-TZVP/JK TIGHTSCF
|  2> % maxcore 2000
|  3> % mp2 density relaxed end
|  4> *xyz 0 1
|  5>  C       -0.8592194033     1.0698751497    -0.0471330179
|  6>  C        0.1018885645    -0.1037186216    -0.0995610043
|  7>  C        1.4709980255     0.0775616860    -0.8138120876
|  8>  C        2.1229213500    -0.7524933050     0.3110323444
|  9>  O        3.3166116175    -0.2886087769     0.9111946758
| 10>  C        0.8681163399    -0.4852006835     1.2172826647
| 11>  O        1.0878464855     0.6038096427     2.0752880157
| 12>  C        0.3323263777    -1.6756879082     1.9800849880
| 13>  O        0.0160401133    -2.7142204232     1.4536458715
| 14>  H       -0.3886626829     1.9300759618     0.4361143700
| 15>  H       -1.1659622778     1.3610830804    -1.0574876803
| 16>  H       -1.7629983933     0.8195560683     0.5182188494
| 17>  H       -0.3919050262    -1.0086936582    -0.4651665131
| 18>  H        1.5736627993    -0.2870969945    -1.8379765757
| 19>  H        1.8004041398     1.1213923634    -0.7662816852
| 20>  H        2.1989727680    -1.8160130077     0.0624712663
| 21>  H        3.7911113016     0.2527582462     0.2734015234
| 22>  H        2.0512371685     0.7022575003     2.1303293643
| 23>  H        0.2589018322    -1.5166427900     3.0787010606
| 24> *
| 25>
| 26>                          ****END OF INPUT****

CARTESIAN COORDINATES (ANGSTROEM)
---------------------------------
  C     -0.859219    1.069875   -0.047133
  C      0.101889   -0.103719   -0.099561
  C      1.470998    0.077562   -0.813812
  C      2.122921   -0.752493    0.311032
  O      3.316612   -0.288609    0.911195
  C      0.868116   -0.485201    1.217283
  O      1.087846    0.603810    2.075288
  C      0.332326   -1.675688    1.980085
  O      0.016040   -2.714220    1.453646
  H     -0.388663    1.930076    0.436114
  H     -1.165962    1.361083   -1.057488
  H     -1.762998    0.819556    0.518219
  H     -0.391905   -1.008694   -0.465167
  H      1.573663   -0.287097   -1.837977
  H      1.800404    1.121392   -0.766282
  H      2.198973   -1.816013    0.062471
  H      3.791111    0.252758    0.273402
  H      2.051237    0.702258    2.130329
  H      0.258902   -1.516643    3.078701

 Total Charge           Charge          ....    0
 Multiplicity           Mult            ....    1
 Number of Electrons    NEL             ....   70
 Basis Dimension        Dim             ....  339

ORBITAL ENERGIES
----------------

  NO   OCC          E(Eh)            E(eV)
   0   2.0000     -20.587117      -560.2039
   1   2.0000     -20.566152      -559.6334
   2   2.0000     -20.559020      -559.4394
   3   2.0000     -11.328032      -308.2514
   4   2.0000     -11.302677      -307.5615
   5   2.0000     -11.295456      -307.3650
   6   2.0000     -11.244264      -305.9720
   7   2.0000     -11.240202      -305.8614
   8   2.0000     -11.218424      -305.2688
   9   2.0000      -1.408474       -38.3265
  10   2.0000      -1.394762       -37.9534
  11   2.0000      -1.368952       -37.2511
  12   2.0000      -1.136302       -30.9204
  13   2.0000      -0.990822       -26.9616
  14   2.0000      -0.953212       -25.9382
  15   2.0000      -0.864482       -23.5238
  16   2.0000      -0.828082       -22.5332
  17   2.0000      -0.754963       -20.5436
  18   2.0000      -0.714374       -19.4391
  19   2.0000      -0.706098       -19.2139
  20   2.0000      -0.693285       -18.8652
  21   2.0000      -0.652482       -17.7549
  22   2.0000      -0.629707       -17.1352
  23   2.0000      -0.607363       -16.5272
  24   2.0000      -0.591356       -16.0916
  25   2.0000      -0.571144       -15.5416
  26   2.0000      -0.546199       -14.8628
  27   2.0000      -0.538701       -14.6588
  28   2.0000      -0.521706       -14.1963
  29   2.0000      -0.516934       -14.0665
  30   2.0000      -0.490299       -13.3417
  31   2.0000      -0.482467       -13.1286
  32   2.0000      -0.461621       -12.5613
  33   2.0000      -0.425983       -11.5916
  34   2.0000      -0.400727       -10.9043
  35   0.0000       0.116534         3.1711
  36   0.0000       0.123574         3.3626
  37   0.0000       0.149278         4.0621
  38   0.0000       0.164509         4.4765
  39   0.0000       0.179296         4.8789

MULLIKEN ATOMIC CHARGES
-----------------------
   0 C :   -0.430596
   1 C :   -0.046644
   2 C :   -0.262147
   3 C :   -0.012655
   4 O :   -0.502460
   5 C :    0.252592
   6 O :   -0.487100
   7 C :    0.078121
   8 O :   -0.279917
   9 H :    0.144884
  10 H :    0.134760
  11 H :    0.134335
  12 H :    0.131675
  13 H :    0.133015
  14 H :    0.115007
  15 H :    0.120346
  16 H :    0.338993
  17 H :    0.340831
  18 H :    0.096960
Sum of atomic charges:    0.0000000

LOEWDIN ATOMIC CHARGES
----------------------
   0 C :   -0.294410
   1 C :   -0.208357
   2 C :   -0.210163
   3 C :   -0.282428
   4 O :   -0.019658
   5 C :   -0.331249
   6 O :    0.028113
   7 C :   -0.256205
   8 O :    0.134810
   9 H :    0.128892
  10 H :    0.126560
  11 H :    0.127852
  12 H :    0.160179
  13 H :    0.128247
  14 H :    0.140943
  15 H :    0.144652
  16 H :    0.182679
  17 H :    0.183494
  18 H :    0.116048

  Mayer bond orders larger than 0.1
B(  0-C ,  1-C ) :   0.8690 B(  0-C ,  9-H ) :   0.9353 B(  0-C , 10-H ) :   0.9374
B(  0-C , 11-H ) :   0.9375 B(  1-C ,  2-C ) :   0.9463 B(  1-C ,  5-C ) :   0.8755
B(  1-C , 12-H ) :   0.9115 B(  2-C ,  3-C ) :   0.9751 B(  2-C , 13-H ) :   0.9222
B(  2-C , 14-H ) :   0.8981 B(  3-C ,  4-O ) :   0.9551 B(  3-C ,  5-C ) :   0.8397
B(  3-C , 15-H ) :   0.9375 B(  4-O , 16-H ) :   0.8333 B(  5-C ,  6-O ) :   1.0920
B(  5-C ,  7-C ) :   0.8365 B(  6-O , 17-H ) :   0.8048 B(  7-C ,  8-O ) :   1.9708
B(  7-C , 18-H ) :   0.9344

MP2 TOTAL ENERGY:     -459.430611510 Eh
FINAL SINGLE POINT ENERGY      -459.430611510236

DIPOLE MOMENT
-------------
                                X             Y             Z
Electronic contribution:      2.33426      -4.91090       4.47865
Nuclear contribution   :     -1.67820       5.71951      -5.24359
                        -----------------------------------------
Total Dipole Moment    :      0.65606       0.80861      -0.76494
                        -----------------------------------------
Magnitude (a.u.)       :      1.29205
Magnitude (Debye)      :      3.28413

                             ****ORCA TERMINATED NORMALLY****
TOTAL RUN TIME: 0 days 0 hours 17 minutes 35 seconds 86 msec
