                         Program Version 3.0.3 - RELEASE   -
|  1> ! RI-MP2 RIJK def2-TZVP def2-TZVP/C def2-TZVP/JK TIGHTSCF
|  2> % maxcore 2000
|  3> % mp2 density relaxed end
|  4> *xyz 0 1
|  5>  N       -0.2564788597     1.2529883369     0.1430308663
|  6>  C       -0.1338099314     0.0380413312    -0.1506912315
|  7>  O       -1.0905387260    -0.8310511764     0.3180547823
|  8>  C       -0.9414714360    -2.1582287122     0.0039716298
|  9>  O       -0.0392162177    -2.6294749548    -0.6433972863
| 10>  N       -1.9709394415    -2.8503577625     0.5631719649
| 11>  C       -2.1270820923    -4.2682344181     0.3275164660
| 12>  C       -3.3005072687    -4.5835312421    -0.5011138242
| 13>  N       -4.2367253369    -4.8275038339    -1.1316198111
| 14>  H        0.5094651967     1.7871871029    -0.2640271518
| 15>  H        0.6347793886    -0.4628256743    -0.7392858439
| 16>  H       -2.6995116626    -2.3285906145     1.0238547592
| 17>  H       -1.2202161004    -4.6099752154    -0.1794800723
| 18>  H       -2.2102471320    -4.8155954268     1.2733203127
| 19> *
| 20>
| 21>                          ****END OF INPUT****

CARTESIAN COORDINATES (ANGSTROEM)
---------------------------------
  N     -0.256479    1.252988    0.143031
  C     -0.133810    0.038041   -0.150691
  O     -1.090539   -0.831051    0.318055
  C     -0.941471   -2.158229    0.003972
  O     -0.039216   -2.629475   -0.643397
  N     -1.970939   -2.850358    0.563172
  C     -2.127082   -4.268234    0.327516
  C     -3.300507   -4.583531   -0.501114
  N     -4.236725   -4.827504   -1.131620
  H      0.509465    1.787187   -0.264027
  H      0.634779   -0.462826   -0.739286
  H     -2.699512   -2.328591    1.023855
  H     -1.220216   -4.609975   -0.179480
  H     -2.210247   -4.815595    1.273320

 Total Charge           Charge          ....    0
 Multiplicity           Mult            ....    1
 Number of Electrons    NEL             ....   66
 Basis Dimension        Dim             ....  309

ORBITAL ENERGIES
----------------

  NO   OCC          E(Eh)            E(eV)
   0   2.0000     -20.646697      -561.8252
   1   2.0000     -20.566602      -559.6457
   2   2.0000     -15.632491      -425.3817
   3   2.0000     -15.590695      -424.2444
   4   2.0000     -15.568836      -423.6496
   5   2.0000     -11.445536      -311.4489
   6   2.0000     -11.360922      -309.1464
   7   2.0000     -11.343643      -308.6762
   8   2.0000     -11.290671      -307.2348
   9   2.0000      -1.512730       -41.1635
  10   2.0000      -1.408790       -38.3351
  11   2.0000      -1.293129       -35.1878
  12   2.0000      -1.235354       -33.6157
  13   2.0000      -1.224669       -33.3249
  14   2.0000      -1.047392       -28.5010
  15   2.0000      -0.911535       -24.8041
  16   2.0000      -0.826000       -22.4766
  17   2.0000      -0.809585       -22.0299
  18   2.0000      -0.751208       -20.4414
  19   2.0000      -0.717607       -19.5271
  20   2.0000      -0.703354       -19.1392
  21   2.0000      -0.685635       -18.6571
  22   2.0000      -0.664256       -18.0753
  23   2.0000      -0.633010       -17.2251
  24   2.0000      -0.608586       -16.5605
  25   2.0000      -0.579459       -15.7679
  26   2.0000      -0.562027       -15.2935
  27   2.0000      -0.508813       -13.8455
  28   2.0000      -0.488697       -13.2981
  29   2.0000      -0.480863       -13.0849
  30   2.0000      -0.460540       -12.5319
  31   2.0000      -0.455358       -12.3909
  32   2.0000      -0.438957       -11.9446
  33   0.0000       0.111257         3.0275
  34   0.0000       0.138075         3.7572
  35   0.0000       0.142824         3.8864
  36   0.0000       0.145980         3.9723
  37   0.0000       0.162402         4.4192

MULLIKEN ATOMIC CHARGES
-----------------------
   0 N :   -0.320068
   1 C :    0.051824
   2 O :   -0.229688
   3 C :    0.446360
   4 O :   -0.376635
   5 N :   -0.347138
   6 C :   -0.033887
   7 C :   -0.169061
   8 N :   -0.055094
   9 H :    0.237186
  10 H :    0.146825
  11 H :    0.270688
  12 H :    0.202013
  13 H :    0.176675
Sum of atomic charges:   -0.0000000

LOEWDIN ATOMIC CHARGES
----------------------
   0 N :   -0.053634
   1 C :   -0.348257
   2 O :    0.282264
   3 C :   -0.561279
   4 O :    0.091314
   5 N :    0.120371
   6 C :   -0.254048
   7 C :   -0.187523
   8 N :    0.073801
   9 H :    0.175461
  10 H :    0.124684
  11 H :    0.200758
  12 H :    0.175852
  13 H :    0.160236

  Mayer bond orders larger than 0.1
B(  0-N ,  1-C ) :   1.9784 B(  0-N ,  9-H ) :   0.8499 B(  1-C ,  2-O ) :   0.9443
B(  1-C , 10-H ) :   0.9276 B(  2-O ,  3-C ) :   1.0194 B(  3-C ,  4-O ) :   1.8648
B(  3-C ,  5-N ) :   1.1809 B(  5-N ,  6-C ) :   0.8651 B(  5-N , 11-H ) :   0.8581
B(  6-C ,  7-C ) :   0.9030 B(  6-C , 12-H ) :   0.9004 B(  6-C , 13-H ) :   0.9194
B(  7-C ,  8-N ) :   2.8405

MP2 TOTAL ENERGY:     -469.296730289 Eh
FINAL SINGLE POINT ENERGY      -469.296730289145

DIPOLE MOMENT
-------------
                                X             Y             Z
Electronic contribution:     -1.57001      -0.92355      -0.77394
Nuclear contribution   :      2.41649       0.84904       1.55592
                        -----------------------------------------
Total Dipole Moment    :      0.84648      -0.07451       0.78199
                        -----------------------------------------
Magnitude (a.u.)       :      1.15481
Magnitude (Debye)      :      2.93530

                             ****ORCA TERMINATED NORMALLY****
TOTAL RUN TIME: 0 days 0 hours 10 minutes 30 seconds 119 msec
