                         Program Version 3.0.3 - RELEASE   -
|  1> ! RI-MP2 RIJK def2-TZVP def2-TZVP/C def2-TZVP/JK TIGHTSCF
|  2> % maxcore 2000
|  3> % mp2 density relaxed end
|  4> *xyz 0 1
|  5>  C        0.1015046305     1.4894932056     0.0240066225
|  6>  C       -0.0635858268     0.0030956583     0.0153504685
|  7>  C       -1.2399884503    -0.6807256504     0.0023602696
|  8>  N       -2.5095366291    -0.0686833399     0.0739025985
|  9>  C       -1.1685224605    -2.1118312108     0.0000807575
| 10>  C        0.0170135047    -2.7634498591     0.0110607982
| 11>  C        1.2695023757    -2.0384531235     0.0468533957
| 12>  O        2.3845508803    -2.4925495179     0.0692638640
| 13>  O        1.1281231874    -0.6481774849     0.0555977488
| 14>  H        1.0653774137     1.7521445115    -0.4176172658
| 15>  H       -0.6872908134     1.9841574810    -0.5520885276
| 16>  H        0.0777290546     1.8980525409     1.0419355225
| 17>  H       -2.4865794448     0.9307215315    -0.0768651658
| 18>  H       -3.1797689706    -0.4862183166    -0.5605411450
| 19>  H       -2.1004554518    -2.6714697096    -0.0049112497
| 20>  H        0.0880346105    -3.8433130961     0.0030911681
| 21> *
| 22>
| 23>                          ****END OF INPUT****

CARTESIAN COORDINATES (ANGSTROEM)
---------------------------------
  C      0.101505    1.489493    0.024007
  C     -0.063586    0.003096    0.015350
  C     -1.239988   -0.680726    0.002360
  N     -2.509537   -0.068683    0.073903
  C     -1.168522   -2.111831    0.000081
  C      0.017014   -2.763450    0.011061
  C      1.269502   -2.038453    0.046853
  O      2.384551   -2.492550    0.069264
  O      1.128123   -0.648177    0.055598
  H      1.065377    1.752145   -0.417617
  H     -0.687291    1.984157   -0.552089
  H      0.077729    1.898053    1.041936
  H     -2.486579    0.930722   -0.076865
  H     -3.179769   -0.486218   -0.560541
  H     -2.100455   -2.671470   -0.004911
  H      0.088035   -3.843313    0.003091

 Total Charge           Charge          ....    0
 Multiplicity           Mult            ....    1
 Number of Electrons    NEL             ....   66
 Basis Dimension        Dim             ....  321

ORBITAL ENERGIES
----------------

  NO   OCC          E(Eh)            E(eV)
   0   2.0000     -20.620303      -561.1070
   1   2.0000     -20.527971      -558.5945
   2   2.0000     -15.579075      -423.9282
   3   2.0000     -11.380260      -309.6726
   4   2.0000     -11.319998      -308.0328
   5   2.0000     -11.282769      -307.0198
   6   2.0000     -11.281058      -306.9732
   7   2.0000     -11.250803      -306.1499
   8   2.0000     -11.248299      -306.0818
   9   2.0000      -1.465365       -39.8746
  10   2.0000      -1.364787       -37.1377
  11   2.0000      -1.234602       -33.5952
  12   2.0000      -1.107866       -30.1466
  13   2.0000      -1.063065       -28.9275
  14   2.0000      -0.962966       -26.2036
  15   2.0000      -0.883306       -24.0360
  16   2.0000      -0.858517       -23.3614
  17   2.0000      -0.743186       -20.2231
  18   2.0000      -0.717712       -19.5299
  19   2.0000      -0.668198       -18.1826
  20   2.0000      -0.661255       -17.9937
  21   2.0000      -0.653821       -17.7914
  22   2.0000      -0.625912       -17.0319
  23   2.0000      -0.612888       -16.6775
  24   2.0000      -0.588828       -16.0228
  25   2.0000      -0.579689       -15.7742
  26   2.0000      -0.569333       -15.4923
  27   2.0000      -0.529721       -14.4144
  28   2.0000      -0.513668       -13.9776
  29   2.0000      -0.499068       -13.5803
  30   2.0000      -0.443816       -12.0769
  31   2.0000      -0.417027       -11.3479
  32   2.0000      -0.303088        -8.2474
  33   0.0000       0.071367         1.9420
  34   0.0000       0.116207         3.1622
  35   0.0000       0.146133         3.9765
  36   0.0000       0.165415         4.5012
  37   0.0000       0.168716         4.5910

MULLIKEN ATOMIC CHARGES
-----------------------
   0 C :   -0.445175
   1 C :    0.199200
   2 C :    0.128228
   3 N :   -0.512375
   4 C :   -0.162378
   5 C :   -0.207207
   6 C :    0.253870
   7 O :   -0.306420
   8 O :   -0.175920
   9 H :    0.166563
  10 H :    0.123994
  11 H :    0.161034
  12 H :    0.236871
  13 H :    0.251770
  14 H :    0.139087
  15 H :    0.148859
Sum of atomic charges:    0.0000000

LOEWDIN ATOMIC CHARGES
----------------------
   0 C :   -0.268758
   1 C :   -0.250145
   2 C :   -0.252924
   3 N :   -0.083032
   4 C :   -0.098421
   5 C :   -0.122965
   6 C :   -0.448109
   7 O :    0.119146
   8 O :    0.350744
   9 H :    0.142428
  10 H :    0.128436
  11 H :    0.138490
  12 H :    0.163402
  13 H :    0.168904
  14 H :    0.154553
  15 H :    0.158251

  Mayer bond orders larger than 0.1
B(  0-C ,  1-C ) :   0.8889 B(  0-C ,  9-H ) :   0.9332 B(  0-C , 10-H ) :   0.9376
B(  0-C , 11-H ) :   0.9234 B(  1-C ,  2-C ) :   1.5113 B(  1-C ,  8-O ) :   1.0727
B(  2-C ,  3-N ) :   0.9739 B(  2-C ,  4-C ) :   1.0865 B(  3-N , 12-H ) :   0.8847
B(  3-N , 13-H ) :   0.8702 B(  4-C ,  5-C ) :   1.5438 B(  4-C , 14-H ) :   0.9206
B(  5-C ,  6-C ) :   1.0714 B(  5-C , 15-H ) :   0.9231 B(  6-C ,  7-O ) :   1.9999
B(  6-C ,  8-O ) :   1.0245

MP2 TOTAL ENERGY:     -437.210942113 Eh
FINAL SINGLE POINT ENERGY      -437.210942113464

DIPOLE MOMENT
-------------
                                X             Y             Z
Electronic contribution:      4.85742      -5.29245       0.26116
Nuclear contribution   :     -6.77767       6.13663      -0.72275
                        -----------------------------------------
Total Dipole Moment    :     -1.92025       0.84417      -0.46159
                        -----------------------------------------
Magnitude (a.u.)       :      2.14780
Magnitude (Debye)      :      5.45928

                             ****ORCA TERMINATED NORMALLY****
TOTAL RUN TIME: 0 days 0 hours 15 minutes 34 seconds 486 msec
