                         Program Version 3.0.3 - RELEASE   -
|  1> ! RI-MP2 RIJK def2-TZVP def2-TZVP/C def2-TZVP/JK TIGHTSCF
|  2> % maxcore 2000
|  3> % mp2 density relaxed end
|  4> *xyz 0 1
|  5>  C       -0.0681233558     1.5437438361     0.0036502283
|  6>  C       -0.0439103373     0.0316042005     0.0305628683
|  7>  C        1.2754078069    -0.7239275667    -0.1727590760
|  8>  C        0.6511689961    -0.6980221200     1.1701377030
|  9>  C        1.1859429770    -0.0944249617     2.4661780405
| 10>  O        0.7339409341    -1.2459615268     3.2099822598
| 11>  C        0.1636411840    -1.8609568560     2.0360395365
| 12>  C       -1.2377438058    -0.6453864045    -0.5338983955
| 13>  O       -2.2094420386    -0.0746128832    -0.9650743625
| 14>  H        0.8515198175     1.9633522820     0.4208701189
| 15>  H       -0.1768850060     1.9070325334    -1.0221155492
| 16>  H       -0.9157113974     1.9294929554     0.5775025106
| 17>  H        1.2441195561    -1.6516952189    -0.7376652884
| 18>  H        2.1564762675    -0.1159423283    -0.3523357193
| 19>  H        2.2746240513     0.0327082681     2.5217590948
| 20>  H        0.6967488296     0.8289520842     2.8018327303
| 21>  H       -0.9238307569    -1.9785720724     2.1251068093
| 22>  H        0.6154616333    -2.8378656113     1.8208734918
| 23>  H       -1.1764959856    -1.7595205899    -0.5419482010
| 24> *
| 25>
| 26>                          ****END OF INPUT****

CARTESIAN COORDINATES (ANGSTROEM)
---------------------------------
  C     -0.068123    1.543744    0.003650
  C     -0.043910    0.031604    0.030563
  C      1.275408   -0.723928   -0.172759
  C      0.651169   -0.698022    1.170138
  C      1.185943   -0.094425    2.466178
  O      0.733941   -1.245962    3.209982
  C      0.163641   -1.860957    2.036040
  C     -1.237744   -0.645386   -0.533898
  O     -2.209442   -0.074613   -0.965074
  H      0.851520    1.963352    0.420870
  H     -0.176885    1.907033   -1.022116
  H     -0.915711    1.929493    0.577503
  H      1.244120   -1.651695   -0.737665
  H      2.156476   -0.115942   -0.352336
  H      2.274624    0.032708    2.521759
  H      0.696749    0.828952    2.801833
  H     -0.923831   -1.978572    2.125107
  H      0.615462   -2.837866    1.820873
  H     -1.176496   -1.759521   -0.541948

 Total Charge           Charge          ....    0
 Multiplicity           Mult            ....    1
 Number of Electrons    NEL             ....   68
 Basis Dimension        Dim             ....  339

ORBITAL ENERGIES
----------------

  NO   OCC          E(Eh)            E(eV)
   0   2.0000     -20.561126      -559.4967
   1   2.0000     -20.556696      -559.3761
   2   2.0000     -11.335973      -308.4675
   3   2.0000     -11.295241      -307.3591
   4   2.0000     -11.294083      -307.3276
   5   2.0000     -11.267045      -306.5919
   6   2.0000     -11.263303      -306.4901
   7   2.0000     -11.256487      -306.3046
   8   2.0000     -11.231427      -305.6227
   9   2.0000      -1.396943       -38.0127
  10   2.0000      -1.391633       -37.8682
  11   2.0000      -1.184630       -32.2354
  12   2.0000      -0.998460       -27.1695
  13   2.0000      -0.955900       -26.0114
  14   2.0000      -0.941720       -25.6255
  15   2.0000      -0.895169       -24.3588
  16   2.0000      -0.787927       -21.4406
  17   2.0000      -0.736070       -20.0295
  18   2.0000      -0.708968       -19.2920
  19   2.0000      -0.682751       -18.5786
  20   2.0000      -0.670812       -18.2537
  21   2.0000      -0.637222       -17.3397
  22   2.0000      -0.602151       -16.3853
  23   2.0000      -0.590245       -16.0614
  24   2.0000      -0.584976       -15.9180
  25   2.0000      -0.563332       -15.3290
  26   2.0000      -0.551603       -15.0099
  27   2.0000      -0.532318       -14.4851
  28   2.0000      -0.526072       -14.3151
  29   2.0000      -0.484326       -13.1792
  30   2.0000      -0.468050       -12.7363
  31   2.0000      -0.432732       -11.7752
  32   2.0000      -0.413158       -11.2426
  33   2.0000      -0.401960       -10.9379
  34   0.0000       0.120770         3.2863
  35   0.0000       0.129280         3.5179
  36   0.0000       0.146606         3.9894
  37   0.0000       0.155919         4.2428
  38   0.0000       0.167264         4.5515

MULLIKEN ATOMIC CHARGES
-----------------------
   0 C :   -0.422684
   1 C :    0.164217
   2 C :   -0.308657
   3 C :   -0.078518
   4 C :   -0.013207
   5 O :   -0.322369
   6 C :   -0.004498
   7 C :    0.032821
   8 O :   -0.270681
   9 H :    0.132605
  10 H :    0.148577
  11 H :    0.150376
  12 H :    0.145367
  13 H :    0.146091
  14 H :    0.102838
  15 H :    0.107121
  16 H :    0.107814
  17 H :    0.102351
  18 H :    0.080436
Sum of atomic charges:    0.0000000

LOEWDIN ATOMIC CHARGES
----------------------
   0 C :   -0.255466
   1 C :   -0.229824
   2 C :   -0.153230
   3 C :   -0.197749
   4 C :   -0.222971
   5 O :    0.121066
   6 C :   -0.228683
   7 C :   -0.266611
   8 O :    0.134723
   9 H :    0.129527
  10 H :    0.135926
  11 H :    0.135819
  12 H :    0.142581
  13 H :    0.144474
  14 H :    0.121899
  15 H :    0.123777
  16 H :    0.122816
  17 H :    0.121993
  18 H :    0.119934

  Mayer bond orders larger than 0.1
B(  0-C ,  1-C ) :   0.9033 B(  0-C ,  9-H ) :   0.9346 B(  0-C , 10-H ) :   0.9284
B(  0-C , 11-H ) :   0.9321 B(  1-C ,  2-C ) :   0.8508 B(  1-C ,  3-C ) :   0.7528
B(  1-C ,  7-C ) :   0.8550 B(  2-C ,  3-C ) :   0.8737 B(  2-C , 12-H ) :   0.9144
B(  2-C , 13-H ) :   0.9167 B(  3-C ,  4-C ) :   0.9706 B(  3-C ,  6-C ) :   0.9701
B(  4-C ,  5-O ) :   0.9640 B(  4-C , 14-H ) :   0.9130 B(  4-C , 15-H ) :   0.9033
B(  5-O ,  6-C ) :   0.9639 B(  6-C , 16-H ) :   0.9044 B(  6-C , 17-H ) :   0.9111
B(  7-C ,  8-O ) :   2.0094 B(  7-C , 18-H ) :   0.9622

MP2 TOTAL ENERGY:     -422.287127319 Eh
FINAL SINGLE POINT ENERGY      -422.287127319265

DIPOLE MOMENT
-------------
                                X             Y             Z
Electronic contribution:     -3.04486      -2.34699       0.34238
Nuclear contribution   :      4.02257       2.29800      -0.55570
                        -----------------------------------------
Total Dipole Moment    :      0.97771      -0.04899      -0.21332
                        -----------------------------------------
Magnitude (a.u.)       :      1.00191
Magnitude (Debye)      :      2.54666

                             ****ORCA TERMINATED NORMALLY****
TOTAL RUN TIME: 0 days 0 hours 17 minutes 33 seconds 807 msec
