                         Program Version 3.0.3 - RELEASE   -
|  1> ! RI-MP2 RIJK def2-TZVP def2-TZVP/C def2-TZVP/JK TIGHTSCF
|  2> % maxcore 2000
|  3> % mp2 density relaxed end
|  4> *xyz 0 1
|  5>  C        0.0240907158     1.2987096935    -0.1701325094
|  6>  O       -0.0347058735    -0.0119708686     0.3522954999
|  7>  C       -1.2807001891    -0.6256350139     0.1756029272
|  8>  C       -1.6389336826    -1.1983861750    -1.2452630653
|  9>  C       -1.7502234868    -2.5953988103    -0.6110904676
| 10>  C       -0.4392052652    -2.9599815700     0.0471555965
| 11>  C       -1.3537117713    -2.0253293696     0.7731113824
| 12>  C       -2.7554487861    -3.5576219417    -0.9170624185
| 13>  N       -3.5811214953    -4.3271552554    -1.1758599017
| 14>  H        1.0240495500     1.6851199417     0.0383592819
| 15>  H       -0.1431375335     1.3170709178    -1.2573104194
| 16>  H       -0.7193558539     1.9568102787     0.3051883650
| 17>  H       -2.0879311763     0.0217416691     0.5462930263
| 18>  H       -2.5851205333    -0.8194718357    -1.6333706476
| 19>  H       -0.8632588233    -1.1023687536    -2.0099455850
| 20>  H       -0.3891607425    -3.9642302061     0.4523998273
| 21>  H        0.4842797584    -2.5916935305    -0.3884118752
| 22>  H       -1.7788414016    -2.2745877204     1.7365949430
| 23> *
| 24>
| 25>                          ****END OF INPUT****

CARTESIAN COORDINATES (ANGSTROEM)
---------------------------------
  C      0.024091    1.298710   -0.170133
  O     -0.034706   -0.011971    0.352295
  C     -1.280700   -0.625635    0.175603
  C     -1.638934   -1.198386   -1.245263
  C     -1.750223   -2.595399   -0.611090
  C     -0.439205   -2.959982    0.047156
  C     -1.353712   -2.025329    0.773111
  C     -2.755449   -3.557622   -0.917062
  N     -3.581121   -4.327155   -1.175860
  H      1.024050    1.685120    0.038359
  H     -0.143138    1.317071   -1.257310
  H     -0.719356    1.956810    0.305188
  H     -2.087931    0.021742    0.546293
  H     -2.585121   -0.819472   -1.633371
  H     -0.863259   -1.102369   -2.009946
  H     -0.389161   -3.964230    0.452400
  H      0.484280   -2.591694   -0.388412
  H     -1.778841   -2.274588    1.736595

 Total Charge           Charge          ....    0
 Multiplicity           Mult            ....    1
 Number of Electrons    NEL             ....   66
 Basis Dimension        Dim             ....  333

ORBITAL ENERGIES
----------------

  NO   OCC          E(Eh)            E(eV)
   0   2.0000     -20.573002      -559.8198
   1   2.0000     -15.565321      -423.5539
   2   2.0000     -11.307434      -307.6909
   3   2.0000     -11.288727      -307.1819
   4   2.0000     -11.285249      -307.0872
   5   2.0000     -11.271684      -306.7181
   6   2.0000     -11.266323      -306.5722
   7   2.0000     -11.260381      -306.4105
   8   2.0000     -11.254890      -306.2611
   9   2.0000      -1.397620       -38.0312
  10   2.0000      -1.233162       -33.5560
  11   2.0000      -1.200354       -32.6633
  12   2.0000      -1.014914       -27.6172
  13   2.0000      -0.968636       -26.3579
  14   2.0000      -0.913230       -24.8503
  15   2.0000      -0.862382       -23.4666
  16   2.0000      -0.789749       -21.4902
  17   2.0000      -0.735189       -20.0055
  18   2.0000      -0.683953       -18.6113
  19   2.0000      -0.671950       -18.2847
  20   2.0000      -0.650256       -17.6944
  21   2.0000      -0.610295       -16.6070
  22   2.0000      -0.589861       -16.0509
  23   2.0000      -0.568464       -15.4687
  24   2.0000      -0.565162       -15.3789
  25   2.0000      -0.536968       -14.6116
  26   2.0000      -0.519011       -14.1230
  27   2.0000      -0.503153       -13.6915
  28   2.0000      -0.500365       -13.6156
  29   2.0000      -0.477605       -12.9963
  30   2.0000      -0.437178       -11.8962
  31   2.0000      -0.423906       -11.5351
  32   2.0000      -0.390993       -10.6395
  33   0.0000       0.127244         3.4625
  34   0.0000       0.140152         3.8137
  35   0.0000       0.147890         4.0243
  36   0.0000       0.163233         4.4418
  37   0.0000       0.175418         4.7734

MULLIKEN ATOMIC CHARGES
-----------------------
   0 C :   -0.227273
   1 O :   -0.296138
   2 C :    0.033482
   3 C :   -0.251672
   4 C :    0.183664
   5 C :   -0.274508
   6 C :   -0.056632
   7 C :   -0.263948
   8 N :   -0.053775
   9 H :    0.146986
  10 H :    0.116731
  11 H :    0.116962
  12 H :    0.091741
  13 H :    0.141157
  14 H :    0.131076
  15 H :    0.156363
  16 H :    0.149955
  17 H :    0.155829
Sum of atomic charges:    0.0000000

LOEWDIN ATOMIC CHARGES
----------------------
   0 C :   -0.349702
   1 O :    0.164814
   2 C :   -0.288115
   3 C :   -0.154725
   4 C :   -0.193205
   5 C :   -0.147410
   6 C :   -0.114486
   7 C :   -0.162691
   8 N :    0.063085
   9 H :    0.115943
  10 H :    0.103226
  11 H :    0.103902
  12 H :    0.139364
  13 H :    0.142452
  14 H :    0.138284
  15 H :    0.150798
  16 H :    0.143404
  17 H :    0.145062

  Mayer bond orders larger than 0.1
B(  0-C ,  1-O ) :   0.9040 B(  0-C ,  9-H ) :   0.9397 B(  0-C , 10-H ) :   0.9334
B(  0-C , 11-H ) :   0.9354 B(  1-O ,  2-C ) :   1.0220 B(  2-C ,  3-C ) :   0.9753
B(  2-C ,  6-C ) :   0.9402 B(  2-C , 12-H ) :   0.9284 B(  3-C ,  4-C ) :   0.9273
B(  3-C , 13-H ) :   0.9220 B(  3-C , 14-H ) :   0.9051 B(  4-C ,  5-C ) :   0.8656
B(  4-C ,  6-C ) :   0.7582 B(  4-C ,  7-C ) :   0.9288 B(  5-C ,  6-C ) :   0.9054
B(  5-C , 15-H ) :   0.9292 B(  5-C , 16-H ) :   0.9031 B(  6-C , 17-H ) :   0.9130
B(  7-C ,  8-N ) :   2.8752

MP2 TOTAL ENERGY:     -401.230171877 Eh
FINAL SINGLE POINT ENERGY      -401.230171876944

DIPOLE MOMENT
-------------
                                X             Y             Z
Electronic contribution:     -4.06763      -7.35198      -0.17002
Nuclear contribution   :      4.92153       8.76757       0.43059
                        -----------------------------------------
Total Dipole Moment    :      0.85391       1.41559       0.26057
                        -----------------------------------------
Magnitude (a.u.)       :      1.67360
Magnitude (Debye)      :      4.25395

                             ****ORCA TERMINATED NORMALLY****
TOTAL RUN TIME: 0 days 0 hours 27 minutes 52 seconds 319 msec
