                         Program Version 3.0.3 - RELEASE   -
|  1> ! RI-MP2 RIJK def2-TZVP def2-TZVP/C def2-TZVP/JK TIGHTSCF
|  2> % maxcore 2000
|  3> % mp2 density relaxed end
|  4> *xyz 0 1
|  5>  C       -0.0159363511     1.4119292245    -0.0720840411
|  6>  O        0.0244546464    -0.0041793634    -0.0011628509
|  7>  C        0.6294999658    -0.5771708803     1.0620506842
|  8>  C        1.2293632836     0.1279636540     2.1164539296
|  9>  C        1.8096137353    -0.6142188746     3.1360709750
| 10>  N        1.8364156454    -1.9480503615     3.1829033110
| 11>  C        1.2592422575    -2.5919477660     2.1684101503
| 12>  O        1.2831239395    -3.9411048488     2.2100642436
| 13>  C        0.6439381933    -1.9697000924     1.0871377393
| 14>  H        0.9922874362     1.8418697655    -0.1075340828
| 15>  H       -0.5422186205     1.6511888010    -0.9971109755
| 16>  H       -0.5615738543     1.8418268095     0.7764975941
| 17>  H        1.2503360965     1.2077239639     2.1535550959
| 18>  H        2.2835883549    -0.1005848903     3.9691892042
| 19>  H        1.7483915324    -4.1667823918     3.0277025761
| 20>  H        0.1905291992    -2.5436405692     0.2901498470
| 21> *
| 22>
| 23>                          ****END OF INPUT****

CARTESIAN COORDINATES (ANGSTROEM)
---------------------------------
  C     -0.015936    1.411929   -0.072084
  O      0.024455   -0.004179   -0.001163
  C      0.629500   -0.577171    1.062051
  C      1.229363    0.127964    2.116454
  C      1.809614   -0.614219    3.136071
  N      1.836416   -1.948050    3.182903
  C      1.259242   -2.591948    2.168410
  O      1.283124   -3.941105    2.210064
  C      0.643938   -1.969700    1.087138
  H      0.992287    1.841870   -0.107534
  H     -0.542219    1.651189   -0.997111
  H     -0.561574    1.841827    0.776498
  H      1.250336    1.207724    2.153555
  H      2.283588   -0.100585    3.969189
  H      1.748392   -4.166782    3.027703
  H      0.190529   -2.543641    0.290150

 Total Charge           Charge          ....    0
 Multiplicity           Mult            ....    1
 Number of Electrons    NEL             ....   66
 Basis Dimension        Dim             ....  321

ORBITAL ENERGIES
----------------

  NO   OCC          E(Eh)            E(eV)
   0   2.0000     -20.601576      -560.5974
   1   2.0000     -20.590064      -560.2841
   2   2.0000     -15.553995      -423.2457
   3   2.0000     -11.339090      -308.5523
   4   2.0000     -11.326697      -308.2151
   5   2.0000     -11.295874      -307.3764
   6   2.0000     -11.285089      -307.0829
   7   2.0000     -11.229851      -305.5798
   8   2.0000     -11.223270      -305.4007
   9   2.0000      -1.430619       -38.9291
  10   2.0000      -1.421564       -38.6827
  11   2.0000      -1.249497       -34.0005
  12   2.0000      -1.086283       -29.5593
  13   2.0000      -1.028172       -27.9780
  14   2.0000      -0.967770       -26.3344
  15   2.0000      -0.869649       -23.6644
  16   2.0000      -0.839982       -22.8571
  17   2.0000      -0.753327       -20.4991
  18   2.0000      -0.720786       -19.6136
  19   2.0000      -0.678847       -18.4724
  20   2.0000      -0.669672       -18.2227
  21   2.0000      -0.649242       -17.6668
  22   2.0000      -0.637660       -17.3516
  23   2.0000      -0.608814       -16.5667
  24   2.0000      -0.599871       -16.3233
  25   2.0000      -0.574213       -15.6251
  26   2.0000      -0.552328       -15.0296
  27   2.0000      -0.531859       -14.4726
  28   2.0000      -0.506146       -13.7729
  29   2.0000      -0.489616       -13.3231
  30   2.0000      -0.433944       -11.8082
  31   2.0000      -0.359012        -9.7692
  32   2.0000      -0.333244        -9.0680
  33   0.0000       0.116074         3.1585
  34   0.0000       0.136527         3.7151
  35   0.0000       0.148367         4.0373
  36   0.0000       0.165193         4.4951
  37   0.0000       0.172514         4.6943

MULLIKEN ATOMIC CHARGES
-----------------------
   0 C :   -0.243670
   1 O :   -0.257751
   2 C :    0.298741
   3 C :   -0.236877
   4 C :   -0.065542
   5 N :   -0.297816
   6 C :    0.320652
   7 O :   -0.415986
   8 C :   -0.269978
   9 H :    0.136789
  10 H :    0.156463
  11 H :    0.136788
  12 H :    0.134819
  13 H :    0.126587
  14 H :    0.335769
  15 H :    0.141012
Sum of atomic charges:   -0.0000000

LOEWDIN ATOMIC CHARGES
----------------------
   0 C :   -0.323610
   1 O :    0.244859
   2 C :   -0.253403
   3 C :   -0.162362
   4 C :   -0.219969
   5 N :    0.115449
   6 C :   -0.371217
   7 O :    0.080827
   8 C :   -0.099368
   9 H :    0.111092
  10 H :    0.119186
  11 H :    0.111091
  12 H :    0.151174
  13 H :    0.139903
  14 H :    0.196883
  15 H :    0.159465

  Mayer bond orders larger than 0.1
B(  0-C ,  1-O ) :   0.8672 B(  0-C ,  9-H ) :   0.9320 B(  0-C , 10-H ) :   0.9383
B(  0-C , 11-H ) :   0.9320 B(  1-O ,  2-C ) :   1.1002 B(  2-C ,  3-C ) :   1.2432
B(  2-C ,  8-C ) :   1.3247 B(  3-C ,  4-C ) :   1.3428 B(  3-C , 12-H ) :   0.9230
B(  4-C ,  5-N ) :   1.4306 B(  4-C , 13-H ) :   0.9457 B(  5-N ,  6-C ) :   1.3374
B(  6-C ,  7-O ) :   1.1176 B(  6-C ,  8-C ) :   1.3321 B(  7-O , 14-H ) :   0.8124
B(  8-C , 15-H ) :   0.9312

MP2 TOTAL ENERGY:     -437.218492041 Eh
FINAL SINGLE POINT ENERGY      -437.218492041055

DIPOLE MOMENT
-------------
                                X             Y             Z
Electronic contribution:      1.10241      -6.04024       1.93670
Nuclear contribution   :     -1.20791       7.13383      -2.12200
                        -----------------------------------------
Total Dipole Moment    :     -0.10550       1.09359      -0.18530
                        -----------------------------------------
Magnitude (a.u.)       :      1.11419
Magnitude (Debye)      :      2.83204

                             ****ORCA TERMINATED NORMALLY****
TOTAL RUN TIME: 0 days 0 hours 14 minutes 54 seconds 567 msec
