                         Program Version 3.0.3 - RELEASE   -
|  1> ! RI-MP2 RIJK def2-TZVP def2-TZVP/C def2-TZVP/JK TIGHTSCF
|  2> % maxcore 2000
|  3> % mp2 density relaxed end
|  4> *xyz 0 1
|  5>  C        0.0429155954     1.5984675605    -0.1704891050
|  6>  C        0.0432278535     0.0827308559     0.0034286828
|  7>  N        0.7014898352    -0.5954795139    -1.1266690484
|  8>  C        1.4789070374    -1.4563678375    -0.6220567047
|  9>  O        1.5959710957    -1.5703481995     0.7205606446
| 10>  C        0.7831685594    -0.4834518167     1.2856446908
| 11>  C        1.7549928769     0.4788226783     1.9746680143
| 12>  C       -0.1570450802    -1.0527431579     2.2436915810
| 13>  C       -0.9554492814    -1.4793954141     3.0338734064
| 14>  H        1.0567955803     1.9984535673    -0.2524393325
| 15>  H       -0.4896502469     1.8487805934    -1.0912989330
| 16>  H       -0.4645476373     2.0920875712     0.6639491493
| 17>  H       -0.9976144118    -0.2588142565     0.0330310907
| 18>  H        2.0965206809    -2.1515667906    -1.1809414231
| 19>  H        2.4759451341     0.8716236533     1.2534932184
| 20>  H        1.2161960806     1.3130598988     2.4296681027
| 21>  H        2.2983755370    -0.0525560358     2.7589458368
| 22>  H       -1.6569799090    -1.8679239262     3.7304940491
| 23> *
| 24>
| 25>                          ****END OF INPUT****

CARTESIAN COORDINATES (ANGSTROEM)
---------------------------------
  C      0.042916    1.598468   -0.170489
  C      0.043228    0.082731    0.003429
  N      0.701490   -0.595480   -1.126669
  C      1.478907   -1.456368   -0.622057
  O      1.595971   -1.570348    0.720561
  C      0.783169   -0.483452    1.285645
  C      1.754993    0.478823    1.974668
  C     -0.157045   -1.052743    2.243692
  C     -0.955449   -1.479395    3.033873
  H      1.056796    1.998454   -0.252439
  H     -0.489650    1.848781   -1.091299
  H     -0.464548    2.092088    0.663949
  H     -0.997614   -0.258814    0.033031
  H      2.096521   -2.151567   -1.180941
  H      2.475945    0.871624    1.253493
  H      1.216196    1.313060    2.429668
  H      2.298376   -0.052556    2.758946
  H     -1.656980   -1.867924    3.730494

 Total Charge           Charge          ....    0
 Multiplicity           Mult            ....    1
 Number of Electrons    NEL             ....   66
 Basis Dimension        Dim             ....  333

ORBITAL ENERGIES
----------------

  NO   OCC          E(Eh)            E(eV)
   0   2.0000     -20.599241      -560.5338
   1   2.0000     -15.549595      -423.1260
   2   2.0000     -11.333330      -308.3956
   3   2.0000     -11.331461      -308.3447
   4   2.0000     -11.274389      -306.7917
   5   2.0000     -11.242521      -305.9245
   6   2.0000     -11.236934      -305.7725
   7   2.0000     -11.233976      -305.6920
   8   2.0000     -11.222881      -305.3901
   9   2.0000      -1.441666       -39.2297
  10   2.0000      -1.218672       -33.1618
  11   2.0000      -1.107334       -30.1321
  12   2.0000      -1.025173       -27.8964
  13   2.0000      -0.989867       -26.9357
  14   2.0000      -0.919113       -25.0103
  15   2.0000      -0.827557       -22.5190
  16   2.0000      -0.807878       -21.9835
  17   2.0000      -0.737583       -20.0707
  18   2.0000      -0.709014       -19.2933
  19   2.0000      -0.673729       -18.3331
  20   2.0000      -0.644326       -17.5330
  21   2.0000      -0.608634       -16.5618
  22   2.0000      -0.598176       -16.2772
  23   2.0000      -0.556342       -15.1388
  24   2.0000      -0.552670       -15.0389
  25   2.0000      -0.539581       -14.6827
  26   2.0000      -0.533402       -14.5146
  27   2.0000      -0.521680       -14.1956
  28   2.0000      -0.495621       -13.4865
  29   2.0000      -0.450108       -12.2481
  30   2.0000      -0.406452       -11.0601
  31   2.0000      -0.393429       -10.7058
  32   2.0000      -0.384675       -10.4675
  33   0.0000       0.132441         3.6039
  34   0.0000       0.152725         4.1559
  35   0.0000       0.158213         4.3052
  36   0.0000       0.163443         4.4475
  37   0.0000       0.177675         4.8348

MULLIKEN ATOMIC CHARGES
-----------------------
   0 C :   -0.393454
   1 C :   -0.006579
   2 N :   -0.268031
   3 C :    0.089002
   4 O :   -0.266801
   5 C :    0.124131
   6 C :   -0.411123
   7 C :   -0.060053
   8 C :   -0.119919
   9 H :    0.124824
  10 H :    0.149927
  11 H :    0.132747
  12 H :    0.121253
  13 H :    0.145638
  14 H :    0.147640
  15 H :    0.139270
  16 H :    0.154168
  17 H :    0.197360
Sum of atomic charges:   -0.0000000

LOEWDIN ATOMIC CHARGES
----------------------
   0 C :   -0.286966
   1 C :   -0.246771
   2 N :    0.086650
   3 C :   -0.348190
   4 O :    0.258499
   5 C :   -0.282960
   6 C :   -0.248313
   7 C :   -0.066613
   8 C :   -0.073465
   9 H :    0.125113
  10 H :    0.132449
  11 H :    0.126599
  12 H :    0.157167
  13 H :    0.134992
  14 H :    0.131734
  15 H :    0.134312
  16 H :    0.136131
  17 H :    0.129631

  Mayer bond orders larger than 0.1
B(  0-C ,  1-C ) :   0.9215 B(  0-C ,  9-H ) :   0.9263 B(  0-C , 10-H ) :   0.9328
B(  0-C , 11-H ) :   0.9401 B(  1-C ,  2-N ) :   0.9091 B(  1-C ,  5-C ) :   0.8728
B(  1-C , 12-H ) :   0.9281 B(  2-N ,  3-C ) :   1.8205 B(  3-C ,  4-O ) :   1.0820
B(  3-C , 13-H ) :   0.9211 B(  4-O ,  5-C ) :   0.8229 B(  5-C ,  6-C ) :   0.9028
B(  5-C ,  7-C ) :   1.1818 B(  5-C ,  8-C ) :  -0.1129 B(  6-C , 14-H ) :   0.9366
B(  6-C , 15-H ) :   0.9253 B(  6-C , 16-H ) :   0.9286 B(  7-C ,  8-C ) :   2.5829
B(  8-C , 17-H ) :   0.8804

MP2 TOTAL ENERGY:     -401.233989129 Eh
FINAL SINGLE POINT ENERGY      -401.233989129320

DIPOLE MOMENT
-------------
                                X             Y             Z
Electronic contribution:      0.00464      -7.17523      -0.56684
Nuclear contribution   :     -0.06196       7.47767       1.15133
                        -----------------------------------------
Total Dipole Moment    :     -0.05733       0.30244       0.58450
                        -----------------------------------------
Magnitude (a.u.)       :      0.66060
Magnitude (Debye)      :      1.67911

                             ****ORCA TERMINATED NORMALLY****
TOTAL RUN TIME: 0 days 0 hours 18 minutes 49 seconds 827 msec
