                         Program Version 3.0.3 - RELEASE   -
|  1> ! RI-MP2 RIJK def2-TZVP def2-TZVP/C def2-TZVP/JK TIGHTSCF
|  2> % maxcore 2000
|  3> % mp2 density relaxed end
|  4> *xyz 0 1
|  5>  C        0.1519329973     1.4819170192     0.0328615144
|  6>  C        0.0087455720    -0.0047202702    -0.0237568133
|  7>  C       -0.1189105433    -0.7936377877    -1.0942681217
|  8>  C       -0.0554000682    -2.2268469910    -0.6417022246
|  9>  C        1.4036472486    -2.5387640696    -0.1690568183
| 10>  C        0.9388259711    -2.0824961704     1.2024311404
| 11>  N       -0.5178712851    -2.2135185358     0.8225496443
| 12>  C        0.0162517231    -0.8835269634     1.1961101655
| 13>  C       -0.4391544086    -0.3431278733     2.5295178886
| 14>  H        1.1099714649     1.7723222751     0.4828125050
| 15>  H        0.1019711060     1.9217440669    -0.9665435464
| 16>  H       -0.6323112986     1.9417273467     0.6460909856
| 17>  H       -0.0973476030    -0.4839850933    -2.1323077403
| 18>  H       -0.5557590040    -2.9711553389    -1.2599298600
| 19>  H        1.5933990220    -3.6147828324    -0.1584741753
| 20>  H        2.2315789252    -2.0210904683    -0.6628362825
| 21>  H        1.3191720836    -2.4683379896     2.1449397510
| 22>  H        0.2383441758     0.4364959405     2.8941214431
| 23>  H       -1.4445295161     0.0842428876     2.4528250718
| 24>  H       -0.4725359027    -1.1420443520     3.2749173429
| 25> *
| 26>
| 27>                          ****END OF INPUT****

CARTESIAN COORDINATES (ANGSTROEM)
---------------------------------
  C      0.151933    1.481917    0.032862
  C      0.008746   -0.004720   -0.023757
  C     -0.118911   -0.793638   -1.094268
  C     -0.055400   -2.226847   -0.641702
  C      1.403647   -2.538764   -0.169057
  C      0.938826   -2.082496    1.202431
  N     -0.517871   -2.213519    0.822550
  C      0.016252   -0.883527    1.196110
  C     -0.439154   -0.343128    2.529518
  H      1.109971    1.772322    0.482813
  H      0.101971    1.921744   -0.966544
  H     -0.632311    1.941727    0.646091
  H     -0.097348   -0.483985   -2.132308
  H     -0.555759   -2.971155   -1.259930
  H      1.593399   -3.614783   -0.158474
  H      2.231579   -2.021090   -0.662836
  H      1.319172   -2.468338    2.144940
  H      0.238344    0.436496    2.894121
  H     -1.444530    0.084243    2.452825
  H     -0.472536   -1.142044    3.274917

 Total Charge           Charge          ....    0
 Multiplicity           Mult            ....    1
 Number of Electrons    NEL             ....   66
 Basis Dimension        Dim             ....  345

ORBITAL ENERGIES
----------------

  NO   OCC          E(Eh)            E(eV)
   0   2.0000     -15.552577      -423.2071
   1   2.0000     -11.264945      -306.5347
   2   2.0000     -11.259978      -306.3996
   3   2.0000     -11.257969      -306.3449
   4   2.0000     -11.234974      -305.7192
   5   2.0000     -11.228870      -305.5531
   6   2.0000     -11.228049      -305.5308
   7   2.0000     -11.218776      -305.2784
   8   2.0000     -11.217955      -305.2561
   9   2.0000      -1.301141       -35.4058
  10   2.0000      -1.078771       -29.3548
  11   2.0000      -1.041441       -28.3390
  12   2.0000      -0.959284       -26.1034
  13   2.0000      -0.953290       -25.9403
  14   2.0000      -0.892438       -24.2845
  15   2.0000      -0.797559       -21.7027
  16   2.0000      -0.744993       -20.2723
  17   2.0000      -0.702799       -19.1241
  18   2.0000      -0.676770       -18.4159
  19   2.0000      -0.621675       -16.9166
  20   2.0000      -0.605693       -16.4817
  21   2.0000      -0.580310       -15.7910
  22   2.0000      -0.566787       -15.4231
  23   2.0000      -0.560824       -15.2608
  24   2.0000      -0.552021       -15.0213
  25   2.0000      -0.533609       -14.5202
  26   2.0000      -0.520634       -14.1672
  27   2.0000      -0.499921       -13.6035
  28   2.0000      -0.465816       -12.6755
  29   2.0000      -0.442173       -12.0321
  30   2.0000      -0.420317       -11.4374
  31   2.0000      -0.389865       -10.6088
  32   2.0000      -0.316160        -8.6031
  33   0.0000       0.134420         3.6577
  34   0.0000       0.143978         3.9178
  35   0.0000       0.163960         4.4616
  36   0.0000       0.166018         4.5176
  37   0.0000       0.182109         4.9554

MULLIKEN ATOMIC CHARGES
-----------------------
   0 C :   -0.449850
   1 C :    0.037645
   2 C :   -0.265209
   3 C :    0.091543
   4 C :   -0.220041
   5 C :   -0.123952
   6 N :   -0.252821
   7 C :    0.166733
   8 C :   -0.448273
   9 H :    0.144898
  10 H :    0.142825
  11 H :    0.146710
  12 H :    0.124887
  13 H :    0.132884
  14 H :    0.122874
  15 H :    0.109723
  16 H :    0.123269
  17 H :    0.131289
  18 H :    0.139196
  19 H :    0.145670
Sum of atomic charges:    0.0000000

LOEWDIN ATOMIC CHARGES
----------------------
   0 C :   -0.267894
   1 C :   -0.145772
   2 C :   -0.123052
   3 C :   -0.197107
   4 C :   -0.207658
   5 C :   -0.183509
   6 N :    0.168093
   7 C :   -0.253603
   8 C :   -0.259781
   9 H :    0.133652
  10 H :    0.132418
  11 H :    0.132958
  12 H :    0.139400
  13 H :    0.135142
  14 H :    0.141817
  15 H :    0.127570
  16 H :    0.133362
  17 H :    0.128315
  18 H :    0.131051
  19 H :    0.134597

  Mayer bond orders larger than 0.1
B(  0-C ,  1-C ) :   0.8674 B(  0-C ,  9-H ) :   0.9339 B(  0-C , 10-H ) :   0.9477
B(  0-C , 11-H ) :   0.9368 B(  1-C ,  2-C ) :   1.7890 B(  1-C ,  7-C ) :   0.9220
B(  2-C ,  3-C ) :   0.9633 B(  2-C , 12-H ) :   0.9323 B(  3-C ,  4-C ) :   0.9122
B(  3-C ,  6-N ) :   0.9148 B(  3-C , 13-H ) :   0.9150 B(  4-C ,  5-C ) :   0.9757
B(  4-C , 14-H ) :   0.9203 B(  4-C , 15-H ) :   0.9010 B(  5-C ,  6-N ) :   0.8782
B(  5-C ,  7-C ) :   0.9079 B(  5-C , 16-H ) :   0.8963 B(  6-N ,  7-C ) :   0.8909
B(  7-C ,  8-C ) :   0.8466 B(  8-C , 17-H ) :   0.9383 B(  8-C , 18-H ) :   0.9441
B(  8-C , 19-H ) :   0.9377

MP2 TOTAL ENERGY:     -365.321519535 Eh
FINAL SINGLE POINT ENERGY      -365.321519534854

DIPOLE MOMENT
-------------
                                X             Y             Z
Electronic contribution:     -0.98129      -4.19476      -1.82471
Nuclear contribution   :      1.55560       4.61564       1.64339
                        -----------------------------------------
Total Dipole Moment    :      0.57431       0.42088      -0.18132
                        -----------------------------------------
Magnitude (a.u.)       :      0.73475
Magnitude (Debye)      :      1.86758

                             ****ORCA TERMINATED NORMALLY****
TOTAL RUN TIME: 0 days 0 hours 20 minutes 39 seconds 378 msec
