                         Program Version 3.0.3 - RELEASE   -
|  1> ! RI-MP2 RIJK def2-TZVP def2-TZVP/C def2-TZVP/JK TIGHTSCF
|  2> % maxcore 2000
|  3> % mp2 density relaxed end
|  4> *xyz 0 1
|  5>  C       -0.1489575220     1.5850824586    -0.1316167207
|  6>  C        0.0256693219     0.0780900533    -0.0461741557
|  7>  O       -1.2139214181    -0.5674737764     0.1765706252
|  8>  C        0.7262885401    -0.6603927543    -1.1827579259
|  9>  C        2.1587894862    -0.3258081422    -1.2757184101
| 10>  N        1.7440572608    -1.3194419469    -0.2688167623
| 11>  C        1.1559005571    -0.5256187576     0.8883746997
| 12>  C        2.0595695642     0.3559610885     1.5959756578
| 13>  C        2.7975591218     1.1127880471     2.1712619322
| 14>  H        0.7928844689     2.0970718796    -0.3383912545
| 15>  H       -0.8670498082     1.8299636955    -0.9201000834
| 16>  H       -0.5290793528     1.9796158975     0.8188616673
| 17>  H       -1.6557928392    -0.1232665798     0.9086171915
| 18>  H        0.1883643022    -1.2258127559    -1.9360186549
| 19>  H        2.7202206384    -0.7725320282    -2.0903821457
| 20>  H        2.5337154565     0.6385764977    -0.9445832438
| 21>  H        0.6914692968    -1.2392635030     1.5730812416
| 22>  H        3.4547379156     1.7658319066     2.6906246515
| 23> *
| 24>
| 25>                          ****END OF INPUT****

CARTESIAN COORDINATES (ANGSTROEM)
---------------------------------
  C     -0.148958    1.585082   -0.131617
  C      0.025669    0.078090   -0.046174
  O     -1.213921   -0.567474    0.176571
  C      0.726289   -0.660393   -1.182758
  C      2.158789   -0.325808   -1.275718
  N      1.744057   -1.319442   -0.268817
  C      1.155901   -0.525619    0.888375
  C      2.059570    0.355961    1.595976
  C      2.797559    1.112788    2.171262
  H      0.792884    2.097072   -0.338391
  H     -0.867050    1.829964   -0.920100
  H     -0.529079    1.979616    0.818862
  H     -1.655793   -0.123267    0.908617
  H      0.188364   -1.225813   -1.936019
  H      2.720221   -0.772532   -2.090382
  H      2.533715    0.638576   -0.944583
  H      0.691469   -1.239264    1.573081
  H      3.454738    1.765832    2.690625

 Total Charge           Charge          ....    0
 Multiplicity           Mult            ....    1
 Number of Electrons    NEL             ....   66
 Basis Dimension        Dim             ....  333

ORBITAL ENERGIES
----------------

  NO   OCC          E(Eh)            E(eV)
   0   2.0000     -20.569446      -559.7231
   1   2.0000     -15.569789      -423.6755
   2   2.0000     -11.308629      -307.7234
   3   2.0000     -11.285208      -307.0861
   4   2.0000     -11.264409      -306.5202
   5   2.0000     -11.260539      -306.4148
   6   2.0000     -11.240611      -305.8726
   7   2.0000     -11.233103      -305.6683
   8   2.0000     -11.228652      -305.5472
   9   2.0000      -1.384163       -37.6650
  10   2.0000      -1.291439       -35.1418
  11   2.0000      -1.065298       -28.9882
  12   2.0000      -1.023436       -27.8491
  13   2.0000      -0.973626       -26.4937
  14   2.0000      -0.904251       -24.6059
  15   2.0000      -0.848252       -23.0821
  16   2.0000      -0.765661       -20.8347
  17   2.0000      -0.721733       -19.6394
  18   2.0000      -0.713011       -19.4020
  19   2.0000      -0.676602       -18.4113
  20   2.0000      -0.662479       -18.0270
  21   2.0000      -0.626940       -17.0599
  22   2.0000      -0.593614       -16.1530
  23   2.0000      -0.580750       -15.8030
  24   2.0000      -0.550153       -14.9704
  25   2.0000      -0.542148       -14.7526
  26   2.0000      -0.503077       -13.6894
  27   2.0000      -0.477763       -13.0006
  28   2.0000      -0.469893       -12.7865
  29   2.0000      -0.443270       -12.0620
  30   2.0000      -0.405360       -11.0304
  31   2.0000      -0.394348       -10.7308
  32   2.0000      -0.363486        -9.8910
  33   0.0000       0.126632         3.4458
  34   0.0000       0.153495         4.1768
  35   0.0000       0.156568         4.2604
  36   0.0000       0.163507         4.4492
  37   0.0000       0.170672         4.6442

MULLIKEN ATOMIC CHARGES
-----------------------
   0 C :   -0.415288
   1 C :    0.261755
   2 O :   -0.461190
   3 C :   -0.102843
   4 C :   -0.181074
   5 N :   -0.230264
   6 C :   -0.119609
   7 C :   -0.055579
   8 C :   -0.153945
   9 H :    0.133483
  10 H :    0.149249
  11 H :    0.126898
  12 H :    0.317476
  13 H :    0.135994
  14 H :    0.133955
  15 H :    0.138327
  16 H :    0.129253
  17 H :    0.193403
Sum of atomic charges:    0.0000000

LOEWDIN ATOMIC CHARGES
----------------------
   0 C :   -0.274446
   1 C :   -0.351391
   2 O :    0.023326
   3 C :   -0.176574
   4 C :   -0.240352
   5 N :    0.131213
   6 C :   -0.201749
   7 C :   -0.094242
   8 C :   -0.086919
   9 H :    0.131653
  10 H :    0.132092
  11 H :    0.128353
  12 H :    0.178832
  13 H :    0.139149
  14 H :    0.135527
  15 H :    0.130598
  16 H :    0.166687
  17 H :    0.128242

  Mayer bond orders larger than 0.1
B(  0-C ,  1-C ) :   0.9690 B(  0-C ,  9-H ) :   0.9311 B(  0-C , 10-H ) :   0.9366
B(  0-C , 11-H ) :   0.9144 B(  1-C ,  2-O ) :   0.9503 B(  1-C ,  3-C ) :   0.9331
B(  1-C ,  6-C ) :   0.9517 B(  2-O , 12-H ) :   0.8394 B(  3-C ,  4-C ) :   0.9262
B(  3-C ,  5-N ) :   0.8841 B(  3-C , 13-H ) :   0.8890 B(  4-C ,  5-N ) :   0.8963
B(  4-C , 14-H ) :   0.9299 B(  4-C , 15-H ) :   0.9054 B(  5-N ,  6-C ) :   0.8831
B(  6-C ,  7-C ) :   1.1188 B(  6-C , 16-H ) :   0.9194 B(  7-C ,  8-C ) :   2.5534
B(  8-C , 17-H ) :   0.9006

MP2 TOTAL ENERGY:     -401.170083775 Eh
FINAL SINGLE POINT ENERGY      -401.170083775101

DIPOLE MOMENT
-------------
                                X             Y             Z
Electronic contribution:      1.03975      -3.75993       1.94282
Nuclear contribution   :     -1.22718       4.84234      -1.80818
                        -----------------------------------------
Total Dipole Moment    :     -0.18743       1.08241       0.13464
                        -----------------------------------------
Magnitude (a.u.)       :      1.10674
Magnitude (Debye)      :      2.81310

                             ****ORCA TERMINATED NORMALLY****
TOTAL RUN TIME: 0 days 0 hours 20 minutes 35 seconds 654 msec
