                         Program Version 3.0.3 - RELEASE   -
|  1> ! RI-MP2 RIJK def2-TZVP def2-TZVP/C def2-TZVP/JK TIGHTSCF
|  2> % maxcore 2000
|  3> % mp2 density relaxed end
|  4> *xyz 0 1
|  5>  C       -0.0128700711     1.5868322503     0.1569013828
|  6>  C        0.0022349168     0.0588422107     0.0779676716
|  7>  C       -1.4098900893    -0.5436456165    -0.0694483311
|  8>  C       -1.4178525814    -2.0372608769    -0.1613605354
|  9>  C       -1.4580571499    -2.8900187383    -1.2486325516
| 10>  C       -1.3974620916    -4.1937480646    -0.6949696242
| 11>  N       -1.4811832596    -5.4089100790    -1.3784307360
| 12>  N       -1.3199766879    -4.1642855276     0.6317153116
| 13>  N       -1.3404630448    -2.8373278854     0.9296526695
| 14>  H        0.9997429217     1.9893162086     0.2563492610
| 15>  H       -0.4589300250     2.0252986904    -0.7427571657
| 16>  H       -0.5959495502     1.9355009051     1.0167520061
| 17>  H        0.6147605090    -0.2684090937    -0.7701956337
| 18>  H        0.4788442826    -0.3568957784     0.9741946630
| 19>  H       -2.0304101154    -0.2204052519     0.7773805256
| 20>  H       -1.8844663318    -0.1354092848    -0.9683078907
| 21>  H       -1.5393632779    -2.6118252201    -2.2873061636
| 22>  H       -0.9476119006    -5.4185789198    -2.2373307048
| 23>  H       -1.2054182601    -6.1818746262    -0.7857051318
| 24>  H       -1.3102509635    -2.5582513919     1.8945414975
| 25> *
| 26>
| 27>                          ****END OF INPUT****

CARTESIAN COORDINATES (ANGSTROEM)
---------------------------------
  C     -0.012870    1.586832    0.156901
  C      0.002235    0.058842    0.077968
  C     -1.409890   -0.543646   -0.069448
  C     -1.417853   -2.037261   -0.161361
  C     -1.458057   -2.890019   -1.248633
  C     -1.397462   -4.193748   -0.694970
  N     -1.481183   -5.408910   -1.378431
  N     -1.319977   -4.164286    0.631715
  N     -1.340463   -2.837328    0.929653
  H      0.999743    1.989316    0.256349
  H     -0.458930    2.025299   -0.742757
  H     -0.595950    1.935501    1.016752
  H      0.614761   -0.268409   -0.770196
  H      0.478844   -0.356896    0.974195
  H     -2.030410   -0.220405    0.777381
  H     -1.884466   -0.135409   -0.968308
  H     -1.539363   -2.611825   -2.287306
  H     -0.947612   -5.418579   -2.237331
  H     -1.205418   -6.181875   -0.785705
  H     -1.310251   -2.558251    1.894541

 Total Charge           Charge          ....    0
 Multiplicity           Mult            ....    1
 Number of Electrons    NEL             ....   68
 Basis Dimension        Dim             ....  345

ORBITAL ENERGIES
----------------

  NO   OCC          E(Eh)            E(eV)
   0   2.0000     -15.614887      -424.9027
   1   2.0000     -15.555507      -423.2869
   2   2.0000     -15.553297      -423.2267
   3   2.0000     -11.280708      -306.9637
   4   2.0000     -11.275739      -306.8285
   5   2.0000     -11.243654      -305.9554
   6   2.0000     -11.233656      -305.6833
   7   2.0000     -11.222760      -305.3868
   8   2.0000     -11.202892      -304.8462
   9   2.0000      -1.355754       -36.8919
  10   2.0000      -1.203441       -32.7473
  11   2.0000      -1.101010       -29.9600
  12   2.0000      -1.047921       -28.5154
  13   2.0000      -1.029450       -28.0128
  14   2.0000      -0.942948       -25.6589
  15   2.0000      -0.828457       -22.5435
  16   2.0000      -0.796349       -21.6698
  17   2.0000      -0.775665       -21.1069
  18   2.0000      -0.708292       -19.2736
  19   2.0000      -0.651137       -17.7183
  20   2.0000      -0.641998       -17.4697
  21   2.0000      -0.618669       -16.8348
  22   2.0000      -0.602733       -16.4012
  23   2.0000      -0.586215       -15.9517
  24   2.0000      -0.579748       -15.7758
  25   2.0000      -0.559458       -15.2236
  26   2.0000      -0.538976       -14.6663
  27   2.0000      -0.498788       -13.5727
  28   2.0000      -0.495383       -13.4800
  29   2.0000      -0.484176       -13.1751
  30   2.0000      -0.470089       -12.7918
  31   2.0000      -0.441745       -12.0205
  32   2.0000      -0.331668        -9.0251
  33   2.0000      -0.313315        -8.5257
  34   0.0000       0.122998         3.3469
  35   0.0000       0.147060         4.0017
  36   0.0000       0.152595         4.1523
  37   0.0000       0.164719         4.4822
  38   0.0000       0.172029         4.6812

MULLIKEN ATOMIC CHARGES
-----------------------
   0 C :   -0.388012
   1 C :   -0.179436
   2 C :   -0.356043
   3 C :    0.177804
   4 C :   -0.263670
   5 C :    0.165713
   6 N :   -0.521328
   7 N :   -0.248795
   8 N :   -0.138379
   9 H :    0.136424
  10 H :    0.124246
  11 H :    0.121941
  12 H :    0.119778
  13 H :    0.104391
  14 H :    0.129127
  15 H :    0.136539
  16 H :    0.135482
  17 H :    0.246133
  18 H :    0.249112
  19 H :    0.248972
Sum of atomic charges:   -0.0000000

LOEWDIN ATOMIC CHARGES
----------------------
   0 C :   -0.320916
   1 C :   -0.287928
   2 C :   -0.236077
   3 C :   -0.247559
   4 C :   -0.174671
   5 C :   -0.387602
   6 N :   -0.093118
   7 N :    0.014427
   8 N :    0.139770
   9 H :    0.122279
  10 H :    0.121216
  11 H :    0.120217
  12 H :    0.138144
  13 H :    0.133128
  14 H :    0.145300
  15 H :    0.151500
  16 H :    0.140710
  17 H :    0.166036
  18 H :    0.169308
  19 H :    0.185837

  Mayer bond orders larger than 0.1
B(  0-C ,  1-C ) :   0.9126 B(  0-C ,  9-H ) :   0.9407 B(  0-C , 10-H ) :   0.9384
B(  0-C , 11-H ) :   0.9390 B(  1-C ,  2-C ) :   0.9123 B(  1-C , 12-H ) :   0.9344
B(  1-C , 13-H ) :   0.9333 B(  2-C ,  3-C ) :   0.8644 B(  2-C , 14-H ) :   0.9471
B(  2-C , 15-H ) :   0.9395 B(  3-C ,  4-C ) :   1.4467 B(  3-C ,  7-N ) :   0.1032
B(  3-C ,  8-N ) :   1.1987 B(  4-C ,  5-C ) :   1.2785 B(  4-C , 16-H ) :   0.9101
B(  5-C ,  6-N ) :   1.0290 B(  5-C ,  7-N ) :   1.5881 B(  6-N , 17-H ) :   0.8765
B(  6-N , 18-H ) :   0.8756 B(  7-N ,  8-N ) :   1.0420 B(  8-N , 19-H ) :   0.8725

MP2 TOTAL ENERGY:     -398.668858299 Eh
FINAL SINGLE POINT ENERGY      -398.668858298632

DIPOLE MOMENT
-------------
                                X             Y             Z
Electronic contribution:     -3.18317     -11.34128       0.69397
Nuclear contribution   :      3.67879      12.15002      -0.74262
                        -----------------------------------------
Total Dipole Moment    :      0.49562       0.80874      -0.04865
                        -----------------------------------------
Magnitude (a.u.)       :      0.94977
Magnitude (Debye)      :      2.41412

                             ****ORCA TERMINATED NORMALLY****
TOTAL RUN TIME: 0 days 0 hours 18 minutes 54 seconds 136 msec
