                         Program Version 3.0.3 - RELEASE   -
|  1> ! RI-MP2 RIJK def2-TZVP def2-TZVP/C def2-TZVP/JK TIGHTSCF
|  2> % maxcore 2000
|  3> % mp2 density relaxed end
|  4> *xyz 0 1
|  5>  C        0.1023718801     1.4517344371    -0.0007042792
|  6>  C        0.0687393975    -0.0442167844    -0.0087895071
|  7>  N        0.0655866216    -0.6858059202    -1.1275119983
|  8>  C        0.0266900588    -2.0737766916    -1.1114593223
|  9>  N        0.1072677230    -2.6620165665    -2.3764831708
| 10>  C       -0.0263055089    -2.7494350504     0.0526111036
| 11>  O       -0.0190012914    -2.0937340058     1.2561298095
| 12>  C        0.0371788959    -0.7270109933     1.3004090140
| 13>  N        0.0544356543    -0.0818419279     2.3975899697
| 14>  H        0.9801596425     1.8077530201     0.5480277390
| 15>  H        0.1206473155     1.8259904752    -1.0246361631
| 16>  H       -0.7667988545     1.8491123258     0.5332189483
| 17>  H       -0.2526668997    -2.0425907262    -3.0903227871
| 18>  H       -0.3030634212    -3.5829094501    -2.4424151983
| 19>  H       -0.0680876049    -3.8226922249     0.1729326033
| 20>  H        0.0249232215    -0.7215676168     3.1927515988
| 21> *
| 22>
| 23>                          ****END OF INPUT****

CARTESIAN COORDINATES (ANGSTROEM)
---------------------------------
  C      0.102372    1.451734   -0.000704
  C      0.068739   -0.044217   -0.008790
  N      0.065587   -0.685806   -1.127512
  C      0.026690   -2.073777   -1.111459
  N      0.107268   -2.662017   -2.376483
  C     -0.026306   -2.749435    0.052611
  O     -0.019001   -2.093734    1.256130
  C      0.037179   -0.727011    1.300409
  N      0.054436   -0.081842    2.397590
  H      0.980160    1.807753    0.548028
  H      0.120647    1.825990   -1.024636
  H     -0.766799    1.849112    0.533219
  H     -0.252667   -2.042591   -3.090323
  H     -0.303063   -3.582909   -2.442415
  H     -0.068088   -3.822692    0.172933
  H      0.024923   -0.721568    3.192752

 Total Charge           Charge          ....    0
 Multiplicity           Mult            ....    1
 Number of Electrons    NEL             ....   66
 Basis Dimension        Dim             ....  321

ORBITAL ENERGIES
----------------

  NO   OCC          E(Eh)            E(eV)
   0   2.0000     -20.622157      -561.1574
   1   2.0000     -15.587783      -424.1651
   2   2.0000     -15.568435      -423.6387
   3   2.0000     -15.547505      -423.0691
   4   2.0000     -11.356179      -309.0173
   5   2.0000     -11.313237      -307.8488
   6   2.0000     -11.307484      -307.6923
   7   2.0000     -11.288410      -307.1733
   8   2.0000     -11.229395      -305.5674
   9   2.0000      -1.459447       -39.7136
  10   2.0000      -1.287025       -35.0217
  11   2.0000      -1.220085       -33.2002
  12   2.0000      -1.192310       -32.4444
  13   2.0000      -1.032122       -28.0855
  14   2.0000      -0.985560       -26.8184
  15   2.0000      -0.898196       -24.4411
  16   2.0000      -0.859127       -23.3780
  17   2.0000      -0.770947       -20.9785
  18   2.0000      -0.714979       -19.4556
  19   2.0000      -0.678395       -18.4601
  20   2.0000      -0.658561       -17.9203
  21   2.0000      -0.656026       -17.8514
  22   2.0000      -0.626560       -17.0496
  23   2.0000      -0.598158       -16.2767
  24   2.0000      -0.582746       -15.8573
  25   2.0000      -0.571269       -15.5450
  26   2.0000      -0.546180       -14.8623
  27   2.0000      -0.534612       -14.5475
  28   2.0000      -0.471828       -12.8391
  29   2.0000      -0.461679       -12.5629
  30   2.0000      -0.429258       -11.6807
  31   2.0000      -0.425108       -11.5678
  32   2.0000      -0.297154        -8.0860
  33   0.0000       0.071446         1.9442
  34   0.0000       0.133919         3.6441
  35   0.0000       0.149012         4.0548
  36   0.0000       0.171572         4.6687
  37   0.0000       0.175437         4.7739

MULLIKEN ATOMIC CHARGES
-----------------------
   0 C :   -0.369692
   1 C :    0.119282
   2 N :   -0.239632
   3 C :    0.234412
   4 N :   -0.509826
   5 C :   -0.081335
   6 O :   -0.210222
   7 C :    0.140073
   8 N :   -0.392359
   9 H :    0.151283
  10 H :    0.146177
  11 H :    0.149513
  12 H :    0.258422
  13 H :    0.242924
  14 H :    0.142310
  15 H :    0.218671
Sum of atomic charges:   -0.0000000

LOEWDIN ATOMIC CHARGES
----------------------
   0 C :   -0.257464
   1 C :   -0.210900
   2 N :    0.192916
   3 C :   -0.360908
   4 N :   -0.079750
   5 C :   -0.234756
   6 O :    0.316895
   7 C :   -0.367733
   8 N :   -0.057230
   9 H :    0.142711
  10 H :    0.131913
  11 H :    0.141863
  12 H :    0.171952
  13 H :    0.166352
  14 H :    0.138651
  15 H :    0.165487

  Mayer bond orders larger than 0.1
B(  0-C ,  1-C ) :   0.9129 B(  0-C ,  9-H ) :   0.9126 B(  0-C , 10-H ) :   0.9440
B(  0-C , 11-H ) :   0.9148 B(  1-C ,  2-N ) :   1.7228 B(  1-C ,  7-C ) :   1.0101
B(  1-C ,  8-N ) :  -0.1031 B(  2-N ,  3-C ) :   1.0659 B(  3-C ,  4-N ) :   1.0344
B(  3-C ,  5-C ) :   1.5876 B(  4-N , 12-H ) :   0.8639 B(  4-N , 13-H ) :   0.8816
B(  5-C ,  6-O ) :   0.9897 B(  5-C , 14-H ) :   0.9390 B(  6-O ,  7-C ) :   1.0467
B(  7-C ,  8-N ) :   1.9765 B(  8-N , 15-H ) :   0.8555

MP2 TOTAL ENERGY:     -433.357944762 Eh
FINAL SINGLE POINT ENERGY      -433.357944762407

DIPOLE MOMENT
-------------
                                X             Y             Z
Electronic contribution:      0.05602      -3.56202       1.72347
Nuclear contribution   :     -0.51748       2.72573      -2.24483
                        -----------------------------------------
Total Dipole Moment    :     -0.46146      -0.83629      -0.52136
                        -----------------------------------------
Magnitude (a.u.)       :      1.08818
Magnitude (Debye)      :      2.76594

                             ****ORCA TERMINATED NORMALLY****
TOTAL RUN TIME: 0 days 0 hours 15 minutes 44 seconds 594 msec
