                         Program Version 3.0.3 - RELEASE   -
|  1> ! RI-MP2 RIJK def2-TZVP def2-TZVP/C def2-TZVP/JK TIGHTSCF
|  2> % maxcore 2000
|  3> % mp2 density relaxed end
|  4> *xyz 0 1
|  5>  C        0.2317846823     1.4096580298    -0.1477077408
|  6>  C        0.1950812424    -0.0739598917     0.0226292726
|  7>  O       -1.0293778875    -0.7469272491    -0.3311248623
|  8>  C       -0.9142310826    -1.5997127742     0.8394325811
|  9>  C        0.4517012220    -1.0200119521     1.1826405189
| 10>  C        1.3514043990    -1.0318751551    -0.0467253189
| 11>  C        1.4486070427    -2.1638978331    -1.0437473069
| 12>  O        1.9102502742    -1.7159797976    -2.3121121269
| 13>  H        1.1789729547     1.8138100868     0.2205234196
| 14>  H        0.1404070129     1.6791473944    -1.2063535897
| 15>  H       -0.5900930572     1.8883387550     0.3938331842
| 16>  H       -1.6849220050    -1.3423712467     1.5749870713
| 17>  H       -0.9876502626    -2.6647784464     0.5920726207
| 18>  H        0.8233128544    -0.8274480154     2.1804952075
| 19>  H        2.3033919385    -0.5407992770     0.1468938431
| 20>  H        2.1839613272    -2.9008051050    -0.7038214888
| 21>  H        0.4835829819    -2.6774245854    -1.1364267772
| 22>  H        1.2342541626    -1.1285716170    -2.6655759973
| 23> *
| 24>
| 25>                          ****END OF INPUT****

CARTESIAN COORDINATES (ANGSTROEM)
---------------------------------
  C      0.231785    1.409658   -0.147708
  C      0.195081   -0.073960    0.022629
  O     -1.029378   -0.746927   -0.331125
  C     -0.914231   -1.599713    0.839433
  C      0.451701   -1.020012    1.182641
  C      1.351404   -1.031875   -0.046725
  C      1.448607   -2.163898   -1.043747
  O      1.910250   -1.715980   -2.312112
  H      1.178973    1.813810    0.220523
  H      0.140407    1.679147   -1.206354
  H     -0.590093    1.888339    0.393833
  H     -1.684922   -1.342371    1.574987
  H     -0.987650   -2.664778    0.592073
  H      0.823313   -0.827448    2.180495
  H      2.303392   -0.540799    0.146894
  H      2.183961   -2.900805   -0.703821
  H      0.483583   -2.677425   -1.136427
  H      1.234254   -1.128572   -2.665576

 Total Charge           Charge          ....    0
 Multiplicity           Mult            ....    1
 Number of Electrons    NEL             ....   62
 Basis Dimension        Dim             ....  308

ORBITAL ENERGIES
----------------

  NO   OCC          E(Eh)            E(eV)
   0   2.0000     -20.557375      -559.3946
   1   2.0000     -20.550331      -559.2029
   2   2.0000     -11.297405      -307.4180
   3   2.0000     -11.288548      -307.1770
   4   2.0000     -11.273372      -306.7640
   5   2.0000     -11.242016      -305.9108
   6   2.0000     -11.238468      -305.8143
   7   2.0000     -11.230050      -305.5852
   8   2.0000      -1.395848       -37.9830
   9   2.0000      -1.353674       -36.8353
  10   2.0000      -1.128270       -30.7018
  11   2.0000      -1.007155       -27.4061
  12   2.0000      -0.959514       -26.1097
  13   2.0000      -0.907510       -24.6946
  14   2.0000      -0.786220       -21.3941
  15   2.0000      -0.740176       -20.1412
  16   2.0000      -0.703720       -19.1492
  17   2.0000      -0.672530       -18.3005
  18   2.0000      -0.653313       -17.7776
  19   2.0000      -0.636032       -17.3073
  20   2.0000      -0.604227       -16.4419
  21   2.0000      -0.576139       -15.6775
  22   2.0000      -0.571615       -15.5544
  23   2.0000      -0.550465       -14.9789
  24   2.0000      -0.538567       -14.6552
  25   2.0000      -0.505469       -13.7545
  26   2.0000      -0.497349       -13.5336
  27   2.0000      -0.475785       -12.9468
  28   2.0000      -0.452868       -12.3232
  29   2.0000      -0.400942       -10.9102
  30   2.0000      -0.373761       -10.1706
  31   0.0000       0.132631         3.6091
  32   0.0000       0.154136         4.1942
  33   0.0000       0.158285         4.3072
  34   0.0000       0.173135         4.7112
  35   0.0000       0.185802         5.0559

MULLIKEN ATOMIC CHARGES
-----------------------
   0 C :   -0.379999
   1 C :    0.209362
   2 O :   -0.349613
   3 C :   -0.044479
   4 C :   -0.195885
   5 C :   -0.190768
   6 C :   -0.016337
   7 O :   -0.476999
   8 H :    0.134683
   9 H :    0.137126
  10 H :    0.137976
  11 H :    0.112834
  12 H :    0.111621
  13 H :    0.142255
  14 H :    0.118607
  15 H :    0.116115
  16 H :    0.114744
  17 H :    0.318757
Sum of atomic charges:    0.0000000

LOEWDIN ATOMIC CHARGES
----------------------
   0 C :   -0.268187
   1 C :   -0.290560
   2 O :    0.157714
   3 C :   -0.246624
   4 C :   -0.164220
   5 C :   -0.190400
   6 C :   -0.322791
   7 O :   -0.049987
   8 H :    0.135367
   9 H :    0.133567
  10 H :    0.131381
  11 H :    0.125595
  12 H :    0.116689
  13 H :    0.137545
  14 H :    0.161896
  15 H :    0.131880
  16 H :    0.125490
  17 H :    0.175646

  Mayer bond orders larger than 0.1
B(  0-C ,  1-C ) :   0.8844 B(  0-C ,  8-H ) :   0.9335 B(  0-C ,  9-H ) :   0.9337
B(  0-C , 10-H ) :   0.9355 B(  1-C ,  2-O ) :   0.9336 B(  1-C ,  4-C ) :   0.8481
B(  1-C ,  5-C ) :   0.8811 B(  2-O ,  3-C ) :   0.9129 B(  3-C ,  4-C ) :   0.9668
B(  3-C , 11-H ) :   0.9151 B(  3-C , 12-H ) :   0.9224 B(  4-C ,  5-C ) :   0.8418
B(  4-C , 13-H ) :   0.9087 B(  5-C ,  6-C ) :   0.9322 B(  5-C , 14-H ) :   0.9287
B(  6-C ,  7-O ) :   0.9110 B(  6-C , 15-H ) :   0.9264 B(  6-C , 16-H ) :   0.9271
B(  7-O , 17-H ) :   0.8475

MP2 TOTAL ENERGY:     -384.260512781 Eh
FINAL SINGLE POINT ENERGY      -384.260512781383

DIPOLE MOMENT
-------------
                                X             Y             Z
Electronic contribution:     -0.60223      -1.60374      -1.28994
Nuclear contribution   :      0.46162       1.91925       2.13307
                        -----------------------------------------
Total Dipole Moment    :     -0.14061       0.31550       0.84313
                        -----------------------------------------
Magnitude (a.u.)       :      0.91115
Magnitude (Debye)      :      2.31595

                             ****ORCA TERMINATED NORMALLY****
TOTAL RUN TIME: 0 days 0 hours 12 minutes 18 seconds 135 msec
