                         Program Version 3.0.3 - RELEASE   -
|  1> ! RI-MP2 RIJK def2-TZVP def2-TZVP/C def2-TZVP/JK TIGHTSCF
|  2> % maxcore 2000
|  3> % mp2 density relaxed end
|  4> *xyz 0 1
|  5>  C       -0.1091386219     1.5178374123    -0.1299905939
|  6>  C        0.0562836563     0.0131071296     0.0120842806
|  7>  O        0.7017530180    -0.4594890032    -1.1730853397
|  8>  C        0.7959604526    -1.8581909225    -1.1841420225
|  9>  O        1.5231651658    -2.3669588855    -0.0989297341
| 10>  C        0.9253569900    -2.0050288577     1.1485637757
| 11>  C        1.7091243814    -2.7045074964     2.2477485404
| 12>  C        0.8446368333    -0.4635263019     1.2552472431
| 13>  C        2.2218006990     0.1995734843     1.3795927792
| 14>  H        0.8548412938     2.0069005271    -0.2891578671
| 15>  H       -0.7474744455     1.7440525700    -0.9883423552
| 16>  H       -0.5717013425     1.9391510695     0.7680827701
| 17>  H       -0.9471889302    -0.4475263799     0.0647881059
| 18>  H       -0.2209900717    -2.2983533278    -1.1881140033
| 19>  H        1.3325154894    -2.1389841857    -2.0930816561
| 20>  H       -0.1114700763    -2.3882068722     1.1576487822
| 21>  H        2.7668814044    -2.4332456318     2.2111307075
| 22>  H        1.3124101186    -2.4358982041     3.2318583189
| 23>  H        1.6350075170    -3.7886793353     2.1273682696
| 24>  H        0.2425772565    -0.2232001768     2.1424214289
| 25>  H        2.8381179116    -0.0266655662     0.5062799079
| 26>  H        2.1318996210     1.2857676514     1.4629294920
| 27>  H        2.7499112996    -0.1492264572     2.2708173098
| 28> *
| 29>
| 30>                          ****END OF INPUT****

CARTESIAN COORDINATES (ANGSTROEM)
---------------------------------
  C     -0.109139    1.517837   -0.129991
  C      0.056284    0.013107    0.012084
  O      0.701753   -0.459489   -1.173085
  C      0.795960   -1.858191   -1.184142
  O      1.523165   -2.366959   -0.098930
  C      0.925357   -2.005029    1.148564
  C      1.709124   -2.704507    2.247749
  C      0.844637   -0.463526    1.255247
  C      2.221801    0.199573    1.379593
  H      0.854841    2.006901   -0.289158
  H     -0.747474    1.744053   -0.988342
  H     -0.571701    1.939151    0.768083
  H     -0.947189   -0.447526    0.064788
  H     -0.220990   -2.298353   -1.188114
  H      1.332515   -2.138984   -2.093082
  H     -0.111470   -2.388207    1.157649
  H      2.766881   -2.433246    2.211131
  H      1.312410   -2.435898    3.231858
  H      1.635008   -3.788679    2.127368
  H      0.242577   -0.223200    2.142421
  H      2.838118   -0.026666    0.506280
  H      2.131900    1.285768    1.462929
  H      2.749911   -0.149226    2.270817

 Total Charge           Charge          ....    0
 Multiplicity           Mult            ....    1
 Number of Electrons    NEL             ....   72
 Basis Dimension        Dim             ....  363

ORBITAL ENERGIES
----------------

  NO   OCC          E(Eh)            E(eV)
   0   2.0000     -20.555804      -559.3519
   1   2.0000     -20.555785      -559.3514
   2   2.0000     -11.322051      -308.0887
   3   2.0000     -11.282100      -307.0015
   4   2.0000     -11.282094      -307.0014
   5   2.0000     -11.230375      -305.5940
   6   2.0000     -11.215309      -305.1841
   7   2.0000     -11.215308      -305.1840
   8   2.0000     -11.209267      -305.0197
   9   2.0000      -1.418723       -38.6054
  10   2.0000      -1.342020       -36.5182
  11   2.0000      -1.097071       -29.8528
  12   2.0000      -1.011096       -27.5133
  13   2.0000      -0.978962       -26.6389
  14   2.0000      -0.908721       -24.7276
  15   2.0000      -0.886077       -24.1114
  16   2.0000      -0.819519       -22.3002
  17   2.0000      -0.760672       -20.6989
  18   2.0000      -0.679490       -18.4899
  19   2.0000      -0.679335       -18.4856
  20   2.0000      -0.647762       -17.6265
  21   2.0000      -0.644486       -17.5374
  22   2.0000      -0.638548       -17.3758
  23   2.0000      -0.560338       -15.2476
  24   2.0000      -0.559602       -15.2276
  25   2.0000      -0.548325       -14.9207
  26   2.0000      -0.545720       -14.8498
  27   2.0000      -0.544934       -14.8284
  28   2.0000      -0.521580       -14.1929
  29   2.0000      -0.515099       -14.0166
  30   2.0000      -0.509631       -13.8678
  31   2.0000      -0.485155       -13.2017
  32   2.0000      -0.467342       -12.7170
  33   2.0000      -0.456967       -12.4347
  34   2.0000      -0.424937       -11.5631
  35   2.0000      -0.411136       -11.1876
  36   0.0000       0.132290         3.5998
  37   0.0000       0.157278         4.2798
  38   0.0000       0.158548         4.3143
  39   0.0000       0.171000         4.6532
  40   0.0000       0.194466         5.2917

MULLIKEN ATOMIC CHARGES
-----------------------
   0 C :   -0.405595
   1 C :    0.084372
   2 O :   -0.307840
   3 C :    0.048734
   4 O :   -0.307841
   5 C :    0.084379
   6 C :   -0.405598
   7 C :   -0.007906
   8 C :   -0.498527
   9 H :    0.142010
  10 H :    0.140688
  11 H :    0.125412
  12 H :    0.081867
  13 H :    0.082401
  14 H :    0.129183
  15 H :    0.081867
  16 H :    0.142008
  17 H :    0.125412
  18 H :    0.140687
  19 H :    0.093945
  20 H :    0.156134
  21 H :    0.137104
  22 H :    0.137104
Sum of atomic charges:   -0.0000000

LOEWDIN ATOMIC CHARGES
----------------------
   0 C :   -0.289096
   1 C :   -0.323927
   2 O :    0.178852
   3 C :   -0.401772
   4 O :    0.178853
   5 C :   -0.323926
   6 C :   -0.289097
   7 C :   -0.248706
   8 C :   -0.289063
   9 H :    0.127856
  10 H :    0.127580
  11 H :    0.127842
  12 H :    0.138418
  13 H :    0.105148
  14 H :    0.123246
  15 H :    0.138419
  16 H :    0.127856
  17 H :    0.127842
  18 H :    0.127580
  19 H :    0.156322
  20 H :    0.132266
  21 H :    0.123755
  22 H :    0.123755

  Mayer bond orders larger than 0.1
B(  0-C ,  1-C ) :   0.8986 B(  0-C ,  9-H ) :   0.9422 B(  0-C , 10-H ) :   0.9367
B(  0-C , 11-H ) :   0.9352 B(  1-C ,  2-O ) :   0.9145 B(  1-C ,  7-C ) :   0.9007
B(  1-C , 12-H ) :   0.9374 B(  2-O ,  3-C ) :   0.9832 B(  3-C ,  4-O ) :   0.9832
B(  3-C , 13-H ) :   0.9281 B(  3-C , 14-H ) :   0.9319 B(  4-O ,  5-C ) :   0.9145
B(  5-C ,  6-C ) :   0.8986 B(  5-C ,  7-C ) :   0.9007 B(  5-C , 15-H ) :   0.9374
B(  6-C , 16-H ) :   0.9422 B(  6-C , 17-H ) :   0.9352 B(  6-C , 18-H ) :   0.9367
B(  7-C ,  8-C ) :   0.8615 B(  7-C , 19-H ) :   0.9122 B(  8-C , 20-H ) :   0.9343
B(  8-C , 21-H ) :   0.9412 B(  8-C , 22-H ) :   0.9412

MP2 TOTAL ENERGY:     -424.744130972 Eh
FINAL SINGLE POINT ENERGY      -424.744130971967

DIPOLE MOMENT
-------------
                                X             Y             Z
Electronic contribution:     -0.21663      -3.07352      -5.29212
Nuclear contribution   :     -0.29966       3.14613       5.81587
                        -----------------------------------------
Total Dipole Moment    :     -0.51629       0.07261       0.52375
                        -----------------------------------------
Magnitude (a.u.)       :      0.73902
Magnitude (Debye)      :      1.87843

                             ****ORCA TERMINATED NORMALLY****
TOTAL RUN TIME: 0 days 0 hours 20 minutes 13 seconds 688 msec
