                         Program Version 3.0.3 - RELEASE   -
|  1> ! RI-MP2 RIJK def2-TZVP def2-TZVP/C def2-TZVP/JK TIGHTSCF
|  2> % maxcore 2000
|  3> % mp2 density relaxed end
|  4> *xyz 0 1
|  5>  C       -0.1085539734     1.4930940494     0.0036097061
|  6>  C        0.0556672113    -0.0043791383     0.0295724201
|  7>  O       -1.2334025371    -0.6270863600    -0.1454588862
|  8>  C       -1.1576003810    -1.9800447591     0.3321909178
|  9>  C        0.2171848611    -2.1074113455     0.9615385344
| 10>  C        1.4294868832    -1.6647231902     0.1674655174
| 11>  C        0.7649418969    -0.7348356586     1.1905267387
| 12>  C        1.0457797617    -0.7025218015    -0.9633061384
| 13>  O        0.5062298840    -1.1739004057    -2.1682155252
| 14>  H        0.8584428291     1.9863799795     0.1352251941
| 15>  H       -0.5308506478     1.8131584886    -0.9537704341
| 16>  H       -0.7817034378     1.8212065212     0.8014149336
| 17>  H       -1.9534625394    -2.1394173275     1.0705371795
| 18>  H       -1.3119498209    -2.6791051016    -0.4993399334
| 19>  H        0.3830535685    -2.8787463035     1.7047399975
| 20>  H        2.3715793142    -2.1928639585     0.2573103636
| 21>  H        1.1264984183    -0.3229651217     2.1223859832
| 22>  H        1.8966031283    -0.0518589701    -1.1949257538
| 23>  H       -0.4527344091    -1.1655036768    -2.0421743249
| 24> *
| 25>
| 26>                          ****END OF INPUT****

CARTESIAN COORDINATES (ANGSTROEM)
---------------------------------
  C     -0.108554    1.493094    0.003610
  C      0.055667   -0.004379    0.029572
  O     -1.233403   -0.627086   -0.145459
  C     -1.157600   -1.980045    0.332191
  C      0.217185   -2.107411    0.961539
  C      1.429487   -1.664723    0.167466
  C      0.764942   -0.734836    1.190527
  C      1.045780   -0.702522   -0.963306
  O      0.506230   -1.173900   -2.168216
  H      0.858443    1.986380    0.135225
  H     -0.530851    1.813158   -0.953770
  H     -0.781703    1.821207    0.801415
  H     -1.953463   -2.139417    1.070537
  H     -1.311950   -2.679105   -0.499340
  H      0.383054   -2.878746    1.704740
  H      2.371579   -2.192864    0.257310
  H      1.126498   -0.322965    2.122386
  H      1.896603   -0.051859   -1.194926
  H     -0.452734   -1.165504   -2.042174

 Total Charge           Charge          ....    0
 Multiplicity           Mult            ....    1
 Number of Electrons    NEL             ....   68
 Basis Dimension        Dim             ....  339

ORBITAL ENERGIES
----------------

  NO   OCC          E(Eh)            E(eV)
   0   2.0000     -20.560776      -559.4872
   1   2.0000     -20.545821      -559.0802
   2   2.0000     -11.293667      -307.3163
   3   2.0000     -11.281584      -306.9875
   4   2.0000     -11.280446      -306.9565
   5   2.0000     -11.245842      -306.0149
   6   2.0000     -11.240984      -305.8827
   7   2.0000     -11.239368      -305.8388
   8   2.0000     -11.221417      -305.3503
   9   2.0000      -1.394822       -37.9550
  10   2.0000      -1.348912       -36.7058
  11   2.0000      -1.186937       -32.2982
  12   2.0000      -1.048651       -28.5352
  13   2.0000      -0.953329       -25.9414
  14   2.0000      -0.905733       -24.6463
  15   2.0000      -0.848206       -23.0809
  16   2.0000      -0.790811       -21.5191
  17   2.0000      -0.755087       -20.5470
  18   2.0000      -0.698272       -19.0010
  19   2.0000      -0.682038       -18.5592
  20   2.0000      -0.641320       -17.4512
  21   2.0000      -0.614398       -16.7186
  22   2.0000      -0.602786       -16.4026
  23   2.0000      -0.590141       -16.0586
  24   2.0000      -0.584338       -15.9006
  25   2.0000      -0.558711       -15.2033
  26   2.0000      -0.532347       -14.4859
  27   2.0000      -0.528298       -14.3757
  28   2.0000      -0.488980       -13.3058
  29   2.0000      -0.481115       -13.0918
  30   2.0000      -0.459562       -12.5053
  31   2.0000      -0.410270       -11.1640
  32   2.0000      -0.404985       -11.0202
  33   2.0000      -0.388295       -10.5660
  34   0.0000       0.141593         3.8529
  35   0.0000       0.153478         4.1763
  36   0.0000       0.166315         4.5257
  37   0.0000       0.174808         4.7568
  38   0.0000       0.190412         5.1814

MULLIKEN ATOMIC CHARGES
-----------------------
   0 C :   -0.423873
   1 C :    0.233937
   2 O :   -0.343570
   3 C :   -0.068882
   4 C :   -0.139930
   5 C :   -0.123108
   6 C :   -0.223255
   7 C :    0.071711
   8 O :   -0.479722
   9 H :    0.131673
  10 H :    0.146329
  11 H :    0.138923
  12 H :    0.112546
  13 H :    0.116896
  14 H :    0.138974
  15 H :    0.136399
  16 H :    0.148599
  17 H :    0.094727
  18 H :    0.331625
Sum of atomic charges:    0.0000000

LOEWDIN ATOMIC CHARGES
----------------------
   0 C :   -0.265266
   1 C :   -0.305578
   2 O :    0.171888
   3 C :   -0.272242
   4 C :   -0.188547
   5 C :   -0.135594
   6 C :   -0.114679
   7 C :   -0.283095
   8 O :   -0.012579
   9 H :    0.131611
  10 H :    0.134602
  11 H :    0.131627
  12 H :    0.127082
  13 H :    0.123716
  14 H :    0.154950
  15 H :    0.137417
  16 H :    0.138434
  17 H :    0.146849
  18 H :    0.179404

  Mayer bond orders larger than 0.1
B(  0-C ,  1-C ) :   0.8747 B(  0-C ,  9-H ) :   0.9405 B(  0-C , 10-H ) :   0.9407
B(  0-C , 11-H ) :   0.9398 B(  1-C ,  2-O ) :   0.9127 B(  1-C ,  6-C ) :   0.9263
B(  1-C ,  7-C ) :   0.9648 B(  2-O ,  3-C ) :   0.9128 B(  3-C ,  4-C ) :   0.9718
B(  3-C , 12-H ) :   0.9193 B(  3-C , 13-H ) :   0.9334 B(  4-C ,  5-C ) :   0.8661
B(  4-C ,  6-C ) :   0.8648 B(  4-C , 14-H ) :   0.9262 B(  5-C ,  6-C ) :   0.8354
B(  5-C ,  7-C ) :   0.8851 B(  5-C , 15-H ) :   0.9315 B(  6-C , 16-H ) :   0.9088
B(  7-C ,  8-O ) :   0.9947 B(  7-C , 17-H ) :   0.9605 B(  8-O , 18-H ) :   0.8156

MP2 TOTAL ENERGY:     -422.306029614 Eh
FINAL SINGLE POINT ENERGY      -422.306029614363

DIPOLE MOMENT
-------------
                                X             Y             Z
Electronic contribution:     -0.09102      -2.25853      -1.44811
Nuclear contribution   :      0.22934       2.21742       2.39403
                        -----------------------------------------
Total Dipole Moment    :      0.13832      -0.04111       0.94592
                        -----------------------------------------
Magnitude (a.u.)       :      0.95686
Magnitude (Debye)      :      2.43215

                             ****ORCA TERMINATED NORMALLY****
TOTAL RUN TIME: 0 days 0 hours 18 minutes 6 seconds 196 msec
