                         Program Version 3.0.3 - RELEASE   -
|  1> ! RI-MP2 RIJK def2-TZVP def2-TZVP/C def2-TZVP/JK TIGHTSCF
|  2> % maxcore 2000
|  3> % mp2 density relaxed end
|  4> *xyz 0 1
|  5>  C       -0.0673576329     1.5455351891     0.0335807283
|  6>  C        1.4812946561     1.2798798900     0.0119626689
|  7>  C        1.2438367441     0.0335484563     0.9033497677
|  8>  O        2.1232775774    -1.0322906489     0.5670111299
|  9>  C        1.8056799047    -1.1600621592    -0.8196653321
| 10>  O        0.6752101066    -2.0140519184    -0.9897020899
| 11>  C       -0.5119057023    -1.3316542182    -0.4798817227
| 12>  C        0.0740828640     0.0140909349    -0.1256669106
| 13>  C        1.2587849288     0.2339390485    -1.1213022476
| 14>  H       -0.4923794134     1.9159356184     0.9709391924
| 15>  H       -0.4729586914     2.0890792351    -0.8226100169
| 16>  H        2.2777342632     2.0206983433     0.0885608941
| 17>  H        1.0791762780     0.1060360378     1.9776058487
| 18>  H        2.6380348675    -1.5998338896    -1.3649301450
| 19>  H       -1.2733687419    -1.3014881839    -1.2674255161
| 20>  H       -0.9026133159    -1.8909422943     0.3768995093
| 21>  H        1.0471592673     0.5254062892    -2.1489998083
| 22> *
| 23>
| 24>                          ****END OF INPUT****

CARTESIAN COORDINATES (ANGSTROEM)
---------------------------------
  C     -0.067358    1.545535    0.033581
  C      1.481295    1.279880    0.011963
  C      1.243837    0.033548    0.903350
  O      2.123278   -1.032291    0.567011
  C      1.805680   -1.160062   -0.819665
  O      0.675210   -2.014052   -0.989702
  C     -0.511906   -1.331654   -0.479882
  C      0.074083    0.014091   -0.125667
  C      1.258785    0.233939   -1.121302
  H     -0.492379    1.915936    0.970939
  H     -0.472959    2.089079   -0.822610
  H      2.277734    2.020698    0.088561
  H      1.079176    0.106036    1.977606
  H      2.638035   -1.599834   -1.364930
  H     -1.273369   -1.301488   -1.267426
  H     -0.902613   -1.890942    0.376900
  H      1.047159    0.525406   -2.149000

 Total Charge           Charge          ....    0
 Multiplicity           Mult            ....    1
 Number of Electrons    NEL             ....   66
 Basis Dimension        Dim             ....  327

ORBITAL ENERGIES
----------------

  NO   OCC          E(Eh)            E(eV)
   0   2.0000     -20.557990      -559.4114
   1   2.0000     -20.556353      -559.3668
   2   2.0000     -11.331836      -308.3549
   3   2.0000     -11.291615      -307.2605
   4   2.0000     -11.285073      -307.0825
   5   2.0000     -11.257340      -306.3278
   6   2.0000     -11.255622      -306.2810
   7   2.0000     -11.253906      -306.2344
   8   2.0000     -11.240084      -305.8582
   9   2.0000      -1.429751       -38.9055
  10   2.0000      -1.339094       -36.4386
  11   2.0000      -1.210808       -32.9478
  12   2.0000      -0.993739       -27.0410
  13   2.0000      -0.963762       -26.2253
  14   2.0000      -0.907990       -24.7077
  15   2.0000      -0.847718       -23.0676
  16   2.0000      -0.791846       -21.5472
  17   2.0000      -0.752548       -20.4779
  18   2.0000      -0.701380       -19.0855
  19   2.0000      -0.689334       -18.7577
  20   2.0000      -0.650466       -17.7001
  21   2.0000      -0.617832       -16.8121
  22   2.0000      -0.589921       -16.0526
  23   2.0000      -0.580781       -15.8038
  24   2.0000      -0.555718       -15.1219
  25   2.0000      -0.532027       -14.4772
  26   2.0000      -0.500123       -13.6090
  27   2.0000      -0.499651       -13.5962
  28   2.0000      -0.474581       -12.9140
  29   2.0000      -0.457699       -12.4546
  30   2.0000      -0.443984       -12.0814
  31   2.0000      -0.407458       -11.0875
  32   2.0000      -0.393363       -10.7039
  33   0.0000       0.139432         3.7941
  34   0.0000       0.161352         4.3906
  35   0.0000       0.168322         4.5803
  36   0.0000       0.174760         4.7555
  37   0.0000       0.193176         5.2566

MULLIKEN ATOMIC CHARGES
-----------------------
   0 C :   -0.190267
   1 C :   -0.124449
   2 C :    0.054519
   3 O :   -0.311777
   4 C :    0.142883
   5 O :   -0.298440
   6 C :   -0.058263
   7 C :   -0.054380
   8 C :   -0.144663
   9 H :    0.123162
  10 H :    0.123589
  11 H :    0.143169
  12 H :    0.124769
  13 H :    0.123679
  14 H :    0.111223
  15 H :    0.110978
  16 H :    0.124270
Sum of atomic charges:    0.0000000

LOEWDIN ATOMIC CHARGES
----------------------
   0 C :   -0.167718
   1 C :   -0.137341
   2 C :   -0.212450
   3 O :    0.190662
   4 C :   -0.346917
   5 O :    0.158358
   6 C :   -0.238905
   7 C :   -0.184112
   8 C :   -0.128813
   9 H :    0.130076
  10 H :    0.132989
  11 H :    0.126881
  12 H :    0.139046
  13 H :    0.136277
  14 H :    0.127003
  15 H :    0.129575
  16 H :    0.145390

  Mayer bond orders larger than 0.1
B(  0-C ,  1-C ) :   0.8995 B(  0-C ,  7-C ) :   0.8596 B(  0-C ,  9-H ) :   0.9304
B(  0-C , 10-H ) :   0.9207 B(  1-C ,  2-C ) :   0.8395 B(  1-C ,  8-C ) :   0.8673
B(  1-C , 11-H ) :   0.8885 B(  2-C ,  3-O ) :   0.9476 B(  2-C ,  7-C ) :   0.8889
B(  2-C , 12-H ) :   0.9364 B(  3-O ,  4-C ) :   0.9751 B(  4-C ,  5-O ) :   0.9903
B(  4-C ,  8-C ) :   0.9722 B(  4-C , 13-H ) :   0.9249 B(  5-O ,  6-C ) :   0.9215
B(  6-C ,  7-C ) :   0.9670 B(  6-C , 14-H ) :   0.9236 B(  6-C , 15-H ) :   0.9110
B(  7-C ,  8-C ) :   0.8295 B(  8-C , 16-H ) :   0.9286

MP2 TOTAL ENERGY:     -421.067471692 Eh
FINAL SINGLE POINT ENERGY      -421.067471692210

DIPOLE MOMENT
-------------
                                X             Y             Z
Electronic contribution:      2.59730      -3.14331       0.24613
Nuclear contribution   :     -3.10785       4.10020      -0.35162
                        -----------------------------------------
Total Dipole Moment    :     -0.51055       0.95690      -0.10548
                        -----------------------------------------
Magnitude (a.u.)       :      1.08970
Magnitude (Debye)      :      2.76979

                             ****ORCA TERMINATED NORMALLY****
TOTAL RUN TIME: 0 days 0 hours 17 minutes 35 seconds 217 msec
