                         Program Version 3.0.3 - RELEASE   -
|  1> ! RI-MP2 RIJK def2-TZVP def2-TZVP/C def2-TZVP/JK TIGHTSCF
|  2> % maxcore 2000
|  3> % mp2 density relaxed end
|  4> *xyz 0 1
|  5>  C       -0.3088016041     1.6353564881    -0.1839811605
|  6>  C        0.0027294230     0.1629603597    -0.0241438775
|  7>  C        0.7507898051    -0.5757342400    -1.2355258816
|  8>  O        0.9886703026     0.1497017548    -2.4038643414
|  9>  C        1.8964215397    -0.7898565387    -0.2422295738
| 10>  C        3.0541316766    -1.2352772899     0.3620408007
| 11>  N        2.9928291137    -0.8413311932     1.6712773484
| 12>  N        1.8687917188    -0.1980885546     1.9215930730
| 13>  N        1.2354156860    -0.1650663846     0.7456031730
| 14>  H        0.5624737674     2.1944033544    -0.5361528962
| 15>  H       -1.1157749342     1.7619712047    -0.9113243194
| 16>  H       -0.6281786147     2.0682752998     0.7678336316
| 17>  H       -0.8583980086    -0.3941251419     0.3550066620
| 18>  H        0.2403120290    -1.4919952162    -1.5399009058
| 19>  H        1.6341117327     0.8392227625    -2.2139422120
| 20>  H        3.9025408269    -1.7794483247    -0.0167827705
| 21> *
| 22>
| 23>                          ****END OF INPUT****

CARTESIAN COORDINATES (ANGSTROEM)
---------------------------------
  C     -0.308802    1.635356   -0.183981
  C      0.002729    0.162960   -0.024144
  C      0.750790   -0.575734   -1.235526
  O      0.988670    0.149702   -2.403864
  C      1.896422   -0.789857   -0.242230
  C      3.054132   -1.235277    0.362041
  N      2.992829   -0.841331    1.671277
  N      1.868792   -0.198089    1.921593
  N      1.235416   -0.165066    0.745603
  H      0.562474    2.194403   -0.536153
  H     -1.115775    1.761971   -0.911324
  H     -0.628179    2.068275    0.767834
  H     -0.858398   -0.394125    0.355007
  H      0.240312   -1.491995   -1.539901
  H      1.634112    0.839223   -2.213942
  H      3.902541   -1.779448   -0.016783

 Total Charge           Charge          ....    0
 Multiplicity           Mult            ....    1
 Number of Electrons    NEL             ....   66
 Basis Dimension        Dim             ....  321

ORBITAL ENERGIES
----------------

  NO   OCC          E(Eh)            E(eV)
   0   2.0000     -20.593221      -560.3700
   1   2.0000     -15.650723      -425.8778
   2   2.0000     -15.638157      -425.5359
   3   2.0000     -15.596519      -424.4029
   4   2.0000     -11.339290      -308.5578
   5   2.0000     -11.318542      -307.9932
   6   2.0000     -11.281130      -306.9752
   7   2.0000     -11.262355      -306.4643
   8   2.0000     -11.248403      -306.0846
   9   2.0000      -1.443450       -39.2783
  10   2.0000      -1.403114       -38.1807
  11   2.0000      -1.245681       -33.8967
  12   2.0000      -1.095991       -29.8234
  13   2.0000      -1.051329       -28.6081
  14   2.0000      -0.962380       -26.1877
  15   2.0000      -0.887896       -24.1609
  16   2.0000      -0.836206       -22.7543
  17   2.0000      -0.769938       -20.9511
  18   2.0000      -0.734865       -19.9967
  19   2.0000      -0.694142       -18.8886
  20   2.0000      -0.677568       -18.4376
  21   2.0000      -0.645326       -17.5602
  22   2.0000      -0.622664       -16.9435
  23   2.0000      -0.607036       -16.5183
  24   2.0000      -0.570096       -15.5131
  25   2.0000      -0.559015       -15.2116
  26   2.0000      -0.550423       -14.9778
  27   2.0000      -0.531745       -14.4695
  28   2.0000      -0.496910       -13.5216
  29   2.0000      -0.478250       -13.0139
  30   2.0000      -0.425640       -11.5823
  31   2.0000      -0.401419       -10.9232
  32   2.0000      -0.359034        -9.7698
  33   0.0000       0.113845         3.0979
  34   0.0000       0.128816         3.5053
  35   0.0000       0.148984         4.0541
  36   0.0000       0.168905         4.5961
  37   0.0000       0.182856         4.9758

MULLIKEN ATOMIC CHARGES
-----------------------
   0 C :   -0.370832
   1 C :   -0.027990
   2 C :    0.073917
   3 O :   -0.432104
   4 C :   -0.039612
   5 C :   -0.174130
   6 N :   -0.123163
   7 N :   -0.216133
   8 N :    0.142069
   9 H :    0.113474
  10 H :    0.150299
  11 H :    0.158954
  12 H :    0.132447
  13 H :    0.136744
  14 H :    0.328156
  15 H :    0.147905
Sum of atomic charges:   -0.0000000

LOEWDIN ATOMIC CHARGES
----------------------
   0 C :   -0.286980
   1 C :   -0.195752
   2 C :   -0.273661
   3 O :    0.014004
   4 C :   -0.213217
   5 C :   -0.254766
   6 N :    0.009359
   7 N :   -0.042998
   8 N :    0.227344
   9 H :    0.125652
  10 H :    0.138104
  11 H :    0.136047
  12 H :    0.149350
  13 H :    0.148008
  14 H :    0.182607
  15 H :    0.136898

  Mayer bond orders larger than 0.1
B(  0-C ,  1-C ) :   0.9372 B(  0-C ,  9-H ) :   0.9242 B(  0-C , 10-H ) :   0.9265
B(  0-C , 11-H ) :   0.9325 B(  1-C ,  2-C ) :   0.8851 B(  1-C ,  8-N ) :   0.8219
B(  1-C , 12-H ) :   0.9124 B(  2-C ,  3-O ) :   1.0046 B(  2-C ,  4-C ) :   0.9376
B(  2-C , 13-H ) :   0.9071 B(  3-O , 14-H ) :   0.8323 B(  4-C ,  5-C ) :   1.3724
B(  4-C ,  8-N ) :   1.1449 B(  5-C ,  6-N ) :   1.4131 B(  5-C , 15-H ) :   0.9403
B(  6-N ,  7-N ) :   1.2294 B(  7-N ,  8-N ) :   1.0226

MP2 TOTAL ENERGY:     -433.309156582 Eh
FINAL SINGLE POINT ENERGY      -433.309156582335

DIPOLE MOMENT
-------------
                                X             Y             Z
Electronic contribution:      4.46233      -3.76082       2.75763
Nuclear contribution   :     -5.39923       4.09784      -3.97402
                        -----------------------------------------
Total Dipole Moment    :     -0.93690       0.33702      -1.21638
                        -----------------------------------------
Magnitude (a.u.)       :      1.57193
Magnitude (Debye)      :      3.99553

                             ****ORCA TERMINATED NORMALLY****
TOTAL RUN TIME: 0 days 0 hours 16 minutes 0 seconds 610 msec
