                         Program Version 3.0.3 - RELEASE   -
|  1> ! RI-MP2 RIJK def2-TZVP def2-TZVP/C def2-TZVP/JK TIGHTSCF
|  2> % maxcore 2000
|  3> % mp2 density relaxed end
|  4> *xyz 0 1
|  5>  C       -0.0469686348     1.5742177923     0.1785541722
|  6>  C        1.4711160771     1.2933087769     0.0812052617
|  7>  C        1.2085323937     0.0428409338     1.0051549231
|  8>  C        0.0829384414     0.0302645960    -0.0755797002
|  9>  C       -0.9728633039    -0.8506019600    -0.7327722491
| 10>  C       -0.8134756466    -0.4469675222    -2.2111122814
| 11>  O       -0.8742606893     0.9624895346    -2.4559032179
| 12>  C        0.4232771787     0.3599148569    -2.4310610245
| 13>  C        1.1831259484     0.3232468121    -1.1184609084
| 14>  H       -0.4125530687     1.8559569702     1.1708750790
| 15>  H       -0.5014609357     2.1723291322    -0.6049559985
| 16>  H        2.2892386957     2.0073003361     0.1850258409
| 17>  H        1.9419178313    -0.7677052377     0.9647154491
| 18>  H        0.9110905784     0.2687851299     2.0326711166
| 19>  H       -0.7544039220    -1.9202030369    -0.6279151393
| 20>  H       -1.9894912005    -0.6743872940    -0.3679241785
| 21>  H       -1.2560546711    -1.0629338096    -2.9913417887
| 22>  H        0.9430389232     0.3601249167    -3.3867351669
| 23>  H        1.9405035748    -0.4661080175    -1.2216501695
| 24> *
| 25>
| 26>                          ****END OF INPUT****

CARTESIAN COORDINATES (ANGSTROEM)
---------------------------------
  C     -0.046969    1.574218    0.178554
  C      1.471116    1.293309    0.081205
  C      1.208532    0.042841    1.005155
  C      0.082938    0.030265   -0.075580
  C     -0.972863   -0.850602   -0.732772
  C     -0.813476   -0.446968   -2.211112
  O     -0.874261    0.962490   -2.455903
  C      0.423277    0.359915   -2.431061
  C      1.183126    0.323247   -1.118461
  H     -0.412553    1.855957    1.170875
  H     -0.501461    2.172329   -0.604956
  H      2.289239    2.007300    0.185026
  H      1.941918   -0.767705    0.964715
  H      0.911091    0.268785    2.032671
  H     -0.754404   -1.920203   -0.627915
  H     -1.989491   -0.674387   -0.367924
  H     -1.256055   -1.062934   -2.991342
  H      0.943039    0.360125   -3.386735
  H      1.940504   -0.466108   -1.221650

 Total Charge           Charge          ....    0
 Multiplicity           Mult            ....    1
 Number of Electrons    NEL             ....   66
 Basis Dimension        Dim             ....  339

ORBITAL ENERGIES
----------------

  NO   OCC          E(Eh)            E(eV)
   0   2.0000     -20.564160      -559.5793
   1   2.0000     -11.285728      -307.1003
   2   2.0000     -11.284978      -307.0799
   3   2.0000     -11.248609      -306.0902
   4   2.0000     -11.243539      -305.9522
   5   2.0000     -11.235544      -305.7347
   6   2.0000     -11.233382      -305.6759
   7   2.0000     -11.231384      -305.6215
   8   2.0000     -11.216243      -305.2095
   9   2.0000      -1.410983       -38.3948
  10   2.0000      -1.212278       -32.9878
  11   2.0000      -1.032968       -28.1085
  12   2.0000      -0.964790       -26.2533
  13   2.0000      -0.902265       -24.5519
  14   2.0000      -0.862186       -23.4613
  15   2.0000      -0.829837       -22.5810
  16   2.0000      -0.781442       -21.2641
  17   2.0000      -0.719970       -19.5914
  18   2.0000      -0.702993       -19.1294
  19   2.0000      -0.634190       -17.2572
  20   2.0000      -0.617983       -16.8162
  21   2.0000      -0.611272       -16.6336
  22   2.0000      -0.599331       -16.3086
  23   2.0000      -0.556957       -15.1556
  24   2.0000      -0.529046       -14.3961
  25   2.0000      -0.501698       -13.6519
  26   2.0000      -0.492264       -13.3952
  27   2.0000      -0.471021       -12.8171
  28   2.0000      -0.448298       -12.1988
  29   2.0000      -0.438566       -11.9340
  30   2.0000      -0.424241       -11.5442
  31   2.0000      -0.402295       -10.9470
  32   2.0000      -0.387462       -10.5434
  33   0.0000       0.145692         3.9645
  34   0.0000       0.159511         4.3405
  35   0.0000       0.164899         4.4871
  36   0.0000       0.180798         4.9198
  37   0.0000       0.190734         5.1901

MULLIKEN ATOMIC CHARGES
-----------------------
   0 C :   -0.219771
   1 C :   -0.116572
   2 C :   -0.165415
   3 C :   -0.031111
   4 C :   -0.211358
   5 C :    0.004872
   6 O :   -0.326676
   7 C :   -0.016614
   8 C :   -0.108092
   9 H :    0.105337
  10 H :    0.143517
  11 H :    0.133963
  12 H :    0.110388
  13 H :    0.115134
  14 H :    0.114926
  15 H :    0.127147
  16 H :    0.122688
  17 H :    0.128872
  18 H :    0.088766
Sum of atomic charges:    0.0000000

LOEWDIN ATOMIC CHARGES
----------------------
   0 C :   -0.169903
   1 C :   -0.160153
   2 C :   -0.173375
   3 C :   -0.180820
   4 C :   -0.205527
   5 C :   -0.238290
   6 O :    0.172323
   7 C :   -0.241711
   8 C :   -0.155533
   9 H :    0.126945
  10 H :    0.134274
  11 H :    0.122770
  12 H :    0.127005
  13 H :    0.127969
  14 H :    0.147347
  15 H :    0.144950
  16 H :    0.131636
  17 H :    0.133909
  18 H :    0.156184

  Mayer bond orders larger than 0.1
B(  0-C ,  1-C ) :   0.9147 B(  0-C ,  3-C ) :   0.9123 B(  0-C ,  9-H ) :   0.9348
B(  0-C , 10-H ) :   0.9092 B(  1-C ,  2-C ) :   0.9169 B(  1-C ,  8-C ) :   0.8671
B(  1-C , 11-H ) :   0.8935 B(  2-C ,  3-C ) :   0.8635 B(  2-C , 12-H ) :   0.9275
B(  2-C , 13-H ) :   0.9282 B(  3-C ,  4-C ) :   0.9323 B(  3-C ,  8-C ) :   0.8638
B(  4-C ,  5-C ) :   0.9422 B(  4-C , 14-H ) :   0.9036 B(  4-C , 15-H ) :   0.9063
B(  5-C ,  6-O ) :   0.9279 B(  5-C ,  7-C ) :   0.9251 B(  5-C , 16-H ) :   0.9268
B(  6-O ,  7-C ) :   0.8962 B(  7-C ,  8-C ) :   0.9264 B(  7-C , 17-H ) :   0.9398
B(  8-C , 18-H ) :   0.9156

MP2 TOTAL ENERGY:     -385.134104482 Eh
FINAL SINGLE POINT ENERGY      -385.134104482364

DIPOLE MOMENT
-------------
                                X             Y             Z
Electronic contribution:     -1.11043       1.17698      -3.57024
Nuclear contribution   :      1.39854      -1.79316       3.71418
                        -----------------------------------------
Total Dipole Moment    :      0.28811      -0.61618       0.14394
                        -----------------------------------------
Magnitude (a.u.)       :      0.69527
Magnitude (Debye)      :      1.76724

                             ****ORCA TERMINATED NORMALLY****
TOTAL RUN TIME: 0 days 0 hours 21 minutes 2 seconds 349 msec
