                         Program Version 3.0.3 - RELEASE   -
|  1> ! RI-MP2 RIJK def2-TZVP def2-TZVP/C def2-TZVP/JK TIGHTSCF
|  2> % maxcore 2000
|  3> % mp2 density relaxed end
|  4> *xyz 0 1
|  5>  N        0.0979596502    -1.1991161666     0.3921668582
|  6>  C        0.0675607493    -0.0727225839     0.1394030697
|  7>  C        0.0524650534     1.3618148142    -0.2103584177
|  8>  O       -0.7682787087     2.0825552866     0.7091039708
|  9>  C       -0.0026212997     3.0955722982     1.3618252899
| 10>  C        1.3915238408     2.9711625943     0.7905451717
| 11>  C        1.4215107499     1.9938119762    -0.1020930269
| 12>  C       -0.5963236495     4.4235264328     1.1077156724
| 13>  N       -1.0391954792     5.4740805229     0.9239182898
| 14>  H       -0.3675573882     1.4544716886    -1.2222483863
| 15>  H       -0.0223600024     2.9228814418     2.4474995086
| 16>  H        2.2031211698     3.6182779271     1.0922634001
| 17>  H        2.2672365044     1.6513117579    -0.6816895503
| 18> *
| 19>
| 20>                          ****END OF INPUT****

CARTESIAN COORDINATES (ANGSTROEM)
---------------------------------
  N      0.097960   -1.199116    0.392167
  C      0.067561   -0.072723    0.139403
  C      0.052465    1.361815   -0.210358
  O     -0.768279    2.082555    0.709104
  C     -0.002621    3.095572    1.361825
  C      1.391524    2.971163    0.790545
  C      1.421511    1.993812   -0.102093
  C     -0.596324    4.423526    1.107716
  N     -1.039195    5.474081    0.923918
  H     -0.367557    1.454472   -1.222248
  H     -0.022360    2.922881    2.447500
  H      2.203121    3.618278    1.092263
  H      2.267237    1.651312   -0.681690

 Total Charge           Charge          ....    0
 Multiplicity           Mult            ....    1
 Number of Electrons    NEL             ....   62
 Basis Dimension        Dim             ....  303

ORBITAL ENERGIES
----------------

  NO   OCC          E(Eh)            E(eV)
   0   2.0000     -20.622479      -561.1662
   1   2.0000     -15.594866      -424.3579
   2   2.0000     -15.594861      -424.3577
   3   2.0000     -11.374104      -309.5051
   4   2.0000     -11.374081      -309.5045
   5   2.0000     -11.294497      -307.3389
   6   2.0000     -11.292673      -307.2893
   7   2.0000     -11.292186      -307.2760
   8   2.0000     -11.292183      -307.2759
   9   2.0000      -1.451480       -39.4968
  10   2.0000      -1.241258       -33.7763
  11   2.0000      -1.237285       -33.6682
  12   2.0000      -1.137796       -30.9610
  13   2.0000      -1.091149       -29.6917
  14   2.0000      -0.945200       -25.7202
  15   2.0000      -0.837625       -22.7929
  16   2.0000      -0.778953       -21.1964
  17   2.0000      -0.773477       -21.0474
  18   2.0000      -0.703276       -19.1371
  19   2.0000      -0.689452       -18.7609
  20   2.0000      -0.642511       -17.4836
  21   2.0000      -0.601226       -16.3602
  22   2.0000      -0.579145       -15.7593
  23   2.0000      -0.578309       -15.7366
  24   2.0000      -0.566809       -15.4236
  25   2.0000      -0.524451       -14.2710
  26   2.0000      -0.495798       -13.4913
  27   2.0000      -0.484351       -13.1799
  28   2.0000      -0.484336       -13.1794
  29   2.0000      -0.474679       -12.9167
  30   2.0000      -0.424544       -11.5524
  31   0.0000       0.095613         2.6018
  32   0.0000       0.109228         2.9722
  33   0.0000       0.134615         3.6631
  34   0.0000       0.139298         3.7905
  35   0.0000       0.151263         4.1161

MULLIKEN ATOMIC CHARGES
-----------------------
   0 N :   -0.047643
   1 C :   -0.181981
   2 C :    0.224049
   3 O :   -0.301081
   4 C :    0.224210
   5 C :   -0.170634
   6 C :   -0.170669
   7 C :   -0.182108
   8 N :   -0.047630
   9 H :    0.155792
  10 H :    0.155844
  11 H :    0.170923
  12 H :    0.170929
Sum of atomic charges:    0.0000000

LOEWDIN ATOMIC CHARGES
----------------------
   0 N :    0.083721
   1 C :   -0.153821
   2 C :   -0.268275
   3 O :    0.231038
   4 C :   -0.268258
   5 C :   -0.104289
   6 C :   -0.104278
   7 C :   -0.153824
   8 N :    0.083714
   9 H :    0.171780
  10 H :    0.171785
  11 H :    0.155351
  12 H :    0.155356

  Mayer bond orders larger than 0.1
B(  0-N ,  1-C ) :   2.8366 B(  1-C ,  2-C ) :   0.9070 B(  2-C ,  3-O ) :   0.9370
B(  2-C ,  6-C ) :   0.9407 B(  2-C ,  9-H ) :   0.8985 B(  3-O ,  4-C ) :   0.9368
B(  4-C ,  5-C ) :   0.9407 B(  4-C ,  7-C ) :   0.9070 B(  4-C , 10-H ) :   0.8985
B(  5-C ,  6-C ) :   1.8051 B(  5-C , 11-H ) :   0.9049 B(  6-C , 12-H ) :   0.9048
B(  7-C ,  8-N ) :   2.8366

MP2 TOTAL ENERGY:     -414.904288284 Eh
FINAL SINGLE POINT ENERGY      -414.904288283775

DIPOLE MOMENT
-------------
                                X             Y             Z
Electronic contribution:     -2.32404      -0.42772       0.38895
Nuclear contribution   :      3.60172       0.66294      -0.60269
                        -----------------------------------------
Total Dipole Moment    :      1.27768       0.23521      -0.21374
                        -----------------------------------------
Magnitude (a.u.)       :      1.31661
Magnitude (Debye)      :      3.34656

                             ****ORCA TERMINATED NORMALLY****
TOTAL RUN TIME: 0 days 0 hours 12 minutes 26 seconds 83 msec
