                         Program Version 3.0.3 - RELEASE   -
|  1> ! RI-MP2 RIJK def2-TZVP def2-TZVP/C def2-TZVP/JK TIGHTSCF
|  2> % maxcore 2000
|  3> % mp2 density relaxed end
|  4> *xyz 0 1
|  5>  O       -0.0549015897     1.4135845376     0.0070978670
|  6>  C        0.0111885106    -0.0017451883     0.0017501822
|  7>  C       -1.3871173572    -0.5334605287     0.0121063734
|  8>  C       -2.5251742655     0.2019723796     0.0236720771
|  9>  O       -3.6267011551    -0.6142112366     0.0307143109
| 10>  C       -3.1837466482    -1.8803977751     0.0235513530
| 11>  C       -1.8143989258    -1.9154628968     0.0118650611
| 12>  C       -0.9971508972    -3.1275789927     0.0016239726
| 13>  O       -1.4381748944    -4.2563935709     0.0022050790
| 14>  H        0.8427767099     1.7571739249     0.0007393366
| 15>  H        0.5449187266    -0.3746405482    -0.8881751919
| 16>  H        0.5603261153    -0.3806506653     0.8796731299
| 17>  H       -2.7177392374     1.2597122907     0.0282521628
| 18>  H       -3.9270572317    -2.6600977412     0.0276965841
| 19>  H        0.1016358798    -2.9490800691    -0.0071377778
| 20> *
| 21>
| 22>                          ****END OF INPUT****

CARTESIAN COORDINATES (ANGSTROEM)
---------------------------------
  O     -0.054902    1.413585    0.007098
  C      0.011189   -0.001745    0.001750
  C     -1.387117   -0.533461    0.012106
  C     -2.525174    0.201972    0.023672
  O     -3.626701   -0.614211    0.030714
  C     -3.183747   -1.880398    0.023551
  C     -1.814399   -1.915463    0.011865
  C     -0.997151   -3.127579    0.001624
  O     -1.438175   -4.256394    0.002205
  H      0.842777    1.757174    0.000739
  H      0.544919   -0.374641   -0.888175
  H      0.560326   -0.380651    0.879673
  H     -2.717739    1.259712    0.028252
  H     -3.927057   -2.660098    0.027697
  H      0.101636   -2.949080   -0.007138

 Total Charge           Charge          ....    0
 Multiplicity           Mult            ....    1
 Number of Electrons    NEL             ....   66
 Basis Dimension        Dim             ....  315

ORBITAL ENERGIES
----------------

  NO   OCC          E(Eh)            E(eV)
   0   2.0000     -20.642245      -561.7040
   1   2.0000     -20.578315      -559.9644
   2   2.0000     -20.552098      -559.2510
   3   2.0000     -11.339817      -308.5721
   4   2.0000     -11.318986      -308.0053
   5   2.0000     -11.308284      -307.7141
   6   2.0000     -11.292870      -307.2946
   7   2.0000     -11.252204      -306.1880
   8   2.0000     -11.245070      -305.9939
   9   2.0000      -1.480153       -40.2770
  10   2.0000      -1.390132       -37.8274
  11   2.0000      -1.384232       -37.6669
  12   2.0000      -1.122482       -30.5443
  13   2.0000      -1.036646       -28.2086
  14   2.0000      -0.953499       -25.9460
  15   2.0000      -0.902209       -24.5503
  16   2.0000      -0.791469       -21.5370
  17   2.0000      -0.781171       -21.2568
  18   2.0000      -0.722405       -19.6576
  19   2.0000      -0.712817       -19.3967
  20   2.0000      -0.666981       -18.1495
  21   2.0000      -0.655608       -17.8400
  22   2.0000      -0.641410       -17.4537
  23   2.0000      -0.630463       -17.1558
  24   2.0000      -0.614169       -16.7124
  25   2.0000      -0.594276       -16.1711
  26   2.0000      -0.544996       -14.8301
  27   2.0000      -0.543004       -14.7759
  28   2.0000      -0.528737       -14.3877
  29   2.0000      -0.481131       -13.0922
  30   2.0000      -0.433002       -11.7826
  31   2.0000      -0.400021       -10.8851
  32   2.0000      -0.331905        -9.0316
  33   0.0000       0.081836         2.2269
  34   0.0000       0.119370         3.2482
  35   0.0000       0.149009         4.0547
  36   0.0000       0.151375         4.1191
  37   0.0000       0.180766         4.9189

MULLIKEN ATOMIC CHARGES
-----------------------
   0 O :   -0.466291
   1 C :   -0.110803
   2 C :    0.045068
   3 C :   -0.009910
   4 O :   -0.190296
   5 C :    0.032877
   6 C :   -0.070689
   7 C :    0.076298
   8 O :   -0.283792
   9 H :    0.321224
  10 H :    0.120028
  11 H :    0.120018
  12 H :    0.169461
  13 H :    0.172412
  14 H :    0.074395
Sum of atomic charges:    0.0000000

LOEWDIN ATOMIC CHARGES
----------------------
   0 O :   -0.032636
   1 C :   -0.306067
   2 C :   -0.161411
   3 C :   -0.188885
   4 O :    0.357466
   5 C :   -0.177226
   6 C :   -0.176249
   7 C :   -0.271555
   8 O :    0.124707
   9 H :    0.176834
  10 H :    0.127263
  11 H :    0.127254
  12 H :    0.141504
  13 H :    0.143526
  14 H :    0.115475

  Mayer bond orders larger than 0.1
B(  0-O ,  1-C ) :   1.0572 B(  0-O ,  2-C ) :  -0.1153 B(  0-O ,  9-H ) :   0.8453
B(  1-C ,  2-C ) :   0.8638 B(  1-C , 10-H ) :   0.9397 B(  1-C , 11-H ) :   0.9397
B(  2-C ,  3-C ) :   1.5492 B(  2-C ,  6-C ) :   1.0784 B(  3-C ,  4-O ) :   1.0163
B(  3-C , 12-H ) :   0.9208 B(  4-O ,  5-C ) :   1.0930 B(  5-C ,  6-C ) :   1.4730
B(  5-C , 13-H ) :   0.9172 B(  6-C ,  7-C ) :   0.8427 B(  6-C ,  8-O ) :  -0.1208
B(  6-C , 14-H ) :  -0.1067 B(  7-C ,  8-O ) :   2.0057 B(  7-C , 14-H ) :   0.9883

MP2 TOTAL ENERGY:     -457.046081510 Eh
FINAL SINGLE POINT ENERGY      -457.046081510477

DIPOLE MOMENT
-------------
                                X             Y             Z
Electronic contribution:     -4.00792      -2.37795       0.02736
Nuclear contribution   :      4.85408       3.36938      -0.03185
                        -----------------------------------------
Total Dipole Moment    :      0.84616       0.99142      -0.00449
                        -----------------------------------------
Magnitude (a.u.)       :      1.30343
Magnitude (Debye)      :      3.31305

                             ****ORCA TERMINATED NORMALLY****
TOTAL RUN TIME: 0 days 0 hours 14 minutes 39 seconds 434 msec
