                         Program Version 3.0.3 - RELEASE   -
|  1> ! RI-MP2 RIJK def2-TZVP def2-TZVP/C def2-TZVP/JK TIGHTSCF
|  2> % maxcore 2000
|  3> % mp2 density relaxed end
|  4> *xyz 0 1
|  5>  C        0.1960271879     1.3323174251     0.1954158789
|  6>  O       -0.2040476041     0.0087436482    -0.1295548872
|  7>  C        0.4908161675    -0.5383775562    -1.1800625143
|  8>  C        1.9325597758    -1.0088597579    -1.0849335817
|  9>  C        0.8341532043    -1.9782818564    -1.4580996113
| 10>  C        0.5298893687    -3.2857726837    -0.8075698437
| 11>  O        0.5352539527    -1.8333386113    -2.8582487651
| 12>  C        0.0812447817    -0.4680038407    -2.6502796973
| 13>  H        1.2656271843     1.3769846520     0.4404442910
| 14>  H       -0.0045226778     2.0314605379    -0.6282932006
| 15>  H       -0.3881292874     1.6352036841     1.0669471494
| 16>  H        2.6796824775    -0.7181089776    -1.8192005504
| 17>  H        2.2882877812    -1.1053602335    -0.0631676606
| 18>  H        0.6821825904    -3.2154722725     0.2729431972
| 19>  H       -0.5065587321    -3.5811564286    -0.9964910764
| 20>  H        1.1867847554    -4.0726732422    -1.1946525432
| 21>  H       -1.0041339616    -0.3933960966    -2.7842404828
| 22>  H        0.5936306257     0.2462147198    -3.3054667622
| 23> *
| 24>
| 25>                          ****END OF INPUT****

CARTESIAN COORDINATES (ANGSTROEM)
---------------------------------
  C      0.196027    1.332317    0.195416
  O     -0.204048    0.008744   -0.129555
  C      0.490816   -0.538378   -1.180063
  C      1.932560   -1.008860   -1.084934
  C      0.834153   -1.978282   -1.458100
  C      0.529889   -3.285773   -0.807570
  O      0.535254   -1.833339   -2.858249
  C      0.081245   -0.468004   -2.650280
  H      1.265627    1.376985    0.440444
  H     -0.004523    2.031461   -0.628293
  H     -0.388129    1.635204    1.066947
  H      2.679682   -0.718109   -1.819201
  H      2.288288   -1.105360   -0.063168
  H      0.682183   -3.215472    0.272943
  H     -0.506559   -3.581156   -0.996491
  H      1.186785   -4.072673   -1.194653
  H     -1.004134   -0.393396   -2.784240
  H      0.593631    0.246215   -3.305467

 Total Charge           Charge          ....    0
 Multiplicity           Mult            ....    1
 Number of Electrons    NEL             ....   62
 Basis Dimension        Dim             ....  308

ORBITAL ENERGIES
----------------

  NO   OCC          E(Eh)            E(eV)
   0   2.0000     -20.573249      -559.8266
   1   2.0000     -20.551140      -559.2250
   2   2.0000     -11.289252      -307.1962
   3   2.0000     -11.288538      -307.1767
   4   2.0000     -11.280964      -306.9706
   5   2.0000     -11.280140      -306.9482
   6   2.0000     -11.229829      -305.5792
   7   2.0000     -11.223012      -305.3937
   8   2.0000      -1.406664       -38.2773
   9   2.0000      -1.376787       -37.4643
  10   2.0000      -1.111496       -30.2453
  11   2.0000      -0.999839       -27.2070
  12   2.0000      -0.947164       -25.7736
  13   2.0000      -0.916981       -24.9523
  14   2.0000      -0.811084       -22.0707
  15   2.0000      -0.735086       -20.0027
  16   2.0000      -0.683973       -18.6119
  17   2.0000      -0.676931       -18.4202
  18   2.0000      -0.650006       -17.6876
  19   2.0000      -0.628248       -17.0955
  20   2.0000      -0.614554       -16.7229
  21   2.0000      -0.573062       -15.5938
  22   2.0000      -0.569574       -15.4989
  23   2.0000      -0.548751       -14.9323
  24   2.0000      -0.546073       -14.8594
  25   2.0000      -0.528256       -14.3746
  26   2.0000      -0.497728       -13.5439
  27   2.0000      -0.491356       -13.3705
  28   2.0000      -0.440965       -11.9993
  29   2.0000      -0.391366       -10.6496
  30   2.0000      -0.367324        -9.9954
  31   0.0000       0.137409         3.7391
  32   0.0000       0.153445         4.1755
  33   0.0000       0.174096         4.7374
  34   0.0000       0.185200         5.0396
  35   0.0000       0.195787         5.3276

MULLIKEN ATOMIC CHARGES
-----------------------
   0 C :   -0.207617
   1 O :   -0.304168
   2 C :    0.113112
   3 C :   -0.301777
   4 C :    0.171323
   5 C :   -0.398838
   6 O :   -0.327008
   7 C :   -0.023584
   8 H :    0.120996
   9 H :    0.118076
  10 H :    0.142532
  11 H :    0.132257
  12 H :    0.137685
  13 H :    0.135266
  14 H :    0.138763
  15 H :    0.143218
  16 H :    0.104553
  17 H :    0.105211
Sum of atomic charges:   -0.0000000

LOEWDIN ATOMIC CHARGES
----------------------
   0 C :   -0.333397
   1 O :    0.194683
   2 C :   -0.325702
   3 C :   -0.177917
   4 C :   -0.287150
   5 C :   -0.265750
   6 O :    0.162668
   7 C :   -0.222237
   8 H :    0.105214
   9 H :    0.104295
  10 H :    0.113938
  11 H :    0.133874
  12 H :    0.146417
  13 H :    0.137023
  14 H :    0.133609
  15 H :    0.134635
  16 H :    0.127615
  17 H :    0.118181

  Mayer bond orders larger than 0.1
B(  0-C ,  1-O ) :   0.8818 B(  0-C ,  8-H ) :   0.9352 B(  0-C ,  9-H ) :   0.9370
B(  0-C , 10-H ) :   0.9394 B(  1-O ,  2-C ) :   1.0288 B(  2-C ,  3-C ) :   0.8761
B(  2-C ,  4-C ) :   0.9006 B(  2-C ,  7-C ) :   0.9630 B(  3-C ,  4-C ) :   0.8624
B(  3-C , 11-H ) :   0.8927 B(  3-C , 12-H ) :   0.9214 B(  4-C ,  5-C ) :   0.8920
B(  4-C ,  6-O ) :   0.9749 B(  5-C , 13-H ) :   0.9292 B(  5-C , 14-H ) :   0.9341
B(  5-C , 15-H ) :   0.9371 B(  6-O ,  7-C ) :   0.9327 B(  7-C , 16-H ) :   0.9051
B(  7-C , 17-H ) :   0.9104

MP2 TOTAL ENERGY:     -384.245186959 Eh
FINAL SINGLE POINT ENERGY      -384.245186958582

DIPOLE MOMENT
-------------
                                X             Y             Z
Electronic contribution:     -1.13317      -0.98399      -2.62209
Nuclear contribution   :      1.35096       1.60301       3.10995
                        -----------------------------------------
Total Dipole Moment    :      0.21779       0.61901       0.48785
                        -----------------------------------------
Magnitude (a.u.)       :      0.81769
Magnitude (Debye)      :      2.07840

                             ****ORCA TERMINATED NORMALLY****
TOTAL RUN TIME: 0 days 0 hours 11 minutes 40 seconds 673 msec
