                         Program Version 3.0.3 - RELEASE   -
|  1> ! RI-MP2 RIJK def2-TZVP def2-TZVP/C def2-TZVP/JK TIGHTSCF
|  2> % maxcore 2000
|  3> % mp2 density relaxed end
|  4> *xyz 0 1
|  5>  O       -0.0902774282    -0.0549264655    -0.3490376923
|  6>  C       -0.0385380124     1.0620040395     0.0828200534
|  7>  C       -1.2018351341     2.0520849676     0.0185529588
|  8>  N       -1.3172782789     3.0176971726     1.1115214382
|  9>  C       -0.9405386867     2.5504726785     2.4532906379
| 10>  C       -0.0377186283     3.4385856185     1.6757134990
| 11>  C        1.2112206943     2.8843043639     1.0321530107
| 12>  O        1.0960840694     1.4972455560     0.6928344332
| 13>  H       -1.1141011459     2.6142843720    -0.9203101663
| 14>  H       -2.1173689232     1.4603278004    -0.0496512970
| 15>  H       -1.5378383662     2.9599344565     3.2619580947
| 16>  H       -0.6455571535     1.5123521925     2.5844382825
| 17>  H        0.0318991020     4.4946351213     1.9318480129
| 18>  H        1.4505646063     3.4585958335     0.1263856937
| 19>  H        2.0707566856     2.9517949227     1.7044855505
| 20> *
| 21>
| 22>                          ****END OF INPUT****

CARTESIAN COORDINATES (ANGSTROEM)
---------------------------------
  O     -0.090277   -0.054926   -0.349038
  C     -0.038538    1.062004    0.082820
  C     -1.201835    2.052085    0.018553
  N     -1.317278    3.017697    1.111521
  C     -0.940539    2.550473    2.453291
  C     -0.037719    3.438586    1.675713
  C      1.211221    2.884304    1.032153
  O      1.096084    1.497246    0.692834
  H     -1.114101    2.614284   -0.920310
  H     -2.117369    1.460328   -0.049651
  H     -1.537838    2.959934    3.261958
  H     -0.645557    1.512352    2.584438
  H      0.031899    4.494635    1.931848
  H      1.450565    3.458596    0.126386
  H      2.070757    2.951795    1.704486

 Total Charge           Charge          ....    0
 Multiplicity           Mult            ....    1
 Number of Electrons    NEL             ....   60
 Basis Dimension        Dim             ....  290

ORBITAL ENERGIES
----------------

  NO   OCC          E(Eh)            E(eV)
   0   2.0000     -20.608285      -560.7799
   1   2.0000     -20.544461      -559.0432
   2   2.0000     -15.586159      -424.1209
   3   2.0000     -11.383959      -309.7733
   4   2.0000     -11.314337      -307.8788
   5   2.0000     -11.285155      -307.0847
   6   2.0000     -11.284806      -307.0752
   7   2.0000     -11.274679      -306.7996
   8   2.0000      -1.463806       -39.8322
   9   2.0000      -1.370247       -37.2863
  10   2.0000      -1.299015       -35.3480
  11   2.0000      -1.056442       -28.7472
  12   2.0000      -0.994394       -27.0588
  13   2.0000      -0.882239       -24.0070
  14   2.0000      -0.856054       -23.2944
  15   2.0000      -0.747716       -20.3464
  16   2.0000      -0.727599       -19.7990
  17   2.0000      -0.716087       -19.4857
  18   2.0000      -0.689266       -18.7559
  19   2.0000      -0.636774       -17.3275
  20   2.0000      -0.621766       -16.9191
  21   2.0000      -0.609433       -16.5835
  22   2.0000      -0.583999       -15.8914
  23   2.0000      -0.569066       -15.4851
  24   2.0000      -0.525634       -14.3032
  25   2.0000      -0.511358       -13.9148
  26   2.0000      -0.471676       -12.8350
  27   2.0000      -0.462923       -12.5968
  28   2.0000      -0.451308       -12.2807
  29   2.0000      -0.388810       -10.5801
  30   0.0000       0.128529         3.4975
  31   0.0000       0.150100         4.0844
  32   0.0000       0.163283         4.4431
  33   0.0000       0.169035         4.5997
  34   0.0000       0.181527         4.9396

MULLIKEN ATOMIC CHARGES
-----------------------
   0 O :   -0.274964
   1 C :    0.229014
   2 C :   -0.176893
   3 N :   -0.217089
   4 C :   -0.210399
   5 C :   -0.064168
   6 C :   -0.058594
   7 O :   -0.219463
   8 H :    0.146022
   9 H :    0.156051
  10 H :    0.138020
  11 H :    0.151750
  12 H :    0.132680
  13 H :    0.126032
  14 H :    0.142000
Sum of atomic charges:    0.0000000

LOEWDIN ATOMIC CHARGES
----------------------
   0 O :    0.143834
   1 C :   -0.485074
   2 C :   -0.258518
   3 N :    0.112964
   4 C :   -0.230775
   5 C :   -0.267616
   6 C :   -0.268769
   7 O :    0.257943
   8 H :    0.153520
   9 H :    0.154669
  10 H :    0.129667
  11 H :    0.134402
  12 H :    0.147881
  13 H :    0.134809
  14 H :    0.141063

  Mayer bond orders larger than 0.1
B(  0-O ,  1-C ) :   2.0433 B(  1-C ,  2-C ) :   0.9286 B(  1-C ,  7-O ) :   1.0858
B(  2-C ,  3-N ) :   0.9230 B(  2-C ,  8-H ) :   0.9077 B(  2-C ,  9-H ) :   0.9193
B(  3-N ,  4-C ) :   0.8814 B(  3-N ,  5-C ) :   0.8974 B(  4-C ,  5-C ) :   0.9326
B(  4-C , 10-H ) :   0.9263 B(  4-C , 11-H ) :   0.9127 B(  5-C ,  6-C ) :   0.9453
B(  5-C , 12-H ) :   0.9067 B(  6-C ,  7-O ) :   0.8723 B(  6-C , 13-H ) :   0.9328
B(  6-C , 14-H ) :   0.9257

MP2 TOTAL ENERGY:     -399.151613845 Eh
FINAL SINGLE POINT ENERGY      -399.151613844535

DIPOLE MOMENT
-------------
                                X             Y             Z
Electronic contribution:      0.92732      -3.62892      -2.14169
Nuclear contribution   :     -0.78545       4.92497       2.68888
                        -----------------------------------------
Total Dipole Moment    :      0.14187       1.29605       0.54719
                        -----------------------------------------
Magnitude (a.u.)       :      1.41396
Magnitude (Debye)      :      3.59401

                             ****ORCA TERMINATED NORMALLY****
TOTAL RUN TIME: 0 days 0 hours 11 minutes 47 seconds 674 msec
