                         Program Version 3.0.3 - RELEASE   -
|  1> ! RI-MP2 RIJK def2-TZVP def2-TZVP/C def2-TZVP/JK TIGHTSCF
|  2> % maxcore 2000
|  3> % mp2 density relaxed end
|  4> *xyz 0 1
|  5>  C        0.5932588238     0.4178065964    -0.7077854452
|  6>  C        0.0027758923    -0.1907783522     0.5627788748
|  7>  O       -0.1516255212     0.8081103965     1.5752862645
|  8>  C       -1.3175558407    -0.9540602597     0.3883331398
|  9>  C       -2.4805074436    -0.4109845433    -0.4962275214
| 10>  C       -2.8239651545    -1.8836799536    -0.8600338846
| 11>  O       -3.1487967041    -2.2066846263    -2.1836416081
| 12>  C       -1.3986562582    -2.3041994487    -0.3711297995
| 13>  O       -0.4926910551    -2.3538450234    -1.4697767542
| 14>  H        1.5347183294     0.9189927305    -0.4669347106
| 15>  H        0.7723822647    -0.3489538527    -1.4630862979
| 16>  H       -0.0841083891     1.1669132085    -1.1362133614
| 17>  H        0.7319973105    -0.8920744835     0.9874112148
| 18>  H       -0.7135809519     1.5011727773     1.2115035121
| 19>  H       -1.6926586322    -1.1340037144     1.4011645498
| 20>  H       -3.2583746341     0.1877276516    -0.0171154554
| 21>  H       -2.1188412708     0.1213745109    -1.3806361161
| 22>  H       -3.6147785102    -2.2929019491    -0.2257402956
| 23>  H       -2.3676142764    -1.9798250690    -2.7048204213
| 24>  H       -1.3108881855    -3.2138330573     0.2347485325
| 25>  H       -0.5725392033    -3.2268421784    -1.8677155073
| 26> *
| 27>
| 28>                          ****END OF INPUT****

CARTESIAN COORDINATES (ANGSTROEM)
---------------------------------
  C      0.593259    0.417807   -0.707785
  C      0.002776   -0.190778    0.562779
  O     -0.151626    0.808110    1.575286
  C     -1.317556   -0.954060    0.388333
  C     -2.480507   -0.410985   -0.496228
  C     -2.823965   -1.883680   -0.860034
  O     -3.148797   -2.206685   -2.183642
  C     -1.398656   -2.304199   -0.371130
  O     -0.492691   -2.353845   -1.469777
  H      1.534718    0.918993   -0.466935
  H      0.772382   -0.348954   -1.463086
  H     -0.084108    1.166913   -1.136213
  H      0.731997   -0.892074    0.987411
  H     -0.713581    1.501173    1.211504
  H     -1.692659   -1.134004    1.401165
  H     -3.258375    0.187728   -0.017115
  H     -2.118841    0.121375   -1.380636
  H     -3.614779   -2.292902   -0.225740
  H     -2.367614   -1.979825   -2.704820
  H     -1.310888   -3.213833    0.234749
  H     -0.572539   -3.226842   -1.867716

 Total Charge           Charge          ....    0
 Multiplicity           Mult            ....    1
 Number of Electrons    NEL             ....   72
 Basis Dimension        Dim             ....  351

ORBITAL ENERGIES
----------------

  NO   OCC          E(Eh)            E(eV)
   0   2.0000     -20.576275      -559.9089
   1   2.0000     -20.560015      -559.4664
   2   2.0000     -20.549839      -559.1895
   3   2.0000     -11.289034      -307.1902
   4   2.0000     -11.283468      -307.0388
   5   2.0000     -11.279347      -306.9266
   6   2.0000     -11.233363      -305.6754
   7   2.0000     -11.226189      -305.4801
   8   2.0000     -11.209257      -305.0194
   9   2.0000      -1.391425       -37.8626
  10   2.0000      -1.359851       -37.0034
  11   2.0000      -1.355300       -36.8796
  12   2.0000      -1.123978       -30.5850
  13   2.0000      -1.010807       -27.5054
  14   2.0000      -0.912354       -24.8264
  15   2.0000      -0.899545       -24.4779
  16   2.0000      -0.827878       -22.5277
  17   2.0000      -0.762107       -20.7380
  18   2.0000      -0.719306       -19.5733
  19   2.0000      -0.708225       -19.2718
  20   2.0000      -0.667234       -18.1563
  21   2.0000      -0.634657       -17.2699
  22   2.0000      -0.622364       -16.9354
  23   2.0000      -0.610025       -16.5996
  24   2.0000      -0.590304       -16.0630
  25   2.0000      -0.587117       -15.9763
  26   2.0000      -0.560775       -15.2595
  27   2.0000      -0.531521       -14.4634
  28   2.0000      -0.529833       -14.4175
  29   2.0000      -0.519590       -14.1388
  30   2.0000      -0.498889       -13.5755
  31   2.0000      -0.484613       -13.1870
  32   2.0000      -0.463497       -12.6124
  33   2.0000      -0.442340       -12.0367
  34   2.0000      -0.418579       -11.3901
  35   2.0000      -0.410230       -11.1629
  36   0.0000       0.121734         3.3126
  37   0.0000       0.141064         3.8385
  38   0.0000       0.147342         4.0094
  39   0.0000       0.169720         4.6183
  40   0.0000       0.179587         4.8868

MULLIKEN ATOMIC CHARGES
-----------------------
   0 C :   -0.424399
   1 C :    0.121259
   2 O :   -0.469825
   3 C :   -0.084686
   4 C :   -0.275519
   5 C :    0.074919
   6 O :   -0.468588
   7 C :   -0.001829
   8 O :   -0.495108
   9 H :    0.142098
  10 H :    0.152677
  11 H :    0.108491
  12 H :    0.095269
  13 H :    0.309514
  14 H :    0.112762
  15 H :    0.126363
  16 H :    0.117729
  17 H :    0.103414
  18 H :    0.318981
  19 H :    0.106640
  20 H :    0.329837
Sum of atomic charges:    0.0000000

LOEWDIN ATOMIC CHARGES
----------------------
   0 C :   -0.306980
   1 C :   -0.346745
   2 O :   -0.028895
   3 C :   -0.207987
   4 C :   -0.211089
   5 C :   -0.323325
   6 O :   -0.013347
   7 C :   -0.283801
   8 O :   -0.019641
   9 H :    0.125800
  10 H :    0.129884
  11 H :    0.118160
  12 H :    0.149564
  13 H :    0.172420
  14 H :    0.164612
  15 H :    0.125162
  16 H :    0.138310
  17 H :    0.141694
  18 H :    0.174206
  19 H :    0.123022
  20 H :    0.178975

  Mayer bond orders larger than 0.1
B(  0-C ,  1-C ) :   0.9471 B(  0-C ,  9-H ) :   0.9378 B(  0-C , 10-H ) :   0.9256
B(  0-C , 11-H ) :   0.9214 B(  1-C ,  2-O ) :   0.8863 B(  1-C ,  3-C ) :   0.9017
B(  1-C , 12-H ) :   0.9156 B(  2-O , 13-H ) :   0.8458 B(  3-C ,  4-C ) :   0.9063
B(  3-C ,  7-C ) :   0.9054 B(  3-C , 14-H ) :   0.9231 B(  4-C ,  5-C ) :   0.9153
B(  4-C , 15-H ) :   0.9207 B(  4-C , 16-H ) :   0.9156 B(  5-C ,  6-O ) :   0.9825
B(  5-C ,  7-C ) :   0.9092 B(  5-C , 17-H ) :   0.9271 B(  6-O , 18-H ) :   0.8257
B(  7-C ,  8-O ) :   1.0320 B(  7-C , 19-H ) :   0.9478 B(  8-O , 20-H ) :   0.8361

MP2 TOTAL ENERGY:     -460.620711487 Eh
FINAL SINGLE POINT ENERGY      -460.620711487369

DIPOLE MOMENT
-------------
                                X             Y             Z
Electronic contribution:     -1.93124      -3.02726       0.01398
Nuclear contribution   :      1.94535       2.71806      -0.28688
                        -----------------------------------------
Total Dipole Moment    :      0.01411      -0.30920      -0.27290
                        -----------------------------------------
Magnitude (a.u.)       :      0.41265
Magnitude (Debye)      :      1.04886

                             ****ORCA TERMINATED NORMALLY****
TOTAL RUN TIME: 0 days 0 hours 18 minutes 39 seconds 349 msec
