                         Program Version 3.0.3 - RELEASE   -
|  1> ! RI-MP2 RIJK def2-TZVP def2-TZVP/C def2-TZVP/JK TIGHTSCF
|  2> % maxcore 2000
|  3> % mp2 density relaxed end
|  4> *xyz 0 1
|  5>  O       -0.0677443680     1.4516594132    -0.0200902088
|  6>  C       -0.0776914219     0.0452412931    -0.0026270239
|  7>  C       -0.4361198132    -0.7532601787     1.2359656167
|  8>  C       -1.1397304971     0.0292802042     2.3013468294
|  9>  C       -2.3053862979     0.5147649607     1.8674421427
| 10>  C       -2.6173379511     0.0819922672     0.4368809345
| 11>  O       -2.9196921135     1.1591408762    -0.4359274099
| 12>  C       -1.3722882884    -0.7235640592     0.0314259686
| 13>  H       -0.2617085665     1.7553979626     0.8765564734
| 14>  H        0.7168657310    -0.3526165921    -0.6260310833
| 15>  H        0.1643023706    -1.6168868541     1.4980260922
| 16>  H       -0.7069457884     0.1992124372     3.2814165306
| 17>  H       -2.9761095434     1.1649004208     2.4174933781
| 18>  H       -3.5100730498    -0.5553509744     0.4241896089
| 19>  H       -2.0835792245     1.6236552704    -0.5820021941
| 20>  H       -1.4919288778    -1.5765065071    -0.6253396550
| 21> *
| 22>
| 23>                          ****END OF INPUT****

CARTESIAN COORDINATES (ANGSTROEM)
---------------------------------
  O     -0.067744    1.451659   -0.020090
  C     -0.077691    0.045241   -0.002627
  C     -0.436120   -0.753260    1.235966
  C     -1.139730    0.029280    2.301347
  C     -2.305386    0.514765    1.867442
  C     -2.617338    0.081992    0.436881
  O     -2.919692    1.159141   -0.435927
  C     -1.372288   -0.723564    0.031426
  H     -0.261709    1.755398    0.876556
  H      0.716866   -0.352617   -0.626031
  H      0.164302   -1.616887    1.498026
  H     -0.706946    0.199212    3.281417
  H     -2.976110    1.164900    2.417493
  H     -3.510073   -0.555351    0.424190
  H     -2.083579    1.623655   -0.582002
  H     -1.491929   -1.576507   -0.625340

 Total Charge           Charge          ....    0
 Multiplicity           Mult            ....    1
 Number of Electrons    NEL             ....   60
 Basis Dimension        Dim             ....  296

ORBITAL ENERGIES
----------------

  NO   OCC          E(Eh)            E(eV)
   0   2.0000     -20.573897      -559.8442
   1   2.0000     -20.545656      -559.0757
   2   2.0000     -11.297593      -307.4231
   3   2.0000     -11.290588      -307.2325
   4   2.0000     -11.248678      -306.0921
   5   2.0000     -11.246800      -306.0410
   6   2.0000     -11.238031      -305.8024
   7   2.0000     -11.236766      -305.7679
   8   2.0000      -1.386398       -37.7258
   9   2.0000      -1.352430       -36.8015
  10   2.0000      -1.179902       -32.1068
  11   2.0000      -1.045451       -28.4482
  12   2.0000      -0.950521       -25.8650
  13   2.0000      -0.844336       -22.9755
  14   2.0000      -0.793112       -21.5817
  15   2.0000      -0.761539       -20.7225
  16   2.0000      -0.724030       -19.7019
  17   2.0000      -0.693256       -18.8644
  18   2.0000      -0.637666       -17.3518
  19   2.0000      -0.626898       -17.0587
  20   2.0000      -0.605919       -16.4879
  21   2.0000      -0.589548       -16.0424
  22   2.0000      -0.571741       -15.5579
  23   2.0000      -0.548933       -14.9372
  24   2.0000      -0.521233       -14.1835
  25   2.0000      -0.497473       -13.5369
  26   2.0000      -0.451130       -12.2759
  27   2.0000      -0.439956       -11.9718
  28   2.0000      -0.404758       -11.0140
  29   2.0000      -0.352930        -9.6037
  30   0.0000       0.125127         3.4049
  31   0.0000       0.144153         3.9226
  32   0.0000       0.157621         4.2891
  33   0.0000       0.176415         4.8005
  34   0.0000       0.183638         4.9970

MULLIKEN ATOMIC CHARGES
-----------------------
   0 O :   -0.485447
   1 C :    0.007452
   2 C :   -0.061276
   3 C :   -0.208509
   4 C :   -0.242474
   5 C :    0.130126
   6 O :   -0.465513
   7 C :   -0.140943
   8 H :    0.342112
   9 H :    0.131754
  10 H :    0.137393
  11 H :    0.138379
  12 H :    0.134150
  13 H :    0.107148
  14 H :    0.336714
  15 H :    0.138934
Sum of atomic charges:    0.0000000

LOEWDIN ATOMIC CHARGES
----------------------
   0 O :   -0.006994
   1 C :   -0.279529
   2 C :   -0.176052
   3 C :   -0.149749
   4 C :   -0.136457
   5 C :   -0.298179
   6 O :   -0.019511
   7 C :   -0.157499
   8 H :    0.181457
   9 H :    0.143448
  10 H :    0.146659
  11 H :    0.141184
  12 H :    0.140700
  13 H :    0.149384
  14 H :    0.175311
  15 H :    0.145828

  Mayer bond orders larger than 0.1
B(  0-O ,  1-C ) :   0.9453 B(  0-O ,  8-H ) :   0.8158 B(  1-C ,  2-C ) :   0.8745
B(  1-C ,  7-C ) :   0.8749 B(  1-C ,  9-H ) :   0.9522 B(  2-C ,  3-C ) :   0.8996
B(  2-C ,  7-C ) :   0.8457 B(  2-C , 10-H ) :   0.9117 B(  3-C ,  4-C ) :   1.7566
B(  3-C , 11-H ) :   0.9330 B(  4-C ,  5-C ) :   0.9426 B(  4-C , 12-H ) :   0.9374
B(  5-C ,  6-O ) :   0.9568 B(  5-C ,  7-C ) :   0.9158 B(  5-C , 13-H ) :   0.9300
B(  6-O , 14-H ) :   0.8156 B(  7-C , 15-H ) :   0.9151

MP2 TOTAL ENERGY:     -383.091309848 Eh
FINAL SINGLE POINT ENERGY      -383.091309847944

DIPOLE MOMENT
-------------
                                X             Y             Z
Electronic contribution:     -0.22925       1.00546      -0.79015
Nuclear contribution   :      0.74905      -1.55950       1.54616
                        -----------------------------------------
Total Dipole Moment    :      0.51980      -0.55404       0.75601
                        -----------------------------------------
Magnitude (a.u.)       :      1.07177
Magnitude (Debye)      :      2.72423

                             ****ORCA TERMINATED NORMALLY****
TOTAL RUN TIME: 0 days 0 hours 12 minutes 24 seconds 365 msec
