                         Program Version 3.0.3 - RELEASE   -
|  1> ! RI-MP2 RIJK def2-TZVP def2-TZVP/C def2-TZVP/JK TIGHTSCF
|  2> % maxcore 2000
|  3> % mp2 density relaxed end
|  4> *xyz 0 1
|  5>  C       -0.0087351298     1.6514968720     0.0603509083
|  6>  C        0.0820750293     0.1308372313     0.0187661324
|  7>  C        0.7681153673    -0.6012781777    -1.1348088626
|  8>  O        0.2994623676    -0.7492846741    -2.4254523032
|  9>  C        2.2702264803    -0.7268554117    -0.7972672915
| 10>  C        2.5001135034    -0.1106439768     0.5818533559
| 11>  C        1.0868685748    -0.6714516772     0.9205827423
| 12>  O        0.7401154335    -1.0640429392     2.2045508775
| 13>  C        1.2502895446    -1.7122773259    -0.2535427382
| 14>  H        0.9553177184     2.1302766660    -0.1359955531
| 15>  H       -0.7166088485     2.0142094931    -0.6931664883
| 16>  H       -0.3686201345     2.0048852569     1.0340389075
| 17>  H       -0.9069412640    -0.3177107085     0.1687908739
| 18>  H        0.5883517383     0.0108455759    -2.9421849153
| 19>  H        2.9891834924    -0.9140851186    -1.5847558928
| 20>  H        3.2643891454    -0.6624872955     1.1370196903
| 21>  H        2.6778714761     0.9666162736     0.6760668343
| 22>  H        0.6279805127    -0.2735507540     2.7445123136
| 23>  H        1.1673665627    -2.7867670496    -0.3097163810
| 24> *
| 25>
| 26>                          ****END OF INPUT****

CARTESIAN COORDINATES (ANGSTROEM)
---------------------------------
  C     -0.008735    1.651497    0.060351
  C      0.082075    0.130837    0.018766
  C      0.768115   -0.601278   -1.134809
  O      0.299462   -0.749285   -2.425452
  C      2.270226   -0.726855   -0.797267
  C      2.500114   -0.110644    0.581853
  C      1.086869   -0.671452    0.920583
  O      0.740115   -1.064043    2.204551
  C      1.250290   -1.712277   -0.253543
  H      0.955318    2.130277   -0.135996
  H     -0.716609    2.014209   -0.693166
  H     -0.368620    2.004885    1.034039
  H     -0.906941   -0.317711    0.168791
  H      0.588352    0.010846   -2.942185
  H      2.989183   -0.914085   -1.584756
  H      3.264389   -0.662487    1.137020
  H      2.677871    0.966616    0.676067
  H      0.627981   -0.273551    2.744512
  H      1.167367   -2.786767   -0.309716

 Total Charge           Charge          ....    0
 Multiplicity           Mult            ....    1
 Number of Electrons    NEL             ....   68
 Basis Dimension        Dim             ....  339

ORBITAL ENERGIES
----------------

  NO   OCC          E(Eh)            E(eV)
   0   2.0000     -20.570512      -559.7521
   1   2.0000     -20.565888      -559.6263
   2   2.0000     -11.296165      -307.3843
   3   2.0000     -11.288740      -307.1822
   4   2.0000     -11.235462      -305.7325
   5   2.0000     -11.230851      -305.6070
   6   2.0000     -11.226714      -305.4944
   7   2.0000     -11.226078      -305.4771
   8   2.0000     -11.219948      -305.3103
   9   2.0000      -1.383951       -37.6592
  10   2.0000      -1.375796       -37.4373
  11   2.0000      -1.220970       -33.2243
  12   2.0000      -1.025581       -27.9075
  13   2.0000      -0.962672       -26.1956
  14   2.0000      -0.908289       -24.7158
  15   2.0000      -0.836682       -22.7673
  16   2.0000      -0.767234       -20.8775
  17   2.0000      -0.737281       -20.0624
  18   2.0000      -0.720362       -19.6021
  19   2.0000      -0.662654       -18.0317
  20   2.0000      -0.644373       -17.5343
  21   2.0000      -0.620534       -16.8856
  22   2.0000      -0.608738       -16.5646
  23   2.0000      -0.583276       -15.8717
  24   2.0000      -0.575020       -15.6471
  25   2.0000      -0.549709       -14.9583
  26   2.0000      -0.541523       -14.7356
  27   2.0000      -0.531294       -14.4573
  28   2.0000      -0.502439       -13.6721
  29   2.0000      -0.481984       -13.1154
  30   2.0000      -0.436908       -11.8889
  31   2.0000      -0.406057       -11.0494
  32   2.0000      -0.380291       -10.3482
  33   2.0000      -0.368903       -10.0384
  34   0.0000       0.122378         3.3301
  35   0.0000       0.142367         3.8740
  36   0.0000       0.167257         4.5513
  37   0.0000       0.175808         4.7840
  38   0.0000       0.180186         4.9031

MULLIKEN ATOMIC CHARGES
-----------------------
   0 C :   -0.434869
   1 C :   -0.014760
   2 C :    0.124323
   3 O :   -0.456145
   4 C :   -0.252673
   5 C :   -0.203772
   6 C :    0.232760
   7 O :   -0.455770
   8 C :   -0.206167
   9 H :    0.131293
  10 H :    0.140598
  11 H :    0.126943
  12 H :    0.094182
  13 H :    0.328287
  14 H :    0.137738
  15 H :    0.111000
  16 H :    0.110543
  17 H :    0.321875
  18 H :    0.164614
Sum of atomic charges:    0.0000000

LOEWDIN ATOMIC CHARGES
----------------------
   0 C :   -0.300899
   1 C :   -0.191466
   2 C :   -0.303844
   3 O :    0.036561
   4 C :   -0.155931
   5 C :   -0.189120
   6 C :   -0.289991
   7 O :    0.027107
   8 C :   -0.081806
   9 H :    0.123110
  10 H :    0.127916
  11 H :    0.123831
  12 H :    0.161949
  13 H :    0.186441
  14 H :    0.138732
  15 H :    0.142373
  16 H :    0.119783
  17 H :    0.184306
  18 H :    0.140950

  Mayer bond orders larger than 0.1
B(  0-C ,  1-C ) :   0.8666 B(  0-C ,  9-H ) :   0.9406 B(  0-C , 10-H ) :   0.9398
B(  0-C , 11-H ) :   0.9342 B(  1-C ,  2-C ) :   0.9523 B(  1-C ,  6-C ) :   0.9441
B(  1-C , 12-H ) :   0.9026 B(  2-C ,  3-O ) :   1.0134 B(  2-C ,  4-C ) :   0.8413
B(  2-C ,  8-C ) :   0.8530 B(  3-O , 13-H ) :   0.8357 B(  4-C ,  5-C ) :   0.9027
B(  4-C ,  8-C ) :   0.8519 B(  4-C , 14-H ) :   0.9334 B(  5-C ,  6-C ) :   0.9271
B(  5-C , 15-H ) :   0.9001 B(  5-C , 16-H ) :   0.9200 B(  6-C ,  7-O ) :   0.9943
B(  6-C ,  8-C ) :   0.9018 B(  7-O , 17-H ) :   0.8352 B(  8-C , 18-H ) :   0.8850

MP2 TOTAL ENERGY:     -422.271501898 Eh
FINAL SINGLE POINT ENERGY      -422.271501898256

DIPOLE MOMENT
-------------
                                X             Y             Z
Electronic contribution:     -0.21624      -4.86041      -0.88458
Nuclear contribution   :      0.52197       5.84014       0.88330
                        -----------------------------------------
Total Dipole Moment    :      0.30573       0.97972      -0.00127
                        -----------------------------------------
Magnitude (a.u.)       :      1.02632
Magnitude (Debye)      :      2.60870

                             ****ORCA TERMINATED NORMALLY****
TOTAL RUN TIME: 0 days 0 hours 17 minutes 25 seconds 515 msec
