                         Program Version 3.0.3 - RELEASE   -
|  1> ! RI-MP2 RIJK def2-TZVP def2-TZVP/C def2-TZVP/JK TIGHTSCF
|  2> % maxcore 2000
|  3> % mp2 density relaxed end
|  4> *xyz 0 1
|  5>  O       -0.2262971461     0.2678004860     0.7984274004
|  6>  C        0.4482005725     0.7550654934    -0.0723234397
|  7>  C        1.0711727113     2.1083969991     0.0383257415
|  8>  O        2.2007058397     2.3528716268    -0.8092570023
|  9>  C        1.0147811208     3.0914661628    -1.0725539477
| 10>  C        0.3213672898     2.8679387339    -2.3992619893
| 11>  C        0.9880402708     3.6756996178    -3.4912269991
| 12>  C        0.2200875565     4.3332511749    -4.5538160220
| 13>  O        0.7464563497     5.0856079273    -3.4587661438
| 14>  H        0.6692374405     0.2210745079    -1.0215921022
| 15>  H        1.1473143674     2.4866868306     1.0568460133
| 16>  H        1.0722234520     4.1395821754    -0.7742582980
| 17>  H        0.3389237003     1.8073157933    -2.6674622663
| 18>  H       -0.7258333722     3.1792358441    -2.3113565320
| 19>  H        2.0257238904     3.4095052927    -3.6964067459
| 20>  H        0.6844881613     4.5250215787    -5.5196649655
| 21>  H       -0.8643943048     4.2308907053    -4.5719969613
| 22> *
| 23>
| 24>                          ****END OF INPUT****

CARTESIAN COORDINATES (ANGSTROEM)
---------------------------------
  O     -0.226297    0.267800    0.798427
  C      0.448201    0.755065   -0.072323
  C      1.071173    2.108397    0.038326
  O      2.200706    2.352872   -0.809257
  C      1.014781    3.091466   -1.072554
  C      0.321367    2.867939   -2.399262
  C      0.988040    3.675700   -3.491227
  C      0.220088    4.333251   -4.553816
  O      0.746456    5.085608   -3.458766
  H      0.669237    0.221075   -1.021592
  H      1.147314    2.486687    1.056846
  H      1.072223    4.139582   -0.774258
  H      0.338924    1.807316   -2.667462
  H     -0.725833    3.179236   -2.311357
  H      2.025724    3.409505   -3.696407
  H      0.684488    4.525022   -5.519665
  H     -0.864394    4.230891   -4.571997

 Total Charge           Charge          ....    0
 Multiplicity           Mult            ....    1
 Number of Electrons    NEL             ....   68
 Basis Dimension        Dim             ....  327

ORBITAL ENERGIES
----------------

  NO   OCC          E(Eh)            E(eV)
   0   2.0000     -20.597229      -560.4791
   1   2.0000     -20.581009      -560.0377
   2   2.0000     -20.573202      -559.8253
   3   2.0000     -11.347057      -308.7691
   4   2.0000     -11.317541      -307.9660
   5   2.0000     -11.310227      -307.7669
   6   2.0000     -11.303570      -307.5858
   7   2.0000     -11.296431      -307.3915
   8   2.0000     -11.259103      -306.3758
   9   2.0000      -1.443892       -39.2903
  10   2.0000      -1.424655       -38.7668
  11   2.0000      -1.409248       -38.3476
  12   2.0000      -1.067890       -29.0588
  13   2.0000      -0.987599       -26.8739
  14   2.0000      -0.937720       -25.5167
  15   2.0000      -0.884611       -24.0715
  16   2.0000      -0.836092       -22.7512
  17   2.0000      -0.794093       -21.6084
  18   2.0000      -0.727833       -19.8053
  19   2.0000      -0.710436       -19.3319
  20   2.0000      -0.685557       -18.6550
  21   2.0000      -0.664209       -18.0740
  22   2.0000      -0.657514       -17.8919
  23   2.0000      -0.612422       -16.6649
  24   2.0000      -0.584318       -15.9001
  25   2.0000      -0.565707       -15.3937
  26   2.0000      -0.558953       -15.2099
  27   2.0000      -0.542393       -14.7593
  28   2.0000      -0.531226       -14.4554
  29   2.0000      -0.498316       -13.5599
  30   2.0000      -0.467965       -12.7340
  31   2.0000      -0.450275       -12.2526
  32   2.0000      -0.444592       -12.0980
  33   2.0000      -0.434494       -11.8232
  34   0.0000       0.105391         2.8678
  35   0.0000       0.140960         3.8357
  36   0.0000       0.157275         4.2797
  37   0.0000       0.165505         4.5036
  38   0.0000       0.172167         4.6849

MULLIKEN ATOMIC CHARGES
-----------------------
   0 O :   -0.255674
   1 C :    0.059730
   2 C :    0.075320
   3 O :   -0.322822
   4 C :    0.016018
   5 C :   -0.236741
   6 C :    0.041001
   7 C :   -0.073147
   8 O :   -0.336402
   9 H :    0.099232
  10 H :    0.141238
  11 H :    0.147853
  12 H :    0.126939
  13 H :    0.136535
  14 H :    0.140516
  15 H :    0.122644
  16 H :    0.117761
Sum of atomic charges:   -0.0000000

LOEWDIN ATOMIC CHARGES
----------------------
   0 O :    0.144564
   1 C :   -0.283820
   2 C :   -0.255709
   3 O :    0.181595
   4 C :   -0.252983
   5 C :   -0.233858
   6 C :   -0.287531
   7 C :   -0.262674
   8 O :    0.142827
   9 H :    0.116415
  10 H :    0.147964
  11 H :    0.150315
  12 H :    0.150623
  13 H :    0.156910
  14 H :    0.143060
  15 H :    0.121313
  16 H :    0.120989

  Mayer bond orders larger than 0.1
B(  0-O ,  1-C ) :   1.9799 B(  1-C ,  2-C ) :   0.8490 B(  1-C ,  9-H ) :   0.9485
B(  2-C ,  3-O ) :   0.9029 B(  2-C ,  4-C ) :   0.9077 B(  2-C , 10-H ) :   0.9071
B(  3-O ,  4-C ) :   0.8605 B(  4-C ,  5-C ) :   0.9253 B(  4-C , 11-H ) :   0.9153
B(  5-C ,  6-C ) :   0.9209 B(  5-C , 12-H ) :   0.9279 B(  5-C , 13-H ) :   0.9255
B(  6-C ,  7-C ) :   0.9855 B(  6-C ,  8-O ) :   0.8657 B(  6-C , 14-H ) :   0.9121
B(  7-C ,  8-O ) :   0.9157 B(  7-C , 15-H ) :   0.9234 B(  7-C , 16-H ) :   0.9072

MP2 TOTAL ENERGY:     -458.176909873 Eh
FINAL SINGLE POINT ENERGY      -458.176909873201

DIPOLE MOMENT
-------------
                                X             Y             Z
Electronic contribution:      1.35715      -1.89616       4.78179
Nuclear contribution   :     -1.58014       2.02666      -5.74685
                        -----------------------------------------
Total Dipole Moment    :     -0.22299       0.13050      -0.96506
                        -----------------------------------------
Magnitude (a.u.)       :      0.99904
Magnitude (Debye)      :      2.53937

                             ****ORCA TERMINATED NORMALLY****
TOTAL RUN TIME: 0 days 0 hours 12 minutes 46 seconds 97 msec
