                         Program Version 3.0.3 - RELEASE   -
|  1> ! RI-MP2 RIJK def2-TZVP def2-TZVP/C def2-TZVP/JK TIGHTSCF
|  2> % maxcore 2000
|  3> % mp2 density relaxed end
|  4> *xyz 0 1
|  5>  N        0.0885153754     1.3908003582     0.1337022616
|  6>  C       -0.0201181416    -0.0026498412     0.0272456424
|  7>  C       -1.1733227315    -0.7087702846     0.0103753269
|  8>  C       -1.1729466040    -2.1601820194     0.0021512095
|  9>  C        0.1439295655    -2.7878727183    -0.0187838061
| 10>  C        1.2561023965    -2.0310463695    -0.0124007784
| 11>  N        1.2045603346    -0.6499966215    -0.0200120305
| 12>  N       -2.3142868834    -2.7760872240    -0.0020951377
| 13>  O       -2.1220527126    -4.1843999949    -0.0240217744
| 14>  H        0.6635989589     1.7983561254    -0.5964310450
| 15>  H       -0.8179594304     1.8394611093     0.1375971000
| 16>  H       -2.1260185122    -0.1938646207    -0.0118417512
| 17>  H        0.2142958535    -3.8645016249    -0.0444478920
| 18>  H        2.2548493092    -2.4510134911    -0.0174777015
| 19>  H        2.0146737964    -0.1274288260     0.2719502857
| 20>  H       -3.0301300744    -4.4995544469    -0.0374699093
| 21> *
| 22>
| 23>                          ****END OF INPUT****

CARTESIAN COORDINATES (ANGSTROEM)
---------------------------------
  N      0.088515    1.390800    0.133702
  C     -0.020118   -0.002650    0.027246
  C     -1.173323   -0.708770    0.010375
  C     -1.172947   -2.160182    0.002151
  C      0.143930   -2.787873   -0.018784
  C      1.256102   -2.031046   -0.012401
  N      1.204560   -0.649997   -0.020012
  N     -2.314287   -2.776087   -0.002095
  O     -2.122053   -4.184400   -0.024022
  H      0.663599    1.798356   -0.596431
  H     -0.817959    1.839461    0.137597
  H     -2.126019   -0.193865   -0.011842
  H      0.214296   -3.864502   -0.044448
  H      2.254849   -2.451013   -0.017478
  H      2.014674   -0.127429    0.271950
  H     -3.030130   -4.499554   -0.037470

 Total Charge           Charge          ....    0
 Multiplicity           Mult            ....    1
 Number of Electrons    NEL             ....   66
 Basis Dimension        Dim             ....  321

ORBITAL ENERGIES
----------------

  NO   OCC          E(Eh)            E(eV)
   0   2.0000     -20.557598      -559.4007
   1   2.0000     -15.611910      -424.8217
   2   2.0000     -15.587500      -424.1574
   3   2.0000     -15.568740      -423.6470
   4   2.0000     -11.329653      -308.2955
   5   2.0000     -11.293350      -307.3077
   6   2.0000     -11.268315      -306.6264
   7   2.0000     -11.222891      -305.3904
   8   2.0000     -11.214689      -305.1672
   9   2.0000      -1.377319       -37.4788
  10   2.0000      -1.312992       -35.7283
  11   2.0000      -1.210736       -32.9458
  12   2.0000      -1.142370       -31.0855
  13   2.0000      -1.031510       -28.0688
  14   2.0000      -1.014008       -27.5926
  15   2.0000      -0.863113       -23.4865
  16   2.0000      -0.817738       -22.2518
  17   2.0000      -0.758938       -20.6518
  18   2.0000      -0.721337       -19.6286
  19   2.0000      -0.680080       -18.5059
  20   2.0000      -0.668754       -18.1977
  21   2.0000      -0.636106       -17.3093
  22   2.0000      -0.620205       -16.8766
  23   2.0000      -0.611832       -16.6488
  24   2.0000      -0.587391       -15.9837
  25   2.0000      -0.564765       -15.3680
  26   2.0000      -0.555455       -15.1147
  27   2.0000      -0.521010       -14.1774
  28   2.0000      -0.481069       -13.0906
  29   2.0000      -0.427543       -11.6340
  30   2.0000      -0.408421       -11.1137
  31   2.0000      -0.353506        -9.6194
  32   2.0000      -0.276804        -7.5322
  33   0.0000       0.115671         3.1476
  34   0.0000       0.127279         3.4634
  35   0.0000       0.137941         3.7536
  36   0.0000       0.157288         4.2800
  37   0.0000       0.171923         4.6783

MULLIKEN ATOMIC CHARGES
-----------------------
   0 N :   -0.543876
   1 C :    0.330187
   2 C :   -0.300478
   3 C :    0.103830
   4 C :   -0.245251
   5 C :   -0.007012
   6 N :   -0.318165
   7 N :   -0.122134
   8 O :   -0.391879
   9 H :    0.253267
  10 H :    0.254666
  11 H :    0.116033
  12 H :    0.148258
  13 H :    0.144940
  14 H :    0.249609
  15 H :    0.328006
Sum of atomic charges:    0.0000000

LOEWDIN ATOMIC CHARGES
----------------------
   0 N :   -0.085189
   1 C :   -0.315626
   2 C :   -0.137595
   3 C :   -0.305377
   4 C :   -0.146368
   5 C :   -0.197650
   6 N :    0.151565
   7 N :   -0.015287
   8 O :   -0.101447
   9 H :    0.168541
  10 H :    0.173854
  11 H :    0.152334
  12 H :    0.155835
  13 H :    0.143440
  14 H :    0.196241
  15 H :    0.162728

  Mayer bond orders larger than 0.1
B(  0-N ,  1-C ) :   1.0077 B(  0-N ,  9-H ) :   0.8648 B(  0-N , 10-H ) :   0.8835
B(  1-C ,  2-C ) :   1.5691 B(  1-C ,  6-N ) :   1.0406 B(  2-C ,  3-C ) :   1.1175
B(  2-C , 11-H ) :   0.9126 B(  3-C ,  4-C ) :   1.0528 B(  3-C ,  7-N ) :   1.7744
B(  4-C ,  5-C ) :   1.6297 B(  4-C , 12-H ) :   0.9063 B(  5-C ,  6-N ) :   1.0811
B(  5-C , 13-H ) :   0.9018 B(  6-N , 14-H ) :   0.8661 B(  7-N ,  8-O ) :   0.7714
B(  8-O , 15-H ) :   0.8502

MP2 TOTAL ENERGY:     -433.327416551 Eh
FINAL SINGLE POINT ENERGY      -433.327416550916

DIPOLE MOMENT
-------------
                                X             Y             Z
Electronic contribution:     -1.27022      -2.02933       0.06440
Nuclear contribution   :      2.38805       3.19514      -0.33118
                        -----------------------------------------
Total Dipole Moment    :      1.11783       1.16581      -0.26678
                        -----------------------------------------
Magnitude (a.u.)       :      1.63702
Magnitude (Debye)      :      4.16098

                             ****ORCA TERMINATED NORMALLY****
TOTAL RUN TIME: 0 days 0 hours 14 minutes 43 seconds 738 msec
