                         Program Version 3.0.3 - RELEASE   -
|  1> ! RI-MP2 RIJK def2-TZVP def2-TZVP/C def2-TZVP/JK TIGHTSCF
|  2> % maxcore 2000
|  3> % mp2 density relaxed end
|  4> *xyz 0 1
|  5>  C        0.0846852863     1.3708216553     0.0960865689
|  6>  O        0.0302593453    -0.0351567399     0.0317615187
|  7>  C        0.6070853334    -0.5943167074    -1.1341272667
|  8>  C        1.1045561701    -2.0154748852    -0.8334129063
|  9>  C        1.2967282326    -2.5986656437    -2.2620734679
| 10>  C       -0.2513601458    -2.4560600276    -2.3094775021
| 11>  C       -0.2249689906    -2.8221905177    -0.7957976558
| 12>  C       -0.4176076160    -0.9186026727    -2.2977357427
| 13>  C       -1.8471377286    -0.4251535556    -2.0818397010
| 14>  H        1.1219546760     1.7380215189     0.0473505477
| 15>  H       -0.4869084490     1.8543367224    -0.7094329433
| 16>  H       -0.3475567533     1.6680290765     1.0552320196
| 17>  H        1.4233291212     0.0545546280    -1.4817309145
| 18>  H        1.8634891469    -2.1032868114    -0.0557905328
| 19>  H        1.8897272220    -2.0267240517    -2.9838318009
| 20>  H        1.6307502635    -3.6385841870    -2.2419932323
| 21>  H       -0.8613645351    -3.0095359031    -3.0253850403
| 22>  H       -0.0552344778    -3.8888620138    -0.6318920603
| 23>  H       -1.0246001088    -2.4625111341    -0.1460560540
| 24>  H       -0.0443072723    -0.5065633979    -3.2429190761
| 25>  H       -2.2434855366    -0.7306066976    -1.1109224861
| 26>  H       -1.9084283068     0.6666247655    -2.1321895317
| 27>  H       -2.5054423265    -0.8237218300    -2.8615921201
| 28> *
| 29>
| 30>                          ****END OF INPUT****

CARTESIAN COORDINATES (ANGSTROEM)
---------------------------------
  C      0.084685    1.370822    0.096087
  O      0.030259   -0.035157    0.031762
  C      0.607085   -0.594317   -1.134127
  C      1.104556   -2.015475   -0.833413
  C      1.296728   -2.598666   -2.262073
  C     -0.251360   -2.456060   -2.309478
  C     -0.224969   -2.822191   -0.795798
  C     -0.417608   -0.918603   -2.297736
  C     -1.847138   -0.425154   -2.081840
  H      1.121955    1.738022    0.047351
  H     -0.486908    1.854337   -0.709433
  H     -0.347557    1.668029    1.055232
  H      1.423329    0.054555   -1.481731
  H      1.863489   -2.103287   -0.055791
  H      1.889727   -2.026724   -2.983832
  H      1.630750   -3.638584   -2.241993
  H     -0.861365   -3.009536   -3.025385
  H     -0.055234   -3.888862   -0.631892
  H     -1.024600   -2.462511   -0.146056
  H     -0.044307   -0.506563   -3.242919
  H     -2.243486   -0.730607   -1.110922
  H     -1.908428    0.666625   -2.132190
  H     -2.505442   -0.823722   -2.861592

 Total Charge           Charge          ....    0
 Multiplicity           Mult            ....    1
 Number of Electrons    NEL             ....   70
 Basis Dimension        Dim             ....  363

ORBITAL ENERGIES
----------------

  NO   OCC          E(Eh)            E(eV)
   0   2.0000     -20.547972      -559.1388
   1   2.0000     -11.272201      -306.7322
   2   2.0000     -11.267644      -306.6082
   3   2.0000     -11.225399      -305.4586
   4   2.0000     -11.223704      -305.4125
   5   2.0000     -11.222173      -305.3709
   6   2.0000     -11.219095      -305.2871
   7   2.0000     -11.214137      -305.1522
   8   2.0000     -11.206389      -304.9413
   9   2.0000      -1.370146       -37.2836
  10   2.0000      -1.177051       -32.0292
  11   2.0000      -1.014763       -27.6131
  12   2.0000      -0.965553       -26.2740
  13   2.0000      -0.901533       -24.5320
  14   2.0000      -0.885220       -24.0881
  15   2.0000      -0.872267       -23.7356
  16   2.0000      -0.747302       -20.3351
  17   2.0000      -0.732315       -19.9273
  18   2.0000      -0.686611       -18.6836
  19   2.0000      -0.652657       -17.7597
  20   2.0000      -0.643949       -17.5227
  21   2.0000      -0.619325       -16.8527
  22   2.0000      -0.595648       -16.2084
  23   2.0000      -0.580425       -15.7942
  24   2.0000      -0.547534       -14.8992
  25   2.0000      -0.529745       -14.4151
  26   2.0000      -0.506542       -13.7837
  27   2.0000      -0.491614       -13.3775
  28   2.0000      -0.488201       -13.2846
  29   2.0000      -0.470412       -12.8006
  30   2.0000      -0.463114       -12.6020
  31   2.0000      -0.441904       -12.0248
  32   2.0000      -0.432093       -11.7579
  33   2.0000      -0.422570       -11.4987
  34   2.0000      -0.391910       -10.6644
  35   0.0000       0.138609         3.7717
  36   0.0000       0.157805         4.2941
  37   0.0000       0.165331         4.4989
  38   0.0000       0.172613         4.6970
  39   0.0000       0.187322         5.0973

MULLIKEN ATOMIC CHARGES
-----------------------
   0 C :   -0.231630
   1 O :   -0.310025
   2 C :    0.030966
   3 C :    0.012259
   4 C :   -0.282016
   5 C :   -0.043470
   6 C :   -0.302725
   7 C :   -0.092910
   8 C :   -0.427086
   9 H :    0.116434
  10 H :    0.107652
  11 H :    0.139203
  12 H :    0.077563
  13 H :    0.120698
  14 H :    0.110494
  15 H :    0.119742
  16 H :    0.116683
  17 H :    0.118184
  18 H :    0.126985
  19 H :    0.095206
  20 H :    0.141436
  21 H :    0.124523
  22 H :    0.131833
Sum of atomic charges:   -0.0000000

LOEWDIN ATOMIC CHARGES
----------------------
   0 C :   -0.362222
   1 O :    0.163090
   2 C :   -0.265479
   3 C :   -0.191873
   4 C :   -0.196777
   5 C :   -0.192115
   6 C :   -0.193568
   7 C :   -0.226552
   8 C :   -0.294395
   9 H :    0.101701
  10 H :    0.099405
  11 H :    0.113579
  12 H :    0.133719
  13 H :    0.133244
  14 H :    0.125831
  15 H :    0.136545
  16 H :    0.131651
  17 H :    0.136424
  18 H :    0.128957
  19 H :    0.147483
  20 H :    0.126661
  21 H :    0.120107
  22 H :    0.124585

  Mayer bond orders larger than 0.1
B(  0-C ,  1-O ) :   0.9124 B(  0-C ,  9-H ) :   0.9372 B(  0-C , 10-H ) :   0.9358
B(  0-C , 11-H ) :   0.9423 B(  1-O ,  2-C ) :   0.9727 B(  2-C ,  3-C ) :   0.8981
B(  2-C ,  7-C ) :   0.9472 B(  2-C , 12-H ) :   0.9338 B(  3-C ,  4-C ) :   0.9020
B(  3-C ,  6-C ) :   0.9207 B(  3-C , 13-H ) :   0.9181 B(  4-C ,  5-C ) :   0.9062
B(  4-C , 14-H ) :   0.9247 B(  4-C , 15-H ) :   0.9219 B(  5-C ,  6-C ) :   0.9179
B(  5-C ,  7-C ) :   0.8972 B(  5-C , 16-H ) :   0.9179 B(  6-C , 17-H ) :   0.9272
B(  6-C , 18-H ) :   0.9182 B(  7-C ,  8-C ) :   0.8935 B(  7-C , 19-H ) :   0.9250
B(  8-C , 20-H ) :   0.9327 B(  8-C , 21-H ) :   0.9453 B(  8-C , 22-H ) :   0.9388

MP2 TOTAL ENERGY:     -387.601840758 Eh
FINAL SINGLE POINT ENERGY      -387.601840757967

DIPOLE MOMENT
-------------
                                X             Y             Z
Electronic contribution:      1.93894      -1.89659       1.48271
Nuclear contribution   :     -1.78027       2.14323      -1.77630
                        -----------------------------------------
Total Dipole Moment    :      0.15867       0.24664      -0.29359
                        -----------------------------------------
Magnitude (a.u.)       :      0.41498
Magnitude (Debye)      :      1.05478

                             ****ORCA TERMINATED NORMALLY****
TOTAL RUN TIME: 0 days 0 hours 35 minutes 23 seconds 807 msec
