                         Program Version 3.0.3 - RELEASE   -
|  1> ! RI-MP2 RIJK def2-TZVP def2-TZVP/C def2-TZVP/JK TIGHTSCF
|  2> % maxcore 2000
|  3> % mp2 density relaxed end
|  4> *xyz 0 1
|  5>  N       -0.1888065646     1.4043771053     0.1542965066
|  6>  C        0.0859228618    -0.0117519008    -0.0642897943
|  7>  C        0.8367548861    -0.5515732743     1.1961642852
|  8>  O        0.1412922148    -0.1527305598     2.3519544677
|  9>  C        0.9379569535    -2.0102645713     1.1423337024
| 10>  C        1.0070155041    -3.2045149903     1.0501622872
| 11>  C        2.2085347748     0.0421023735     1.1951943549
| 12>  N        3.2405255205     0.5613481038     1.1675340211
| 13>  H        0.6046465942     1.9800046103    -0.1076745355
| 14>  H       -0.9903663383     1.7130263227    -0.3811947755
| 15>  H       -0.8613781953    -0.5538669520    -0.1132369551
| 16>  H        0.6679286563    -0.2436599658    -0.9647809420
| 17>  H       -0.2003527241     0.7310035774     2.1188313918
| 18>  H        1.0757573163    -4.2631223488     0.9886618757
| 19> *
| 20>
| 21>                          ****END OF INPUT****

CARTESIAN COORDINATES (ANGSTROEM)
---------------------------------
  N     -0.188807    1.404377    0.154297
  C      0.085923   -0.011752   -0.064290
  C      0.836755   -0.551573    1.196164
  O      0.141292   -0.152731    2.351954
  C      0.937957   -2.010265    1.142334
  C      1.007016   -3.204515    1.050162
  C      2.208535    0.042102    1.195194
  N      3.240526    0.561348    1.167534
  H      0.604647    1.980005   -0.107675
  H     -0.990366    1.713026   -0.381195
  H     -0.861378   -0.553867   -0.113237
  H      0.667929   -0.243660   -0.964781
  H     -0.200353    0.731004    2.118831
  H      1.075757   -4.263122    0.988662

 Total Charge           Charge          ....    0
 Multiplicity           Mult            ....    1
 Number of Electrons    NEL             ....   58
 Basis Dimension        Dim             ....  284

ORBITAL ENERGIES
----------------

  NO   OCC          E(Eh)            E(eV)
   0   2.0000     -20.583187      -560.0970
   1   2.0000     -15.582870      -424.0314
   2   2.0000     -15.581190      -423.9857
   3   2.0000     -11.373811      -309.4971
   4   2.0000     -11.297531      -307.4215
   5   2.0000     -11.280016      -306.9448
   6   2.0000     -11.257199      -306.3240
   7   2.0000     -11.252380      -306.1928
   8   2.0000      -1.405319       -38.2407
   9   2.0000      -1.229494       -33.4562
  10   2.0000      -1.217202       -33.1218
  11   2.0000      -1.092632       -29.7320
  12   2.0000      -1.009377       -27.4666
  13   2.0000      -0.905681       -24.6448
  14   2.0000      -0.795538       -21.6477
  15   2.0000      -0.735643       -20.0179
  16   2.0000      -0.705205       -19.1896
  17   2.0000      -0.697416       -18.9777
  18   2.0000      -0.691332       -18.8121
  19   2.0000      -0.622792       -16.9470
  20   2.0000      -0.579277       -15.7629
  21   2.0000      -0.570681       -15.5290
  22   2.0000      -0.550586       -14.9822
  23   2.0000      -0.507699       -13.8152
  24   2.0000      -0.476998       -12.9798
  25   2.0000      -0.472256       -12.8507
  26   2.0000      -0.446634       -12.1535
  27   2.0000      -0.420503       -11.4425
  28   2.0000      -0.412183       -11.2161
  29   0.0000       0.110511         3.0072
  30   0.0000       0.137964         3.7542
  31   0.0000       0.146574         3.9885
  32   0.0000       0.152851         4.1593
  33   0.0000       0.159307         4.3350

MULLIKEN ATOMIC CHARGES
-----------------------
   0 N :   -0.597426
   1 C :   -0.164425
   2 C :    0.205379
   3 O :   -0.443369
   4 C :    0.011606
   5 C :   -0.083168
   6 C :   -0.221674
   7 N :   -0.057724
   8 H :    0.255987
   9 H :    0.254235
  10 H :    0.151371
  11 H :    0.140094
  12 H :    0.346498
  13 H :    0.202617
Sum of atomic charges:   -0.0000000

LOEWDIN ATOMIC CHARGES
----------------------
   0 N :   -0.163326
   1 C :   -0.269856
   2 C :   -0.384284
   3 O :    0.050013
   4 C :   -0.047330
   5 C :   -0.050792
   6 C :   -0.134608
   7 N :    0.072983
   8 H :    0.165106
   9 H :    0.161681
  10 H :    0.145994
  11 H :    0.135020
  12 H :    0.186816
  13 H :    0.132584

  Mayer bond orders larger than 0.1
B(  0-N ,  1-C ) :   0.9465 B(  0-N ,  8-H ) :   0.8784 B(  0-N ,  9-H ) :   0.8859
B(  1-C ,  2-C ) :   0.8901 B(  1-C , 10-H ) :   0.9380 B(  1-C , 11-H ) :   0.9297
B(  2-C ,  3-O ) :   1.1598 B(  2-C ,  4-C ) :   1.1114 B(  2-C ,  5-C ) :  -0.1115
B(  2-C ,  6-C ) :   0.8844 B(  3-O ,  4-C ) :  -0.1205 B(  3-O , 12-H ) :   0.7897
B(  4-C ,  5-C ) :   2.5978 B(  5-C , 13-H ) :   0.8862 B(  6-C ,  7-N ) :   2.8513

MP2 TOTAL ENERGY:     -378.049045763 Eh
FINAL SINGLE POINT ENERGY      -378.049045763317

DIPOLE MOMENT
-------------
                                X             Y             Z
Electronic contribution:      3.85570      -1.77298       3.01309
Nuclear contribution   :     -5.16078       1.69380      -4.26322
                        -----------------------------------------
Total Dipole Moment    :     -1.30508      -0.07918      -1.25014
                        -----------------------------------------
Magnitude (a.u.)       :      1.80896
Magnitude (Debye)      :      4.59801

                             ****ORCA TERMINATED NORMALLY****
TOTAL RUN TIME: 0 days 0 hours 10 minutes 8 seconds 654 msec
