                         Program Version 3.0.3 - RELEASE   -
|  1> ! RI-MP2 RIJK def2-TZVP def2-TZVP/C def2-TZVP/JK TIGHTSCF
|  2> % maxcore 2000
|  3> % mp2 density relaxed end
|  4> *xyz 0 1
|  5>  N       -0.0019349338     1.3309192364    -0.2465032054
|  6>  C       -0.0660226998    -0.0686917740    -0.1056541624
|  7>  C       -1.1277312484    -0.9417599099     0.0523870423
|  8>  C       -0.5591662736    -2.2416514043     0.2627085739
|  9>  C        0.8037408347    -2.1224415257     0.2040306262
| 10>  N        1.0947064688    -0.7922622423    -0.0170093139
| 11>  C       -2.5707804729    -0.6042405862     0.0359230505
| 12>  C       -3.1456828381     0.2568012852    -1.0363342296
| 13>  N       -3.4584723611    -1.1800879465    -1.0025975121
| 14>  H        0.3144943421     1.6177526264    -1.1688008654
| 15>  H       -0.9157738655     1.7388239745    -0.0924851219
| 16>  H       -1.1112456434    -3.1564910667     0.4170594289
| 17>  H        1.5892114364    -2.8552131212     0.2887764014
| 18>  H        2.0109561766    -0.3791316679    -0.0084034157
| 19>  H       -3.0664232380    -0.5716535813     1.0057475662
| 20>  H       -3.9846191062     0.9127277020    -0.8194470291
| 21>  H       -2.4736746012     0.6202840293    -1.8090540285
| 22>  H       -2.8736769265    -1.6571486276    -1.6857769853
| 23> *
| 24>
| 25>                          ****END OF INPUT****

CARTESIAN COORDINATES (ANGSTROEM)
---------------------------------
  N     -0.001935    1.330919   -0.246503
  C     -0.066023   -0.068692   -0.105654
  C     -1.127731   -0.941760    0.052387
  C     -0.559166   -2.241651    0.262709
  C      0.803741   -2.122442    0.204031
  N      1.094706   -0.792262   -0.017009
  C     -2.570780   -0.604241    0.035923
  C     -3.145683    0.256801   -1.036334
  N     -3.458472   -1.180088   -1.002598
  H      0.314494    1.617753   -1.168801
  H     -0.915774    1.738824   -0.092485
  H     -1.111246   -3.156491    0.417059
  H      1.589211   -2.855213    0.288776
  H      2.010956   -0.379132   -0.008403
  H     -3.066423   -0.571654    1.005748
  H     -3.984619    0.912728   -0.819447
  H     -2.473675    0.620284   -1.809054
  H     -2.873677   -1.657149   -1.685777

 Total Charge           Charge          ....    0
 Multiplicity           Mult            ....    1
 Number of Electrons    NEL             ....   66
 Basis Dimension        Dim             ....  333

ORBITAL ENERGIES
----------------

  NO   OCC          E(Eh)            E(eV)
   0   2.0000     -15.599652      -424.4881
   1   2.0000     -15.570909      -423.7060
   2   2.0000     -15.550033      -423.1379
   3   2.0000     -11.292207      -307.2766
   4   2.0000     -11.257753      -306.3390
   5   2.0000     -11.251632      -306.1725
   6   2.0000     -11.248550      -306.0886
   7   2.0000     -11.210442      -305.0516
   8   2.0000     -11.209367      -305.0224
   9   2.0000      -1.303792       -35.4780
  10   2.0000      -1.251716       -34.0609
  11   2.0000      -1.192327       -32.4449
  12   2.0000      -1.050837       -28.5947
  13   2.0000      -0.963627       -26.2216
  14   2.0000      -0.889716       -24.2104
  15   2.0000      -0.852663       -23.2021
  16   2.0000      -0.788087       -21.4449
  17   2.0000      -0.757043       -20.6002
  18   2.0000      -0.729638       -19.8544
  19   2.0000      -0.680322       -18.5125
  20   2.0000      -0.643542       -17.5117
  21   2.0000      -0.637619       -17.3505
  22   2.0000      -0.601700       -16.3731
  23   2.0000      -0.581442       -15.8218
  24   2.0000      -0.575269       -15.6539
  25   2.0000      -0.550379       -14.9766
  26   2.0000      -0.519197       -14.1281
  27   2.0000      -0.480749       -13.0818
  28   2.0000      -0.468944       -12.7606
  29   2.0000      -0.448449       -12.2029
  30   2.0000      -0.385148       -10.4804
  31   2.0000      -0.345642        -9.4054
  32   2.0000      -0.282381        -7.6840
  33   0.0000       0.122639         3.3372
  34   0.0000       0.145150         3.9497
  35   0.0000       0.159056         4.3281
  36   0.0000       0.173680         4.7261
  37   0.0000       0.181608         4.9418

MULLIKEN ATOMIC CHARGES
-----------------------
   0 N :   -0.524645
   1 C :    0.139268
   2 C :   -0.004388
   3 C :   -0.238151
   4 C :   -0.070317
   5 N :   -0.270067
   6 C :   -0.123285
   7 C :   -0.187294
   8 N :   -0.349080
   9 H :    0.250494
  10 H :    0.258688
  11 H :    0.132629
  12 H :    0.145995
  13 H :    0.242424
  14 H :    0.130875
  15 H :    0.122323
  16 H :    0.121648
  17 H :    0.222884
Sum of atomic charges:   -0.0000000

LOEWDIN ATOMIC CHARGES
----------------------
   0 N :   -0.103975
   1 C :   -0.302789
   2 C :   -0.186337
   3 C :   -0.173718
   4 C :   -0.239466
   5 N :    0.191092
   6 C :   -0.246606
   7 C :   -0.277925
   8 N :   -0.015711
   9 H :    0.165257
  10 H :    0.171103
  11 H :    0.142405
  12 H :    0.131636
  13 H :    0.191145
  14 H :    0.146693
  15 H :    0.121902
  16 H :    0.118820
  17 H :    0.166474

  Mayer bond orders larger than 0.1
B(  0-N ,  1-C ) :   1.0441 B(  0-N ,  9-H ) :   0.8736 B(  0-N , 10-H ) :   0.8876
B(  1-C ,  2-C ) :   1.4033 B(  1-C ,  5-N ) :   1.1712 B(  2-C ,  3-C ) :   1.1973
B(  2-C ,  6-C ) :   0.9115 B(  3-C ,  4-C ) :   1.5313 B(  3-C , 11-H ) :   0.9353
B(  4-C ,  5-N ) :   1.0882 B(  4-C , 12-H ) :   0.9188 B(  5-N , 13-H ) :   0.8692
B(  6-C ,  7-C ) :   0.9466 B(  6-C ,  8-N ) :   0.9094 B(  6-C , 14-H ) :   0.9273
B(  7-C ,  8-N ) :   0.9422 B(  7-C , 15-H ) :   0.9179 B(  7-C , 16-H ) :   0.9211
B(  8-N , 17-H ) :   0.8745

MP2 TOTAL ENERGY:     -397.437956088 Eh
FINAL SINGLE POINT ENERGY      -397.437956087756

DIPOLE MOMENT
-------------
                                X             Y             Z
Electronic contribution:      2.44243      -1.45083       1.19091
Nuclear contribution   :     -1.37036       2.09349      -1.66933
                        -----------------------------------------
Total Dipole Moment    :      1.07207       0.64265      -0.47842
                        -----------------------------------------
Magnitude (a.u.)       :      1.33836
Magnitude (Debye)      :      3.40185

                             ****ORCA TERMINATED NORMALLY****
TOTAL RUN TIME: 0 days 0 hours 17 minutes 31 seconds 876 msec
