                         Program Version 3.0.3 - RELEASE   -
|  1> ! RI-MP2 RIJK def2-TZVP def2-TZVP/C def2-TZVP/JK TIGHTSCF
|  2> % maxcore 2000
|  3> % mp2 density relaxed end
|  4> *xyz 0 1
|  5>  C       -0.4634964531     1.3025629369     0.1842396297
|  6>  C        0.0984203615    -0.1166781130     0.0421805431
|  7>  C        0.9281346274    -0.5666047454     1.2385477284
|  8>  C        2.2411020352     0.1863732231     1.4104240829
|  9>  O        0.1591318923    -0.4935217469     2.4977504213
| 10>  C        0.3927709608    -1.8771622030     2.7882025567
| 11>  C       -0.6872062041    -2.8123887022     2.2235275511
| 12>  O        0.0111560970    -2.9009482366     0.9520971006
| 13>  C        1.0992053687    -2.0979977813     1.4393338293
| 14>  H        0.3272366197     2.0591036555     0.2044774671
| 15>  H       -1.1237082379     1.5392369603    -0.6553134563
| 16>  H       -1.0406865681     1.3928001676     1.1087007739
| 17>  H       -0.7196426251    -0.8305272920    -0.0885927083
| 18>  H        0.7222677294    -0.1908213329    -0.8580548481
| 19>  H        2.0535544307     1.2403944728     1.6317116593
| 20>  H        2.8219898100    -0.2300482614     2.2396317968
| 21>  H        2.8461536022     0.1230701700     0.4995448865
| 22>  H        0.7887171043    -2.0514783727     3.7901623171
| 23>  H       -0.7507080696    -3.7967935461     2.7041525641
| 24>  H       -1.6841585685    -2.3692671504     2.1322681356
| 25>  H        2.0777777970    -2.5445261023     1.2510503694
| 26> *
| 27>
| 28>                          ****END OF INPUT****

CARTESIAN COORDINATES (ANGSTROEM)
---------------------------------
  C     -0.463496    1.302563    0.184240
  C      0.098420   -0.116678    0.042181
  C      0.928135   -0.566605    1.238548
  C      2.241102    0.186373    1.410424
  O      0.159132   -0.493522    2.497750
  C      0.392771   -1.877162    2.788203
  C     -0.687206   -2.812389    2.223528
  O      0.011156   -2.900948    0.952097
  C      1.099205   -2.097998    1.439334
  H      0.327237    2.059104    0.204477
  H     -1.123708    1.539237   -0.655313
  H     -1.040687    1.392800    1.108701
  H     -0.719643   -0.830527   -0.088593
  H      0.722268   -0.190821   -0.858055
  H      2.053554    1.240394    1.631712
  H      2.821990   -0.230048    2.239632
  H      2.846154    0.123070    0.499545
  H      0.788717   -2.051478    3.790162
  H     -0.750708   -3.796794    2.704153
  H     -1.684159   -2.369267    2.132268
  H      2.077778   -2.544526    1.251050

 Total Charge           Charge          ....    0
 Multiplicity           Mult            ....    1
 Number of Electrons    NEL             ....   70
 Basis Dimension        Dim             ....  351

ORBITAL ENERGIES
----------------

  NO   OCC          E(Eh)            E(eV)
   0   2.0000     -20.555935      -559.3554
   1   2.0000     -20.549669      -559.1849
   2   2.0000     -11.290419      -307.2279
   3   2.0000     -11.288417      -307.1734
   4   2.0000     -11.287191      -307.1401
   5   2.0000     -11.282447      -307.0110
   6   2.0000     -11.221239      -305.3454
   7   2.0000     -11.217316      -305.2387
   8   2.0000     -11.208942      -305.0108
   9   2.0000      -1.412690       -38.4413
  10   2.0000      -1.349303       -36.7164
  11   2.0000      -1.071235       -29.1498
  12   2.0000      -0.995312       -27.0838
  13   2.0000      -0.982985       -26.7484
  14   2.0000      -0.939001       -25.5515
  15   2.0000      -0.872534       -23.7429
  16   2.0000      -0.797670       -21.7057
  17   2.0000      -0.722143       -19.6505
  18   2.0000      -0.701855       -19.0984
  19   2.0000      -0.682354       -18.5678
  20   2.0000      -0.650881       -17.7114
  21   2.0000      -0.621364       -16.9082
  22   2.0000      -0.588226       -16.0065
  23   2.0000      -0.581486       -15.8230
  24   2.0000      -0.571603       -15.5541
  25   2.0000      -0.541719       -14.7409
  26   2.0000      -0.538242       -14.6463
  27   2.0000      -0.533281       -14.5113
  28   2.0000      -0.524178       -14.2636
  29   2.0000      -0.490881       -13.3575
  30   2.0000      -0.479466       -13.0469
  31   2.0000      -0.474262       -12.9053
  32   2.0000      -0.433981       -11.8092
  33   2.0000      -0.417263       -11.3543
  34   2.0000      -0.399484       -10.8705
  35   0.0000       0.137169         3.7326
  36   0.0000       0.158931         4.3247
  37   0.0000       0.163085         4.4378
  38   0.0000       0.169659         4.6167
  39   0.0000       0.191013         5.1977

MULLIKEN ATOMIC CHARGES
-----------------------
   0 C :   -0.425878
   1 C :   -0.197748
   2 C :    0.222110
   3 C :   -0.469521
   4 O :   -0.347355
   5 C :   -0.020232
   6 C :   -0.026320
   7 O :   -0.354433
   8 C :    0.095633
   9 H :    0.121403
  10 H :    0.135608
  11 H :    0.148602
  12 H :    0.134948
  13 H :    0.109054
  14 H :    0.150419
  15 H :    0.135362
  16 H :    0.132600
  17 H :    0.116081
  18 H :    0.104893
  19 H :    0.109717
  20 H :    0.125056
Sum of atomic charges:    0.0000000

LOEWDIN ATOMIC CHARGES
----------------------
   0 C :   -0.313621
   1 C :   -0.250305
   2 C :   -0.310808
   3 C :   -0.265618
   4 O :    0.172899
   5 C :   -0.259867
   6 C :   -0.245873
   7 O :    0.137997
   8 C :   -0.217735
   9 H :    0.118235
  10 H :    0.121731
  11 H :    0.127370
  12 H :    0.146900
  13 H :    0.143388
  14 H :    0.131964
  15 H :    0.129871
  16 H :    0.130281
  17 H :    0.127922
  18 H :    0.120767
  19 H :    0.122720
  20 H :    0.131782

  Mayer bond orders larger than 0.1
B(  0-C ,  1-C ) :   0.9077 B(  0-C ,  9-H ) :   0.9375 B(  0-C , 10-H ) :   0.9415
B(  0-C , 11-H ) :   0.9360 B(  1-C ,  2-C ) :   0.9300 B(  1-C , 12-H ) :   0.9274
B(  1-C , 13-H ) :   0.9261 B(  2-C ,  3-C ) :   0.9042 B(  2-C ,  4-O ) :   0.8164
B(  2-C ,  8-C ) :   0.8592 B(  3-C , 14-H ) :   0.9407 B(  3-C , 15-H ) :   0.9296
B(  3-C , 16-H ) :   0.9362 B(  4-O ,  5-C ) :   0.9856 B(  5-C ,  6-C ) :   0.9550
B(  5-C ,  8-C ) :   0.9618 B(  5-C , 17-H ) :   0.9170 B(  6-C ,  7-O ) :   0.9124
B(  6-C , 18-H ) :   0.9116 B(  6-C , 19-H ) :   0.9086 B(  7-O ,  8-C ) :   0.9288
B(  8-C , 20-H ) :   0.9182

MP2 TOTAL ENERGY:     -423.484942283 Eh
FINAL SINGLE POINT ENERGY      -423.484942282803

DIPOLE MOMENT
-------------
                                X             Y             Z
Electronic contribution:     -0.89641      -6.35421       3.02321
Nuclear contribution   :      1.31235       6.25344      -2.81764
                        -----------------------------------------
Total Dipole Moment    :      0.41594      -0.10077       0.20557
                        -----------------------------------------
Magnitude (a.u.)       :      0.47478
Magnitude (Debye)      :      1.20680

                             ****ORCA TERMINATED NORMALLY****
TOTAL RUN TIME: 0 days 0 hours 19 minutes 15 seconds 617 msec
