                         Program Version 3.0.3 - RELEASE   -
|  1> ! RI-MP2 RIJK def2-TZVP def2-TZVP/C def2-TZVP/JK TIGHTSCF
|  2> % maxcore 2000
|  3> % mp2 density relaxed end
|  4> *xyz 0 1
|  5>  C       -0.3294315229     1.4568502518     0.0607601361
|  6>  C        0.0643941374    -0.0360727909    -0.0173230291
|  7>  N        0.7201920880    -0.2726328779    -1.3019369949
|  8>  C        1.9182415251     0.0387061724    -1.5224777721
|  9>  O        2.8447440467     0.5715512522    -0.6689490316
| 10>  C        3.1908506902    -0.1852786635     0.4915608965
| 11>  C        2.0858450567    -0.5291380381     1.4421604023
| 12>  C        0.7670184925    -0.4865036131     1.2551182871
| 13>  C       -0.1758965055    -0.8972994246     2.3605204052
| 14>  H        0.5678831370     2.0785947828     0.1111713177
| 15>  H       -0.9037867131     1.7366474653    -0.8263170219
| 16>  H       -0.9414295361     1.6539560531     0.9456285274
| 17>  H       -0.8708238033    -0.6082928731    -0.0636898268
| 18>  H        2.3163640490    -0.0480565970    -2.5354256012
| 19>  H        3.7039509886    -1.1068186325     0.1707965991
| 20>  H        3.9413159205     0.4245964823     1.0068604571
| 21>  H        2.4594044196    -0.8799374505     2.4038447304
| 22>  H        0.3607164417    -1.1392048652     3.2810985876
| 23>  H       -0.8971493859    -0.1032498061     2.5897969443
| 24>  H       -0.7641110361    -1.7755319777     2.0655812266
| 25> *
| 26>
| 27>                          ****END OF INPUT****

CARTESIAN COORDINATES (ANGSTROEM)
---------------------------------
  C     -0.329432    1.456850    0.060760
  C      0.064394   -0.036073   -0.017323
  N      0.720192   -0.272633   -1.301937
  C      1.918242    0.038706   -1.522478
  O      2.844744    0.571551   -0.668949
  C      3.190851   -0.185279    0.491561
  C      2.085845   -0.529138    1.442160
  C      0.767018   -0.486504    1.255118
  C     -0.175897   -0.897299    2.360520
  H      0.567883    2.078595    0.111171
  H     -0.903787    1.736647   -0.826317
  H     -0.941430    1.653956    0.945629
  H     -0.870824   -0.608293   -0.063690
  H      2.316364   -0.048057   -2.535426
  H      3.703951   -1.106819    0.170797
  H      3.941316    0.424596    1.006860
  H      2.459404   -0.879937    2.403845
  H      0.360716   -1.139205    3.281099
  H     -0.897149   -0.103250    2.589797
  H     -0.764111   -1.775532    2.065581

 Total Charge           Charge          ....    0
 Multiplicity           Mult            ....    1
 Number of Electrons    NEL             ....   68
 Basis Dimension        Dim             ....  345

ORBITAL ENERGIES
----------------

  NO   OCC          E(Eh)            E(eV)
   0   2.0000     -20.581910      -560.0622
   1   2.0000     -15.546907      -423.0528
   2   2.0000     -11.325474      -308.1818
   3   2.0000     -11.297131      -307.4106
   4   2.0000     -11.264815      -306.5312
   5   2.0000     -11.242160      -305.9147
   6   2.0000     -11.228081      -305.5316
   7   2.0000     -11.226263      -305.4822
   8   2.0000     -11.216438      -305.2148
   9   2.0000      -1.413634       -38.4669
  10   2.0000      -1.219887       -33.1948
  11   2.0000      -1.106371       -30.1059
  12   2.0000      -1.009571       -27.4718
  13   2.0000      -0.991523       -26.9807
  14   2.0000      -0.902143       -24.5485
  15   2.0000      -0.880051       -23.9474
  16   2.0000      -0.775488       -21.1021
  17   2.0000      -0.746334       -20.3088
  18   2.0000      -0.697946       -18.9921
  19   2.0000      -0.665957       -18.1216
  20   2.0000      -0.630200       -17.1486
  21   2.0000      -0.615626       -16.7520
  22   2.0000      -0.587071       -15.9750
  23   2.0000      -0.574592       -15.6354
  24   2.0000      -0.566669       -15.4198
  25   2.0000      -0.551146       -14.9974
  26   2.0000      -0.548612       -14.9285
  27   2.0000      -0.528890       -14.3918
  28   2.0000      -0.510933       -13.9032
  29   2.0000      -0.493347       -13.4246
  30   2.0000      -0.463363       -12.6088
  31   2.0000      -0.407729       -11.0949
  32   2.0000      -0.396595       -10.7919
  33   2.0000      -0.345530        -9.4023
  34   0.0000       0.132469         3.6047
  35   0.0000       0.148558         4.0425
  36   0.0000       0.154781         4.2118
  37   0.0000       0.167559         4.5595
  38   0.0000       0.176785         4.8106

MULLIKEN ATOMIC CHARGES
-----------------------
   0 C :   -0.431097
   1 C :    0.111671
   2 N :   -0.239485
   3 C :    0.065182
   4 O :   -0.303570
   5 C :    0.015099
   6 C :   -0.237076
   7 C :    0.020910
   8 C :   -0.426149
   9 H :    0.143199
  10 H :    0.143359
  11 H :    0.124265
  12 H :    0.104904
  13 H :    0.128472
  14 H :    0.117230
  15 H :    0.134531
  16 H :    0.116937
  17 H :    0.131085
  18 H :    0.134268
  19 H :    0.146265
Sum of atomic charges:    0.0000000

LOEWDIN ATOMIC CHARGES
----------------------
   0 C :   -0.275979
   1 C :   -0.272839
   2 N :    0.117631
   3 C :   -0.353033
   4 O :    0.199386
   5 C :   -0.286568
   6 C :   -0.163920
   7 C :   -0.175486
   8 C :   -0.267381
   9 H :    0.127797
  10 H :    0.127096
  11 H :    0.122924
  12 H :    0.157309
  13 H :    0.129203
  14 H :    0.134165
  15 H :    0.140039
  16 H :    0.151673
  17 H :    0.127814
  18 H :    0.128694
  19 H :    0.131475

  Mayer bond orders larger than 0.1
B(  0-C ,  1-C ) :   0.8797 B(  0-C ,  9-H ) :   0.9326 B(  0-C , 10-H ) :   0.9361
B(  0-C , 11-H ) :   0.9310 B(  1-C ,  2-N ) :   0.8838 B(  1-C ,  7-C ) :   0.8927
B(  1-C , 12-H ) :   0.9369 B(  2-N ,  3-C ) :   1.8967 B(  3-C ,  4-O ) :   1.0072
B(  3-C , 13-H ) :   0.9308 B(  4-O ,  5-C ) :   0.8879 B(  5-C ,  6-C ) :   0.9118
B(  5-C , 14-H ) :   0.9344 B(  5-C , 15-H ) :   0.9309 B(  6-C ,  7-C ) :   1.7977
B(  6-C , 16-H ) :   0.9090 B(  7-C ,  8-C ) :   0.8945 B(  8-C , 17-H ) :   0.9436
B(  8-C , 18-H ) :   0.9263 B(  8-C , 19-H ) :   0.9346

MP2 TOTAL ENERGY:     -402.450168036 Eh
FINAL SINGLE POINT ENERGY      -402.450168035753

DIPOLE MOMENT
-------------
                                X             Y             Z
Electronic contribution:      4.54483      -0.52395      -5.42337
Nuclear contribution   :     -4.33905       0.39972       6.15674
                        -----------------------------------------
Total Dipole Moment    :      0.20578      -0.12422       0.73337
                        -----------------------------------------
Magnitude (a.u.)       :      0.77176
Magnitude (Debye)      :      1.96165

                             ****ORCA TERMINATED NORMALLY****
TOTAL RUN TIME: 0 days 0 hours 18 minutes 51 seconds 386 msec
