                         Program Version 3.0.3 - RELEASE   -
|  1> ! RI-MP2 RIJK def2-TZVP def2-TZVP/C def2-TZVP/JK TIGHTSCF
|  2> % maxcore 2000
|  3> % mp2 density relaxed end
|  4> *xyz 0 1
|  5>  O        0.0213949321     1.3645027292     0.0089459118
|  6>  C        0.0359371335    -0.0172209434     0.0422824028
|  7>  C        0.6592806022    -0.9539650517     1.1400826671
|  8>  C       -0.0454150782    -1.8891337341     0.1373067380
|  9>  C       -0.4542054835    -3.2732492532    -0.3192848878
| 10>  C       -1.2423796747    -2.8259869590    -1.6138309082
| 11>  C       -1.0868181509    -1.2790048114    -1.5782853769
| 12>  C       -1.2325226554    -0.8889960472    -0.0910700518
| 13>  C        0.3618148950    -1.0262039406    -1.1050866900
| 14>  H        0.9312340394     1.6789887754    -0.0267315965
| 15>  H        1.7526035545    -1.0083734147     1.1866341662
| 16>  H        0.2295859305    -0.8833329592     2.1442835573
| 17>  H        0.3937058456    -3.9239451322    -0.5530605610
| 18>  H       -1.0943012897    -3.7967572221     0.3970678215
| 19>  H       -0.8096477835    -3.2578247258    -2.5220532776
| 20>  H       -2.2931814188    -3.1310022023    -1.5755392158
| 21>  H       -1.5537902973    -0.7143004003    -2.3868054834
| 22>  H       -2.1264663553    -0.8448683163     0.5343024461
| 23>  H        1.3019657647    -1.1407770611    -1.6501697117
| 24> *
| 25>
| 26>                          ****END OF INPUT****

CARTESIAN COORDINATES (ANGSTROEM)
---------------------------------
  O      0.021395    1.364503    0.008946
  C      0.035937   -0.017221    0.042282
  C      0.659281   -0.953965    1.140083
  C     -0.045415   -1.889134    0.137307
  C     -0.454205   -3.273249   -0.319285
  C     -1.242380   -2.825987   -1.613831
  C     -1.086818   -1.279005   -1.578285
  C     -1.232523   -0.888996   -0.091070
  C      0.361815   -1.026204   -1.105087
  H      0.931234    1.678989   -0.026732
  H      1.752604   -1.008373    1.186634
  H      0.229586   -0.883333    2.144284
  H      0.393706   -3.923945   -0.553061
  H     -1.094301   -3.796757    0.397068
  H     -0.809648   -3.257825   -2.522053
  H     -2.293181   -3.131002   -1.575539
  H     -1.553790   -0.714300   -2.386805
  H     -2.126466   -0.844868    0.534302
  H      1.301966   -1.140777   -1.650170

 Total Charge           Charge          ....    0
 Multiplicity           Mult            ....    1
 Number of Electrons    NEL             ....   66
 Basis Dimension        Dim             ....  339

ORBITAL ENERGIES
----------------

  NO   OCC          E(Eh)            E(eV)
   0   2.0000     -20.562143      -559.5243
   1   2.0000     -11.295399      -307.3634
   2   2.0000     -11.242870      -305.9340
   3   2.0000     -11.231454      -305.6234
   4   2.0000     -11.229496      -305.5701
   5   2.0000     -11.228339      -305.5386
   6   2.0000     -11.226931      -305.5003
   7   2.0000     -11.226436      -305.4869
   8   2.0000     -11.221571      -305.3545
   9   2.0000      -1.374742       -37.4086
  10   2.0000      -1.250834       -34.0369
  11   2.0000      -1.055574       -28.7236
  12   2.0000      -0.980264       -26.6743
  13   2.0000      -0.885044       -24.0833
  14   2.0000      -0.870129       -23.6774
  15   2.0000      -0.821927       -22.3658
  16   2.0000      -0.765384       -20.8271
  17   2.0000      -0.695683       -18.9305
  18   2.0000      -0.678841       -18.4722
  19   2.0000      -0.643503       -17.5106
  20   2.0000      -0.630539       -17.1578
  21   2.0000      -0.611397       -16.6370
  22   2.0000      -0.595922       -16.2159
  23   2.0000      -0.570058       -15.5121
  24   2.0000      -0.517057       -14.0698
  25   2.0000      -0.515898       -14.0383
  26   2.0000      -0.490459       -13.3461
  27   2.0000      -0.454876       -12.3778
  28   2.0000      -0.436278       -11.8717
  29   2.0000      -0.429555       -11.6888
  30   2.0000      -0.412665       -11.2292
  31   2.0000      -0.397900       -10.8274
  32   2.0000      -0.384907       -10.4739
  33   0.0000       0.135487         3.6868
  34   0.0000       0.147913         4.0249
  35   0.0000       0.159188         4.3317
  36   0.0000       0.180664         4.9161
  37   0.0000       0.185920         5.0591

MULLIKEN ATOMIC CHARGES
-----------------------
   0 O :   -0.441508
   1 C :    0.051345
   2 C :   -0.169111
   3 C :   -0.040295
   4 C :   -0.208309
   5 C :   -0.251437
   6 C :   -0.108136
   7 C :   -0.093964
   8 C :   -0.095512
   9 H :    0.321996
  10 H :    0.107326
  11 H :    0.109851
  12 H :    0.115063
  13 H :    0.116719
  14 H :    0.114547
  15 H :    0.115659
  16 H :    0.119718
  17 H :    0.116190
  18 H :    0.119857
Sum of atomic charges:    0.0000000

LOEWDIN ATOMIC CHARGES
----------------------
   0 O :    0.024501
   1 C :   -0.298779
   2 C :   -0.168265
   3 C :   -0.156898
   4 C :   -0.213533
   5 C :   -0.212359
   6 C :   -0.171794
   7 C :   -0.078543
   8 C :   -0.091045
   9 H :    0.183430
  10 H :    0.125962
  11 H :    0.129319
  12 H :    0.134310
  13 H :    0.134766
  14 H :    0.131889
  15 H :    0.132126
  16 H :    0.134175
  17 H :    0.132355
  18 H :    0.128383

  Mayer bond orders larger than 0.1
B(  0-O ,  1-C ) :   1.1260 B(  0-O ,  9-H ) :   0.8357 B(  1-C ,  2-C ) :   0.9750
B(  1-C ,  7-C ) :   0.8620 B(  1-C ,  8-C ) :   0.8134 B(  2-C ,  3-C ) :   0.8664
B(  2-C , 10-H ) :   0.9166 B(  2-C , 11-H ) :   0.9084 B(  3-C ,  4-C ) :   0.9304
B(  3-C ,  7-C ) :   0.8519 B(  3-C ,  8-C ) :   0.8753 B(  4-C ,  5-C ) :   0.9879
B(  4-C , 12-H ) :   0.9206 B(  4-C , 13-H ) :   0.9181 B(  5-C ,  6-C ) :   0.9238
B(  5-C , 14-H ) :   0.9227 B(  5-C , 15-H ) :   0.9240 B(  6-C ,  7-C ) :   0.8693
B(  6-C ,  8-C ) :   0.8694 B(  6-C , 16-H ) :   0.9065 B(  7-C , 17-H ) :   0.8959
B(  8-C , 18-H ) :   0.8820

MP2 TOTAL ENERGY:     -385.143982650 Eh
FINAL SINGLE POINT ENERGY      -385.143982650060

DIPOLE MOMENT
-------------
                                X             Y             Z
Electronic contribution:      0.55578       4.74218       0.67455
Nuclear contribution   :     -0.06337      -5.08096      -0.71269
                        -----------------------------------------
Total Dipole Moment    :      0.49241      -0.33878      -0.03814
                        -----------------------------------------
Magnitude (a.u.)       :      0.59891
Magnitude (Debye)      :      1.52230

                             ****ORCA TERMINATED NORMALLY****
TOTAL RUN TIME: 0 days 0 hours 19 minutes 6 seconds 594 msec
