                         Program Version 3.0.3 - RELEASE   -
|  1> ! RI-MP2 RIJK def2-TZVP def2-TZVP/C def2-TZVP/JK TIGHTSCF
|  2> % maxcore 2000
|  3> % mp2 density relaxed end
|  4> *xyz 0 1
|  5>  C       -0.0884537963     1.5261279658    -0.0908705839
|  6>  C        0.0227632429     0.0200432804     0.0033770497
|  7>  C        1.3443029979    -0.6740990810    -0.1873849908
|  8>  C        0.6842852018    -0.6757149162     1.1821866332
|  9>  C        1.2816584355     0.0453427996     2.3435838512
| 10>  C        1.2013802032    -0.6776931300     3.4665237573
| 11>  C        0.4822520854    -1.9654738648     3.2405122651
| 12>  C       -0.9676399022    -1.8344570648     2.8088824221
| 13>  C        0.1140575332    -1.9524941357     1.7641057696
| 14>  H        0.8176510069     2.0220462253     0.2699814327
| 15>  H       -0.2395829037     1.8392736870    -1.1301233182
| 16>  H       -0.9314440346     1.9047618970     0.4976053009
| 17>  H       -0.8420487179    -0.5107933176    -0.3884487084
| 18>  H        1.3720225019    -1.6132138042    -0.7315262065
| 19>  H        2.2279292752    -0.0566244609    -0.3188151227
| 20>  H        1.7063536029     1.0390216021     2.2665406653
| 21>  H        1.5740688063    -0.3719127396     4.4372468003
| 22>  H        0.7951748233    -2.8667240731     3.7564656020
| 23>  H       -1.6092685930    -2.6987304577     2.9478400192
| 24>  H       -1.4549528771    -0.8759221478     2.9551223871
| 25>  H        0.1530474085    -2.8577913739     1.1683693248
| 26> *
| 27>
| 28>                          ****END OF INPUT****

CARTESIAN COORDINATES (ANGSTROEM)
---------------------------------
  C     -0.088454    1.526128   -0.090871
  C      0.022763    0.020043    0.003377
  C      1.344303   -0.674099   -0.187385
  C      0.684285   -0.675715    1.182187
  C      1.281658    0.045343    2.343584
  C      1.201380   -0.677693    3.466524
  C      0.482252   -1.965474    3.240512
  C     -0.967640   -1.834457    2.808882
  C      0.114058   -1.952494    1.764106
  H      0.817651    2.022046    0.269981
  H     -0.239583    1.839274   -1.130123
  H     -0.931444    1.904762    0.497605
  H     -0.842049   -0.510793   -0.388449
  H      1.372023   -1.613214   -0.731526
  H      2.227929   -0.056624   -0.318815
  H      1.706354    1.039022    2.266541
  H      1.574069   -0.371913    4.437247
  H      0.795175   -2.866724    3.756466
  H     -1.609269   -2.698730    2.947840
  H     -1.454953   -0.875922    2.955122
  H      0.153047   -2.857791    1.168369

 Total Charge           Charge          ....    0
 Multiplicity           Mult            ....    1
 Number of Electrons    NEL             ....   66
 Basis Dimension        Dim             ....  351

ORBITAL ENERGIES
----------------

  NO   OCC          E(Eh)            E(eV)
   0   2.0000     -11.235328      -305.7288
   1   2.0000     -11.228761      -305.5501
   2   2.0000     -11.228096      -305.5320
   3   2.0000     -11.226871      -305.4987
   4   2.0000     -11.221680      -305.3574
   5   2.0000     -11.221616      -305.3557
   6   2.0000     -11.219832      -305.3072
   7   2.0000     -11.219467      -305.2972
   8   2.0000     -11.216269      -305.2102
   9   2.0000      -1.190294       -32.3895
  10   2.0000      -1.122839       -30.5540
  11   2.0000      -1.021540       -27.7975
  12   2.0000      -0.963241       -26.2111
  13   2.0000      -0.878129       -23.8951
  14   2.0000      -0.826208       -22.4823
  15   2.0000      -0.789330       -21.4787
  16   2.0000      -0.753167       -20.4947
  17   2.0000      -0.715286       -19.4639
  18   2.0000      -0.683477       -18.5984
  19   2.0000      -0.636160       -17.3108
  20   2.0000      -0.605634       -16.4801
  21   2.0000      -0.589219       -16.0335
  22   2.0000      -0.566161       -15.4060
  23   2.0000      -0.557352       -15.1663
  24   2.0000      -0.533366       -14.5136
  25   2.0000      -0.510959       -13.9039
  26   2.0000      -0.498817       -13.5735
  27   2.0000      -0.474602       -12.9146
  28   2.0000      -0.463728       -12.6187
  29   2.0000      -0.446343       -12.1456
  30   2.0000      -0.409243       -11.1361
  31   2.0000      -0.373117       -10.1530
  32   2.0000      -0.312493        -8.5034
  33   0.0000       0.146075         3.9749
  34   0.0000       0.151325         4.1178
  35   0.0000       0.158381         4.3098
  36   0.0000       0.166991         4.5441
  37   0.0000       0.175182         4.7669

MULLIKEN ATOMIC CHARGES
-----------------------
   0 C :   -0.405247
   1 C :   -0.114124
   2 C :   -0.314055
   3 C :    0.113673
   4 C :   -0.175664
   5 C :   -0.220020
   6 C :   -0.037684
   7 C :   -0.290465
   8 C :   -0.075952
   9 H :    0.119391
  10 H :    0.134689
  11 H :    0.134664
  12 H :    0.118072
  13 H :    0.130056
  14 H :    0.124162
  15 H :    0.122162
  16 H :    0.124584
  17 H :    0.127070
  18 H :    0.126242
  19 H :    0.134603
  20 H :    0.123844
Sum of atomic charges:   -0.0000000

LOEWDIN ATOMIC CHARGES
----------------------
   0 C :   -0.292802
   1 C :   -0.207413
   2 C :   -0.179184
   3 C :   -0.186169
   4 C :   -0.113511
   5 C :   -0.136759
   6 C :   -0.180405
   7 C :   -0.194127
   8 C :   -0.143721
   9 H :    0.124125
  10 H :    0.125745
  11 H :    0.125933
  12 H :    0.151602
  13 H :    0.133666
  14 H :    0.135747
  15 H :    0.139870
  16 H :    0.138286
  17 H :    0.142670
  18 H :    0.132696
  19 H :    0.137076
  20 H :    0.146673

  Mayer bond orders larger than 0.1
B(  0-C ,  1-C ) :   0.9040 B(  0-C ,  9-H ) :   0.9347 B(  0-C , 10-H ) :   0.9391
B(  0-C , 11-H ) :   0.9416 B(  1-C ,  2-C ) :   0.9312 B(  1-C ,  3-C ) :   0.8250
B(  1-C , 12-H ) :   0.9244 B(  2-C ,  3-C ) :   0.8199 B(  2-C , 13-H ) :   0.9211
B(  2-C , 14-H ) :   0.9224 B(  3-C ,  4-C ) :   0.9384 B(  3-C ,  8-C ) :   0.8940
B(  4-C ,  5-C ) :   1.7826 B(  4-C , 15-H ) :   0.9191 B(  5-C ,  6-C ) :   0.9506
B(  5-C , 16-H ) :   0.9332 B(  6-C ,  7-C ) :   0.8647 B(  6-C ,  8-C ) :   0.8624
B(  6-C , 17-H ) :   0.9246 B(  7-C ,  8-C ) :   0.8787 B(  7-C , 18-H ) :   0.9279
B(  7-C , 19-H ) :   0.9204 B(  8-C , 20-H ) :   0.9198

MP2 TOTAL ENERGY:     -349.285674548 Eh
FINAL SINGLE POINT ENERGY      -349.285674547604

DIPOLE MOMENT
-------------
                                X             Y             Z
Electronic contribution:      1.49758      -2.73965       2.95846
Nuclear contribution   :     -1.57265       2.70393      -3.07492
                        -----------------------------------------
Total Dipole Moment    :     -0.07507      -0.03572      -0.11646
                        -----------------------------------------
Magnitude (a.u.)       :      0.14309
Magnitude (Debye)      :      0.36370

                             ****ORCA TERMINATED NORMALLY****
TOTAL RUN TIME: 0 days 0 hours 20 minutes 11 seconds 762 msec
