                         Program Version 3.0.3 - RELEASE   -
|  1> ! RI-MP2 RIJK def2-TZVP def2-TZVP/C def2-TZVP/JK TIGHTSCF
|  2> % maxcore 2000
|  3> % mp2 density relaxed end
|  4> *xyz 0 1
|  5>  C       -0.3610997676     1.5274438406    -0.0477798622
|  6>  C        0.0368641274     0.0485217492     0.0052395636
|  7>  C        0.9747243960    -0.3723979190    -1.1053981388
|  8>  C        1.9488967726    -1.2050172016    -0.7118250525
|  9>  C        1.7969092074    -1.4667592640     0.7285110216
| 10>  O        2.3195848912    -2.3177853669     1.4157135613
| 11>  C        0.7552688451    -0.4673023294     1.2827510540
| 12>  C        1.5007394464     0.6166025985     2.0760691473
| 13>  O       -0.1548506852    -1.1528003347     2.1251247198
| 14>  H        0.5073196556     2.1899317725     0.0074784294
| 15>  H       -0.8859675151     1.7442334972    -0.9840636979
| 16>  H       -1.0349278415     1.7785573111     0.7761095477
| 17>  H       -0.8806062658    -0.5488743317    -0.0817880806
| 18>  H        0.8251802338    -0.0308897959    -2.1256271102
| 19>  H        2.6995901516    -1.6771493974    -1.3323575442
| 20>  H        2.1941359910     1.1854659920     1.4484968684
| 21>  H        0.7870995616     1.3071889825     2.5321964115
| 22>  H        2.0787655543     0.1370990823     2.8717975593
| 23>  H        0.3695150510    -1.8269561854     2.5809719525
| 24> *
| 25>
| 26>                          ****END OF INPUT****

CARTESIAN COORDINATES (ANGSTROEM)
---------------------------------
  C     -0.361100    1.527444   -0.047780
  C      0.036864    0.048522    0.005240
  C      0.974724   -0.372398   -1.105398
  C      1.948897   -1.205017   -0.711825
  C      1.796909   -1.466759    0.728511
  O      2.319585   -2.317785    1.415714
  C      0.755269   -0.467302    1.282751
  C      1.500739    0.616603    2.076069
  O     -0.154851   -1.152800    2.125125
  H      0.507320    2.189932    0.007478
  H     -0.885968    1.744233   -0.984064
  H     -1.034928    1.778557    0.776110
  H     -0.880606   -0.548874   -0.081788
  H      0.825180   -0.030890   -2.125627
  H      2.699590   -1.677149   -1.332358
  H      2.194136    1.185466    1.448497
  H      0.787100    1.307189    2.532196
  H      2.078766    0.137099    2.871798
  H      0.369515   -1.826956    2.580972

 Total Charge           Charge          ....    0
 Multiplicity           Mult            ....    1
 Number of Electrons    NEL             ....   68
 Basis Dimension        Dim             ....  339

ORBITAL ENERGIES
----------------

  NO   OCC          E(Eh)            E(eV)
   0   2.0000     -20.558893      -559.4359
   1   2.0000     -20.548672      -559.1578
   2   2.0000     -11.330502      -308.3186
   3   2.0000     -11.299085      -307.4637
   4   2.0000     -11.275349      -306.8178
   5   2.0000     -11.253184      -306.2147
   6   2.0000     -11.246042      -306.0204
   7   2.0000     -11.232707      -305.6575
   8   2.0000     -11.225927      -305.4730
   9   2.0000      -1.398945       -38.0672
  10   2.0000      -1.361498       -37.0483
  11   2.0000      -1.158051       -31.5122
  12   2.0000      -1.034281       -28.1442
  13   2.0000      -1.006382       -27.3850
  14   2.0000      -0.902875       -24.5685
  15   2.0000      -0.884908       -24.0796
  16   2.0000      -0.772651       -21.0249
  17   2.0000      -0.754586       -20.5333
  18   2.0000      -0.693154       -18.8617
  19   2.0000      -0.663033       -18.0420
  20   2.0000      -0.647196       -17.6111
  21   2.0000      -0.621834       -16.9210
  22   2.0000      -0.605475       -16.4758
  23   2.0000      -0.588038       -16.0013
  24   2.0000      -0.585101       -15.9214
  25   2.0000      -0.548555       -14.9269
  26   2.0000      -0.537783       -14.6338
  27   2.0000      -0.530032       -14.4229
  28   2.0000      -0.519922       -14.1478
  29   2.0000      -0.508912       -13.8482
  30   2.0000      -0.504580       -13.7303
  31   2.0000      -0.449374       -12.2281
  32   2.0000      -0.402406       -10.9500
  33   2.0000      -0.387528       -10.5452
  34   0.0000       0.084669         2.3040
  35   0.0000       0.132693         3.6107
  36   0.0000       0.155241         4.2243
  37   0.0000       0.169512         4.6126
  38   0.0000       0.177100         4.8191

MULLIKEN ATOMIC CHARGES
-----------------------
   0 C :   -0.422266
   1 C :    0.018563
   2 C :   -0.180329
   3 C :   -0.195857
   4 C :    0.182038
   5 O :   -0.306878
   6 C :    0.239779
   7 C :   -0.442800
   8 O :   -0.476872
   9 H :    0.133525
  10 H :    0.138579
  11 H :    0.152138
  12 H :    0.121492
  13 H :    0.141313
  14 H :    0.146653
  15 H :    0.135775
  16 H :    0.142263
  17 H :    0.143114
  18 H :    0.329771
Sum of atomic charges:   -0.0000000

LOEWDIN ATOMIC CHARGES
----------------------
   0 C :   -0.285212
   1 C :   -0.212655
   2 C :   -0.071169
   3 C :   -0.116373
   4 C :   -0.291575
   5 O :    0.139632
   6 C :   -0.337522
   7 C :   -0.263266
   8 O :    0.013796
   9 H :    0.125177
  10 H :    0.126696
  11 H :    0.130762
  12 H :    0.173531
  13 H :    0.144396
  14 H :    0.146679
  15 H :    0.129693
  16 H :    0.130575
  17 H :    0.132365
  18 H :    0.184470

  Mayer bond orders larger than 0.1
B(  0-C ,  1-C ) :   0.8989 B(  0-C ,  9-H ) :   0.9276 B(  0-C , 10-H ) :   0.9360
B(  0-C , 11-H ) :   0.9423 B(  1-C ,  2-C ) :   0.9340 B(  1-C ,  6-C ) :   0.8547
B(  1-C , 12-H ) :   0.8931 B(  2-C ,  3-C ) :   1.6589 B(  2-C , 13-H ) :   0.9146
B(  3-C ,  4-C ) :   1.0306 B(  3-C , 14-H ) :   0.9150 B(  4-C ,  5-O ) :   1.9564
B(  4-C ,  6-C ) :   0.8613 B(  6-C ,  7-C ) :   0.8922 B(  6-C ,  8-O ) :   0.9922
B(  7-C , 15-H ) :   0.9298 B(  7-C , 16-H ) :   0.9328 B(  7-C , 17-H ) :   0.9212
B(  8-O , 18-H ) :   0.8191

MP2 TOTAL ENERGY:     -422.357758655 Eh
FINAL SINGLE POINT ENERGY      -422.357758654871

DIPOLE MOMENT
-------------
                                X             Y             Z
Electronic contribution:      2.68206      -8.11388       0.41355
Nuclear contribution   :     -2.76489       8.94786      -1.25666
                        -----------------------------------------
Total Dipole Moment    :     -0.08283       0.83398      -0.84311
                        -----------------------------------------
Magnitude (a.u.)       :      1.18879
Magnitude (Debye)      :      3.02167

                             ****ORCA TERMINATED NORMALLY****
TOTAL RUN TIME: 0 days 0 hours 21 minutes 58 seconds 130 msec
