                         Program Version 3.0.3 - RELEASE   -
|  1> ! RI-MP2 RIJK def2-TZVP def2-TZVP/C def2-TZVP/JK TIGHTSCF
|  2> % maxcore 2000
|  3> % mp2 density relaxed end
|  4> *xyz 0 1
|  5>  C       -0.8998889594     0.9465069103     0.2153405608
|  6>  C        0.0588288517    -0.2292674938    -0.0562143671
|  7>  C        1.0134185303     0.0804654609    -1.2329221272
|  8>  C        0.3068732711     0.2739628368    -2.4934481866
|  9>  C       -0.2897907792     0.4226417951    -3.5269259015
| 10>  C        0.8009672306    -0.6121153883     1.2076310421
| 11>  C        0.0278492511    -1.2010433142     2.3588553487
| 12>  N        2.0614163903    -0.4057443012     1.2387593856
| 13>  O        2.6218914924    -0.7769030999     2.4721751983
| 14>  H       -0.3366646605     1.8386736537     0.5093402627
| 15>  H       -1.4711437596     1.1814724449    -0.6862192848
| 16>  H       -1.6065907091     0.7137424834     1.0169223779
| 17>  H       -0.5521746056    -1.0964604950    -0.3435019185
| 18>  H        1.6062890157     0.9704065994    -0.9932797740
| 19>  H        1.7361503607    -0.7359069167    -1.3347542578
| 20>  H       -0.8029340432     0.5571935139    -4.4464902554
| 21>  H        0.0104351512    -0.5094377686     3.2080693768
| 22>  H       -1.0004544232    -1.4315492382     2.0741895912
| 23>  H        0.5188817022    -2.1126827102     2.7112775980
| 24>  H        3.5564524224    -0.5912634021     2.3331300209
| 25> *
| 26>
| 27>                          ****END OF INPUT****

CARTESIAN COORDINATES (ANGSTROEM)
---------------------------------
  C     -0.899889    0.946507    0.215341
  C      0.058829   -0.229267   -0.056214
  C      1.013419    0.080465   -1.232922
  C      0.306873    0.273963   -2.493448
  C     -0.289791    0.422642   -3.526926
  C      0.800967   -0.612115    1.207631
  C      0.027849   -1.201043    2.358855
  N      2.061416   -0.405744    1.238759
  O      2.621891   -0.776903    2.472175
  H     -0.336665    1.838674    0.509340
  H     -1.471144    1.181472   -0.686219
  H     -1.606591    0.713742    1.016922
  H     -0.552175   -1.096460   -0.343502
  H      1.606289    0.970407   -0.993280
  H      1.736150   -0.735907   -1.334754
  H     -0.802934    0.557194   -4.446490
  H      0.010435   -0.509438    3.208069
  H     -1.000454   -1.431549    2.074190
  H      0.518882   -2.112683    2.711278
  H      3.556452   -0.591263    2.333130

 Total Charge           Charge          ....    0
 Multiplicity           Mult            ....    1
 Number of Electrons    NEL             ....   68
 Basis Dimension        Dim             ....  345

ORBITAL ENERGIES
----------------

  NO   OCC          E(Eh)            E(eV)
   0   2.0000     -20.590052      -560.2838
   1   2.0000     -15.610480      -424.7828
   2   2.0000     -11.280451      -306.9567
   3   2.0000     -11.251724      -306.1750
   4   2.0000     -11.247213      -306.0522
   5   2.0000     -11.231839      -305.6339
   6   2.0000     -11.231619      -305.6279
   7   2.0000     -11.223200      -305.3988
   8   2.0000     -11.217323      -305.2389
   9   2.0000      -1.417467       -38.5712
  10   2.0000      -1.177599       -32.0441
  11   2.0000      -1.085796       -29.5460
  12   2.0000      -1.021741       -27.8030
  13   2.0000      -0.983779       -26.7700
  14   2.0000      -0.942332       -25.6422
  15   2.0000      -0.856724       -23.3127
  16   2.0000      -0.730644       -19.8818
  17   2.0000      -0.719132       -19.5686
  18   2.0000      -0.696099       -18.9418
  19   2.0000      -0.651484       -17.7278
  20   2.0000      -0.643766       -17.5178
  21   2.0000      -0.627632       -17.0787
  22   2.0000      -0.603993       -16.4355
  23   2.0000      -0.577303       -15.7092
  24   2.0000      -0.567199       -15.4343
  25   2.0000      -0.556973       -15.1560
  26   2.0000      -0.547670       -14.9028
  27   2.0000      -0.506986       -13.7958
  28   2.0000      -0.504860       -13.7379
  29   2.0000      -0.495825       -13.4921
  30   2.0000      -0.434456       -11.8222
  31   2.0000      -0.386343       -10.5129
  32   2.0000      -0.382456       -10.4071
  33   2.0000      -0.377845       -10.2817
  34   0.0000       0.130166         3.5420
  35   0.0000       0.152632         4.1533
  36   0.0000       0.159464         4.3392
  37   0.0000       0.165371         4.5000
  38   0.0000       0.170669         4.6441

MULLIKEN ATOMIC CHARGES
-----------------------
   0 C :   -0.416302
   1 C :   -0.027310
   2 C :   -0.398543
   3 C :    0.013635
   4 C :   -0.139465
   5 C :    0.084297
   6 C :   -0.429283
   7 N :   -0.118979
   8 O :   -0.377751
   9 H :    0.131269
  10 H :    0.155563
  11 H :    0.133465
  12 H :    0.107740
  13 H :    0.150201
  14 H :    0.153497
  15 H :    0.187788
  16 H :    0.153853
  17 H :    0.139722
  18 H :    0.161102
  19 H :    0.335501
Sum of atomic charges:    0.0000000

LOEWDIN ATOMIC CHARGES
----------------------
   0 C :   -0.275133
   1 C :   -0.237629
   2 C :   -0.226424
   3 C :   -0.111344
   4 C :   -0.113532
   5 C :   -0.282124
   6 C :   -0.282902
   7 N :    0.022980
   8 O :   -0.071899
   9 H :    0.128077
  10 H :    0.132012
  11 H :    0.123851
  12 H :    0.165410
  13 H :    0.161767
  14 H :    0.162370
  15 H :    0.125277
  16 H :    0.140057
  17 H :    0.130217
  18 H :    0.139644
  19 H :    0.169326

  Mayer bond orders larger than 0.1
B(  0-C ,  1-C ) :   0.8881 B(  0-C ,  9-H ) :   0.9313 B(  0-C , 10-H ) :   0.9319
B(  0-C , 11-H ) :   0.9337 B(  1-C ,  2-C ) :   0.9278 B(  1-C ,  5-C ) :   0.9372
B(  1-C , 12-H ) :   0.9193 B(  2-C ,  3-C ) :   1.0518 B(  2-C ,  4-C ) :  -0.1175
B(  2-C , 13-H ) :   0.9340 B(  2-C , 14-H ) :   0.9328 B(  3-C ,  4-C ) :   2.6273
B(  4-C , 15-H ) :   0.8930 B(  5-C ,  6-C ) :   0.9220 B(  5-C ,  7-N ) :   1.7929
B(  6-C , 16-H ) :   0.9199 B(  6-C , 17-H ) :   0.9368 B(  6-C , 18-H ) :   0.9220
B(  7-N ,  8-O ) :   0.8047 B(  8-O , 19-H ) :   0.8468

MP2 TOTAL ENERGY:     -402.382585624 Eh
FINAL SINGLE POINT ENERGY      -402.382585623965

DIPOLE MOMENT
-------------
                                X             Y             Z
Electronic contribution:      5.25051      -0.84219      -2.02444
Nuclear contribution   :     -5.39308       0.75953       2.30411
                        -----------------------------------------
Total Dipole Moment    :     -0.14257      -0.08266       0.27967
                        -----------------------------------------
Magnitude (a.u.)       :      0.32461
Magnitude (Debye)      :      0.82510

                             ****ORCA TERMINATED NORMALLY****
TOTAL RUN TIME: 0 days 0 hours 17 minutes 27 seconds 771 msec
