                         Program Version 3.0.3 - RELEASE   -
|  1> ! RI-MP2 RIJK def2-TZVP def2-TZVP/C def2-TZVP/JK TIGHTSCF
|  2> % maxcore 2000
|  3> % mp2 density relaxed end
|  4> *xyz 0 1
|  5>  C       -0.2891688902     1.4462998789    -0.1235792421
|  6>  C       -0.0092088994    -0.0478285390    -0.0185043951
|  7>  C        1.2247597165    -0.5695111290    -0.7266267769
|  8>  N        1.6390841556    -0.5244853328    -1.9093361313
|  9>  O        1.7948304338    -1.1179638830     0.4032606468
| 10>  C        0.6624965262    -0.6524316265     1.2512788264
| 11>  C        1.1644705062     0.2847429683     2.3317188355
| 12>  C       -0.0262226257    -1.8939099403     1.8125075761
| 13>  O        0.8488758218    -2.6590338264     2.6158537767
| 14>  H        0.5850713051     2.0463021907     0.1407882595
| 15>  H       -0.5607688701     1.6936005000    -1.1534503206
| 16>  H       -1.1187229890     1.7392592459     0.5274096493
| 17>  H       -0.9018176692    -0.6133482178    -0.3071838236
| 18>  H        2.5455455215    -0.9855000980    -2.0057964499
| 19>  H        1.8115533875     1.0606415869     1.9173673500
| 20>  H        0.3212124282     0.7672046795     2.8367919640
| 21>  H        1.7266024629    -0.2845484414     3.0756756019
| 22>  H       -0.8668872154    -1.5981234379     2.4501137618
| 23>  H       -0.4285467009    -2.4886562796     0.9778656592
| 24>  H        1.6009070247    -2.8885164086     2.0565213122
| 25> *
| 26>
| 27>                          ****END OF INPUT****

CARTESIAN COORDINATES (ANGSTROEM)
---------------------------------
  C     -0.289169    1.446300   -0.123579
  C     -0.009209   -0.047829   -0.018504
  C      1.224760   -0.569511   -0.726627
  N      1.639084   -0.524485   -1.909336
  O      1.794830   -1.117964    0.403261
  C      0.662497   -0.652432    1.251279
  C      1.164471    0.284743    2.331719
  C     -0.026223   -1.893910    1.812508
  O      0.848876   -2.659034    2.615854
  H      0.585071    2.046302    0.140788
  H     -0.560769    1.693601   -1.153450
  H     -1.118723    1.739259    0.527410
  H     -0.901818   -0.613348   -0.307184
  H      2.545546   -0.985500   -2.005796
  H      1.811553    1.060642    1.917367
  H      0.321212    0.767205    2.836792
  H      1.726602   -0.284548    3.075676
  H     -0.866887   -1.598123    2.450114
  H     -0.428547   -2.488656    0.977866
  H      1.600907   -2.888516    2.056521

 Total Charge           Charge          ....    0
 Multiplicity           Mult            ....    1
 Number of Electrons    NEL             ....   70
 Basis Dimension        Dim             ....  345

ORBITAL ENERGIES
----------------

  NO   OCC          E(Eh)            E(eV)
   0   2.0000     -20.591709      -560.3289
   1   2.0000     -20.565428      -559.6138
   2   2.0000     -15.538572      -422.8260
   3   2.0000     -11.339979      -308.5765
   4   2.0000     -11.312169      -307.8198
   5   2.0000     -11.290216      -307.2224
   6   2.0000     -11.259863      -306.3964
   7   2.0000     -11.236112      -305.7502
   8   2.0000     -11.230433      -305.5956
   9   2.0000      -1.435314       -39.0569
  10   2.0000      -1.370924       -37.3047
  11   2.0000      -1.198596       -32.6155
  12   2.0000      -1.093366       -29.7520
  13   2.0000      -1.024105       -27.8673
  14   2.0000      -0.952353       -25.9148
  15   2.0000      -0.909979       -24.7618
  16   2.0000      -0.812788       -22.1171
  17   2.0000      -0.729494       -19.8505
  18   2.0000      -0.715976       -19.4827
  19   2.0000      -0.699861       -19.0442
  20   2.0000      -0.673849       -18.3364
  21   2.0000      -0.650801       -17.7092
  22   2.0000      -0.611626       -16.6432
  23   2.0000      -0.603796       -16.4301
  24   2.0000      -0.591128       -16.0854
  25   2.0000      -0.564676       -15.3656
  26   2.0000      -0.555311       -15.1108
  27   2.0000      -0.542974       -14.7751
  28   2.0000      -0.526000       -14.3132
  29   2.0000      -0.520121       -14.1532
  30   2.0000      -0.485932       -13.2229
  31   2.0000      -0.473894       -12.8953
  32   2.0000      -0.453763       -12.3475
  33   2.0000      -0.435955       -11.8630
  34   2.0000      -0.403007       -10.9664
  35   0.0000       0.120257         3.2724
  36   0.0000       0.154324         4.1994
  37   0.0000       0.158251         4.3062
  38   0.0000       0.170284         4.6337
  39   0.0000       0.176058         4.7908

MULLIKEN ATOMIC CHARGES
-----------------------
   0 C :   -0.411811
   1 C :   -0.033331
   2 C :    0.076322
   3 N :   -0.357657
   4 O :   -0.303063
   5 C :    0.154433
   6 C :   -0.409230
   7 C :   -0.016134
   8 O :   -0.468573
   9 H :    0.131621
  10 H :    0.158430
  11 H :    0.135454
  12 H :    0.124312
  13 H :    0.227319
  14 H :    0.142298
  15 H :    0.133869
  16 H :    0.159863
  17 H :    0.115619
  18 H :    0.112208
  19 H :    0.328050
Sum of atomic charges:    0.0000000

LOEWDIN ATOMIC CHARGES
----------------------
   0 C :   -0.278026
   1 C :   -0.184934
   2 C :   -0.384156
   3 N :   -0.052992
   4 O :    0.229561
   5 C :   -0.293558
   6 C :   -0.264738
   7 C :   -0.312268
   8 O :   -0.033793
   9 H :    0.128190
  10 H :    0.136418
  11 H :    0.126539
  12 H :    0.163758
  13 H :    0.172395
  14 H :    0.130917
  15 H :    0.134505
  16 H :    0.137747
  17 H :    0.137358
  18 H :    0.126219
  19 H :    0.180859

  Mayer bond orders larger than 0.1
B(  0-C ,  1-C ) :   0.9039 B(  0-C ,  9-H ) :   0.9333 B(  0-C , 10-H ) :   0.9314
B(  0-C , 11-H ) :   0.9373 B(  1-C ,  2-C ) :   0.9103 B(  1-C ,  5-C ) :   0.8822
B(  1-C , 12-H ) :   0.9115 B(  2-C ,  3-N ) :   2.1203 B(  2-C ,  4-O ) :   1.0676
B(  3-N , 13-H ) :   0.8453 B(  4-O ,  5-C ) :   0.8206 B(  5-C ,  6-C ) :   0.9212
B(  5-C ,  7-C ) :   0.9492 B(  6-C , 14-H ) :   0.9351 B(  6-C , 15-H ) :   0.9257
B(  6-C , 16-H ) :   0.9258 B(  7-C ,  8-O ) :   0.9263 B(  7-C , 17-H ) :   0.9231
B(  7-C , 18-H ) :   0.9052 B(  8-O , 19-H ) :   0.8315

MP2 TOTAL ENERGY:     -439.576672178 Eh
FINAL SINGLE POINT ENERGY      -439.576672178436

DIPOLE MOMENT
-------------
                                X             Y             Z
Electronic contribution:      3.40787      -5.09505      -2.58116
Nuclear contribution   :     -3.76793       5.42414       2.96273
                        -----------------------------------------
Total Dipole Moment    :     -0.36007       0.32909       0.38157
                        -----------------------------------------
Magnitude (a.u.)       :      0.61931
Magnitude (Debye)      :      1.57415

                             ****ORCA TERMINATED NORMALLY****
TOTAL RUN TIME: 0 days 0 hours 18 minutes 16 seconds 125 msec
