                         Program Version 3.0.3 - RELEASE   -
|  1> ! RI-MP2 RIJK def2-TZVP def2-TZVP/C def2-TZVP/JK TIGHTSCF
|  2> % maxcore 2000
|  3> % mp2 density relaxed end
|  4> *xyz 0 1
|  5>  C       -0.0299323210     1.5768289397    -0.0732959701
|  6>  C        1.5178039598     1.3495960262    -0.0161755335
|  7>  C        1.2007135127     0.1664974036     0.9585619462
|  8>  C       -0.0458588198    -0.0027808173     0.0003427208
|  9>  C        0.6861735178    -0.3096273699    -1.2922656417
| 10>  N        0.7463342778    -1.0514471701    -2.3797725133
| 11>  C        1.8616350141    -0.5285227827    -2.9933637450
| 12>  N        2.4740486245     0.4720791328    -2.3584944587
| 13>  N        1.6881280196     0.5823013406    -1.2681020987
| 14>  H       -0.4245128864     2.0443440840     0.8313987271
| 15>  H       -0.4313804478     2.0508686864    -0.9707788990
| 16>  H        2.2590018327     2.1238730075     0.1580844765
| 17>  H        1.9246134607    -0.6490948547     1.0046532075
| 18>  H        0.9200161590     0.5034794206     1.9587569996
| 19>  H       -0.9278686787    -0.5755723618     0.2693541608
| 20>  H        2.2306793650    -0.8975740148    -3.9384113386
| 21> *
| 22>
| 23>                          ****END OF INPUT****

CARTESIAN COORDINATES (ANGSTROEM)
---------------------------------
  C     -0.029932    1.576829   -0.073296
  C      1.517804    1.349596   -0.016176
  C      1.200714    0.166497    0.958562
  C     -0.045859   -0.002781    0.000343
  C      0.686174   -0.309627   -1.292266
  N      0.746334   -1.051447   -2.379773
  C      1.861635   -0.528523   -2.993364
  N      2.474049    0.472079   -2.358494
  N      1.688128    0.582301   -1.268102
  H     -0.424513    2.044344    0.831399
  H     -0.431380    2.050869   -0.970779
  H      2.259002    2.123873    0.158084
  H      1.924613   -0.649095    1.004653
  H      0.920016    0.503479    1.958757
  H     -0.927869   -0.575572    0.269354
  H      2.230679   -0.897574   -3.938411

 Total Charge           Charge          ....    0
 Multiplicity           Mult            ....    1
 Number of Electrons    NEL             ....   64
 Basis Dimension        Dim             ....  321

ORBITAL ENERGIES
----------------

  NO   OCC          E(Eh)            E(eV)
   0   2.0000     -15.626404      -425.2161
   1   2.0000     -15.589966      -424.2245
   2   2.0000     -15.550573      -423.1526
   3   2.0000     -11.308885      -307.7304
   4   2.0000     -11.302761      -307.5638
   5   2.0000     -11.278368      -306.9000
   6   2.0000     -11.278338      -306.8992
   7   2.0000     -11.262163      -306.4590
   8   2.0000     -11.262141      -306.4584
   9   2.0000      -1.413818       -38.4719
  10   2.0000      -1.234899       -33.6033
  11   2.0000      -1.177940       -32.0534
  12   2.0000      -1.054311       -28.6893
  13   2.0000      -0.958745       -26.0888
  14   2.0000      -0.933049       -25.3896
  15   2.0000      -0.844434       -22.9782
  16   2.0000      -0.800523       -21.7834
  17   2.0000      -0.759951       -20.6793
  18   2.0000      -0.691597       -18.8193
  19   2.0000      -0.678702       -18.4684
  20   2.0000      -0.655115       -17.8266
  21   2.0000      -0.618741       -16.8368
  22   2.0000      -0.596387       -16.2285
  23   2.0000      -0.560660       -15.2563
  24   2.0000      -0.532423       -14.4880
  25   2.0000      -0.522425       -14.2159
  26   2.0000      -0.489901       -13.3309
  27   2.0000      -0.487430       -13.2636
  28   2.0000      -0.471281       -12.8242
  29   2.0000      -0.442968       -12.0538
  30   2.0000      -0.393475       -10.7070
  31   2.0000      -0.340022        -9.2525
  32   0.0000       0.133118         3.6223
  33   0.0000       0.150681         4.1002
  34   0.0000       0.156148         4.2490
  35   0.0000       0.167404         4.5553
  36   0.0000       0.172116         4.6835

MULLIKEN ATOMIC CHARGES
-----------------------
   0 C :   -0.242117
   1 C :   -0.053344
   2 C :   -0.242156
   3 C :   -0.056702
   4 C :   -0.004039
   5 N :   -0.258813
   6 C :    0.043465
   7 N :   -0.306782
   8 N :    0.111229
   9 H :    0.134808
  10 H :    0.142819
  11 H :    0.159310
  12 H :    0.142812
  13 H :    0.134854
  14 H :    0.154904
  15 H :    0.139753
Sum of atomic charges:    0.0000000

LOEWDIN ATOMIC CHARGES
----------------------
   0 C :   -0.174036
   1 C :   -0.174209
   2 C :   -0.174019
   3 C :   -0.152716
   4 C :   -0.296038
   5 N :    0.091915
   6 C :   -0.339644
   7 N :    0.030843
   8 N :    0.229179
   9 H :    0.138657
  10 H :    0.134957
  11 H :    0.140410
  12 H :    0.134952
  13 H :    0.138679
  14 H :    0.142710
  15 H :    0.128360

  Mayer bond orders larger than 0.1
B(  0-C ,  1-C ) :   0.9053 B(  0-C ,  3-C ) :   0.9059 B(  0-C ,  9-H ) :   0.9235
B(  0-C , 10-H ) :   0.9201 B(  1-C ,  2-C ) :   0.9053 B(  1-C ,  8-N ) :   0.8339
B(  1-C , 11-H ) :   0.9192 B(  2-C ,  3-C ) :   0.9059 B(  2-C , 12-H ) :   0.9201
B(  2-C , 13-H ) :   0.9235 B(  3-C ,  4-C ) :   0.9294 B(  3-C , 14-H ) :   0.9209
B(  4-C ,  5-N ) :   1.6658 B(  4-C ,  8-N ) :   1.2043 B(  5-N ,  6-C ) :   1.2617
B(  6-C ,  7-N ) :   1.4707 B(  6-C , 15-H ) :   0.9363 B(  7-N ,  8-N ) :   1.0127

MP2 TOTAL ENERGY:     -396.224094409 Eh
FINAL SINGLE POINT ENERGY      -396.224094409337

DIPOLE MOMENT
-------------
                                X             Y             Z
Electronic contribution:      1.82441      -1.85163      -4.70791
Nuclear contribution   :     -2.19437       2.59167       6.16232
                        -----------------------------------------
Total Dipole Moment    :     -0.36996       0.74004       1.45441
                        -----------------------------------------
Magnitude (a.u.)       :      1.67327
Magnitude (Debye)      :      4.25312

                             ****ORCA TERMINATED NORMALLY****
TOTAL RUN TIME: 0 days 0 hours 17 minutes 32 seconds 359 msec
