                         Program Version 3.0.3 - RELEASE   -
|  1> ! RI-MP2 RIJK def2-TZVP def2-TZVP/C def2-TZVP/JK TIGHTSCF
|  2> % maxcore 2000
|  3> % mp2 density relaxed end
|  4> *xyz 0 1
|  5>  C       -0.3205568028     1.5806637013     0.0363495214
|  6>  C        0.0189465979     0.0887499630     0.0404135744
|  7>  C       -1.2624856103    -0.7561572323    -0.0671092271
|  8>  C        1.0072569064    -0.3088895631    -1.0717089441
|  9>  O        1.5619860400    -1.5583694239    -0.6689222754
| 10>  C        1.5500669555    -1.6281225923     0.7538599421
| 11>  C        0.8401989590    -0.3624259401     1.2732272168
| 12>  O        1.7661237135     0.6700435968     1.5925878603
| 13>  H        0.5752064911     2.1932684916     0.1468439031
| 14>  H       -0.8180261194     1.8531717041    -0.9011630055
| 15>  H       -1.0033844004     1.8298383351     0.8556149030
| 16>  H       -1.8318745226    -0.4672362906    -0.9566486578
| 17>  H       -1.0383303402    -1.8233263511    -0.1503875011
| 18>  H       -1.9085416115    -0.6067902192     0.8045933966
| 19>  H        0.5276326416    -0.4526399287    -2.0452121569
| 20>  H        1.7949398263     0.4519144160    -1.1741608351
| 21>  H        1.0309143033    -2.5455042135     1.0608037547
| 22>  H        2.5781303380    -1.6764362802     1.1420321564
| 23>  H        0.1964187132    -0.5814766706     2.1372119699
| 24>  H        2.3727314215     0.3320148877     2.2581907845
| 25> *
| 26>
| 27>                          ****END OF INPUT****

CARTESIAN COORDINATES (ANGSTROEM)
---------------------------------
  C     -0.320557    1.580664    0.036350
  C      0.018947    0.088750    0.040414
  C     -1.262486   -0.756157   -0.067109
  C      1.007257   -0.308890   -1.071709
  O      1.561986   -1.558369   -0.668922
  C      1.550067   -1.628123    0.753860
  C      0.840199   -0.362426    1.273227
  O      1.766124    0.670044    1.592588
  H      0.575206    2.193268    0.146844
  H     -0.818026    1.853172   -0.901163
  H     -1.003384    1.829838    0.855615
  H     -1.831875   -0.467236   -0.956649
  H     -1.038330   -1.823326   -0.150388
  H     -1.908542   -0.606790    0.804593
  H      0.527633   -0.452640   -2.045212
  H      1.794940    0.451914   -1.174161
  H      1.030914   -2.545504    1.060804
  H      2.578130   -1.676436    1.142032
  H      0.196419   -0.581477    2.137212
  H      2.372731    0.332015    2.258191

 Total Charge           Charge          ....    0
 Multiplicity           Mult            ....    1
 Number of Electrons    NEL             ....   64
 Basis Dimension        Dim             ....  320

ORBITAL ENERGIES
----------------

  NO   OCC          E(Eh)            E(eV)
   0   2.0000     -20.560510      -559.4799
   1   2.0000     -20.547441      -559.1243
   2   2.0000     -11.283635      -307.0433
   3   2.0000     -11.274098      -306.7838
   4   2.0000     -11.264650      -306.5267
   5   2.0000     -11.236401      -305.7580
   6   2.0000     -11.216013      -305.2032
   7   2.0000     -11.209737      -305.0325
   8   2.0000      -1.382173       -37.6108
   9   2.0000      -1.357001       -36.9259
  10   2.0000      -1.093841       -29.7649
  11   2.0000      -0.994993       -27.0751
  12   2.0000      -0.932119       -25.3642
  13   2.0000      -0.920151       -25.0386
  14   2.0000      -0.823003       -22.3951
  15   2.0000      -0.751855       -20.4590
  16   2.0000      -0.704698       -19.1758
  17   2.0000      -0.670620       -18.2485
  18   2.0000      -0.652085       -17.7441
  19   2.0000      -0.626742       -17.0545
  20   2.0000      -0.601274       -16.3615
  21   2.0000      -0.567101       -15.4316
  22   2.0000      -0.554804       -15.0970
  23   2.0000      -0.552467       -15.0334
  24   2.0000      -0.537605       -14.6290
  25   2.0000      -0.530833       -14.4447
  26   2.0000      -0.525371       -14.2961
  27   2.0000      -0.470134       -12.7930
  28   2.0000      -0.466741       -12.7007
  29   2.0000      -0.450350       -12.2547
  30   2.0000      -0.433946       -11.8083
  31   2.0000      -0.410167       -11.1612
  32   0.0000       0.128830         3.5056
  33   0.0000       0.150172         4.0864
  34   0.0000       0.168658         4.5894
  35   0.0000       0.183971         5.0061
  36   0.0000       0.194224         5.2851

MULLIKEN ATOMIC CHARGES
-----------------------
   0 C :   -0.413704
   1 C :    0.122135
   2 C :   -0.462848
   3 C :   -0.040761
   4 O :   -0.328841
   5 C :   -0.030384
   6 C :   -0.013380
   7 O :   -0.466056
   8 H :    0.156597
   9 H :    0.130139
  10 H :    0.126570
  11 H :    0.134893
  12 H :    0.152709
  13 H :    0.131448
  14 H :    0.105715
  15 H :    0.097838
  16 H :    0.101447
  17 H :    0.081772
  18 H :    0.100382
  19 H :    0.314329
Sum of atomic charges:    0.0000000

LOEWDIN ATOMIC CHARGES
----------------------
   0 C :   -0.267864
   1 C :   -0.312019
   2 C :   -0.263797
   3 C :   -0.263417
   4 O :    0.141461
   5 C :   -0.292776
   6 C :   -0.306598
   7 O :   -0.012497
   8 H :    0.130876
   9 H :    0.126525
  10 H :    0.127798
  11 H :    0.128047
  12 H :    0.131543
  13 H :    0.125202
  14 H :    0.128858
  15 H :    0.126843
  16 H :    0.122805
  17 H :    0.120717
  18 H :    0.135731
  19 H :    0.172564

  Mayer bond orders larger than 0.1
B(  0-C ,  1-C ) :   0.9055 B(  0-C ,  8-H ) :   0.9299 B(  0-C ,  9-H ) :   0.9371
B(  0-C , 10-H ) :   0.9341 B(  1-C ,  2-C ) :   0.8984 B(  1-C ,  3-C ) :   0.9342
B(  1-C ,  6-C ) :   0.8538 B(  2-C , 11-H ) :   0.9384 B(  2-C , 12-H ) :   0.9292
B(  2-C , 13-H ) :   0.9353 B(  3-C ,  4-O ) :   0.9450 B(  3-C , 14-H ) :   0.9141
B(  3-C , 15-H ) :   0.9197 B(  4-O ,  5-C ) :   0.9563 B(  5-C ,  6-C ) :   0.9629
B(  5-C , 16-H ) :   0.9196 B(  5-C , 17-H ) :   0.9049 B(  6-C ,  7-O ) :   1.0017
B(  6-C , 18-H ) :   0.9381 B(  7-O , 19-H ) :   0.8437

MP2 TOTAL ENERGY:     -385.520830297 Eh
FINAL SINGLE POINT ENERGY      -385.520830296634

DIPOLE MOMENT
-------------
                                X             Y             Z
Electronic contribution:      4.95638      -1.77922       0.51263
Nuclear contribution   :     -5.18458       1.73119       0.12131
                        -----------------------------------------
Total Dipole Moment    :     -0.22820      -0.04803       0.63394
                        -----------------------------------------
Magnitude (a.u.)       :      0.67547
Magnitude (Debye)      :      1.71692

                             ****ORCA TERMINATED NORMALLY****
TOTAL RUN TIME: 0 days 0 hours 14 minutes 17 seconds 14 msec
