                         Program Version 3.0.3 - RELEASE   -
|  1> ! RI-MP2 RIJK def2-TZVP def2-TZVP/C def2-TZVP/JK TIGHTSCF
|  2> % maxcore 2000
|  3> % mp2 density relaxed end
|  4> *xyz 0 1
|  5>  C        0.0173942332    -1.1200379712    -0.4757542249
|  6>  C        0.0059473711     0.0491213020    -0.1905842000
|  7>  C       -0.0064787624     1.4554440168     0.1499443690
|  8>  C       -0.4116920448     2.3991505255    -1.0417416352
|  9>  C        1.0607754498     2.8619342317    -1.1946473030
| 10>  C        1.3997443459     2.1872020651     0.1655474760
| 11>  C        1.2952578793     3.0716656883     1.3754643565
| 12>  C        0.1814988059     2.8683711173     2.0792315654
| 13>  C       -0.6904662486     1.7766793527     1.5064761186
| 14>  H        0.0265205829    -2.1517277456    -0.7257720248
| 15>  H       -0.8569603145     1.8981166756    -1.9022777831
| 16>  H       -1.0819897600     3.1956260938    -0.7097898867
| 17>  H        1.5675884568     2.3764930736    -2.0324218171
| 18>  H        1.2326945172     3.9391492159    -1.2580211835
| 19>  H        2.2943176910     1.5577934475     0.1712881123
| 20>  H        2.0634300490     3.7972372901     1.6234474912
| 21>  H       -0.0866190693     3.4016790196     2.9851987119
| 22>  H       -1.7313424835     2.0923785919     1.3617914862
| 23>  H       -0.7199029390     0.8988628996     2.1640326211
| 24> *
| 25>
| 26>                          ****END OF INPUT****

CARTESIAN COORDINATES (ANGSTROEM)
---------------------------------
  C      0.017394   -1.120038   -0.475754
  C      0.005947    0.049121   -0.190584
  C     -0.006479    1.455444    0.149944
  C     -0.411692    2.399151   -1.041742
  C      1.060775    2.861934   -1.194647
  C      1.399744    2.187202    0.165547
  C      1.295258    3.071666    1.375464
  C      0.181499    2.868371    2.079232
  C     -0.690466    1.776679    1.506476
  H      0.026521   -2.151728   -0.725772
  H     -0.856960    1.898117   -1.902278
  H     -1.081990    3.195626   -0.709790
  H      1.567588    2.376493   -2.032422
  H      1.232695    3.939149   -1.258021
  H      2.294318    1.557793    0.171288
  H      2.063430    3.797237    1.623447
  H     -0.086619    3.401679    2.985199
  H     -1.731342    2.092379    1.361791
  H     -0.719903    0.898863    2.164033

 Total Charge           Charge          ....    0
 Multiplicity           Mult            ....    1
 Number of Electrons    NEL             ....   64
 Basis Dimension        Dim             ....  339

ORBITAL ENERGIES
----------------

  NO   OCC          E(Eh)            E(eV)
   0   2.0000     -11.255648      -306.2817
   1   2.0000     -11.235566      -305.7353
   2   2.0000     -11.230969      -305.6102
   3   2.0000     -11.229196      -305.5620
   4   2.0000     -11.228254      -305.5363
   5   2.0000     -11.226520      -305.4891
   6   2.0000     -11.226133      -305.4786
   7   2.0000     -11.222868      -305.3898
   8   2.0000     -11.216074      -305.2049
   9   2.0000      -1.174646       -31.9637
  10   2.0000      -1.056685       -28.7539
  11   2.0000      -1.029674       -28.0189
  12   2.0000      -0.971014       -26.4226
  13   2.0000      -0.899375       -24.4732
  14   2.0000      -0.861634       -23.4463
  15   2.0000      -0.777750       -21.1636
  16   2.0000      -0.736358       -20.0373
  17   2.0000      -0.702196       -19.1077
  18   2.0000      -0.683679       -18.6039
  19   2.0000      -0.642718       -17.4892
  20   2.0000      -0.608144       -16.5484
  21   2.0000      -0.584919       -15.9165
  22   2.0000      -0.553465       -15.0606
  23   2.0000      -0.536212       -14.5911
  24   2.0000      -0.507648       -13.8138
  25   2.0000      -0.489279       -13.3140
  26   2.0000      -0.476094       -12.9552
  27   2.0000      -0.462459       -12.5842
  28   2.0000      -0.451060       -12.2740
  29   2.0000      -0.375387       -10.2148
  30   2.0000      -0.367979       -10.0132
  31   2.0000      -0.348143        -9.4734
  32   0.0000       0.142814         3.8862
  33   0.0000       0.149412         4.0657
  34   0.0000       0.163705         4.4546
  35   0.0000       0.166851         4.5402
  36   0.0000       0.172640         4.6978

MULLIKEN ATOMIC CHARGES
-----------------------
   0 C :   -0.150426
   1 C :   -0.099815
   2 C :    0.079722
   3 C :   -0.266155
   4 C :   -0.236121
   5 C :   -0.024564
   6 C :   -0.208991
   7 C :   -0.199125
   8 C :   -0.190555
   9 H :    0.188226
  10 H :    0.128171
  11 H :    0.114486
  12 H :    0.122724
  13 H :    0.108876
  14 H :    0.123862
  15 H :    0.126997
  16 H :    0.126683
  17 H :    0.126489
  18 H :    0.129517
Sum of atomic charges:   -0.0000000

LOEWDIN ATOMIC CHARGES
----------------------
   0 C :   -0.101419
   1 C :   -0.071130
   2 C :   -0.187455
   3 C :   -0.173743
   4 C :   -0.212143
   5 C :   -0.151085
   6 C :   -0.139823
   7 C :   -0.150657
   8 C :   -0.186206
   9 H :    0.125716
  10 H :    0.132946
  11 H :    0.137667
  12 H :    0.135182
  13 H :    0.127072
  14 H :    0.147914
  15 H :    0.139624
  16 H :    0.137002
  17 H :    0.143289
  18 H :    0.147248

  Mayer bond orders larger than 0.1
B(  0-C ,  1-C ) :   2.5670 B(  0-C ,  2-C ) :  -0.1159 B(  0-C ,  9-H ) :   0.8818
B(  1-C ,  2-C ) :   1.2431 B(  2-C ,  3-C ) :   0.8811 B(  2-C ,  5-C ) :   0.8509
B(  2-C ,  8-C ) :   0.9114 B(  3-C ,  4-C ) :   0.9823 B(  3-C , 10-H ) :   0.9246
B(  3-C , 11-H ) :   0.8997 B(  4-C ,  5-C ) :   0.9251 B(  4-C , 12-H ) :   0.9174
B(  4-C , 13-H ) :   0.9184 B(  5-C ,  6-C ) :   0.9274 B(  5-C , 14-H ) :   0.9065
B(  6-C ,  7-C ) :   1.7926 B(  6-C , 15-H ) :   0.9233 B(  7-C ,  8-C ) :   0.9492
B(  7-C , 16-H ) :   0.9272 B(  8-C , 17-H ) :   0.9132 B(  8-C , 18-H ) :   0.9092

MP2 TOTAL ENERGY:     -348.064074629 Eh
FINAL SINGLE POINT ENERGY      -348.064074628844

DIPOLE MOMENT
-------------
                                X             Y             Z
Electronic contribution:      0.40787      -2.95555       0.85982
Nuclear contribution   :     -0.39572       3.19951      -0.82403
                        -----------------------------------------
Total Dipole Moment    :      0.01214       0.24396       0.03579
                        -----------------------------------------
Magnitude (a.u.)       :      0.24687
Magnitude (Debye)      :      0.62748

                             ****ORCA TERMINATED NORMALLY****
TOTAL RUN TIME: 0 days 0 hours 21 minutes 15 seconds 798 msec
