                         Program Version 3.0.3 - RELEASE   -
|  1> ! RI-MP2 RIJK def2-TZVP def2-TZVP/C def2-TZVP/JK TIGHTSCF
|  2> % maxcore 2000
|  3> % mp2 density relaxed end
|  4> *xyz 0 1
|  5>  C       -0.1761982825     1.5515537666    -0.0002431022
|  6>  C        0.0392842855     0.0381495367    -0.0010388494
|  7>  C        0.8832635149    -0.4873108067    -1.1957981780
|  8>  C        1.6230801398    -1.6946202449    -0.6241833792
|  9>  C        2.5916730407    -1.4717672361     0.5279610715
| 10>  C        2.2869701255    -0.1526107237     1.2331263505
| 11>  C        0.7635146254    -0.5473567773     1.2357145160
| 12>  C        0.0309216468    -0.3997236259     2.5551898239
| 13>  C        1.1845165266    -1.9802170556     0.7840232745
| 14>  H        0.7746600846     2.0918525864     0.0666350978
| 15>  H       -0.6725196405     1.8744541404    -0.9216064754
| 16>  H       -0.8028993628     1.8721322977     0.8385184556
| 17>  H       -0.9454299485    -0.4499122831    -0.0437511582
| 18>  H        0.2489362344    -0.7685093150    -2.0424765502
| 19>  H        1.5759134328     0.2807901932    -1.5618171429
| 20>  H        1.8634170435    -2.5310828407    -1.2715449824
| 21>  H        3.5264108363    -2.0186658362     0.5788576302
| 22>  H        2.6888689179    -0.1371331200     2.2502555674
| 23>  H        2.5742450415     0.7792877039     0.7326219574
| 24>  H       -0.0674771453     0.6528456750     2.8433210832
| 25>  H       -0.9785823601    -0.8246074993     2.4963029778
| 26>  H        0.5623856633    -0.9140196552     3.3628525789
| 27>  H        0.8299316603    -2.9269818001     1.1712456332
| 28> *
| 29>
| 30>                          ****END OF INPUT****

CARTESIAN COORDINATES (ANGSTROEM)
---------------------------------
  C     -0.176198    1.551554   -0.000243
  C      0.039284    0.038150   -0.001039
  C      0.883264   -0.487311   -1.195798
  C      1.623080   -1.694620   -0.624183
  C      2.591673   -1.471767    0.527961
  C      2.286970   -0.152611    1.233126
  C      0.763515   -0.547357    1.235715
  C      0.030922   -0.399724    2.555190
  C      1.184517   -1.980217    0.784023
  H      0.774660    2.091853    0.066635
  H     -0.672520    1.874454   -0.921606
  H     -0.802899    1.872132    0.838518
  H     -0.945430   -0.449912   -0.043751
  H      0.248936   -0.768509   -2.042477
  H      1.575913    0.280790   -1.561817
  H      1.863417   -2.531083   -1.271545
  H      3.526411   -2.018666    0.578858
  H      2.688869   -0.137133    2.250256
  H      2.574245    0.779288    0.732622
  H     -0.067477    0.652846    2.843321
  H     -0.978582   -0.824607    2.496303
  H      0.562386   -0.914020    3.362853
  H      0.829932   -2.926982    1.171246

 Total Charge           Charge          ....    0
 Multiplicity           Mult            ....    1
 Number of Electrons    NEL             ....   68
 Basis Dimension        Dim             ....  363

ORBITAL ENERGIES
----------------

  NO   OCC          E(Eh)            E(eV)
   0   2.0000     -11.230028      -305.5846
   1   2.0000     -11.223520      -305.4075
   2   2.0000     -11.222259      -305.3732
   3   2.0000     -11.218983      -305.2840
   4   2.0000     -11.216701      -305.2219
   5   2.0000     -11.215191      -305.1809
   6   2.0000     -11.212437      -305.1059
   7   2.0000     -11.210625      -305.0566
   8   2.0000     -11.208231      -304.9915
   9   2.0000      -1.204768       -32.7834
  10   2.0000      -1.052013       -28.6267
  11   2.0000      -1.014908       -27.6171
  12   2.0000      -0.943630       -25.6775
  13   2.0000      -0.912971       -24.8432
  14   2.0000      -0.863660       -23.5014
  15   2.0000      -0.774287       -21.0694
  16   2.0000      -0.748273       -20.3615
  17   2.0000      -0.704735       -19.1768
  18   2.0000      -0.663328       -18.0501
  19   2.0000      -0.630063       -17.1449
  20   2.0000      -0.602040       -16.3823
  21   2.0000      -0.577329       -15.7099
  22   2.0000      -0.564531       -15.3617
  23   2.0000      -0.545925       -14.8554
  24   2.0000      -0.538175       -14.6445
  25   2.0000      -0.531970       -14.4756
  26   2.0000      -0.529345       -14.4042
  27   2.0000      -0.489282       -13.3141
  28   2.0000      -0.476284       -12.9604
  29   2.0000      -0.443726       -12.0744
  30   2.0000      -0.428228       -11.6527
  31   2.0000      -0.420450       -11.4410
  32   2.0000      -0.381435       -10.3794
  33   2.0000      -0.367803       -10.0084
  34   0.0000       0.135802         3.6954
  35   0.0000       0.159716         4.3461
  36   0.0000       0.164338         4.4719
  37   0.0000       0.169994         4.6258
  38   0.0000       0.190309         5.1786

MULLIKEN ATOMIC CHARGES
-----------------------
   0 C :   -0.430368
   1 C :   -0.114256
   2 C :   -0.202439
   3 C :   -0.151943
   4 C :   -0.113222
   5 C :   -0.301595
   6 C :    0.276955
   7 C :   -0.436228
   8 C :   -0.227278
   9 H :    0.123520
  10 H :    0.136015
  11 H :    0.132315
  12 H :    0.082488
  13 H :    0.118860
  14 H :    0.107059
  15 H :    0.122923
  16 H :    0.123017
  17 H :    0.112922
  18 H :    0.104511
  19 H :    0.138385
  20 H :    0.129242
  21 H :    0.135879
  22 H :    0.133240
Sum of atomic charges:   -0.0000000

LOEWDIN ATOMIC CHARGES
----------------------
   0 C :   -0.294501
   1 C :   -0.224807
   2 C :   -0.206475
   3 C :   -0.178120
   4 C :   -0.164861
   5 C :   -0.172286
   6 C :   -0.221311
   7 C :   -0.271719
   8 C :   -0.122582
   9 H :    0.122433
  10 H :    0.125057
  11 H :    0.122231
  12 H :    0.154440
  13 H :    0.136331
  14 H :    0.138080
  15 H :    0.147369
  16 H :    0.132604
  17 H :    0.138503
  18 H :    0.124113
  19 H :    0.126912
  20 H :    0.127389
  21 H :    0.127518
  22 H :    0.133683

  Mayer bond orders larger than 0.1
B(  0-C ,  1-C ) :   0.8930 B(  0-C ,  9-H ) :   0.9343 B(  0-C , 10-H ) :   0.9413
B(  0-C , 11-H ) :   0.9421 B(  1-C ,  2-C ) :   0.9722 B(  1-C ,  6-C ) :   0.8974
B(  1-C , 12-H ) :   0.9210 B(  2-C ,  3-C ) :   0.9374 B(  2-C , 13-H ) :   0.9278
B(  2-C , 14-H ) :   0.9166 B(  3-C ,  4-C ) :   0.8437 B(  3-C ,  8-C ) :   0.8931
B(  3-C , 15-H ) :   0.9343 B(  4-C ,  5-C ) :   0.9639 B(  4-C ,  8-C ) :   0.8587
B(  4-C , 16-H ) :   0.9322 B(  5-C ,  6-C ) :   0.9207 B(  5-C , 17-H ) :   0.9256
B(  5-C , 18-H ) :   0.9140 B(  6-C ,  7-C ) :   0.8578 B(  6-C ,  8-C ) :   0.8655
B(  7-C , 19-H ) :   0.9455 B(  7-C , 20-H ) :   0.9386 B(  7-C , 21-H ) :   0.9396
B(  8-C , 22-H ) :   0.9138

MP2 TOTAL ENERGY:     -350.504134071 Eh
FINAL SINGLE POINT ENERGY      -350.504134071471

DIPOLE MOMENT
-------------
                                X             Y             Z
Electronic contribution:      2.56241      -4.18403      -1.19278
Nuclear contribution   :     -2.63499       4.13434       1.22524
                        -----------------------------------------
Total Dipole Moment    :     -0.07258      -0.04969       0.03246
                        -----------------------------------------
Magnitude (a.u.)       :      0.09376
Magnitude (Debye)      :      0.23832

                             ****ORCA TERMINATED NORMALLY****
TOTAL RUN TIME: 0 days 0 hours 23 minutes 13 seconds 668 msec
