                         Program Version 3.0.3 - RELEASE   -
|  1> ! RI-MP2 RIJK def2-TZVP def2-TZVP/C def2-TZVP/JK TIGHTSCF
|  2> % maxcore 2000
|  3> % mp2 density relaxed end
|  4> *xyz 0 1
|  5>  O        0.1075113648     0.0116839401     0.2927586273
|  6>  C        0.0335823398     1.1728114296    -0.0357667361
|  7>  N       -1.1212435999     1.9334795385    -0.1879486600
|  8>  C       -0.8291416503     3.3627451618    -0.1023840019
|  9>  C        0.6377940156     3.4045858961    -0.5867475368
| 10>  C        1.6684302100     4.2893483656     0.1641701065
| 11>  C        2.7346849116     3.2845477185     0.5670429452
| 12>  C        2.3383518392     2.0412530249     0.2877837320
| 13>  N        1.0953725242     2.0189838828    -0.3647536952
| 14>  H       -1.9534683015     1.5523449325     0.2341905926
| 15>  H       -1.4928306705     3.9494092564    -0.7430754918
| 16>  H       -0.9169187555     3.7445190242     0.9266492274
| 17>  H        0.6629207255     3.6164369674    -1.6613634041
| 18>  H        2.0516630994     5.0845546260    -0.4824178960
| 19>  H        1.2296201931     4.7840704103     1.0434966882
| 20>  H        3.6652056150     3.5518516213     1.0465406567
| 21>  H        2.8269639694     1.0995273940     0.4927328360
| 22> *
| 23>
| 24>                          ****END OF INPUT****

CARTESIAN COORDINATES (ANGSTROEM)
---------------------------------
  O      0.107511    0.011684    0.292759
  C      0.033582    1.172811   -0.035767
  N     -1.121244    1.933480   -0.187949
  C     -0.829142    3.362745   -0.102384
  C      0.637794    3.404586   -0.586748
  C      1.668430    4.289348    0.164170
  C      2.734685    3.284548    0.567043
  C      2.338352    2.041253    0.287784
  N      1.095373    2.018984   -0.364754
  H     -1.953468    1.552345    0.234191
  H     -1.492831    3.949409   -0.743075
  H     -0.916919    3.744519    0.926649
  H      0.662921    3.616437   -1.661363
  H      2.051663    5.084555   -0.482418
  H      1.229620    4.784070    1.043497
  H      3.665206    3.551852    1.046541
  H      2.826964    1.099527    0.492733

 Total Charge           Charge          ....    0
 Multiplicity           Mult            ....    1
 Number of Electrons    NEL             ....   66
 Basis Dimension        Dim             ....  327

ORBITAL ENERGIES
----------------

  NO   OCC          E(Eh)            E(eV)
   0   2.0000     -20.516998      -558.2959
   1   2.0000     -15.585086      -424.0918
   2   2.0000     -15.582953      -424.0337
   3   2.0000     -11.374290      -309.5102
   4   2.0000     -11.284348      -307.0627
   5   2.0000     -11.283343      -307.0354
   6   2.0000     -11.274219      -306.7871
   7   2.0000     -11.246813      -306.0413
   8   2.0000     -11.229422      -305.5681
   9   2.0000      -1.399460       -38.0812
  10   2.0000      -1.298971       -35.3468
  11   2.0000      -1.216489       -33.1023
  12   2.0000      -1.068986       -29.0886
  13   2.0000      -1.024834       -27.8871
  14   2.0000      -0.937949       -25.5229
  15   2.0000      -0.843943       -22.9649
  16   2.0000      -0.818319       -22.2676
  17   2.0000      -0.747730       -20.3468
  18   2.0000      -0.715273       -19.4636
  19   2.0000      -0.682540       -18.5729
  20   2.0000      -0.655160       -17.8278
  21   2.0000      -0.627467       -17.0742
  22   2.0000      -0.608502       -16.5582
  23   2.0000      -0.597681       -16.2637
  24   2.0000      -0.583731       -15.8841
  25   2.0000      -0.550535       -14.9808
  26   2.0000      -0.538513       -14.6537
  27   2.0000      -0.527367       -14.3504
  28   2.0000      -0.503469       -13.7001
  29   2.0000      -0.454149       -12.3580
  30   2.0000      -0.439550       -11.9608
  31   2.0000      -0.406559       -11.0630
  32   2.0000      -0.321493        -8.7483
  33   0.0000       0.129866         3.5338
  34   0.0000       0.146577         3.9886
  35   0.0000       0.152886         4.1602
  36   0.0000       0.163237         4.4419
  37   0.0000       0.171945         4.6789

MULLIKEN ATOMIC CHARGES
-----------------------
   0 O :   -0.352442
   1 C :    0.280567
   2 N :   -0.341432
   3 C :   -0.124946
   4 C :   -0.007242
   5 C :   -0.182368
   6 C :   -0.196701
   7 C :   -0.102101
   8 N :   -0.107468
   9 H :    0.244083
  10 H :    0.127068
  11 H :    0.113895
  12 H :    0.114250
  13 H :    0.127899
  14 H :    0.110060
  15 H :    0.139398
  16 H :    0.157479
Sum of atomic charges:    0.0000000

LOEWDIN ATOMIC CHARGES
----------------------
   0 O :    0.079138
   1 C :   -0.507060
   2 N :    0.081072
   3 C :   -0.246499
   4 C :   -0.198509
   5 C :   -0.216330
   6 C :   -0.185857
   7 C :   -0.177921
   8 N :    0.216980
   9 H :    0.183934
  10 H :    0.130661
  11 H :    0.125854
  12 H :    0.148617
  13 H :    0.140108
  14 H :    0.138948
  15 H :    0.138936
  16 H :    0.147929

  Mayer bond orders larger than 0.1
B(  0-O ,  1-C ) :   2.0037 B(  1-C ,  2-N ) :   1.1070 B(  1-C ,  8-N ) :   1.0382
B(  2-N ,  3-C ) :   0.9113 B(  2-N ,  9-H ) :   0.8692 B(  3-C ,  4-C ) :   0.9479
B(  3-C , 10-H ) :   0.9270 B(  3-C , 11-H ) :   0.9215 B(  4-C ,  5-C ) :   0.9723
B(  4-C ,  8-N ) :   0.8880 B(  4-C , 12-H ) :   0.9188 B(  5-C ,  6-C ) :   0.9266
B(  5-C , 13-H ) :   0.9288 B(  5-C , 14-H ) :   0.8980 B(  6-C ,  7-C ) :   1.7277
B(  6-C , 15-H ) :   0.9304 B(  7-C ,  8-N ) :   1.0062 B(  7-C , 16-H ) :   0.9288

MP2 TOTAL ENERGY:     -417.353023475 Eh
FINAL SINGLE POINT ENERGY      -417.353023475478

DIPOLE MOMENT
-------------
                                X             Y             Z
Electronic contribution:     -0.70977      -6.19138      -0.60912
Nuclear contribution   :      0.44815       7.87560       0.72389
                        -----------------------------------------
Total Dipole Moment    :     -0.26163       1.68423       0.11478
                        -----------------------------------------
Magnitude (a.u.)       :      1.70829
Magnitude (Debye)      :      4.34212

                             ****ORCA TERMINATED NORMALLY****
TOTAL RUN TIME: 0 days 0 hours 16 minutes 23 seconds 816 msec
