                         Program Version 3.0.3 - RELEASE   -
|  1> ! RI-MP2 RIJK def2-TZVP def2-TZVP/C def2-TZVP/JK TIGHTSCF
|  2> % maxcore 2000
|  3> % mp2 density relaxed end
|  4> *xyz 0 1
|  5>  O        0.0724072183     1.3674092778     0.0035339055
|  6>  C        0.0849801387    -0.0511084249     0.0839381865
|  7>  C       -1.3488731538    -0.5371582578    -0.0860432790
|  8>  C       -1.4812126424    -2.0594929982     0.0209885478
|  9>  O       -0.9739404136    -2.5448604562     1.2649096825
| 10>  C       -2.9221297700    -2.5228197896    -0.2179605183
| 11>  N       -2.9982741207    -3.9668520007    -0.3714223461
| 12>  C       -3.1796220234    -4.7535438297     0.8405339295
| 13>  C       -4.2977027194    -4.5850693388    -0.1273901278
| 14>  H        0.9699144678     1.6820413359     0.1447800637
| 15>  H        0.7179413560    -0.4906258057    -0.7044611433
| 16>  H        0.4790409779    -0.3996267286     1.0486524760
| 17>  H       -1.9764422252    -0.0536704824     0.6762783958
| 18>  H       -1.7251891568    -0.1989175375    -1.0584767860
| 19>  H       -0.8485831622    -2.5399815607    -0.7347526128
| 20>  H       -1.4674150323    -2.1071140486     1.9683099716
| 21>  H       -3.5605694661    -2.1506528011     0.6093213179
| 22>  H       -3.2980489582    -2.0655708310    -1.1412790409
| 23>  H       -2.6194751787    -5.6825106305     0.8895163916
| 24>  H       -3.2555495980    -4.2226141099     1.7871004090
| 25>  H       -5.1218318330    -3.9391369460     0.1734302216
| 26>  H       -4.5742476149    -5.3870429159    -0.8059001448
| 27> *
| 28>
| 29>                          ****END OF INPUT****

CARTESIAN COORDINATES (ANGSTROEM)
---------------------------------
  O      0.072407    1.367409    0.003534
  C      0.084980   -0.051108    0.083938
  C     -1.348873   -0.537158   -0.086043
  C     -1.481213   -2.059493    0.020989
  O     -0.973940   -2.544860    1.264910
  C     -2.922130   -2.522820   -0.217961
  N     -2.998274   -3.966852   -0.371422
  C     -3.179622   -4.753544    0.840534
  C     -4.297703   -4.585069   -0.127390
  H      0.969914    1.682041    0.144780
  H      0.717941   -0.490626   -0.704461
  H      0.479041   -0.399627    1.048652
  H     -1.976442   -0.053670    0.676278
  H     -1.725189   -0.198918   -1.058477
  H     -0.848583   -2.539982   -0.734753
  H     -1.467415   -2.107114    1.968310
  H     -3.560569   -2.150653    0.609321
  H     -3.298049   -2.065571   -1.141279
  H     -2.619475   -5.682511    0.889516
  H     -3.255550   -4.222614    1.787100
  H     -5.121832   -3.939137    0.173430
  H     -4.574248   -5.387043   -0.805900

 Total Charge           Charge          ....    0
 Multiplicity           Mult            ....    1
 Number of Electrons    NEL             ....   72
 Basis Dimension        Dim             ....  357

ORBITAL ENERGIES
----------------

  NO   OCC          E(Eh)            E(eV)
   0   2.0000     -20.554928      -559.3280
   1   2.0000     -20.554450      -559.3150
   2   2.0000     -15.556557      -423.3154
   3   2.0000     -11.278957      -306.9160
   4   2.0000     -11.272957      -306.7527
   5   2.0000     -11.254100      -306.2396
   6   2.0000     -11.251238      -306.1617
   7   2.0000     -11.249842      -306.1238
   8   2.0000     -11.222689      -305.3849
   9   2.0000      -1.362710       -37.0812
  10   2.0000      -1.357232       -36.9322
  11   2.0000      -1.270806       -34.5804
  12   2.0000      -1.062400       -28.9094
  13   2.0000      -1.000138       -27.2151
  14   2.0000      -0.891098       -24.2480
  15   2.0000      -0.840634       -22.8748
  16   2.0000      -0.813673       -22.1412
  17   2.0000      -0.805883       -21.9292
  18   2.0000      -0.701544       -19.0900
  19   2.0000      -0.681405       -18.5420
  20   2.0000      -0.669646       -18.2220
  21   2.0000      -0.649404       -17.6712
  22   2.0000      -0.633731       -17.2447
  23   2.0000      -0.618906       -16.8413
  24   2.0000      -0.597960       -16.2713
  25   2.0000      -0.568173       -15.4608
  26   2.0000      -0.535494       -14.5715
  27   2.0000      -0.523668       -14.2497
  28   2.0000      -0.518540       -14.1102
  29   2.0000      -0.499845       -13.6015
  30   2.0000      -0.485277       -13.2051
  31   2.0000      -0.475126       -12.9288
  32   2.0000      -0.454048       -12.3553
  33   2.0000      -0.442702       -12.0465
  34   2.0000      -0.424426       -11.5492
  35   2.0000      -0.373325       -10.1587
  36   0.0000       0.129778         3.5314
  37   0.0000       0.140562         3.8249
  38   0.0000       0.161956         4.4071
  39   0.0000       0.164499         4.4762
  40   0.0000       0.177977         4.8430

MULLIKEN ATOMIC CHARGES
-----------------------
   0 O :   -0.468344
   1 C :   -0.047026
   2 C :   -0.200453
   3 C :    0.059875
   4 O :   -0.469291
   5 C :   -0.170901
   6 N :   -0.206779
   7 C :   -0.140388
   8 C :   -0.178356
   9 H :    0.316465
  10 H :    0.090701
  11 H :    0.102774
  12 H :    0.108507
  13 H :    0.116827
  14 H :    0.092672
  15 H :    0.308428
  16 H :    0.088903
  17 H :    0.121327
  18 H :    0.129800
  19 H :    0.098187
  20 H :    0.117773
  21 H :    0.129301
Sum of atomic charges:    0.0000000

LOEWDIN ATOMIC CHARGES
----------------------
   0 O :   -0.054999
   1 C :   -0.349823
   2 C :   -0.261212
   3 C :   -0.344244
   4 O :   -0.015568
   5 C :   -0.289128
   6 N :    0.094032
   7 C :   -0.268243
   8 C :   -0.272433
   9 H :    0.171906
  10 H :    0.116061
  11 H :    0.116441
  12 H :    0.139894
  13 H :    0.145852
  14 H :    0.150156
  15 H :    0.171829
  16 H :    0.122250
  17 H :    0.140506
  18 H :    0.124967
  19 H :    0.117531
  20 H :    0.120516
  21 H :    0.123710

  Mayer bond orders larger than 0.1
B(  0-O ,  1-C ) :   1.0168 B(  0-O ,  9-H ) :   0.8496 B(  1-C ,  2-C ) :   0.9444
B(  1-C , 10-H ) :   0.9315 B(  1-C , 11-H ) :   0.9318 B(  2-C ,  3-C ) :   0.9361
B(  2-C , 12-H ) :   0.9047 B(  2-C , 13-H ) :   0.9228 B(  3-C ,  4-O ) :   0.8899
B(  3-C ,  5-C ) :   0.9482 B(  3-C , 14-H ) :   0.9155 B(  4-O , 15-H ) :   0.8427
B(  5-C ,  6-N ) :   0.8945 B(  5-C , 16-H ) :   0.9061 B(  5-C , 17-H ) :   0.9184
B(  6-N ,  7-C ) :   0.8913 B(  6-N ,  8-C ) :   0.8828 B(  7-C ,  8-C ) :   0.9427
B(  7-C , 18-H ) :   0.9289 B(  7-C , 19-H ) :   0.9244 B(  8-C , 20-H ) :   0.9255
B(  8-C , 21-H ) :   0.9259

MP2 TOTAL ENERGY:     -440.726598958 Eh
FINAL SINGLE POINT ENERGY      -440.726598958447

DIPOLE MOMENT
-------------
                                X             Y             Z
Electronic contribution:      2.07065       0.32721      -0.07009
Nuclear contribution   :     -2.23310      -0.11383       0.44185
                        -----------------------------------------
Total Dipole Moment    :     -0.16246       0.21338       0.37176
                        -----------------------------------------
Magnitude (a.u.)       :      0.45840
Magnitude (Debye)      :      1.16515

                             ****ORCA TERMINATED NORMALLY****
TOTAL RUN TIME: 0 days 0 hours 15 minutes 9 seconds 262 msec
