                         Program Version 3.0.3 - RELEASE   -
|  1> ! RI-MP2 RIJK def2-TZVP def2-TZVP/C def2-TZVP/JK TIGHTSCF
|  2> % maxcore 2000
|  3> % mp2 density relaxed end
|  4> *xyz 0 1
|  5>  C        0.1456374592     1.4015787771    -0.0961343987
|  6>  C       -0.1072588553    -0.0396827539     0.3292762664
|  7>  N       -1.3563862477    -0.5400478753    -0.2675219261
|  8>  C       -1.6728021363    -1.8712299961    -0.0742906261
|  9>  C       -2.7133397363    -2.5699397142     0.4364941616
| 10>  N       -2.5083472847    -3.9432630549     0.2212656457
| 11>  C       -1.3661004764    -3.9791716625    -0.3699160438
| 12>  O       -0.6610629041    -5.0379759621    -0.7720479183
| 13>  O       -0.7785325912    -2.7916463679    -0.6072344840
| 14>  H        1.0858089116     1.7663059096     0.3271029136
| 15>  H        0.1975375128     1.4798231185    -1.1855608005
| 16>  H       -0.6538866182     2.0648235700     0.2543104473
| 17>  H        0.7015089599    -0.6850247235    -0.0250491603
| 18>  H       -0.1236666982    -0.1179000789     1.4284709815
| 19>  H       -2.1471700942     0.0492325022    -0.0395025648
| 20>  H       -3.5948519135    -2.1991484641     0.9334465134
| 21>  H       -1.1745645172    -5.8167731339    -0.5225625967
| 22> *
| 23>
| 24>                          ****END OF INPUT****

CARTESIAN COORDINATES (ANGSTROEM)
---------------------------------
  C      0.145637    1.401579   -0.096134
  C     -0.107259   -0.039683    0.329276
  N     -1.356386   -0.540048   -0.267522
  C     -1.672802   -1.871230   -0.074291
  C     -2.713340   -2.569940    0.436494
  N     -2.508347   -3.943263    0.221266
  C     -1.366100   -3.979172   -0.369916
  O     -0.661063   -5.037976   -0.772048
  O     -0.778533   -2.791646   -0.607234
  H      1.085809    1.766306    0.327103
  H      0.197538    1.479823   -1.185561
  H     -0.653887    2.064824    0.254310
  H      0.701509   -0.685025   -0.025049
  H     -0.123667   -0.117900    1.428471
  H     -2.147170    0.049233   -0.039503
  H     -3.594852   -2.199148    0.933447
  H     -1.174565   -5.816773   -0.522563

 Total Charge           Charge          ....    0
 Multiplicity           Mult            ....    1
 Number of Electrons    NEL             ....   68
 Basis Dimension        Dim             ....  327

ORBITAL ENERGIES
----------------

  NO   OCC          E(Eh)            E(eV)
   0   2.0000     -20.633737      -561.4725
   1   2.0000     -20.618871      -561.0680
   2   2.0000     -15.575861      -423.8407
   3   2.0000     -15.550624      -423.1540
   4   2.0000     -11.390820      -309.9600
   5   2.0000     -11.323268      -308.1218
   6   2.0000     -11.265950      -306.5621
   7   2.0000     -11.248625      -306.0907
   8   2.0000     -11.225863      -305.4713
   9   2.0000      -1.507940       -41.0331
  10   2.0000      -1.424254       -38.7559
  11   2.0000      -1.240518       -33.7562
  12   2.0000      -1.226494       -33.3746
  13   2.0000      -1.037833       -28.2409
  14   2.0000      -0.975899       -26.5556
  15   2.0000      -0.871796       -23.7228
  16   2.0000      -0.850405       -23.1407
  17   2.0000      -0.798266       -21.7219
  18   2.0000      -0.762204       -20.7406
  19   2.0000      -0.689430       -18.7603
  20   2.0000      -0.682657       -18.5761
  21   2.0000      -0.673388       -18.3238
  22   2.0000      -0.650659       -17.7053
  23   2.0000      -0.614961       -16.7340
  24   2.0000      -0.589665       -16.0456
  25   2.0000      -0.577607       -15.7175
  26   2.0000      -0.572244       -15.5716
  27   2.0000      -0.537314       -14.6211
  28   2.0000      -0.530588       -14.4380
  29   2.0000      -0.512585       -13.9482
  30   2.0000      -0.465791       -12.6748
  31   2.0000      -0.452524       -12.3138
  32   2.0000      -0.430721       -11.7205
  33   2.0000      -0.299539        -8.1509
  34   0.0000       0.128360         3.4929
  35   0.0000       0.142485         3.8772
  36   0.0000       0.160854         4.3770
  37   0.0000       0.173064         4.7093
  38   0.0000       0.183238         4.9862

MULLIKEN ATOMIC CHARGES
-----------------------
   0 C :   -0.381574
   1 C :   -0.095555
   2 N :   -0.333030
   3 C :    0.208432
   4 C :   -0.178987
   5 N :   -0.307955
   6 C :    0.364708
   7 O :   -0.407245
   8 O :   -0.217294
   9 H :    0.133373
  10 H :    0.139036
  11 H :    0.118876
  12 H :    0.135645
  13 H :    0.102743
  14 H :    0.224139
  15 H :    0.139276
  16 H :    0.355412
Sum of atomic charges:   -0.0000000

LOEWDIN ATOMIC CHARGES
----------------------
   0 C :   -0.319575
   1 C :   -0.310204
   2 N :    0.047704
   3 C :   -0.336827
   4 C :   -0.253414
   5 N :    0.074128
   6 C :   -0.519776
   7 O :    0.098255
   8 O :    0.354277
   9 H :    0.126102
  10 H :    0.125576
  11 H :    0.119543
  12 H :    0.136973
  13 H :    0.120225
  14 H :    0.190079
  15 H :    0.134698
  16 H :    0.212236

  Mayer bond orders larger than 0.1
B(  0-C ,  1-C ) :   0.9319 B(  0-C ,  9-H ) :   0.9358 B(  0-C , 10-H ) :   0.9346
B(  0-C , 11-H ) :   0.9364 B(  1-C ,  2-N ) :   0.8756 B(  1-C , 12-H ) :   0.9305
B(  1-C , 13-H ) :   0.9198 B(  2-N ,  3-C ) :   1.1352 B(  2-N , 14-H ) :   0.8743
B(  3-C ,  4-C ) :   1.6004 B(  3-C ,  8-O ) :   0.9643 B(  4-C ,  5-N ) :   1.1270
B(  4-C , 15-H ) :   0.9331 B(  5-N ,  6-C ) :   1.6675 B(  6-C ,  7-O ) :   1.1294
B(  6-C ,  8-O ) :   1.1111 B(  7-O , 16-H ) :   0.8107

MP2 TOTAL ENERGY:     -454.435524804 Eh
FINAL SINGLE POINT ENERGY      -454.435524803691

DIPOLE MOMENT
-------------
                                X             Y             Z
Electronic contribution:     -3.46861     -12.21347      -1.78589
Nuclear contribution   :      3.52630      12.88850       2.18643
                        -----------------------------------------
Total Dipole Moment    :      0.05769       0.67504       0.40054
                        -----------------------------------------
Magnitude (a.u.)       :      0.78704
Magnitude (Debye)      :      2.00050

                             ****ORCA TERMINATED NORMALLY****
TOTAL RUN TIME: 0 days 0 hours 14 minutes 31 seconds 310 msec
