                         Program Version 3.0.3 - RELEASE   -
|  1> ! RI-MP2 RIJK def2-TZVP def2-TZVP/C def2-TZVP/JK TIGHTSCF
|  2> % maxcore 2000
|  3> % mp2 density relaxed end
|  4> *xyz 0 1
|  5>  C       -0.2634460576     1.5626650282     0.0190204288
|  6>  C       -0.0642545660     0.0493185399     0.0177822004
|  7>  C       -1.3321883758    -0.6862293146    -0.4103080386
|  8>  C        1.2176616000    -0.4597139553    -0.6932864087
|  9>  O        1.6661104165    -1.1535237491     0.4877381755
| 10>  C        0.6152329746    -0.6047336624     1.2805738408
| 11>  C        1.0826256085     0.3559953746     2.3507637904
| 12>  O        2.2044468553     0.7732254319     2.4651693783
| 13>  H        0.6357890397     2.0927812989     0.3455617432
| 14>  H       -0.5063821192     1.9082363661    -0.9920172519
| 15>  H       -1.0912168228     1.8589339768     0.6726755575
| 16>  H       -1.6398784608    -0.3724917968    -1.4142074937
| 17>  H       -1.1759157385    -1.7693112225    -0.4276129650
| 18>  H       -2.1611703241    -0.4731272593     0.2736835289
| 19>  H        1.0600320072    -1.1427216642    -1.5363355199
| 20>  H        1.9211585312     0.3280086255    -0.9900370487
| 21>  H        0.0029667283    -1.3819848479     1.7640911124
| 22>  H        0.2662240835     0.6713722902     3.0447817506
| 23> *
| 24>
| 25>                          ****END OF INPUT****

CARTESIAN COORDINATES (ANGSTROEM)
---------------------------------
  C     -0.263446    1.562665    0.019020
  C     -0.064255    0.049319    0.017782
  C     -1.332188   -0.686229   -0.410308
  C      1.217662   -0.459714   -0.693286
  O      1.666110   -1.153524    0.487738
  C      0.615233   -0.604734    1.280574
  C      1.082626    0.355995    2.350764
  O      2.204447    0.773225    2.465169
  H      0.635789    2.092781    0.345562
  H     -0.506382    1.908236   -0.992017
  H     -1.091217    1.858934    0.672676
  H     -1.639878   -0.372492   -1.414207
  H     -1.175916   -1.769311   -0.427613
  H     -2.161170   -0.473127    0.273684
  H      1.060032   -1.142722   -1.536336
  H      1.921159    0.328009   -0.990037
  H      0.002967   -1.381985    1.764091
  H      0.266224    0.671372    3.044782

 Total Charge           Charge          ....    0
 Multiplicity           Mult            ....    1
 Number of Electrons    NEL             ....   62
 Basis Dimension        Dim             ....  308

ORBITAL ENERGIES
----------------

  NO   OCC          E(Eh)            E(eV)
   0   2.0000     -20.560217      -559.4720
   1   2.0000     -20.559188      -559.4440
   2   2.0000     -11.332801      -308.3812
   3   2.0000     -11.299036      -307.4624
   4   2.0000     -11.284248      -307.0600
   5   2.0000     -11.263587      -306.4978
   6   2.0000     -11.234199      -305.6981
   7   2.0000     -11.233266      -305.6727
   8   2.0000      -1.408249       -38.3204
   9   2.0000      -1.383817       -37.6556
  10   2.0000      -1.097520       -29.8650
  11   2.0000      -0.989747       -26.9324
  12   2.0000      -0.954855       -25.9829
  13   2.0000      -0.917447       -24.9650
  14   2.0000      -0.823090       -22.3974
  15   2.0000      -0.729803       -19.8590
  16   2.0000      -0.707033       -19.2394
  17   2.0000      -0.662794       -18.0355
  18   2.0000      -0.658815       -17.9273
  19   2.0000      -0.633176       -17.2296
  20   2.0000      -0.608995       -16.5716
  21   2.0000      -0.588364       -16.0102
  22   2.0000      -0.572299       -15.5730
  23   2.0000      -0.561314       -15.2741
  24   2.0000      -0.546195       -14.8627
  25   2.0000      -0.529566       -14.4102
  26   2.0000      -0.502297       -13.6682
  27   2.0000      -0.471714       -12.8360
  28   2.0000      -0.453464       -12.3394
  29   2.0000      -0.438656       -11.9364
  30   2.0000      -0.406183       -11.0528
  31   0.0000       0.115229         3.1356
  32   0.0000       0.129918         3.5353
  33   0.0000       0.162853         4.4315
  34   0.0000       0.166429         4.5288
  35   0.0000       0.176067         4.7910

MULLIKEN ATOMIC CHARGES
-----------------------
   0 C :   -0.428168
   1 C :    0.087673
   2 C :   -0.438640
   3 C :   -0.053267
   4 O :   -0.314174
   5 C :    0.112817
   6 C :    0.049230
   7 O :   -0.245115
   8 H :    0.158775
   9 H :    0.140224
  10 H :    0.134652
  11 H :    0.136112
  12 H :    0.150585
  13 H :    0.133256
  14 H :    0.100405
  15 H :    0.100283
  16 H :    0.105048
  17 H :    0.070304
Sum of atomic charges:    0.0000000

LOEWDIN ATOMIC CHARGES
----------------------
   0 C :   -0.272772
   1 C :   -0.281785
   2 C :   -0.271238
   3 C :   -0.221147
   4 O :    0.162732
   5 C :   -0.259999
   6 C :   -0.285631
   7 O :    0.148835
   8 H :    0.132742
   9 H :    0.131224
  10 H :    0.128173
  11 H :    0.128688
  12 H :    0.131471
  13 H :    0.127373
  14 H :    0.119904
  15 H :    0.123481
  16 H :    0.146380
  17 H :    0.111569

  Mayer bond orders larger than 0.1
B(  0-C ,  1-C ) :   0.9243 B(  0-C ,  8-H ) :   0.9305 B(  0-C ,  9-H ) :   0.9297
B(  0-C , 10-H ) :   0.9315 B(  1-C ,  2-C ) :   0.9031 B(  1-C ,  3-C ) :   0.9616
B(  1-C ,  5-C ) :   0.9025 B(  2-C , 11-H ) :   0.9319 B(  2-C , 12-H ) :   0.9330
B(  2-C , 13-H ) :   0.9335 B(  3-C ,  4-O ) :   0.9527 B(  3-C , 14-H ) :   0.9083
B(  3-C , 15-H ) :   0.9030 B(  4-O ,  5-C ) :   0.9776 B(  5-C ,  6-C ) :   0.8268
B(  5-C , 16-H ) :   0.8919 B(  6-C ,  7-O ) :   2.0325 B(  6-C , 17-H ) :   0.9352

MP2 TOTAL ENERGY:     -384.291048558 Eh
FINAL SINGLE POINT ENERGY      -384.291048558121

DIPOLE MOMENT
-------------
                                X             Y             Z
Electronic contribution:      7.15173      -1.64396       5.20765
Nuclear contribution   :     -8.59080       1.75130      -5.75812
                        -----------------------------------------
Total Dipole Moment    :     -1.43907       0.10734      -0.55047
                        -----------------------------------------
Magnitude (a.u.)       :      1.54449
Magnitude (Debye)      :      3.92579

                             ****ORCA TERMINATED NORMALLY****
TOTAL RUN TIME: 0 days 0 hours 13 minutes 12 seconds 183 msec
