                         Program Version 3.0.3 - RELEASE   -
|  1> ! RI-MP2 RIJK def2-TZVP def2-TZVP/C def2-TZVP/JK TIGHTSCF
|  2> % maxcore 2000
|  3> % mp2 density relaxed end
|  4> *xyz 0 1
|  5>  C       -0.0193742914     1.4447123076     0.0282046606
|  6>  C       -0.0173706432    -0.0105850026     0.0251156765
|  7>  C        0.0066520641    -1.2151419181     0.0181802354
|  8>  C        0.0199837338    -2.6537802662     0.0021631417
|  9>  C       -0.4574017301    -3.4097297887     1.2599999851
| 10>  C       -1.3226750938    -3.4078985872     0.0338984995
| 11>  N       -2.5298673910    -2.6495611861    -0.1098857068
| 12>  C        1.0876582387    -3.2617423369    -0.7576135123
| 13>  N        1.9377606254    -3.7658485815    -1.3581518901
| 14>  H        0.9878408907     1.8325622768    -0.1578736488
| 15>  H       -0.6799067395     1.8456477273    -0.7479298547
| 16>  H       -0.3542972985     1.8402294529     0.9931640792
| 17>  H        0.0884365261    -4.3090271587     1.5219383567
| 18>  H       -0.7425351234    -2.7733015301     2.0897178982
| 19>  H       -1.3163224118    -4.3274507793    -0.5450463266
| 20>  H       -3.2488024713    -3.0010178978     0.5146319545
| 21>  H       -2.3672202348    -1.6734456616     0.1185135316
| 22> *
| 23>
| 24>                          ****END OF INPUT****

CARTESIAN COORDINATES (ANGSTROEM)
---------------------------------
  C     -0.019374    1.444712    0.028205
  C     -0.017371   -0.010585    0.025116
  C      0.006652   -1.215142    0.018180
  C      0.019984   -2.653780    0.002163
  C     -0.457402   -3.409730    1.260000
  C     -1.322675   -3.407899    0.033898
  N     -2.529867   -2.649561   -0.109886
  C      1.087658   -3.261742   -0.757614
  N      1.937761   -3.765849   -1.358152
  H      0.987841    1.832562   -0.157874
  H     -0.679907    1.845648   -0.747930
  H     -0.354297    1.840229    0.993164
  H      0.088437   -4.309027    1.521938
  H     -0.742535   -2.773302    2.089718
  H     -1.316322   -4.327451   -0.545046
  H     -3.248802   -3.001018    0.514632
  H     -2.367220   -1.673446    0.118514

 Total Charge           Charge          ....    0
 Multiplicity           Mult            ....    1
 Number of Electrons    NEL             ....   64
 Basis Dimension        Dim             ....  327

ORBITAL ENERGIES
----------------

  NO   OCC          E(Eh)            E(eV)
   0   2.0000     -15.567666      -423.6177
   1   2.0000     -15.563189      -423.4959
   2   2.0000     -11.313125      -307.8458
   3   2.0000     -11.301544      -307.5306
   4   2.0000     -11.274977      -306.8077
   5   2.0000     -11.265912      -306.5610
   6   2.0000     -11.260647      -306.4178
   7   2.0000     -11.249609      -306.1174
   8   2.0000     -11.243039      -305.9386
   9   2.0000      -1.247822       -33.9550
  10   2.0000      -1.211815       -32.9752
  11   2.0000      -1.138118       -30.9698
  12   2.0000      -1.072294       -29.1786
  13   2.0000      -0.987239       -26.8641
  14   2.0000      -0.914838       -24.8940
  15   2.0000      -0.843848       -22.9623
  16   2.0000      -0.775720       -21.1084
  17   2.0000      -0.707369       -19.2485
  18   2.0000      -0.660012       -17.9598
  19   2.0000      -0.648104       -17.6358
  20   2.0000      -0.619629       -16.8610
  21   2.0000      -0.602323       -16.3901
  22   2.0000      -0.600624       -16.3438
  23   2.0000      -0.571030       -15.5385
  24   2.0000      -0.555890       -15.1265
  25   2.0000      -0.541878       -14.7452
  26   2.0000      -0.525971       -14.3124
  27   2.0000      -0.469450       -12.7744
  28   2.0000      -0.444936       -12.1073
  29   2.0000      -0.413901       -11.2628
  30   2.0000      -0.383663       -10.4400
  31   2.0000      -0.367053        -9.9880
  32   0.0000       0.120846         3.2884
  33   0.0000       0.134971         3.6728
  34   0.0000       0.149238         4.0610
  35   0.0000       0.155783         4.2391
  36   0.0000       0.160243         4.3604

MULLIKEN ATOMIC CHARGES
-----------------------
   0 C :   -0.484537
   1 C :    0.086768
   2 C :   -0.042355
   3 C :    0.067985
   4 C :   -0.257074
   5 C :   -0.022163
   6 N :   -0.519445
   7 C :   -0.202389
   8 N :   -0.056001
   9 H :    0.172747
  10 H :    0.169543
  11 H :    0.164866
  12 H :    0.153116
  13 H :    0.149004
  14 H :    0.145661
  15 H :    0.235478
  16 H :    0.238794
Sum of atomic charges:    0.0000000

LOEWDIN ATOMIC CHARGES
----------------------
   0 C :   -0.288992
   1 C :   -0.078757
   2 C :   -0.040976
   3 C :   -0.208362
   4 C :   -0.148910
   5 C :   -0.241279
   6 N :   -0.128142
   7 C :   -0.136202
   8 N :    0.069091
   9 H :    0.146819
  10 H :    0.143571
  11 H :    0.142677
  12 H :    0.144258
  13 H :    0.143822
  14 H :    0.154921
  15 H :    0.161396
  16 H :    0.165064

  Mayer bond orders larger than 0.1
B(  0-C ,  1-C ) :   0.8476 B(  0-C ,  9-H ) :   0.9455 B(  0-C , 10-H ) :   0.9443
B(  0-C , 11-H ) :   0.9469 B(  1-C ,  2-C ) :   2.5804 B(  1-C ,  3-C ) :  -0.1412
B(  2-C ,  3-C ) :   1.2255 B(  3-C ,  4-C ) :   0.7921 B(  3-C ,  5-C ) :   0.8052
B(  3-C ,  7-C ) :   0.9560 B(  4-C ,  5-C ) :   0.9141 B(  4-C , 12-H ) :   0.9121
B(  4-C , 13-H ) :   0.9244 B(  5-C ,  6-N ) :   1.0097 B(  5-C , 14-H ) :   0.9221
B(  6-N , 15-H ) :   0.8877 B(  6-N , 16-H ) :   0.8791 B(  7-C ,  8-N ) :   2.8514

MP2 TOTAL ENERGY:     -380.151503491 Eh
FINAL SINGLE POINT ENERGY      -380.151503490500

DIPOLE MOMENT
-------------
                                X             Y             Z
Electronic contribution:      4.44682      -4.82839      -2.76904
Nuclear contribution   :     -5.63621       5.74231       4.13413
                        -----------------------------------------
Total Dipole Moment    :     -1.18939       0.91392       1.36510
                        -----------------------------------------
Magnitude (a.u.)       :      2.02815
Magnitude (Debye)      :      5.15515

                             ****ORCA TERMINATED NORMALLY****
TOTAL RUN TIME: 0 days 0 hours 14 minutes 39 seconds 888 msec
