                         Program Version 3.0.3 - RELEASE   -
|  1> ! RI-MP2 RIJK def2-TZVP def2-TZVP/C def2-TZVP/JK TIGHTSCF
|  2> % maxcore 2000
|  3> % mp2 density relaxed end
|  4> *xyz 0 1
|  5>  C       -0.9307019336     1.0631347304    -0.2419718854
|  6>  C        0.1296328112    -0.0013299692    -0.0090319856
|  7>  C        1.4786331805     0.1064166233    -0.7745749436
|  8>  C        2.2286760618    -0.3228240593     0.5185600158
|  9>  C        0.9410100066     0.0285792340     1.3169547408
| 10>  C        2.6923911915    -1.8037355298     0.5827021697
| 11>  O        4.0921351301    -1.7293399141     0.9451607626
| 12>  C        4.3538045502    -0.4066632294     1.0613017874
| 13>  N        3.4352823954     0.4419091649     0.8571963748
| 14>  H       -0.5142375447     2.0664675485    -0.0975938080
| 15>  H       -1.3310786067     1.0111427255    -1.2607511571
| 16>  H       -1.7712190540     0.9474308403     0.4516129556
| 17>  H       -0.3065950405    -0.9961268046    -0.1581847825
| 18>  H        1.6213246422    -0.5136411749    -1.6647864262
| 19>  H        1.7237067826     1.1434521243    -1.0204528431
| 20>  H        1.0187465781     1.0413860559     1.7220946861
| 21>  H        0.6484210520    -0.6545000090     2.1201390697
| 22>  H        2.1757028789    -2.3892734174     1.3490831447
| 23>  H        2.6191258237    -2.3252102672    -0.3763877173
| 24>  H        5.3783169044    -0.1772036024     1.3334589216
| 25> *
| 26>
| 27>                          ****END OF INPUT****

CARTESIAN COORDINATES (ANGSTROEM)
---------------------------------
  C     -0.930702    1.063135   -0.241972
  C      0.129633   -0.001330   -0.009032
  C      1.478633    0.106417   -0.774575
  C      2.228676   -0.322824    0.518560
  C      0.941010    0.028579    1.316955
  C      2.692391   -1.803736    0.582702
  O      4.092135   -1.729340    0.945161
  C      4.353805   -0.406663    1.061302
  N      3.435282    0.441909    0.857196
  H     -0.514238    2.066468   -0.097594
  H     -1.331079    1.011143   -1.260751
  H     -1.771219    0.947431    0.451613
  H     -0.306595   -0.996127   -0.158185
  H      1.621325   -0.513641   -1.664786
  H      1.723707    1.143452   -1.020453
  H      1.018747    1.041386    1.722095
  H      0.648421   -0.654500    2.120139
  H      2.175703   -2.389273    1.349083
  H      2.619126   -2.325210   -0.376388
  H      5.378317   -0.177204    1.333459

 Total Charge           Charge          ....    0
 Multiplicity           Mult            ....    1
 Number of Electrons    NEL             ....   68
 Basis Dimension        Dim             ....  345

ORBITAL ENERGIES
----------------

  NO   OCC          E(Eh)            E(eV)
   0   2.0000     -20.594089      -560.3937
   1   2.0000     -15.543776      -422.9677
   2   2.0000     -11.329287      -308.2856
   3   2.0000     -11.289445      -307.2014
   4   2.0000     -11.267768      -306.6115
   5   2.0000     -11.230351      -305.5934
   6   2.0000     -11.220249      -305.3185
   7   2.0000     -11.220229      -305.3179
   8   2.0000     -11.214317      -305.1571
   9   2.0000      -1.436290       -39.0834
  10   2.0000      -1.217048       -33.1176
  11   2.0000      -1.128285       -30.7022
  12   2.0000      -1.010344       -27.4929
  13   2.0000      -0.946878       -25.7658
  14   2.0000      -0.904724       -24.6188
  15   2.0000      -0.829033       -22.5591
  16   2.0000      -0.794193       -21.6111
  17   2.0000      -0.749032       -20.3822
  18   2.0000      -0.693263       -18.8646
  19   2.0000      -0.672528       -18.3004
  20   2.0000      -0.645159       -17.5557
  21   2.0000      -0.628123       -17.0921
  22   2.0000      -0.583204       -15.8698
  23   2.0000      -0.574115       -15.6224
  24   2.0000      -0.553711       -15.0672
  25   2.0000      -0.551997       -15.0206
  26   2.0000      -0.520830       -14.1725
  27   2.0000      -0.514895       -14.0110
  28   2.0000      -0.501039       -13.6340
  29   2.0000      -0.464809       -12.6481
  30   2.0000      -0.439749       -11.9662
  31   2.0000      -0.437588       -11.9074
  32   2.0000      -0.429791       -11.6952
  33   2.0000      -0.369626       -10.0580
  34   0.0000       0.131526         3.5790
  35   0.0000       0.153603         4.1798
  36   0.0000       0.164899         4.4871
  37   0.0000       0.169399         4.6096
  38   0.0000       0.178699         4.8626

MULLIKEN ATOMIC CHARGES
-----------------------
   0 C :   -0.433287
   1 C :    0.016065
   2 C :   -0.304096
   3 C :    0.235296
   4 C :   -0.304095
   5 C :   -0.095547
   6 O :   -0.270273
   7 C :    0.096726
   8 N :   -0.286064
   9 H :    0.126908
  10 H :    0.131113
  11 H :    0.131113
  12 H :    0.098686
  13 H :    0.119309
  14 H :    0.119384
  15 H :    0.119384
  16 H :    0.119313
  17 H :    0.116791
  18 H :    0.116795
  19 H :    0.146479
Sum of atomic charges:   -0.0000000

LOEWDIN ATOMIC CHARGES
----------------------
   0 C :   -0.303240
   1 C :   -0.256534
   2 C :   -0.179262
   3 C :   -0.280254
   4 C :   -0.179264
   5 C :   -0.214173
   6 O :    0.210880
   7 C :   -0.346027
   8 N :    0.098636
   9 H :    0.124348
  10 H :    0.124153
  11 H :    0.124153
  12 H :    0.146613
  13 H :    0.125277
  14 H :    0.144368
  15 H :    0.144368
  16 H :    0.125277
  17 H :    0.128482
  18 H :    0.128479
  19 H :    0.133721

  Mayer bond orders larger than 0.1
B(  0-C ,  1-C ) :   0.8633 B(  0-C ,  9-H ) :   0.9420 B(  0-C , 10-H ) :   0.9415
B(  0-C , 11-H ) :   0.9415 B(  1-C ,  2-C ) :   0.9401 B(  1-C ,  4-C ) :   0.9401
B(  1-C , 12-H ) :   0.9240 B(  2-C ,  3-C ) :   0.8859 B(  2-C , 13-H ) :   0.9296
B(  2-C , 14-H ) :   0.9072 B(  3-C ,  4-C ) :   0.8859 B(  3-C ,  5-C ) :   0.9385
B(  3-C ,  8-N ) :   1.0110 B(  4-C , 15-H ) :   0.9072 B(  4-C , 16-H ) :   0.9296
B(  5-C ,  6-O ) :   0.8807 B(  5-C , 17-H ) :   0.9194 B(  5-C , 18-H ) :   0.9194
B(  6-O ,  7-C ) :   1.0702 B(  7-C ,  8-N ) :   1.8061 B(  7-C , 19-H ) :   0.9235

MP2 TOTAL ENERGY:     -402.463141584 Eh
FINAL SINGLE POINT ENERGY      -402.463141584488

DIPOLE MOMENT
-------------
                                X             Y             Z
Electronic contribution:     10.04232      -2.79977       2.47662
Nuclear contribution   :    -10.48445       2.35382      -2.60692
                        -----------------------------------------
Total Dipole Moment    :     -0.44213      -0.44594      -0.13030
                        -----------------------------------------
Magnitude (a.u.)       :      0.64134
Magnitude (Debye)      :      1.63016

                             ****ORCA TERMINATED NORMALLY****
TOTAL RUN TIME: 0 days 0 hours 18 minutes 24 seconds 759 msec
