                         Program Version 3.0.3 - RELEASE   -
|  1> ! RI-MP2 RIJK def2-TZVP def2-TZVP/C def2-TZVP/JK TIGHTSCF
|  2> % maxcore 2000
|  3> % mp2 density relaxed end
|  4> *xyz 0 1
|  5>  C        0.0069208002     1.5464270487     0.0961899988
|  6>  C       -0.0085025181     0.0203590391    -0.0147945033
|  7>  C        0.7144498444    -0.5024421962    -1.2625553406
|  8>  O        2.0710665576    -0.0523801540    -1.3076978814
|  9>  C        0.6273481632    -2.0266890734    -1.3872401115
| 10>  C        1.2776963661    -2.5628480605    -2.6560179786
| 11>  O        1.1553110187    -3.9787531502    -2.6414163695
| 12>  H        1.0325637126     1.9236999528     0.0728218301
| 13>  H       -0.5334864458     2.0066519214    -0.7384907536
| 14>  H       -0.4647813548     1.8818656682     1.0246282339
| 15>  H        0.4631852632    -0.4257664846     0.8733651094
| 16>  H       -1.0416889225    -0.3483937830    -0.0257525018
| 17>  H        0.2561268439    -0.0448732953    -2.1502948645
| 18>  H        2.5234020868    -0.4267411110    -0.5426658486
| 19>  H        1.1094733464    -2.4962437039    -0.5182009053
| 20>  H       -0.4231503832    -2.3399403869    -1.3661082178
| 21>  H        0.7779258107    -2.1288899349    -3.5380687450
| 22>  H        2.3294079119    -2.2465916030    -2.6900846933
| 23>  H        1.6058124988    -4.3247188633    -3.4171511873
| 24> *
| 25>
| 26>                          ****END OF INPUT****

CARTESIAN COORDINATES (ANGSTROEM)
---------------------------------
  C      0.006921    1.546427    0.096190
  C     -0.008503    0.020359   -0.014795
  C      0.714450   -0.502442   -1.262555
  O      2.071067   -0.052380   -1.307698
  C      0.627348   -2.026689   -1.387240
  C      1.277696   -2.562848   -2.656018
  O      1.155311   -3.978753   -2.641416
  H      1.032564    1.923700    0.072822
  H     -0.533486    2.006652   -0.738491
  H     -0.464781    1.881866    1.024628
  H      0.463185   -0.425766    0.873365
  H     -1.041689   -0.348394   -0.025753
  H      0.256127   -0.044873   -2.150295
  H      2.523402   -0.426741   -0.542666
  H      1.109473   -2.496244   -0.518201
  H     -0.423150   -2.339940   -1.366108
  H      0.777926   -2.128890   -3.538069
  H      2.329408   -2.246592   -2.690085
  H      1.605812   -4.324719   -3.417151

 Total Charge           Charge          ....    0
 Multiplicity           Mult            ....    1
 Number of Electrons    NEL             ....   58
 Basis Dimension        Dim             ....  289

ORBITAL ENERGIES
----------------

  NO   OCC          E(Eh)            E(eV)
   0   2.0000     -20.553328      -559.2845
   1   2.0000     -20.552924      -559.2735
   2   2.0000     -11.278849      -306.9131
   3   2.0000     -11.270985      -306.6991
   4   2.0000     -11.223358      -305.4031
   5   2.0000     -11.219564      -305.2999
   6   2.0000     -11.210971      -305.0660
   7   2.0000      -1.360276       -37.0150
   8   2.0000      -1.355395       -36.8822
   9   2.0000      -1.066963       -29.0335
  10   2.0000      -1.015149       -27.6236
  11   2.0000      -0.909417       -24.7465
  12   2.0000      -0.822435       -22.3796
  13   2.0000      -0.805386       -21.9157
  14   2.0000      -0.698627       -19.0106
  15   2.0000      -0.663376       -18.0514
  16   2.0000      -0.646945       -17.6043
  17   2.0000      -0.627458       -17.0740
  18   2.0000      -0.607776       -16.5384
  19   2.0000      -0.576799       -15.6955
  20   2.0000      -0.567889       -15.4531
  21   2.0000      -0.530240       -14.4286
  22   2.0000      -0.520661       -14.1679
  23   2.0000      -0.508663       -13.8414
  24   2.0000      -0.485177       -13.2023
  25   2.0000      -0.484004       -13.1704
  26   2.0000      -0.462113       -12.5747
  27   2.0000      -0.442056       -12.0289
  28   2.0000      -0.429708       -11.6930
  29   0.0000       0.131292         3.5726
  30   0.0000       0.141904         3.8614
  31   0.0000       0.156189         4.2501
  32   0.0000       0.171646         4.6707
  33   0.0000       0.179759         4.8915

MULLIKEN ATOMIC CHARGES
-----------------------
   0 C :   -0.367214
   1 C :   -0.206742
   2 C :    0.036148
   3 O :   -0.475936
   4 C :   -0.190843
   5 C :   -0.039214
   6 O :   -0.469060
   7 H :    0.132835
   8 H :    0.118871
   9 H :    0.131812
  10 H :    0.100651
  11 H :    0.110146
  12 H :    0.082955
  13 H :    0.310556
  14 H :    0.106723
  15 H :    0.113621
  16 H :    0.086379
  17 H :    0.102787
  18 H :    0.315527
Sum of atomic charges:    0.0000000

LOEWDIN ATOMIC CHARGES
----------------------
   0 C :   -0.319741
   1 C :   -0.286010
   2 C :   -0.348747
   3 O :   -0.023866
   4 C :   -0.262180
   5 C :   -0.350398
   6 O :   -0.055902
   7 H :    0.123434
   8 H :    0.121122
   9 H :    0.119851
  10 H :    0.134819
  11 H :    0.140097
  12 H :    0.145692
  13 H :    0.174415
  14 H :    0.139798
  15 H :    0.144982
  16 H :    0.114657
  17 H :    0.116570
  18 H :    0.171408

  Mayer bond orders larger than 0.1
B(  0-C ,  1-C ) :   0.9288 B(  0-C ,  7-H ) :   0.9347 B(  0-C ,  8-H ) :   0.9373
B(  0-C ,  9-H ) :   0.9417 B(  1-C ,  2-C ) :   0.9458 B(  1-C , 10-H ) :   0.9175
B(  1-C , 11-H ) :   0.9313 B(  2-C ,  3-O ) :   0.8894 B(  2-C ,  4-C ) :   0.9293
B(  2-C , 12-H ) :   0.9172 B(  3-O , 13-H ) :   0.8434 B(  4-C ,  5-C ) :   0.9422
B(  4-C , 14-H ) :   0.9106 B(  4-C , 15-H ) :   0.9228 B(  5-C ,  6-O ) :   1.0105
B(  5-C , 16-H ) :   0.9304 B(  5-C , 17-H ) :   0.9304 B(  6-O , 18-H ) :   0.8500

MP2 TOTAL ENERGY:     -347.498402615 Eh
FINAL SINGLE POINT ENERGY      -347.498402615363

DIPOLE MOMENT
-------------
                                X             Y             Z
Electronic contribution:      2.66824      -4.11751      -2.79245
Nuclear contribution   :     -2.62593       4.08376       2.80083
                        -----------------------------------------
Total Dipole Moment    :      0.04232      -0.03375       0.00838
                        -----------------------------------------
Magnitude (a.u.)       :      0.05477
Magnitude (Debye)      :      0.13922

                             ****ORCA TERMINATED NORMALLY****
TOTAL RUN TIME: 0 days 0 hours 8 minutes 12 seconds 774 msec
