                         Program Version 3.0.3 - RELEASE   -
|  1> ! RI-MP2 RIJK def2-TZVP def2-TZVP/C def2-TZVP/JK TIGHTSCF
|  2> % maxcore 2000
|  3> % mp2 density relaxed end
|  4> *xyz 0 1
|  5>  O       -0.0540180800     0.0342262549    -0.0358078133
|  6>  C       -0.0508384238     1.2322650191    -0.0103522514
|  7>  C       -1.2597271367     2.1913125327    -0.0158052327
|  8>  N       -1.4166757709     2.6087323917     1.4240808697
|  9>  C       -0.3693835137     3.6534021131     1.1718482237
| 10>  C        1.0165246554     3.0115849086     1.3621810311
| 11>  C        1.1503899997     2.1935973388     0.0391965024
| 12>  N        0.7019564074     3.1305210339    -1.0189287113
| 13>  C       -0.5580906534     3.5243469852    -0.3940766385
| 14>  H       -2.1402671989     1.8087415031    -0.5302380115
| 15>  H       -2.3220224042     3.0629192092     1.5233327671
| 16>  H       -0.5131273361     4.6019366760     1.6903518844
| 17>  H        1.8074076763     3.7697488626     1.3959575138
| 18>  H        1.0620429509     2.4058108705     2.2697021996
| 19>  H        2.1123864514     1.7231148284    -0.1542231643
| 20>  H        1.3408515616     3.9178380136    -1.1040439812
| 21>  H       -1.1220320548     4.2858866986    -0.9297950976
| 22> *
| 23>
| 24>                          ****END OF INPUT****

CARTESIAN COORDINATES (ANGSTROEM)
---------------------------------
  O     -0.054018    0.034226   -0.035808
  C     -0.050838    1.232265   -0.010352
  C     -1.259727    2.191313   -0.015805
  N     -1.416676    2.608732    1.424081
  C     -0.369384    3.653402    1.171848
  C      1.016525    3.011585    1.362181
  C      1.150390    2.193597    0.039197
  N      0.701956    3.130521   -1.018929
  C     -0.558091    3.524347   -0.394077
  H     -2.140267    1.808742   -0.530238
  H     -2.322022    3.062919    1.523333
  H     -0.513127    4.601937    1.690352
  H      1.807408    3.769749    1.395958
  H      1.062043    2.405811    2.269702
  H      2.112386    1.723115   -0.154223
  H      1.340852    3.917838   -1.104044
  H     -1.122032    4.285887   -0.929795

 Total Charge           Charge          ....    0
 Multiplicity           Mult            ....    1
 Number of Electrons    NEL             ....   66
 Basis Dimension        Dim             ....  327

ORBITAL ENERGIES
----------------

  NO   OCC          E(Eh)            E(eV)
   0   2.0000     -20.548563      -559.1548
   1   2.0000     -15.567432      -423.6114
   2   2.0000     -15.561910      -423.4611
   3   2.0000     -11.328159      -308.2549
   4   2.0000     -11.274778      -306.8023
   5   2.0000     -11.273763      -306.7747
   6   2.0000     -11.273726      -306.7737
   7   2.0000     -11.272921      -306.7518
   8   2.0000     -11.240427      -305.8676
   9   2.0000      -1.393503       -37.9191
  10   2.0000      -1.296466       -35.2786
  11   2.0000      -1.204647       -32.7801
  12   2.0000      -1.030528       -28.0421
  13   2.0000      -0.983337       -26.7580
  14   2.0000      -0.961624       -26.1671
  15   2.0000      -0.833457       -22.6795
  16   2.0000      -0.786891       -21.4124
  17   2.0000      -0.731754       -19.9120
  18   2.0000      -0.721416       -19.6307
  19   2.0000      -0.683771       -18.6064
  20   2.0000      -0.649905       -17.6848
  21   2.0000      -0.614929       -16.7331
  22   2.0000      -0.603879       -16.4324
  23   2.0000      -0.583264       -15.8714
  24   2.0000      -0.561910       -15.2904
  25   2.0000      -0.540964       -14.7204
  26   2.0000      -0.529666       -14.4129
  27   2.0000      -0.510129       -13.8813
  28   2.0000      -0.489611       -13.3230
  29   2.0000      -0.458396       -12.4736
  30   2.0000      -0.439443       -11.9579
  31   2.0000      -0.384215       -10.4550
  32   2.0000      -0.373138       -10.1536
  33   0.0000       0.118587         3.2269
  34   0.0000       0.128685         3.5017
  35   0.0000       0.156720         4.2646
  36   0.0000       0.170108         4.6289
  37   0.0000       0.187352         5.0981

MULLIKEN ATOMIC CHARGES
-----------------------
   0 O :   -0.244367
   1 C :    0.013154
   2 C :    0.089088
   3 N :   -0.381909
   4 C :    0.030243
   5 C :   -0.326031
   6 C :    0.105768
   7 N :   -0.328406
   8 C :   -0.175903
   9 H :    0.143472
  10 H :    0.209897
  11 H :    0.127550
  12 H :    0.124098
  13 H :    0.135970
  14 H :    0.138470
  15 H :    0.206294
  16 H :    0.132613
Sum of atomic charges:   -0.0000000

LOEWDIN ATOMIC CHARGES
----------------------
   0 O :    0.175001
   1 C :   -0.269758
   2 C :   -0.195905
   3 N :    0.004181
   4 C :   -0.239708
   5 C :   -0.214462
   6 C :   -0.236727
   7 N :    0.037017
   8 C :   -0.234723
   9 H :    0.139572
  10 H :    0.166967
  11 H :    0.130720
  12 H :    0.138954
  13 H :    0.146411
  14 H :    0.145264
  15 H :    0.170190
  16 H :    0.137006

  Mayer bond orders larger than 0.1
B(  0-O ,  1-C ) :   2.0674 B(  1-C ,  2-C ) :   0.8269 B(  1-C ,  6-C ) :   0.8317
B(  2-C ,  3-N ) :   0.9351 B(  2-C ,  6-C ) :  -0.1210 B(  2-C ,  8-C ) :   0.8760
B(  2-C ,  9-H ) :   0.8948 B(  3-N ,  4-C ) :   0.9746 B(  3-N , 10-H ) :   0.8753
B(  4-C ,  5-C ) :   0.9233 B(  4-C ,  8-C ) :   0.9240 B(  4-C , 11-H ) :   0.9192
B(  5-C ,  6-C ) :   0.9247 B(  5-C , 12-H ) :   0.9209 B(  5-C , 13-H ) :   0.9157
B(  6-C ,  7-N ) :   0.9291 B(  6-C , 14-H ) :   0.9077 B(  7-N ,  8-C ) :   1.0149
B(  7-N , 15-H ) :   0.8648 B(  8-C , 16-H ) :   0.9065

MP2 TOTAL ENERGY:     -417.297064488 Eh
FINAL SINGLE POINT ENERGY      -417.297064488219

DIPOLE MOMENT
-------------
                                X             Y             Z
Electronic contribution:     -0.87306      -4.26532      -1.69332
Nuclear contribution   :      0.90439       6.03531       1.77273
                        -----------------------------------------
Total Dipole Moment    :      0.03133       1.76998       0.07941
                        -----------------------------------------
Magnitude (a.u.)       :      1.77204
Magnitude (Debye)      :      4.50417

                             ****ORCA TERMINATED NORMALLY****
TOTAL RUN TIME: 0 days 0 hours 20 minutes 13 seconds 151 msec
