                         Program Version 3.0.3 - RELEASE   -
|  1> ! RI-MP2 RIJK def2-TZVP def2-TZVP/C def2-TZVP/JK TIGHTSCF
|  2> % maxcore 2000
|  3> % mp2 density relaxed end
|  4> *xyz 0 1
|  5>  C       -0.0809579653     1.4766674743     0.0068497250
|  6>  C       -0.0009128846    -0.0211266510    -0.0372291301
|  7>  C       -0.9164015152    -0.9324577155     0.7631004756
|  8>  C       -1.9017126876    -1.8823787189     0.3240050304
|  9>  C       -2.7986218175    -2.6295264780     0.0287703288
| 10>  C        0.6026911455    -1.0260676183     0.9149050359
| 11>  N        1.4514065561    -1.6712706305    -0.1523801450
| 12>  C        0.6095616207    -2.2211508358    -1.2341852574
| 13>  C        0.7834989097    -0.7564547356    -1.1478495552
| 14>  H        0.8977714116     1.9277585077    -0.1928299990
| 15>  H       -0.7836874404     1.8581596926    -0.7435518461
| 16>  H       -0.4183892940     1.8261164474     0.9874327830
| 17>  H       -1.2838676876    -0.3754026624     1.6267082160
| 18>  H       -3.5698669110    -3.3025932528    -0.2533248606
| 19>  H        1.0598969068    -0.9028003723     1.8897268316
| 20>  H        1.2140134290    -2.7249935264    -1.9844597045
| 21>  H       -0.3308010888    -2.7034212507    -1.0108611529
| 22>  H        1.3839420425    -0.1976449638    -1.8597021354
| 23> *
| 24>
| 25>                          ****END OF INPUT****

CARTESIAN COORDINATES (ANGSTROEM)
---------------------------------
  C     -0.080958    1.476667    0.006850
  C     -0.000913   -0.021127   -0.037229
  C     -0.916402   -0.932458    0.763100
  C     -1.901713   -1.882379    0.324005
  C     -2.798622   -2.629526    0.028770
  C      0.602691   -1.026068    0.914905
  N      1.451407   -1.671271   -0.152380
  C      0.609562   -2.221151   -1.234185
  C      0.783499   -0.756455   -1.147850
  H      0.897771    1.927759   -0.192830
  H     -0.783687    1.858160   -0.743552
  H     -0.418389    1.826116    0.987433
  H     -1.283868   -0.375403    1.626708
  H     -3.569867   -3.302593   -0.253325
  H      1.059897   -0.902800    1.889727
  H      1.214013   -2.724994   -1.984460
  H     -0.330801   -2.703421   -1.010861
  H      1.383942   -0.197645   -1.859702

 Total Charge           Charge          ....    0
 Multiplicity           Mult            ....    1
 Number of Electrons    NEL             ....   64
 Basis Dimension        Dim             ....  333

ORBITAL ENERGIES
----------------

  NO   OCC          E(Eh)            E(eV)
   0   2.0000     -15.563507      -423.5046
   1   2.0000     -11.275142      -306.8122
   2   2.0000     -11.269247      -306.6518
   3   2.0000     -11.267992      -306.6177
   4   2.0000     -11.260151      -306.4043
   5   2.0000     -11.257370      -306.3286
   6   2.0000     -11.240514      -305.8699
   7   2.0000     -11.231835      -305.6338
   8   2.0000     -11.224845      -305.4436
   9   2.0000      -1.306073       -35.5400
  10   2.0000      -1.135805       -30.9068
  11   2.0000      -1.037630       -28.2354
  12   2.0000      -0.986862       -26.8539
  13   2.0000      -0.920112       -25.0375
  14   2.0000      -0.879303       -23.9271
  15   2.0000      -0.815335       -22.1864
  16   2.0000      -0.740325       -20.1453
  17   2.0000      -0.727926       -19.8079
  18   2.0000      -0.687854       -18.7175
  19   2.0000      -0.659722       -17.9520
  20   2.0000      -0.601788       -16.3755
  21   2.0000      -0.588878       -16.0242
  22   2.0000      -0.576869       -15.6974
  23   2.0000      -0.571189       -15.5429
  24   2.0000      -0.550341       -14.9756
  25   2.0000      -0.493008       -13.4154
  26   2.0000      -0.483126       -13.1465
  27   2.0000      -0.462573       -12.5873
  28   2.0000      -0.418664       -11.3924
  29   2.0000      -0.390875       -10.6363
  30   2.0000      -0.356630        -9.7044
  31   2.0000      -0.342927        -9.3315
  32   0.0000       0.132675         3.6103
  33   0.0000       0.159995         4.3537
  34   0.0000       0.164833         4.4853
  35   0.0000       0.166007         4.5173
  36   0.0000       0.178905         4.8683

MULLIKEN ATOMIC CHARGES
-----------------------
   0 C :   -0.413191
   1 C :    0.094255
   2 C :   -0.420608
   3 C :    0.067096
   4 C :   -0.139591
   5 C :   -0.003481
   6 N :   -0.234618
   7 C :   -0.166947
   8 C :   -0.091411
   9 H :    0.139026
  10 H :    0.143753
  11 H :    0.134074
  12 H :    0.132557
  13 H :    0.191975
  14 H :    0.139031
  15 H :    0.126480
  16 H :    0.163503
  17 H :    0.138098
Sum of atomic charges:    0.0000000

LOEWDIN ATOMIC CHARGES
----------------------
   0 C :   -0.267732
   1 C :   -0.192232
   2 C :   -0.160873
   3 C :   -0.106378
   4 C :   -0.100281
   5 C :   -0.154458
   6 N :    0.123021
   7 C :   -0.229697
   8 C :   -0.172194
   9 H :    0.131747
  10 H :    0.132550
  11 H :    0.131239
  12 H :    0.185795
  13 H :    0.126838
  14 H :    0.138263
  15 H :    0.135880
  16 H :    0.139736
  17 H :    0.138777

  Mayer bond orders larger than 0.1
B(  0-C ,  1-C ) :   0.8677 B(  0-C ,  9-H ) :   0.9323 B(  0-C , 10-H ) :   0.9416
B(  0-C , 11-H ) :   0.9405 B(  1-C ,  2-C ) :   0.8493 B(  1-C ,  5-C ) :   0.8639
B(  1-C ,  8-C ) :   0.9544 B(  2-C ,  3-C ) :   1.0955 B(  2-C ,  4-C ) :  -0.1458
B(  2-C ,  5-C ) :   0.8768 B(  2-C , 12-H ) :   0.9347 B(  3-C ,  4-C ) :   2.6224
B(  4-C , 13-H ) :   0.8873 B(  5-C ,  6-N ) :   0.9508 B(  5-C , 14-H ) :   0.9200
B(  6-N ,  7-C ) :   0.8950 B(  6-N ,  8-C ) :   0.8728 B(  7-C ,  8-C ) :   0.9627
B(  7-C , 15-H ) :   0.9236 B(  7-C , 16-H ) :   0.8866 B(  8-C , 17-H ) :   0.8959

MP2 TOTAL ENERGY:     -364.010485670 Eh
FINAL SINGLE POINT ENERGY      -364.010485669508

DIPOLE MOMENT
-------------
                                X             Y             Z
Electronic contribution:     -0.50002      -4.01303       0.74297
Nuclear contribution   :      0.13298       4.47456      -0.85999
                        -----------------------------------------
Total Dipole Moment    :     -0.36703       0.46153      -0.11702
                        -----------------------------------------
Magnitude (a.u.)       :      0.60118
Magnitude (Debye)      :      1.52808

                             ****ORCA TERMINATED NORMALLY****
TOTAL RUN TIME: 0 days 0 hours 18 minutes 36 seconds 489 msec
