                         Program Version 3.0.3 - RELEASE   -
|  1> ! RI-MP2 RIJK def2-TZVP def2-TZVP/C def2-TZVP/JK TIGHTSCF
|  2> % maxcore 2000
|  3> % mp2 density relaxed end
|  4> *xyz 0 1
|  5>  C        0.0141971895     1.5389465635     0.1630111347
|  6>  C       -0.0455704820     0.0230048591    -0.0409335122
|  7>  C        0.6929274601    -0.4713273348    -1.3136597656
|  8>  C        0.1112512762     0.1192903699    -2.6061525694
|  9>  O        2.0659391855    -0.0771105438    -1.2966269824
| 10>  C        0.6067106679    -1.9414115926    -1.3594804267
| 11>  C        0.5534121020    -3.1493062074    -1.3608141767
| 12>  C        0.4928071573    -4.5132919949    -1.3704364211
| 13>  N        0.4404230696    -5.6738858756    -1.3753061001
| 14>  H        1.0459683352     1.8959472248     0.1121469097
| 15>  H       -0.5683907185     2.0767416235    -0.5901711539
| 16>  H       -0.3931458267     1.8021939658     1.1431531524
| 17>  H        0.4067770674    -0.4846420143     0.8204339110
| 18>  H       -1.0845904126    -0.3222483212    -0.0854573968
| 19>  H        0.2460360907     1.2027434104    -2.6017332184
| 20>  H        0.6359603042    -0.2907912214    -3.4711979814
| 21>  H       -0.9529621899    -0.1118124168    -2.6927143058
| 22>  H        2.4875567040    -0.4839319541    -0.5307798672
| 23> *
| 24>
| 25>                          ****END OF INPUT****

CARTESIAN COORDINATES (ANGSTROEM)
---------------------------------
  C      0.014197    1.538947    0.163011
  C     -0.045570    0.023005   -0.040934
  C      0.692927   -0.471327   -1.313660
  C      0.111251    0.119290   -2.606153
  O      2.065939   -0.077111   -1.296627
  C      0.606711   -1.941412   -1.359480
  C      0.553412   -3.149306   -1.360814
  C      0.492807   -4.513292   -1.370436
  N      0.440423   -5.673886   -1.375306
  H      1.045968    1.895947    0.112147
  H     -0.568391    2.076742   -0.590171
  H     -0.393146    1.802194    1.143153
  H      0.406777   -0.484642    0.820434
  H     -1.084590   -0.322248   -0.085457
  H      0.246036    1.202743   -2.601733
  H      0.635960   -0.290791   -3.471198
  H     -0.952962   -0.111812   -2.692714
  H      2.487557   -0.483932   -0.530780

 Total Charge           Charge          ....    0
 Multiplicity           Mult            ....    1
 Number of Electrons    NEL             ....   66
 Basis Dimension        Dim             ....  333

ORBITAL ENERGIES
----------------

  NO   OCC          E(Eh)            E(eV)
   0   2.0000     -20.585332      -560.1554
   1   2.0000     -15.595722      -424.3812
   2   2.0000     -11.342176      -308.6363
   3   2.0000     -11.303172      -307.5750
   4   2.0000     -11.291735      -307.2637
   5   2.0000     -11.281462      -306.9842
   6   2.0000     -11.252954      -306.2084
   7   2.0000     -11.240847      -305.8790
   8   2.0000     -11.232002      -305.6383
   9   2.0000      -1.395600       -37.9762
  10   2.0000      -1.235838       -33.6289
  11   2.0000      -1.120766       -30.4976
  12   2.0000      -1.069556       -29.1041
  13   2.0000      -1.011651       -27.5284
  14   2.0000      -0.928644       -25.2697
  15   2.0000      -0.880060       -23.9476
  16   2.0000      -0.820341       -22.3226
  17   2.0000      -0.744748       -20.2656
  18   2.0000      -0.676659       -18.4128
  19   2.0000      -0.655218       -17.8294
  20   2.0000      -0.601562       -16.3693
  21   2.0000      -0.580805       -15.8045
  22   2.0000      -0.571939       -15.5633
  23   2.0000      -0.567946       -15.4546
  24   2.0000      -0.554611       -15.0917
  25   2.0000      -0.548861       -14.9353
  26   2.0000      -0.534419       -14.5423
  27   2.0000      -0.530280       -14.4296
  28   2.0000      -0.513348       -13.9689
  29   2.0000      -0.503092       -13.6898
  30   2.0000      -0.478431       -13.0188
  31   2.0000      -0.410736       -11.1767
  32   2.0000      -0.404513       -11.0074
  33   0.0000       0.089328         2.4308
  34   0.0000       0.097257         2.6465
  35   0.0000       0.110461         3.0058
  36   0.0000       0.147390         4.0107
  37   0.0000       0.158813         4.3215

MULLIKEN ATOMIC CHARGES
-----------------------
   0 C :   -0.431053
   1 C :   -0.172727
   2 C :    0.104721
   3 C :   -0.400263
   4 O :   -0.451153
   5 C :   -0.181381
   6 C :    0.352669
   7 C :   -0.219418
   8 N :   -0.032277
   9 H :    0.146217
  10 H :    0.135622
  11 H :    0.144165
  12 H :    0.116968
  13 H :    0.125254
  14 H :    0.152478
  15 H :    0.152392
  16 H :    0.135592
  17 H :    0.322195
Sum of atomic charges:    0.0000000

LOEWDIN ATOMIC CHARGES
----------------------
   0 C :   -0.312829
   1 C :   -0.245195
   2 C :   -0.394325
   3 C :   -0.242989
   4 O :    0.029187
   5 C :    0.041416
   6 C :   -0.049169
   7 C :   -0.176556
   8 N :    0.099923
   9 H :    0.126889
  10 H :    0.122355
  11 H :    0.125686
  12 H :    0.143133
  13 H :    0.147197
  14 H :    0.133716
  15 H :    0.135839
  16 H :    0.133726
  17 H :    0.181997

  Mayer bond orders larger than 0.1
B(  0-C ,  1-C ) :   0.9092 B(  0-C ,  9-H ) :   0.9354 B(  0-C , 10-H ) :   0.9393
B(  0-C , 11-H ) :   0.9379 B(  1-C ,  2-C ) :   0.9903 B(  1-C , 12-H ) :   0.9168
B(  1-C , 13-H ) :   0.9192 B(  2-C ,  3-C ) :   0.8645 B(  2-C ,  4-O ) :   0.8948
B(  2-C ,  5-C ) :   1.0985 B(  2-C ,  6-C ) :  -0.1489 B(  3-C , 14-H ) :   0.9386
B(  3-C , 15-H ) :   0.9349 B(  3-C , 16-H ) :   0.9244 B(  4-O ,  5-C ) :   0.1332
B(  4-O , 17-H ) :   0.8366 B(  5-C ,  6-C ) :   2.5272 B(  5-C ,  8-N ) :   0.1120
B(  6-C ,  7-C ) :   0.9192 B(  7-C ,  8-N ) :   2.7659

MP2 TOTAL ENERGY:     -401.243071339 Eh
FINAL SINGLE POINT ENERGY      -401.243071339008

DIPOLE MOMENT
-------------
                                X             Y             Z
Electronic contribution:      2.85696     -15.44036      -1.91236
Nuclear contribution   :     -3.08073      17.03475       2.37337
                        -----------------------------------------
Total Dipole Moment    :     -0.22377       1.59439       0.46101
                        -----------------------------------------
Magnitude (a.u.)       :      1.67472
Magnitude (Debye)      :      4.25680

                             ****ORCA TERMINATED NORMALLY****
TOTAL RUN TIME: 0 days 0 hours 16 minutes 0 seconds 668 msec
