                         Program Version 3.0.3 - RELEASE   -
|  1> ! RI-MP2 RIJK def2-TZVP def2-TZVP/C def2-TZVP/JK TIGHTSCF
|  2> % maxcore 2000
|  3> % mp2 density relaxed end
|  4> *xyz 0 1
|  5>  C        0.3735307980     0.7940008654     0.3788107074
|  6>  O       -0.4700349907     0.4024910620    -0.7028017630
|  7>  C       -1.4790458700    -0.4410604440    -0.3653195999
|  8>  C       -1.4845375911    -1.7549137014     0.0648574528
|  9>  N       -0.4317590113    -2.6780904904     0.3295632733
| 10>  C       -2.8567483639    -2.1364035566     0.1736717528
| 11>  O       -3.2619052107    -3.3716842318     0.5642477063
| 12>  C       -3.6422435283    -1.0707429259    -0.1849982711
| 13>  N       -2.7733318778    -0.0319058262    -0.5032957008
| 14>  H        1.1038187184     1.4938236874    -0.0330658374
| 15>  H       -0.2026993918     1.2875652253     1.1708790634
| 16>  H        0.9018898760    -0.0668397872     0.8054164717
| 17>  H        0.0688073702    -2.4748246681     1.1891123431
| 18>  H        0.2488850000    -2.7109702924    -0.4216230698
| 19>  H       -2.4441950740    -3.8834148654     0.6568595239
| 20>  H       -4.7099689489    -0.9577070668    -0.2484423255
| 21>  H       -3.0365767141     0.8686789459    -0.8612681871
| 22> *
| 23>
| 24>                          ****END OF INPUT****

CARTESIAN COORDINATES (ANGSTROEM)
---------------------------------
  C      0.373531    0.794001    0.378811
  O     -0.470035    0.402491   -0.702802
  C     -1.479046   -0.441060   -0.365320
  C     -1.484538   -1.754914    0.064857
  N     -0.431759   -2.678090    0.329563
  C     -2.856748   -2.136404    0.173672
  O     -3.261905   -3.371684    0.564248
  C     -3.642244   -1.070743   -0.184998
  N     -2.773332   -0.031906   -0.503296
  H      1.103819    1.493824   -0.033066
  H     -0.202699    1.287565    1.170879
  H      0.901890   -0.066840    0.805416
  H      0.068807   -2.474825    1.189112
  H      0.248885   -2.710970   -0.421623
  H     -2.444195   -3.883415    0.656860
  H     -4.709969   -0.957707   -0.248442
  H     -3.036577    0.868679   -0.861268

 Total Charge           Charge          ....    0
 Multiplicity           Mult            ....    1
 Number of Electrons    NEL             ....   68
 Basis Dimension        Dim             ....  327

ORBITAL ENERGIES
----------------

  NO   OCC          E(Eh)            E(eV)
   0   2.0000     -20.590840      -560.3052
   1   2.0000     -20.562813      -559.5426
   2   2.0000     -15.595682      -424.3801
   3   2.0000     -15.560852      -423.4323
   4   2.0000     -11.313258      -307.8494
   5   2.0000     -11.292493      -307.2844
   6   2.0000     -11.265564      -306.5516
   7   2.0000     -11.234940      -305.7183
   8   2.0000     -11.229955      -305.5826
   9   2.0000      -1.419632       -38.6302
  10   2.0000      -1.380597       -37.5679
  11   2.0000      -1.276051       -34.7231
  12   2.0000      -1.189417       -32.3657
  13   2.0000      -1.016380       -27.6571
  14   2.0000      -0.987801       -26.8794
  15   2.0000      -0.922689       -25.1076
  16   2.0000      -0.792177       -21.5562
  17   2.0000      -0.776786       -21.1374
  18   2.0000      -0.741951       -20.1895
  19   2.0000      -0.690428       -18.7875
  20   2.0000      -0.671069       -18.2607
  21   2.0000      -0.654406       -17.8073
  22   2.0000      -0.645655       -17.5692
  23   2.0000      -0.623089       -16.9551
  24   2.0000      -0.599835       -16.3223
  25   2.0000      -0.596573       -16.2336
  26   2.0000      -0.578208       -15.7338
  27   2.0000      -0.539349       -14.6764
  28   2.0000      -0.519675       -14.1411
  29   2.0000      -0.510731       -13.8977
  30   2.0000      -0.478207       -13.0127
  31   2.0000      -0.418503       -11.3880
  32   2.0000      -0.325148        -8.8477
  33   2.0000      -0.278393        -7.5754
  34   0.0000       0.121584         3.3085
  35   0.0000       0.142858         3.8874
  36   0.0000       0.160789         4.3753
  37   0.0000       0.187139         5.0923
  38   0.0000       0.194055         5.2805

MULLIKEN ATOMIC CHARGES
-----------------------
   0 C :   -0.191001
   1 O :   -0.308794
   2 C :    0.149259
   3 C :    0.097392
   4 N :   -0.613249
   5 C :    0.090868
   6 O :   -0.454634
   7 C :   -0.136928
   8 N :   -0.238271
   9 H :    0.142495
  10 H :    0.126466
  11 H :    0.105218
  12 H :    0.246783
  13 H :    0.254094
  14 H :    0.341309
  15 H :    0.143009
  16 H :    0.245983
Sum of atomic charges:    0.0000000

LOEWDIN ATOMIC CHARGES
----------------------
   0 C :   -0.322858
   1 O :    0.198827
   2 C :   -0.349034
   3 C :   -0.276071
   4 N :   -0.124190
   5 C :   -0.311207
   6 O :    0.055472
   7 C :   -0.228763
   8 N :    0.189195
   9 H :    0.114081
  10 H :    0.107303
  11 H :    0.101188
  12 H :    0.159432
  13 H :    0.165457
  14 H :    0.196110
  15 H :    0.132761
  16 H :    0.192300

  Mayer bond orders larger than 0.1
B(  0-C ,  1-O ) :   0.8609 B(  0-C ,  9-H ) :   0.9385 B(  0-C , 10-H ) :   0.9332
B(  0-C , 11-H ) :   0.9361 B(  1-O ,  2-C ) :   1.0931 B(  2-C ,  3-C ) :   1.3709
B(  2-C ,  8-N ) :   1.1964 B(  3-C ,  4-N ) :   0.8994 B(  3-C ,  5-C ) :   1.1837
B(  4-N , 12-H ) :   0.8927 B(  4-N , 13-H ) :   0.8961 B(  5-C ,  6-O ) :   1.1113
B(  5-C ,  7-C ) :   1.5521 B(  6-O , 14-H ) :   0.8138 B(  7-C ,  8-N ) :   1.0415
B(  7-C , 15-H ) :   0.9167 B(  8-N , 16-H ) :   0.8655

MP2 TOTAL ENERGY:     -454.414040104 Eh
FINAL SINGLE POINT ENERGY      -454.414040104325

DIPOLE MOMENT
-------------
                                X             Y             Z
Electronic contribution:     -4.46289      -1.62151      -2.00280
Nuclear contribution   :      5.42461       2.57185       2.20769
                        -----------------------------------------
Total Dipole Moment    :      0.96172       0.95034       0.20489
                        -----------------------------------------
Magnitude (a.u.)       :      1.36749
Magnitude (Debye)      :      3.47589

                             ****ORCA TERMINATED NORMALLY****
TOTAL RUN TIME: 0 days 0 hours 15 minutes 27 seconds 450 msec
