                         Program Version 3.0.3 - RELEASE   -
|  1> ! RI-MP2 RIJK def2-TZVP def2-TZVP/C def2-TZVP/JK TIGHTSCF
|  2> % maxcore 2000
|  3> % mp2 density relaxed end
|  4> *xyz 0 1
|  5>  C        0.0088641760     1.5126746895    -0.0316772657
|  6>  C        0.0216028917     0.0099088898    -0.0405755731
|  7>  C        0.5920041178    -0.9574954184    -1.1095466644
|  8>  C        0.0178482878    -1.8954869227    -0.0252757339
|  9>  C        0.5721442754    -0.9445089172     1.0640468059
| 10>  O       -0.3086882109    -0.9282809468     2.1965471006
| 11>  C       -1.5527683452    -0.9340740418     1.6035042924
| 12>  O       -2.5836276058    -0.9202027482     2.2054726215
| 13>  C       -1.2278108142    -0.9518383232     0.1274385903
| 14>  H        1.0262127841     1.9091008453    -0.1178397939
| 15>  H       -0.5777880720     1.9077326680    -0.8673453647
| 16>  H       -0.4257050474     1.8939217699     0.8983165686
| 17>  H        0.0816425524    -0.9655720879    -2.0752865766
| 18>  H        1.6788293442    -0.9586204482    -1.2410332171
| 19>  H        0.0031090524    -2.9848004366    -0.0036716249
| 20>  H        1.6126617189    -0.9453841730     1.3824405104
| 21>  H       -2.0464543554    -0.9572082485    -0.5881213354
| 22> *
| 23>
| 24>                          ****END OF INPUT****

CARTESIAN COORDINATES (ANGSTROEM)
---------------------------------
  C      0.008864    1.512675   -0.031677
  C      0.021603    0.009909   -0.040576
  C      0.592004   -0.957495   -1.109547
  C      0.017848   -1.895487   -0.025276
  C      0.572144   -0.944509    1.064047
  O     -0.308688   -0.928281    2.196547
  C     -1.552768   -0.934074    1.603504
  O     -2.583628   -0.920203    2.205473
  C     -1.227811   -0.951838    0.127439
  H      1.026213    1.909101   -0.117840
  H     -0.577788    1.907733   -0.867345
  H     -0.425705    1.893922    0.898317
  H      0.081643   -0.965572   -2.075287
  H      1.678829   -0.958620   -1.241033
  H      0.003109   -2.984800   -0.003672
  H      1.612662   -0.945384    1.382441
  H     -2.046454   -0.957208   -0.588121

 Total Charge           Charge          ....    0
 Multiplicity           Mult            ....    1
 Number of Electrons    NEL             ....   66
 Basis Dimension        Dim             ....  327

ORBITAL ENERGIES
----------------

  NO   OCC          E(Eh)            E(eV)
   0   2.0000     -20.596233      -560.4520
   1   2.0000     -20.544346      -559.0401
   2   2.0000     -11.375327      -309.5384
   3   2.0000     -11.313147      -307.8464
   4   2.0000     -11.279283      -306.9249
   5   2.0000     -11.272322      -306.7355
   6   2.0000     -11.267332      -306.5997
   7   2.0000     -11.253993      -306.2367
   8   2.0000     -11.236009      -305.7473
   9   2.0000      -1.460166       -39.7331
  10   2.0000      -1.372592       -37.3501
  11   2.0000      -1.229236       -33.4492
  12   2.0000      -1.010455       -27.4959
  13   2.0000      -0.982328       -26.7305
  14   2.0000      -0.925828       -25.1931
  15   2.0000      -0.847334       -23.0571
  16   2.0000      -0.791703       -21.5433
  17   2.0000      -0.769177       -20.9304
  18   2.0000      -0.695820       -18.9342
  19   2.0000      -0.663511       -18.0550
  20   2.0000      -0.642269       -17.4770
  21   2.0000      -0.637051       -17.3350
  22   2.0000      -0.611826       -16.6486
  23   2.0000      -0.587075       -15.9751
  24   2.0000      -0.583216       -15.8701
  25   2.0000      -0.558281       -15.1916
  26   2.0000      -0.521803       -14.1990
  27   2.0000      -0.518809       -14.1175
  28   2.0000      -0.478976       -13.0336
  29   2.0000      -0.471601       -12.8329
  30   2.0000      -0.459507       -12.5038
  31   2.0000      -0.426903       -11.6166
  32   2.0000      -0.422708       -11.5025
  33   0.0000       0.127299         3.4640
  34   0.0000       0.143341         3.9005
  35   0.0000       0.160847         4.3769
  36   0.0000       0.162695         4.4272
  37   0.0000       0.177506         4.8302

MULLIKEN ATOMIC CHARGES
-----------------------
   0 C :   -0.417755
   1 C :   -0.032637
   2 C :   -0.208404
   3 C :   -0.148930
   4 C :    0.088134
   5 O :   -0.253943
   6 C :    0.228831
   7 O :   -0.270301
   8 C :   -0.102899
   9 H :    0.140133
  10 H :    0.142826
  11 H :    0.157116
  12 H :    0.125620
  13 H :    0.121538
  14 H :    0.151077
  15 H :    0.136295
  16 H :    0.143299
Sum of atomic charges:   -0.0000000

LOEWDIN ATOMIC CHARGES
----------------------
   0 C :   -0.270888
   1 C :   -0.191650
   2 C :   -0.171112
   3 C :   -0.132733
   4 C :   -0.190693
   5 O :    0.254992
   6 C :   -0.430440
   7 O :    0.148858
   8 C :   -0.111102
   9 H :    0.133187
  10 H :    0.133174
  11 H :    0.137812
  12 H :    0.134177
  13 H :    0.131538
  14 H :    0.132542
  15 H :    0.141554
  16 H :    0.150783

  Mayer bond orders larger than 0.1
B(  0-C ,  1-C ) :   0.8657 B(  0-C ,  9-H ) :   0.9359 B(  0-C , 10-H ) :   0.9389
B(  0-C , 11-H ) :   0.9354 B(  1-C ,  2-C ) :   0.8695 B(  1-C ,  4-C ) :   0.8557
B(  1-C ,  8-C ) :   0.8166 B(  2-C ,  3-C ) :   0.9024 B(  2-C , 12-H ) :   0.9273
B(  2-C , 13-H ) :   0.9276 B(  3-C ,  4-C ) :   0.8815 B(  3-C ,  8-C ) :   0.8581
B(  3-C , 14-H ) :   0.8964 B(  4-C ,  5-O ) :   0.8760 B(  4-C , 15-H ) :   0.9284
B(  5-O ,  6-C ) :   1.0826 B(  6-C ,  7-O ) :   2.0514 B(  6-C ,  8-C ) :   0.9318
B(  8-C , 16-H ) :   0.9167

MP2 TOTAL ENERGY:     -421.123774214 Eh
FINAL SINGLE POINT ENERGY      -421.123774213956

DIPOLE MOMENT
-------------
                                X             Y             Z
Electronic contribution:     -3.97812      -3.69066       6.23719
Nuclear contribution   :      5.09534       3.83574      -7.65857
                        -----------------------------------------
Total Dipole Moment    :      1.11722       0.14508      -1.42138
                        -----------------------------------------
Magnitude (a.u.)       :      1.81371
Magnitude (Debye)      :      4.61009

                             ****ORCA TERMINATED NORMALLY****
TOTAL RUN TIME: 0 days 0 hours 23 minutes 9 seconds 632 msec
