                         Program Version 3.0.3 - RELEASE   -
|  1> ! RI-MP2 RIJK def2-TZVP def2-TZVP/C def2-TZVP/JK TIGHTSCF
|  2> % maxcore 2000
|  3> % mp2 density relaxed end
|  4> *xyz 0 1
|  5>  C        0.0725897112     1.4742629735    -0.1846151334
|  6>  C       -0.0804384326     0.0130295713     0.1737600782
|  7>  O        0.5333819233    -0.8630991666    -0.8402848509
|  8>  C        1.4004665082    -1.4092636959     0.0707446624
|  9>  O        2.2522486127    -2.2143341747    -0.1287211434
| 10>  C        0.8396414672    -0.6140689626     1.2592900027
| 11>  C        1.7964487665     0.2306505432     2.0545756778
| 12>  C        1.3975631646     0.7501445418     3.4174283983
| 13>  C        2.4318646591    -0.3381925280     3.2990461404
| 14>  H        1.1209728121     1.7378281142    -0.3468597129
| 15>  H       -0.4800549575     1.6973126569    -1.1016799318
| 16>  H       -0.3245852346     2.1037686765     0.6179005228
| 17>  H       -1.1344055276    -0.2588130759     0.2810881809
| 18>  H        0.2831614076    -1.2777469755     1.9294020268
| 19>  H        2.4306708649     0.8839994288     1.4637786739
| 20>  H        1.7229885424     1.7450718433     3.6992903348
| 21>  H        0.4169507352     0.4806506993     3.7959910105
| 22>  H        2.1526194050    -1.3434755969     3.5950956445
| 23>  H        3.4684475825    -0.0915769129     3.4966328386
| 24> *
| 25>
| 26>                          ****END OF INPUT****

CARTESIAN COORDINATES (ANGSTROEM)
---------------------------------
  C      0.072590    1.474263   -0.184615
  C     -0.080438    0.013030    0.173760
  O      0.533382   -0.863099   -0.840285
  C      1.400467   -1.409264    0.070745
  O      2.252249   -2.214334   -0.128721
  C      0.839641   -0.614069    1.259290
  C      1.796449    0.230651    2.054576
  C      1.397563    0.750145    3.417428
  C      2.431865   -0.338193    3.299046
  H      1.120973    1.737828   -0.346860
  H     -0.480055    1.697313   -1.101680
  H     -0.324585    2.103769    0.617901
  H     -1.134406   -0.258813    0.281088
  H      0.283161   -1.277747    1.929402
  H      2.430671    0.883999    1.463779
  H      1.722989    1.745072    3.699290
  H      0.416951    0.480651    3.795991
  H      2.152619   -1.343476    3.595096
  H      3.468448   -0.091577    3.496633

 Total Charge           Charge          ....    0
 Multiplicity           Mult            ....    1
 Number of Electrons    NEL             ....   68
 Basis Dimension        Dim             ....  339

ORBITAL ENERGIES
----------------

  NO   OCC          E(Eh)            E(eV)
   0   2.0000     -20.595251      -560.4253
   1   2.0000     -20.547321      -559.1210
   2   2.0000     -11.377011      -309.5842
   3   2.0000     -11.311216      -307.7938
   4   2.0000     -11.266727      -306.5832
   5   2.0000     -11.254266      -306.2441
   6   2.0000     -11.242996      -305.9375
   7   2.0000     -11.240171      -305.8606
   8   2.0000     -11.236921      -305.7722
   9   2.0000      -1.458058       -39.6758
  10   2.0000      -1.373923       -37.3863
  11   2.0000      -1.166293       -31.7365
  12   2.0000      -1.062808       -28.9205
  13   2.0000      -1.002624       -27.2828
  14   2.0000      -0.859356       -23.3843
  15   2.0000      -0.838098       -22.8058
  16   2.0000      -0.827539       -22.5185
  17   2.0000      -0.747955       -20.3529
  18   2.0000      -0.707695       -19.2574
  19   2.0000      -0.679841       -18.4994
  20   2.0000      -0.672946       -18.3118
  21   2.0000      -0.657932       -17.9033
  22   2.0000      -0.616484       -16.7754
  23   2.0000      -0.595947       -16.2165
  24   2.0000      -0.579720       -15.7750
  25   2.0000      -0.549646       -14.9566
  26   2.0000      -0.534712       -14.5502
  27   2.0000      -0.529783       -14.4161
  28   2.0000      -0.519784       -14.1441
  29   2.0000      -0.502947       -13.6859
  30   2.0000      -0.464905       -12.6507
  31   2.0000      -0.453558       -12.3419
  32   2.0000      -0.429444       -11.6858
  33   2.0000      -0.410674       -11.1750
  34   0.0000       0.123662         3.3650
  35   0.0000       0.138247         3.7619
  36   0.0000       0.152665         4.1542
  37   0.0000       0.162960         4.4344
  38   0.0000       0.175214         4.7678

MULLIKEN ATOMIC CHARGES
-----------------------
   0 C :   -0.394407
   1 C :    0.097420
   2 O :   -0.238997
   3 C :    0.244057
   4 O :   -0.263680
   5 C :   -0.144828
   6 C :   -0.115361
   7 C :   -0.255787
   8 C :   -0.262050
   9 H :    0.131628
  10 H :    0.151854
  11 H :    0.136235
  12 H :    0.106997
  13 H :    0.135146
  14 H :    0.132446
  15 H :    0.135443
  16 H :    0.129536
  17 H :    0.135898
  18 H :    0.138449
Sum of atomic charges:   -0.0000000

LOEWDIN ATOMIC CHARGES
----------------------
   0 C :   -0.289446
   1 C :   -0.244113
   2 O :    0.247370
   3 C :   -0.438847
   4 O :    0.153590
   5 C :   -0.176814
   6 C :   -0.206975
   7 C :   -0.224725
   8 C :   -0.214330
   9 H :    0.129184
  10 H :    0.132392
  11 H :    0.133677
  12 H :    0.139171
  13 H :    0.169118
  14 H :    0.153292
  15 H :    0.133051
  16 H :    0.133193
  17 H :    0.136427
  18 H :    0.134786

  Mayer bond orders larger than 0.1
B(  0-C ,  1-C ) :   0.9230 B(  0-C ,  9-H ) :   0.9354 B(  0-C , 10-H ) :   0.9307
B(  0-C , 11-H ) :   0.9260 B(  1-C ,  2-O ) :   0.8829 B(  1-C ,  5-C ) :   0.9332
B(  1-C , 12-H ) :   0.9192 B(  2-O ,  3-C ) :   1.1047 B(  3-C ,  4-O ) :   2.0637
B(  3-C ,  5-C ) :   0.8993 B(  5-C ,  6-C ) :   0.9153 B(  5-C , 13-H ) :   0.8921
B(  6-C ,  7-C ) :   0.8809 B(  6-C ,  8-C ) :   0.8943 B(  6-C , 14-H ) :   0.9106
B(  7-C ,  8-C ) :   0.9050 B(  7-C , 15-H ) :   0.9280 B(  7-C , 16-H ) :   0.9288
B(  8-C , 17-H ) :   0.9286 B(  8-C , 18-H ) :   0.9290

MP2 TOTAL ENERGY:     -422.334201075 Eh
FINAL SINGLE POINT ENERGY      -422.334201074809

DIPOLE MOMENT
-------------
                                X             Y             Z
Electronic contribution:      1.22243      -7.26257      -6.12667
Nuclear contribution   :     -1.99119       8.43121       7.14326
                        -----------------------------------------
Total Dipole Moment    :     -0.76877       1.16864       1.01659
                        -----------------------------------------
Magnitude (a.u.)       :      1.72922
Magnitude (Debye)      :      4.39532

                             ****ORCA TERMINATED NORMALLY****
TOTAL RUN TIME: 0 days 0 hours 17 minutes 51 seconds 23 msec
