                         Program Version 3.0.3 - RELEASE   -
|  1> ! RI-MP2 RIJK def2-TZVP def2-TZVP/C def2-TZVP/JK TIGHTSCF
|  2> % maxcore 2000
|  3> % mp2 density relaxed end
|  4> *xyz 0 1
|  5>  C        0.0799209702     1.5475192634    -0.0343279244
|  6>  C        0.0139502809     0.0148419200    -0.0103641040
|  7>  C       -1.4680149342    -0.4305838341     0.0775588421
|  8>  C        0.6889547656    -0.5800464868    -1.2713850891
|  9>  C        1.0102333984    -2.0656558521    -1.1335155677
| 10>  O        1.8577916603    -2.2910580129    -0.0185818775
| 11>  C        1.2352946948    -1.9550786356     1.2042504144
| 12>  C        0.7023519560    -0.5195042907     1.2574090899
| 13>  O        0.7727691791     0.1223780900     2.2794379442
| 14>  H        1.1160135218     1.8965265948    -0.0819928891
| 15>  H       -0.4511542545     1.9350772807    -0.9101158281
| 16>  H       -0.3709986923     1.9697237182     0.8659228972
| 17>  H       -2.0172668652    -0.0491448664    -0.7898331986
| 18>  H       -1.5829046049    -1.5182264443     0.0933134586
| 19>  H       -1.9356275092    -0.0297667259     0.9814304820
| 20>  H        0.0475176686    -0.4106586091    -2.1454656897
| 21>  H        1.6308038933    -0.0502365486    -1.4567630642
| 22>  H        0.0923374172    -2.6704366629    -1.0429031247
| 23>  H        1.5576682379    -2.4264578285    -2.0087894171
| 24>  H        0.3911709544    -2.6380446317     1.4167000475
| 25>  H        1.9737611919    -2.0773043875     1.9990400482
| 26> *
| 27>
| 28>                          ****END OF INPUT****

CARTESIAN COORDINATES (ANGSTROEM)
---------------------------------
  C      0.079921    1.547519   -0.034328
  C      0.013950    0.014842   -0.010364
  C     -1.468015   -0.430584    0.077559
  C      0.688955   -0.580046   -1.271385
  C      1.010233   -2.065656   -1.133516
  O      1.857792   -2.291058   -0.018582
  C      1.235295   -1.955079    1.204250
  C      0.702352   -0.519504    1.257409
  O      0.772769    0.122378    2.279438
  H      1.116014    1.896527   -0.081993
  H     -0.451154    1.935077   -0.910116
  H     -0.370999    1.969724    0.865923
  H     -2.017267   -0.049145   -0.789833
  H     -1.582905   -1.518226    0.093313
  H     -1.935628   -0.029767    0.981430
  H      0.047518   -0.410659   -2.145466
  H      1.630804   -0.050237   -1.456763
  H      0.092337   -2.670437   -1.042903
  H      1.557668   -2.426458   -2.008789
  H      0.391171   -2.638045    1.416700
  H      1.973761   -2.077304    1.999040

 Total Charge           Charge          ....    0
 Multiplicity           Mult            ....    1
 Number of Electrons    NEL             ....   70
 Basis Dimension        Dim             ....  351

ORBITAL ENERGIES
----------------

  NO   OCC          E(Eh)            E(eV)
   0   2.0000     -20.569595      -559.7271
   1   2.0000     -20.549617      -559.1835
   2   2.0000     -11.329221      -308.2838
   3   2.0000     -11.289922      -307.2144
   4   2.0000     -11.286542      -307.1224
   5   2.0000     -11.256091      -306.2938
   6   2.0000     -11.236824      -305.7695
   7   2.0000     -11.233612      -305.6821
   8   2.0000     -11.218484      -305.2705
   9   2.0000      -1.400605       -38.1124
  10   2.0000      -1.384464       -37.6732
  11   2.0000      -1.118018       -30.4228
  12   2.0000      -1.024896       -27.8888
  13   2.0000      -0.969242       -26.3744
  14   2.0000      -0.944444       -25.6996
  15   2.0000      -0.851132       -23.1605
  16   2.0000      -0.843667       -22.9573
  17   2.0000      -0.724525       -19.7153
  18   2.0000      -0.681715       -18.5504
  19   2.0000      -0.668406       -18.1883
  20   2.0000      -0.652372       -17.7519
  21   2.0000      -0.648458       -17.6454
  22   2.0000      -0.612725       -16.6731
  23   2.0000      -0.599945       -16.3253
  24   2.0000      -0.577471       -15.7138
  25   2.0000      -0.560346       -15.2478
  26   2.0000      -0.552858       -15.0440
  27   2.0000      -0.525763       -14.3067
  28   2.0000      -0.522622       -14.2213
  29   2.0000      -0.515725       -14.0336
  30   2.0000      -0.500003       -13.6058
  31   2.0000      -0.484597       -13.1866
  32   2.0000      -0.461782       -12.5657
  33   2.0000      -0.448537       -12.2053
  34   2.0000      -0.387859       -10.5542
  35   0.0000       0.124211         3.3799
  36   0.0000       0.138214         3.7610
  37   0.0000       0.153217         4.1692
  38   0.0000       0.165356         4.4996
  39   0.0000       0.178943         4.8693

MULLIKEN ATOMIC CHARGES
-----------------------
   0 C :   -0.398515
   1 C :    0.134724
   2 C :   -0.453464
   3 C :   -0.241868
   4 C :   -0.090409
   5 O :   -0.303173
   6 C :   -0.092825
   7 C :    0.129397
   8 O :   -0.273329
   9 H :    0.133678
  10 H :    0.131648
  11 H :    0.152299
  12 H :    0.139086
  13 H :    0.133096
  14 H :    0.154310
  15 H :    0.115900
  16 H :    0.122250
  17 H :    0.107697
  18 H :    0.135116
  19 H :    0.117880
  20 H :    0.146502
Sum of atomic charges:    0.0000000

LOEWDIN ATOMIC CHARGES
----------------------
   0 C :   -0.263589
   1 C :   -0.296160
   2 C :   -0.256375
   3 C :   -0.223987
   4 C :   -0.315162
   5 O :    0.158350
   6 C :   -0.284167
   7 C :   -0.281312
   8 O :    0.165705
   9 H :    0.128654
  10 H :    0.126511
  11 H :    0.132598
  12 H :    0.129912
  13 H :    0.122871
  14 H :    0.133430
  15 H :    0.145103
  16 H :    0.147932
  17 H :    0.120737
  18 H :    0.132919
  19 H :    0.133431
  20 H :    0.142596

  Mayer bond orders larger than 0.1
B(  0-C ,  1-C ) :   0.9077 B(  0-C ,  9-H ) :   0.9321 B(  0-C , 10-H ) :   0.9364
B(  0-C , 11-H ) :   0.9298 B(  1-C ,  2-C ) :   0.8913 B(  1-C ,  3-C ) :   0.8904
B(  1-C ,  7-C ) :   0.8551 B(  2-C , 12-H ) :   0.9325 B(  2-C , 13-H ) :   0.9240
B(  2-C , 14-H ) :   0.9362 B(  3-C ,  4-C ) :   0.9443 B(  3-C , 15-H ) :   0.9178
B(  3-C , 16-H ) :   0.9170 B(  4-C ,  5-O ) :   0.9142 B(  4-C , 17-H ) :   0.9453
B(  4-C , 18-H ) :   0.9293 B(  5-O ,  6-C ) :   0.9370 B(  6-C ,  7-C ) :   0.9053
B(  6-C , 19-H ) :   0.9265 B(  6-C , 20-H ) :   0.9233 B(  7-C ,  8-O ) :   2.0020

MP2 TOTAL ENERGY:     -423.548835582 Eh
FINAL SINGLE POINT ENERGY      -423.548835582321

DIPOLE MOMENT
-------------
                                X             Y             Z
Electronic contribution:      5.04920      -2.32096       4.95731
Nuclear contribution   :     -5.67761       2.08754      -5.86260
                        -----------------------------------------
Total Dipole Moment    :     -0.62840      -0.23341      -0.90529
                        -----------------------------------------
Magnitude (a.u.)       :      1.12646
Magnitude (Debye)      :      2.86324

                             ****ORCA TERMINATED NORMALLY****
TOTAL RUN TIME: 0 days 0 hours 22 minutes 13 seconds 844 msec
