                         Program Version 3.0.3 - RELEASE   -
|  1> ! RI-MP2 RIJK def2-TZVP def2-TZVP/C def2-TZVP/JK TIGHTSCF
|  2> % maxcore 2000
|  3> % mp2 density relaxed end
|  4> *xyz 0 1
|  5>  C       -0.2220887590     1.6283926360     0.1797033502
|  6>  C        0.0092801727     0.1125099858     0.1537694815
|  7>  C        1.1267999726    -0.5298683759    -0.7308825586
|  8>  C        2.1787106822    -0.1208965702     0.3725617723
|  9>  O        2.6407427270     1.1934479738     0.5495517969
| 10>  C        0.9420048496    -0.6622307893     1.1566825671
| 11>  C        0.9360932041    -1.8372554723     0.1275393909
| 12>  C       -0.2867391003    -2.7308306830    -0.0649267242
| 13>  O        2.0641814863    -2.6885166090     0.2764164461
| 14>  H        0.6125979412     2.2083866070    -0.2165395426
| 15>  H       -1.0907676524     1.8725522942    -0.4404434584
| 16>  H       -0.4521603470     1.9855658109     1.1914237301
| 17>  H       -0.9684613685    -0.3574579362     0.0531226609
| 18>  H        1.2311008822    -0.4623714989    -1.8163099246
| 19>  H        3.0605042341    -0.7539849526     0.3911948356
| 20>  H        1.9731475331     1.7154726301     0.9978467787
| 21>  H        0.8274192732    -0.7509000074     2.2401046603
| 22>  H       -1.2358315804    -2.2053958099    -0.1631680982
| 23>  H       -0.1587134068    -3.3319082132    -0.9746434733
| 24>  H       -0.3613552980    -3.4244121643     0.7779866316
| 25>  H        2.0698341441    -3.3007278157    -0.4662705224
| 26> *
| 27>
| 28>                          ****END OF INPUT****

CARTESIAN COORDINATES (ANGSTROEM)
---------------------------------
  C     -0.222089    1.628393    0.179703
  C      0.009280    0.112510    0.153769
  C      1.126800   -0.529868   -0.730883
  C      2.178711   -0.120897    0.372562
  O      2.640743    1.193448    0.549552
  C      0.942005   -0.662231    1.156683
  C      0.936093   -1.837255    0.127539
  C     -0.286739   -2.730831   -0.064927
  O      2.064181   -2.688517    0.276416
  H      0.612598    2.208387   -0.216540
  H     -1.090768    1.872552   -0.440443
  H     -0.452160    1.985566    1.191424
  H     -0.968461   -0.357458    0.053123
  H      1.231101   -0.462371   -1.816310
  H      3.060504   -0.753985    0.391195
  H      1.973148    1.715473    0.997847
  H      0.827419   -0.750900    2.240105
  H     -1.235832   -2.205396   -0.163168
  H     -0.158713   -3.331908   -0.974643
  H     -0.361355   -3.424412    0.777987
  H      2.069834   -3.300728   -0.466271

 Total Charge           Charge          ....    0
 Multiplicity           Mult            ....    1
 Number of Electrons    NEL             ....   70
 Basis Dimension        Dim             ....  351

ORBITAL ENERGIES
----------------

  NO   OCC          E(Eh)            E(eV)
   0   2.0000     -20.555650      -559.3477
   1   2.0000     -20.549404      -559.1777
   2   2.0000     -11.298639      -307.4516
   3   2.0000     -11.277514      -306.8767
   4   2.0000     -11.242083      -305.9126
   5   2.0000     -11.240935      -305.8814
   6   2.0000     -11.238792      -305.8231
   7   2.0000     -11.224125      -305.4240
   8   2.0000     -11.222251      -305.3730
   9   2.0000      -1.372466       -37.3467
  10   2.0000      -1.358770       -36.9740
  11   2.0000      -1.191496       -32.4223
  12   2.0000      -1.004026       -27.3209
  13   2.0000      -0.987696       -26.8766
  14   2.0000      -0.865576       -23.5535
  15   2.0000      -0.860972       -23.4282
  16   2.0000      -0.822457       -22.3802
  17   2.0000      -0.745162       -20.2769
  18   2.0000      -0.681036       -18.5319
  19   2.0000      -0.671775       -18.2799
  20   2.0000      -0.660313       -17.9680
  21   2.0000      -0.624808       -17.0019
  22   2.0000      -0.583287       -15.8721
  23   2.0000      -0.579680       -15.7739
  24   2.0000      -0.571366       -15.5477
  25   2.0000      -0.561751       -15.2860
  26   2.0000      -0.553564       -15.0632
  27   2.0000      -0.531839       -14.4721
  28   2.0000      -0.513683       -13.9780
  29   2.0000      -0.498608       -13.5678
  30   2.0000      -0.463071       -12.6008
  31   2.0000      -0.435011       -11.8373
  32   2.0000      -0.424239       -11.5441
  33   2.0000      -0.415707       -11.3119
  34   2.0000      -0.392840       -10.6897
  35   0.0000       0.127957         3.4819
  36   0.0000       0.141216         3.8427
  37   0.0000       0.169958         4.6248
  38   0.0000       0.181449         4.9375
  39   0.0000       0.186816         5.0835

MULLIKEN ATOMIC CHARGES
-----------------------
   0 C :   -0.511463
   1 C :   -0.123476
   2 C :   -0.074430
   3 C :    0.024947
   4 O :   -0.462400
   5 C :   -0.082224
   6 C :    0.160006
   7 C :   -0.425733
   8 O :   -0.473674
   9 H :    0.152681
  10 H :    0.137915
  11 H :    0.149586
  12 H :    0.086698
  13 H :    0.135969
  14 H :    0.136791
  15 H :    0.324221
  16 H :    0.130661
  17 H :    0.125603
  18 H :    0.120812
  19 H :    0.150286
  20 H :    0.317225
Sum of atomic charges:   -0.0000000

LOEWDIN ATOMIC CHARGES
----------------------
   0 C :   -0.312997
   1 C :   -0.205557
   2 C :   -0.125590
   3 C :   -0.275383
   4 O :   -0.006315
   5 C :   -0.124341
   6 C :   -0.319167
   7 C :   -0.282232
   8 O :    0.011197
   9 H :    0.124469
  10 H :    0.127230
  11 H :    0.125144
  12 H :    0.143050
  13 H :    0.124191
  14 H :    0.142614
  15 H :    0.169699
  16 H :    0.127162
  17 H :    0.123464
  18 H :    0.124869
  19 H :    0.131713
  20 H :    0.176778

  Mayer bond orders larger than 0.1
B(  0-C ,  1-C ) :   0.8529 B(  0-C ,  9-H ) :   0.9429 B(  0-C , 10-H ) :   0.9374
B(  0-C , 11-H ) :   0.9405 B(  1-C ,  2-C ) :   0.8749 B(  1-C ,  5-C ) :   0.8821
B(  1-C , 12-H ) :   0.9337 B(  2-C ,  3-C ) :   0.8486 B(  2-C ,  6-C ) :   0.8661
B(  2-C , 13-H ) :   0.8580 B(  3-C ,  4-O ) :   0.9930 B(  3-C ,  5-C ) :   0.9131
B(  3-C , 14-H ) :   0.9446 B(  4-O , 15-H ) :   0.8411 B(  5-C ,  6-C ) :   0.8788
B(  5-C , 16-H ) :   0.8764 B(  6-C ,  7-C ) :   0.9441 B(  6-C ,  8-O ) :   1.0021
B(  7-C , 17-H ) :   0.9288 B(  7-C , 18-H ) :   0.9231 B(  7-C , 19-H ) :   0.9446
B(  8-O , 20-H ) :   0.8384

MP2 TOTAL ENERGY:     -423.466675185 Eh
FINAL SINGLE POINT ENERGY      -423.466675185155

DIPOLE MOMENT
-------------
                                X             Y             Z
Electronic contribution:      5.80854      -0.95524       0.78033
Nuclear contribution   :     -6.83638       0.68347      -1.07781
                        -----------------------------------------
Total Dipole Moment    :     -1.02784      -0.27177      -0.29748
                        -----------------------------------------
Magnitude (a.u.)       :      1.10400
Magnitude (Debye)      :      2.80613

                             ****ORCA TERMINATED NORMALLY****
TOTAL RUN TIME: 0 days 0 hours 18 minutes 35 seconds 27 msec
