                         Program Version 3.0.3 - RELEASE   -
|  1> ! RI-MP2 RIJK def2-TZVP def2-TZVP/C def2-TZVP/JK TIGHTSCF
|  2> % maxcore 2000
|  3> % mp2 density relaxed end
|  4> *xyz 0 1
|  5>  C       -1.2704549516     0.5751608601     0.5177408692
|  6>  C        0.0616016319     0.1184165976    -0.0449706439
|  7>  O        1.1159918156     0.5209183981     0.3899352841
|  8>  C        0.0068927740    -0.8115936134    -1.2414373140
|  9>  C        0.9361645436    -1.9813626592    -1.3870830949
| 10>  C        1.5465979657    -2.5011787477    -0.0949164673
| 11>  O        0.4603712546    -2.5940271245     0.8298304137
| 12>  C       -0.7167492003    -2.9106899274     0.0989584365
| 13>  C       -0.5569349353    -2.2173389785    -1.2403689394
| 14>  H       -1.1149684545     1.3828994322     1.2342676830
| 15>  H       -1.9404320496     0.9038444557    -0.2843892309
| 16>  H       -1.7642247359    -0.2633587497     1.0211647256
| 17>  H       -0.1990693391    -0.2596579919    -2.1572813977
| 18>  H        1.4587626566    -2.1532137734    -2.3203597228
| 19>  H        2.0034639159    -3.4883630833    -0.2661134635
| 20>  H        2.2850324136    -1.8297805556     0.3478927784
| 21>  H       -0.8153182357    -3.9975145502    -0.0605509036
| 22>  H       -1.5715989873    -2.5789481041     0.6975721937
| 23>  H       -1.1707386424    -2.5431933048    -2.0722027361
| 24> *
| 25>
| 26>                          ****END OF INPUT****

CARTESIAN COORDINATES (ANGSTROEM)
---------------------------------
  C     -1.270455    0.575161    0.517741
  C      0.061602    0.118417   -0.044971
  O      1.115992    0.520918    0.389935
  C      0.006893   -0.811594   -1.241437
  C      0.936165   -1.981363   -1.387083
  C      1.546598   -2.501179   -0.094916
  O      0.460371   -2.594027    0.829830
  C     -0.716749   -2.910690    0.098958
  C     -0.556935   -2.217339   -1.240369
  H     -1.114968    1.382899    1.234268
  H     -1.940432    0.903844   -0.284389
  H     -1.764225   -0.263359    1.021165
  H     -0.199069   -0.259658   -2.157281
  H      1.458763   -2.153214   -2.320360
  H      2.003464   -3.488363   -0.266113
  H      2.285032   -1.829781    0.347893
  H     -0.815318   -3.997515   -0.060551
  H     -1.571599   -2.578948    0.697572
  H     -1.170739   -2.543193   -2.072203

 Total Charge           Charge          ....    0
 Multiplicity           Mult            ....    1
 Number of Electrons    NEL             ....   68
 Basis Dimension        Dim             ....  339

ORBITAL ENERGIES
----------------

  NO   OCC          E(Eh)            E(eV)
   0   2.0000     -20.558467      -559.4243
   1   2.0000     -20.538711      -558.8868
   2   2.0000     -11.329981      -308.3045
   3   2.0000     -11.284884      -307.0773
   4   2.0000     -11.275697      -306.8273
   5   2.0000     -11.249497      -306.1144
   6   2.0000     -11.248596      -306.0898
   7   2.0000     -11.243711      -305.9569
   8   2.0000     -11.231000      -305.6110
   9   2.0000      -1.388826       -37.7919
  10   2.0000      -1.379481       -37.5376
  11   2.0000      -1.163290       -31.6547
  12   2.0000      -1.013222       -27.5712
  13   2.0000      -0.997304       -27.1380
  14   2.0000      -0.917563       -24.9681
  15   2.0000      -0.830688       -22.6042
  16   2.0000      -0.793600       -21.5949
  17   2.0000      -0.729529       -19.8515
  18   2.0000      -0.707139       -19.2422
  19   2.0000      -0.670641       -18.2491
  20   2.0000      -0.642646       -17.4873
  21   2.0000      -0.629202       -17.1215
  22   2.0000      -0.608100       -16.5473
  23   2.0000      -0.605070       -16.4648
  24   2.0000      -0.580416       -15.7939
  25   2.0000      -0.561014       -15.2660
  26   2.0000      -0.545747       -14.8505
  27   2.0000      -0.520856       -14.1732
  28   2.0000      -0.496594       -13.5130
  29   2.0000      -0.486202       -13.2302
  30   2.0000      -0.449851       -12.2411
  31   2.0000      -0.426851       -11.6152
  32   2.0000      -0.422112       -11.4863
  33   2.0000      -0.390658       -10.6303
  34   0.0000       0.127722         3.4755
  35   0.0000       0.143726         3.9110
  36   0.0000       0.157175         4.2769
  37   0.0000       0.171599         4.6695
  38   0.0000       0.177677         4.8348

MULLIKEN ATOMIC CHARGES
-----------------------
   0 C :   -0.411329
   1 C :    0.223768
   2 O :   -0.285568
   3 C :   -0.135859
   4 C :   -0.134375
   5 C :   -0.042288
   6 O :   -0.327622
   7 C :   -0.044578
   8 C :   -0.151148
   9 H :    0.151383
  10 H :    0.140102
  11 H :    0.139634
  12 H :    0.144197
  13 H :    0.137965
  14 H :    0.103376
  15 H :    0.138783
  16 H :    0.102681
  17 H :    0.116026
  18 H :    0.134851
Sum of atomic charges:    0.0000000

LOEWDIN ATOMIC CHARGES
----------------------
   0 C :   -0.272784
   1 C :   -0.331034
   2 O :    0.158825
   3 C :   -0.163510
   4 C :   -0.178529
   5 C :   -0.274383
   6 O :    0.159300
   7 C :   -0.291938
   8 C :   -0.183217
   9 H :    0.132839
  10 H :    0.134934
  11 H :    0.137454
  12 H :    0.166646
  13 H :    0.146574
  14 H :    0.124176
  15 H :    0.136581
  16 H :    0.125941
  17 H :    0.126040
  18 H :    0.146086

  Mayer bond orders larger than 0.1
B(  0-C ,  1-C ) :   0.9116 B(  0-C ,  9-H ) :   0.9381 B(  0-C , 10-H ) :   0.9133
B(  0-C , 11-H ) :   0.9131 B(  1-C ,  2-O ) :   2.0153 B(  1-C ,  3-C ) :   0.8838
B(  3-C ,  4-C ) :   0.8760 B(  3-C ,  8-C ) :   0.8720 B(  3-C , 12-H ) :   0.9054
B(  4-C ,  5-C ) :   0.9722 B(  4-C ,  8-C ) :   0.8531 B(  4-C , 13-H ) :   0.9134
B(  5-C ,  6-O ) :   0.8954 B(  5-C , 14-H ) :   0.9234 B(  5-C , 15-H ) :   0.9212
B(  6-O ,  7-C ) :   0.9140 B(  7-C ,  8-C ) :   0.9671 B(  7-C , 16-H ) :   0.9196
B(  7-C , 17-H ) :   0.9302 B(  8-C , 18-H ) :   0.9155

MP2 TOTAL ENERGY:     -422.323955186 Eh
FINAL SINGLE POINT ENERGY      -422.323955185932

DIPOLE MOMENT
-------------
                                X             Y             Z
Electronic contribution:      3.43027       1.13991       0.74261
Nuclear contribution   :     -4.30597      -1.63475      -1.72948
                        -----------------------------------------
Total Dipole Moment    :     -0.87570      -0.49484      -0.98686
                        -----------------------------------------
Magnitude (a.u.)       :      1.40912
Magnitude (Debye)      :      3.58169

                             ****ORCA TERMINATED NORMALLY****
TOTAL RUN TIME: 0 days 0 hours 20 minutes 29 seconds 610 msec
