                         Program Version 3.0.3 - RELEASE   -
|  1> ! RI-MP2 RIJK def2-TZVP def2-TZVP/C def2-TZVP/JK TIGHTSCF
|  2> % maxcore 2000
|  3> % mp2 density relaxed end
|  4> *xyz 0 1
|  5>  O       -0.0580851939     1.4842314402    -0.1738617932
|  6>  C        0.0433604256     0.1341774321    -0.0634097086
|  7>  C        0.0946038092    -1.0358661966    -0.9907434928
|  8>  O        1.1875595337    -1.6826916119    -0.3463352420
|  9>  C        0.9002542467    -0.8935256859     0.8237949158
| 10>  C       -0.4521049572    -1.5081485364     1.3320324527
| 11>  C       -0.9435227292    -0.9032883776     2.5586902404
| 12>  N       -1.3179563740    -0.4304370126     3.5450700356
| 13>  C       -1.0524568310    -0.8985444670     0.0599217766
| 14>  H        0.7239843417     1.8228749226    -0.6263993114
| 15>  H       -0.0678480592    -1.1774748049    -2.0503806971
| 16>  H        1.7469239378    -0.7319184472     1.4858897517
| 17>  H       -0.4415626822    -2.5986692254     1.4199369747
| 18>  H       -2.0935743880    -0.8191347395    -0.2217477123
| 19> *
| 20>
| 21>                          ****END OF INPUT****

CARTESIAN COORDINATES (ANGSTROEM)
---------------------------------
  O     -0.058085    1.484231   -0.173862
  C      0.043360    0.134177   -0.063410
  C      0.094604   -1.035866   -0.990743
  O      1.187560   -1.682692   -0.346335
  C      0.900254   -0.893526    0.823795
  C     -0.452105   -1.508149    1.332032
  C     -0.943523   -0.903288    2.558690
  N     -1.317956   -0.430437    3.545070
  C     -1.052457   -0.898544    0.059922
  H      0.723984    1.822875   -0.626399
  H     -0.067848   -1.177475   -2.050381
  H      1.746924   -0.731918    1.485890
  H     -0.441563   -2.598669    1.419937
  H     -2.093574   -0.819135   -0.221748

 Total Charge           Charge          ....    0
 Multiplicity           Mult            ....    1
 Number of Electrons    NEL             ....   64
 Basis Dimension        Dim             ....  309

ORBITAL ENERGIES
----------------

  NO   OCC          E(Eh)            E(eV)
   0   2.0000     -20.606722      -560.7374
   1   2.0000     -20.587568      -560.2162
   2   2.0000     -15.573278      -423.7704
   3   2.0000     -11.330674      -308.3233
   4   2.0000     -11.328534      -308.2651
   5   2.0000     -11.318221      -307.9844
   6   2.0000     -11.297144      -307.4109
   7   2.0000     -11.276214      -306.8414
   8   2.0000     -11.273661      -306.7719
   9   2.0000      -1.446968       -39.3740
  10   2.0000      -1.411054       -38.3967
  11   2.0000      -1.224345       -33.3161
  12   2.0000      -1.178396       -32.0658
  13   2.0000      -1.039828       -28.2952
  14   2.0000      -0.927809       -25.2470
  15   2.0000      -0.828617       -22.5478
  16   2.0000      -0.812976       -22.1222
  17   2.0000      -0.758987       -20.6531
  18   2.0000      -0.722294       -19.6546
  19   2.0000      -0.692412       -18.8415
  20   2.0000      -0.660801       -17.9813
  21   2.0000      -0.629809       -17.1380
  22   2.0000      -0.594225       -16.1697
  23   2.0000      -0.584241       -15.8980
  24   2.0000      -0.580662       -15.8006
  25   2.0000      -0.556249       -15.1363
  26   2.0000      -0.536685       -14.6039
  27   2.0000      -0.481678       -13.1071
  28   2.0000      -0.467976       -12.7343
  29   2.0000      -0.438534       -11.9331
  30   2.0000      -0.421808       -11.4780
  31   2.0000      -0.398684       -10.8487
  32   0.0000       0.121086         3.2949
  33   0.0000       0.141336         3.8459
  34   0.0000       0.153347         4.1728
  35   0.0000       0.157571         4.2877
  36   0.0000       0.171922         4.6782

MULLIKEN ATOMIC CHARGES
-----------------------
   0 O :   -0.424699
   1 C :    0.059166
   2 C :   -0.018831
   3 O :   -0.299914
   4 C :    0.049285
   5 C :    0.077359
   6 C :   -0.247670
   7 N :   -0.050280
   8 C :   -0.126553
   9 H :    0.341854
  10 H :    0.160177
  11 H :    0.164546
  12 H :    0.150719
  13 H :    0.164843
Sum of atomic charges:   -0.0000000

LOEWDIN ATOMIC CHARGES
----------------------
   0 O :    0.064035
   1 C :   -0.295105
   2 C :   -0.210608
   3 O :    0.187995
   4 C :   -0.154137
   5 C :   -0.180659
   6 C :   -0.163680
   7 N :    0.068759
   8 C :   -0.108911
   9 H :    0.197248
  10 H :    0.139633
  11 H :    0.137664
  12 H :    0.169037
  13 H :    0.148729

  Mayer bond orders larger than 0.1
B(  0-O ,  1-C ) :   1.0651 B(  0-O ,  9-H ) :   0.8247 B(  1-C ,  2-C ) :   0.9143
B(  1-C ,  4-C ) :   0.8952 B(  1-C ,  8-C ) :   0.8480 B(  2-C ,  3-O ) :   0.9703
B(  2-C ,  8-C ) :   0.8184 B(  2-C , 10-H ) :   0.9116 B(  3-O ,  4-C ) :   0.8994
B(  4-C ,  5-C ) :   0.8902 B(  4-C , 11-H ) :   0.8999 B(  5-C ,  6-C ) :   0.9224
B(  5-C ,  8-C ) :   0.8779 B(  5-C , 12-H ) :   0.8907 B(  6-C ,  7-N ) :   2.8665
B(  8-C , 13-H ) :   0.9043

MP2 TOTAL ENERGY:     -435.893566179 Eh
FINAL SINGLE POINT ENERGY      -435.893566178714

DIPOLE MOMENT
-------------
                                X             Y             Z
Electronic contribution:      0.02238       0.34945       1.76218
Nuclear contribution   :      0.55568      -0.45016      -3.28363
                        -----------------------------------------
Total Dipole Moment    :      0.57806      -0.10071      -1.52145
                        -----------------------------------------
Magnitude (a.u.)       :      1.63068
Magnitude (Debye)      :      4.14485

                             ****ORCA TERMINATED NORMALLY****
TOTAL RUN TIME: 0 days 0 hours 14 minutes 59 seconds 607 msec
