                         Program Version 3.0.3 - RELEASE   -
|  1> ! RI-MP2 RIJK def2-TZVP def2-TZVP/C def2-TZVP/JK TIGHTSCF
|  2> % maxcore 2000
|  3> % mp2 density relaxed end
|  4> *xyz 0 1
|  5>  C        0.0126177655     1.5358386898     0.1347353829
|  6>  C       -0.1839940785     0.0500063953     0.4230812202
|  7>  C       -1.4204282194    -0.5359605950    -0.2474319044
|  8>  O       -2.1995863855     0.1607008867    -0.8697204124
|  9>  C       -1.6408091796    -1.9954002587    -0.0988025503
| 10>  C       -2.4889267663    -2.7299433356    -1.1189795254
| 11>  C       -2.9937965898    -2.6689753809     0.2755903596
| 12>  C       -2.2548371111    -3.6698673345     1.1696255241
| 13>  C       -0.8913438984    -3.0064302664     0.7836108758
| 14>  H        0.9027937438     1.9154524812     0.6442955636
| 15>  H        0.1251294393     1.7127711167    -0.9381014225
| 16>  H       -0.8532469815     2.1134638337     0.4669659905
| 17>  H        0.6875677662    -0.5397313103     0.1064101526
| 18>  H       -0.2693100627    -0.1323563229     1.5036423957
| 19>  H       -2.9778084338    -2.0686084260    -1.8250594271
| 20>  H       -2.1149921377    -3.6658403700    -1.5287641920
| 21>  H       -3.9100267708    -2.1473632740     0.5238045764
| 22>  H       -2.4854591855    -3.5526645400     2.2301876064
| 23>  H       -2.3815422836    -4.7232221668     0.8996770026
| 24>  H       -0.1652708843    -3.6410363100     0.2648487587
| 25>  H       -0.3978564663    -2.5526799622     1.6452900450
| 26> *
| 27>
| 28>                          ****END OF INPUT****

CARTESIAN COORDINATES (ANGSTROEM)
---------------------------------
  C      0.012618    1.535839    0.134735
  C     -0.183994    0.050006    0.423081
  C     -1.420428   -0.535961   -0.247432
  O     -2.199586    0.160701   -0.869720
  C     -1.640809   -1.995400   -0.098803
  C     -2.488927   -2.729943   -1.118980
  C     -2.993797   -2.668975    0.275590
  C     -2.254837   -3.669867    1.169626
  C     -0.891344   -3.006430    0.783611
  H      0.902794    1.915452    0.644296
  H      0.125129    1.712771   -0.938101
  H     -0.853247    2.113464    0.466966
  H      0.687568   -0.539731    0.106410
  H     -0.269310   -0.132356    1.503642
  H     -2.977808   -2.068608   -1.825059
  H     -2.114992   -3.665840   -1.528764
  H     -3.910027   -2.147363    0.523805
  H     -2.485459   -3.552665    2.230188
  H     -2.381542   -4.723222    0.899677
  H     -0.165271   -3.641036    0.264849
  H     -0.397856   -2.552680    1.645290

 Total Charge           Charge          ....    0
 Multiplicity           Mult            ....    1
 Number of Electrons    NEL             ....   68
 Basis Dimension        Dim             ....  351

ORBITAL ENERGIES
----------------

  NO   OCC          E(Eh)            E(eV)
   0   2.0000     -20.529422      -558.6340
   1   2.0000     -11.323296      -308.1225
   2   2.0000     -11.247223      -306.0525
   3   2.0000     -11.242547      -305.9252
   4   2.0000     -11.238220      -305.8075
   5   2.0000     -11.235943      -305.7456
   6   2.0000     -11.235874      -305.7437
   7   2.0000     -11.235805      -305.7418
   8   2.0000     -11.213332      -305.1303
   9   2.0000      -1.375028       -37.4164
  10   2.0000      -1.198825       -32.6217
  11   2.0000      -1.050164       -28.5764
  12   2.0000      -0.995938       -27.1009
  13   2.0000      -0.939245       -25.5581
  14   2.0000      -0.875719       -23.8295
  15   2.0000      -0.820038       -22.3144
  16   2.0000      -0.777587       -21.1592
  17   2.0000      -0.713017       -19.4022
  18   2.0000      -0.689237       -18.7551
  19   2.0000      -0.632739       -17.2177
  20   2.0000      -0.627823       -17.0839
  21   2.0000      -0.616659       -16.7802
  22   2.0000      -0.606588       -16.5061
  23   2.0000      -0.552881       -15.0447
  24   2.0000      -0.545678       -14.8486
  25   2.0000      -0.527099       -14.3431
  26   2.0000      -0.522266       -14.2116
  27   2.0000      -0.510624       -13.8948
  28   2.0000      -0.500586       -13.6216
  29   2.0000      -0.486728       -13.2446
  30   2.0000      -0.476120       -12.9559
  31   2.0000      -0.428958       -11.6725
  32   2.0000      -0.397524       -10.8172
  33   2.0000      -0.372740       -10.1428
  34   0.0000       0.127088         3.4582
  35   0.0000       0.139731         3.8023
  36   0.0000       0.151892         4.1332
  37   0.0000       0.162566         4.4236
  38   0.0000       0.170510         4.6398

MULLIKEN ATOMIC CHARGES
-----------------------
   0 C :   -0.373429
   1 C :   -0.221123
   2 C :    0.092860
   3 O :   -0.324474
   4 C :    0.081750
   5 C :   -0.256820
   6 C :   -0.109999
   7 C :   -0.224486
   8 C :   -0.240837
   9 H :    0.130743
  10 H :    0.131723
  11 H :    0.135110
  12 H :    0.134498
  13 H :    0.126897
  14 H :    0.155906
  15 H :    0.131986
  16 H :    0.143820
  17 H :    0.121990
  18 H :    0.118079
  19 H :    0.120870
  20 H :    0.124936
Sum of atomic charges:   -0.0000000

LOEWDIN ATOMIC CHARGES
----------------------
   0 C :   -0.311400
   1 C :   -0.263233
   2 C :   -0.306819
   3 O :    0.139483
   4 C :   -0.172255
   5 C :   -0.168172
   6 C :   -0.145893
   7 C :   -0.212196
   8 C :   -0.192891
   9 H :    0.120139
  10 H :    0.126740
  11 H :    0.127361
  12 H :    0.150833
  13 H :    0.150211
  14 H :    0.151724
  15 H :    0.136240
  16 H :    0.141973
  17 H :    0.135017
  18 H :    0.128881
  19 H :    0.128965
  20 H :    0.135290

  Mayer bond orders larger than 0.1
B(  0-C ,  1-C ) :   0.9395 B(  0-C ,  9-H ) :   0.9405 B(  0-C , 10-H ) :   0.9374
B(  0-C , 11-H ) :   0.9356 B(  1-C ,  2-C ) :   0.9363 B(  1-C , 12-H ) :   0.9104
B(  1-C , 13-H ) :   0.9051 B(  2-C ,  3-O ) :   1.9350 B(  2-C ,  4-C ) :   0.9485
B(  4-C ,  5-C ) :   0.8362 B(  4-C ,  6-C ) :   0.7582 B(  4-C ,  8-C ) :   0.8962
B(  5-C ,  6-C ) :   0.9330 B(  5-C , 14-H ) :   0.9206 B(  5-C , 15-H ) :   0.9174
B(  6-C ,  7-C ) :   0.9362 B(  6-C , 16-H ) :   0.9149 B(  7-C ,  8-C ) :   0.9725
B(  7-C , 17-H ) :   0.9273 B(  7-C , 18-H ) :   0.9230 B(  8-C , 19-H ) :   0.9171
B(  8-C , 20-H ) :   0.9253

MP2 TOTAL ENERGY:     -386.405661422 Eh
FINAL SINGLE POINT ENERGY      -386.405661421613

DIPOLE MOMENT
-------------
                                X             Y             Z
Electronic contribution:     -3.86416      -0.05842      -2.58237
Nuclear contribution   :      4.37684      -0.66634       3.19042
                        -----------------------------------------
Total Dipole Moment    :      0.51268      -0.72476       0.60805
                        -----------------------------------------
Magnitude (a.u.)       :      1.07603
Magnitude (Debye)      :      2.73505

                             ****ORCA TERMINATED NORMALLY****
TOTAL RUN TIME: 0 days 0 hours 19 minutes 3 seconds 223 msec
