                         Program Version 3.0.3 - RELEASE   -
|  1> ! RI-MP2 RIJK def2-TZVP def2-TZVP/C def2-TZVP/JK TIGHTSCF
|  2> % maxcore 2000
|  3> % mp2 density relaxed end
|  4> *xyz 0 1
|  5>  N       -2.3538663951     1.3338996317    -0.0505441552
|  6>  C       -2.3352662548     0.0700187517    -0.1853796275
|  7>  N       -1.1757364462    -0.6901855996    -0.0611578342
|  8>  C        0.0425577352    -0.0781611052     0.2236828797
|  9>  O        1.0837702039    -0.6814528215     0.3438418205
| 10>  C       -1.1819033268    -2.1304712796    -0.2199995046
| 11>  C       -2.3139325505    -2.9962698371     0.2564966469
| 12>  C       -2.0477900634    -2.8337027893    -1.2269190199
| 13>  H       -3.2978365337     1.6890085905    -0.1806338481
| 14>  H       -3.2126903346    -0.5425431989    -0.4094156298
| 15>  H       -0.0641766680     1.0091882899     0.3236260110
| 16>  H       -0.1743134445    -2.4964106400    -0.0793131009
| 17>  H       -2.0634424203    -3.9357490388     0.7362178733
| 18>  H       -3.1969141509    -2.5158745399     0.6644367513
| 19>  H       -2.7542069087    -2.2453228877    -1.8028045029
| 20>  H       -1.6126224515    -3.6603171461    -1.7772204298
| 21> *
| 22>
| 23>                          ****END OF INPUT****

CARTESIAN COORDINATES (ANGSTROEM)
---------------------------------
  N     -2.353866    1.333900   -0.050544
  C     -2.335266    0.070019   -0.185380
  N     -1.175736   -0.690186   -0.061158
  C      0.042558   -0.078161    0.223683
  O      1.083770   -0.681453    0.343842
  C     -1.181903   -2.130471   -0.220000
  C     -2.313933   -2.996270    0.256497
  C     -2.047790   -2.833703   -1.226919
  H     -3.297837    1.689009   -0.180634
  H     -3.212690   -0.542543   -0.409416
  H     -0.064177    1.009188    0.323626
  H     -0.174313   -2.496411   -0.079313
  H     -2.063442   -3.935749    0.736218
  H     -3.196914   -2.515875    0.664437
  H     -2.754207   -2.245323   -1.802805
  H     -1.612622   -3.660317   -1.777220

 Total Charge           Charge          ....    0
 Multiplicity           Mult            ....    1
 Number of Electrons    NEL             ....   60
 Basis Dimension        Dim             ....  296

ORBITAL ENERGIES
----------------

  NO   OCC          E(Eh)            E(eV)
   0   2.0000     -20.540707      -558.9411
   1   2.0000     -15.615932      -424.9311
   2   2.0000     -15.554571      -423.2614
   3   2.0000     -11.355891      -309.0095
   4   2.0000     -11.339990      -308.5768
   5   2.0000     -11.286024      -307.1083
   6   2.0000     -11.246905      -306.0438
   7   2.0000     -11.246269      -306.0265
   8   2.0000      -1.401341       -38.1324
   9   2.0000      -1.301859       -35.4254
  10   2.0000      -1.201618       -32.6977
  11   2.0000      -1.137381       -30.9497
  12   2.0000      -0.910874       -24.7862
  13   2.0000      -0.889427       -24.2025
  14   2.0000      -0.848177       -23.0801
  15   2.0000      -0.749192       -20.3866
  16   2.0000      -0.731372       -19.9016
  17   2.0000      -0.707817       -19.2607
  18   2.0000      -0.664029       -18.0691
  19   2.0000      -0.646724       -17.5983
  20   2.0000      -0.629744       -17.1362
  21   2.0000      -0.618332       -16.8257
  22   2.0000      -0.566048       -15.4030
  23   2.0000      -0.539160       -14.6713
  24   2.0000      -0.508255       -13.8303
  25   2.0000      -0.470755       -12.8099
  26   2.0000      -0.464595       -12.6423
  27   2.0000      -0.450441       -12.2571
  28   2.0000      -0.425780       -11.5861
  29   2.0000      -0.362417        -9.8619
  30   0.0000       0.117766         3.2046
  31   0.0000       0.129222         3.5163
  32   0.0000       0.153567         4.1788
  33   0.0000       0.165748         4.5102
  34   0.0000       0.171924         4.6783

MULLIKEN ATOMIC CHARGES
-----------------------
   0 N :   -0.400968
   1 C :    0.017458
   2 N :   -0.047874
   3 C :    0.158063
   4 O :   -0.331120
   5 C :   -0.100675
   6 C :   -0.258329
   7 C :   -0.258325
   8 H :    0.225927
   9 H :    0.110877
  10 H :    0.146653
  11 H :    0.170716
  12 H :    0.142920
  13 H :    0.140870
  14 H :    0.140884
  15 H :    0.142924
Sum of atomic charges:    0.0000000

LOEWDIN ATOMIC CHARGES
----------------------
   0 N :   -0.086381
   1 C :   -0.307710
   2 N :    0.199106
   3 C :   -0.345163
   4 O :    0.089615
   5 C :   -0.224419
   6 C :   -0.225635
   7 C :   -0.225619
   8 H :    0.166838
   9 H :    0.127398
  10 H :    0.132522
  11 H :    0.162041
  12 H :    0.135511
  13 H :    0.133187
  14 H :    0.133202
  15 H :    0.135505

  Mayer bond orders larger than 0.1
B(  0-N ,  1-C ) :   1.8887 B(  0-N ,  8-H ) :   0.8575 B(  1-C ,  2-N ) :   1.0115
B(  1-C ,  9-H ) :   0.9269 B(  2-N ,  3-C ) :   1.0272 B(  2-N ,  5-C ) :   0.8609
B(  3-C ,  4-O ) :   1.8941 B(  3-C , 10-H ) :   0.9184 B(  5-C ,  6-C ) :   0.8783
B(  5-C ,  7-C ) :   0.8782 B(  5-C , 11-H ) :   0.9209 B(  6-C ,  7-C ) :   0.8614
B(  6-C , 12-H ) :   0.9296 B(  6-C , 13-H ) :   0.9291 B(  7-C , 14-H ) :   0.9291
B(  7-C , 15-H ) :   0.9296

MP2 TOTAL ENERGY:     -379.280519830 Eh
FINAL SINGLE POINT ENERGY      -379.280519830175

DIPOLE MOMENT
-------------
                                X             Y             Z
Electronic contribution:      4.26729       3.90321       1.19193
Nuclear contribution   :     -5.78093      -4.50488      -1.52854
                        -----------------------------------------
Total Dipole Moment    :     -1.51364      -0.60166      -0.33662
                        -----------------------------------------
Magnitude (a.u.)       :      1.66325
Magnitude (Debye)      :      4.22765

                             ****ORCA TERMINATED NORMALLY****
TOTAL RUN TIME: 0 days 0 hours 11 minutes 36 seconds 717 msec
