                         Program Version 3.0.3 - RELEASE   -
|  1> ! RI-MP2 RIJK def2-TZVP def2-TZVP/C def2-TZVP/JK TIGHTSCF
|  2> % maxcore 2000
|  3> % mp2 density relaxed end
|  4> *xyz 0 1
|  5>  C        0.8283586845     1.4530726006     0.6381616837
|  6>  C        0.1820391724     0.1469662698     0.2157680252
|  7>  O        0.8168167076    -0.2763170951    -1.0008737446
|  8>  C        0.3778918803    -1.4399253726    -1.5324334865
|  9>  N       -0.5517310175    -2.1144860429    -1.0047000265
| 10>  C        1.1978537902    -1.7330322179    -2.7783370305
| 11>  C        0.6243372269    -2.7387810617    -3.7717200882
| 12>  C        1.1245710038    -2.5979608181    -5.1955757550
| 13>  O       -0.1555826399    -3.6092163293    -3.4562831599
| 14>  H        1.9006283780     1.3219190334     0.8106238981
| 15>  H        0.6962245704     2.2218394796    -0.1288513052
| 16>  H        0.3719099048     1.8108556341     1.5659164063
| 17>  H        0.3012438633    -0.6358517472     0.9723342556
| 18>  H       -0.8927996143     0.2576492818     0.0383594477
| 19>  H       -0.7274009289    -2.9488030201    -1.5628634884
| 20>  H        1.4284319541    -0.7911117631    -3.2855419626
| 21>  H        2.1743737074    -2.1298348502    -2.4624182335
| 22>  H        2.2165288992    -2.5145357965    -5.2190020762
| 23>  H        0.7984708245    -3.4509705988    -5.7913121320
| 24>  H        0.7267496133    -1.6744624456    -5.6330985273
| 25> *
| 26>
| 27>                          ****END OF INPUT****

CARTESIAN COORDINATES (ANGSTROEM)
---------------------------------
  C      0.828359    1.453073    0.638162
  C      0.182039    0.146966    0.215768
  O      0.816817   -0.276317   -1.000874
  C      0.377892   -1.439925   -1.532433
  N     -0.551731   -2.114486   -1.004700
  C      1.197854   -1.733032   -2.778337
  C      0.624337   -2.738781   -3.771720
  C      1.124571   -2.597961   -5.195576
  O     -0.155583   -3.609216   -3.456283
  H      1.900628    1.321919    0.810624
  H      0.696225    2.221839   -0.128851
  H      0.371910    1.810856    1.565916
  H      0.301244   -0.635852    0.972334
  H     -0.892800    0.257649    0.038359
  H     -0.727401   -2.948803   -1.562863
  H      1.428432   -0.791112   -3.285542
  H      2.174374   -2.129835   -2.462418
  H      2.216529   -2.514536   -5.219002
  H      0.798471   -3.450971   -5.791312
  H      0.726750   -1.674462   -5.633099

 Total Charge           Charge          ....    0
 Multiplicity           Mult            ....    1
 Number of Electrons    NEL             ....   70
 Basis Dimension        Dim             ....  345

ORBITAL ENERGIES
----------------

  NO   OCC          E(Eh)            E(eV)
   0   2.0000     -20.583534      -560.1064
   1   2.0000     -20.560365      -559.4760
   2   2.0000     -15.522983      -422.4018
   3   2.0000     -11.350866      -308.8728
   4   2.0000     -11.336368      -308.4783
   5   2.0000     -11.275949      -306.8342
   6   2.0000     -11.262207      -306.4602
   7   2.0000     -11.247429      -306.0581
   8   2.0000     -11.218163      -305.2617
   9   2.0000      -1.420302       -38.6484
  10   2.0000      -1.405579       -38.2477
  11   2.0000      -1.189141       -32.3582
  12   2.0000      -1.066881       -29.0313
  13   2.0000      -1.027924       -27.9712
  14   2.0000      -0.987356       -26.8673
  15   2.0000      -0.864702       -23.5297
  16   2.0000      -0.786543       -21.4029
  17   2.0000      -0.757115       -20.6022
  18   2.0000      -0.679218       -18.4824
  19   2.0000      -0.674098       -18.3431
  20   2.0000      -0.668252       -18.1841
  21   2.0000      -0.655598       -17.8397
  22   2.0000      -0.639307       -17.3964
  23   2.0000      -0.606957       -16.5161
  24   2.0000      -0.587520       -15.9872
  25   2.0000      -0.573605       -15.6086
  26   2.0000      -0.554548       -15.0900
  27   2.0000      -0.546026       -14.8581
  28   2.0000      -0.536524       -14.5996
  29   2.0000      -0.506651       -13.7867
  30   2.0000      -0.499796       -13.6001
  31   2.0000      -0.475641       -12.9428
  32   2.0000      -0.445269       -12.1164
  33   2.0000      -0.411587       -11.1998
  34   2.0000      -0.396324       -10.7845
  35   0.0000       0.115041         3.1304
  36   0.0000       0.131967         3.5910
  37   0.0000       0.146416         3.9842
  38   0.0000       0.169375         4.6089
  39   0.0000       0.183604         4.9961

MULLIKEN ATOMIC CHARGES
-----------------------
   0 C :   -0.355181
   1 C :   -0.048609
   2 O :   -0.264076
   3 C :    0.162866
   4 N :   -0.400230
   5 C :   -0.245785
   6 C :    0.241701
   7 C :   -0.413290
   8 O :   -0.311568
   9 H :    0.127519
  10 H :    0.127392
  11 H :    0.128443
  12 H :    0.117850
  13 H :    0.118526
  14 H :    0.243064
  15 H :    0.156596
  16 H :    0.156989
  17 H :    0.147488
  18 H :    0.157018
  19 H :    0.153288
Sum of atomic charges:   -0.0000000

LOEWDIN ATOMIC CHARGES
----------------------
   0 C :   -0.318828
   1 C :   -0.312534
   2 O :    0.238327
   3 C :   -0.419862
   4 N :   -0.052281
   5 C :   -0.209236
   6 C :   -0.338267
   7 C :   -0.276770
   8 O :    0.145596
   9 H :    0.123121
  10 H :    0.123073
  11 H :    0.126936
  12 H :    0.127454
  13 H :    0.127604
  14 H :    0.169683
  15 H :    0.161108
  16 H :    0.172459
  17 H :    0.136906
  18 H :    0.134603
  19 H :    0.140908

  Mayer bond orders larger than 0.1
B(  0-C ,  1-C ) :   0.9321 B(  0-C ,  9-H ) :   0.9342 B(  0-C , 10-H ) :   0.9344
B(  0-C , 11-H ) :   0.9366 B(  1-C ,  2-O ) :   0.8427 B(  1-C , 12-H ) :   0.9336
B(  1-C , 13-H ) :   0.9327 B(  2-O ,  3-C ) :   1.1034 B(  3-C ,  4-N ) :   1.9136
B(  3-C ,  5-C ) :   0.9300 B(  4-N , 14-H ) :   0.8491 B(  5-C ,  6-C ) :   0.8935
B(  5-C , 15-H ) :   0.9213 B(  5-C , 16-H ) :   0.8598 B(  6-C ,  7-C ) :   0.9228
B(  6-C ,  8-O ) :   1.9146 B(  7-C , 17-H ) :   0.9171 B(  7-C , 18-H ) :   0.9361
B(  7-C , 19-H ) :   0.9138

MP2 TOTAL ENERGY:     -439.589907350 Eh
FINAL SINGLE POINT ENERGY      -439.589907350381

DIPOLE MOMENT
-------------
                                X             Y             Z
Electronic contribution:     -2.36798      -5.97857      -1.67862
Nuclear contribution   :      3.31514       6.62687       0.99396
                        -----------------------------------------
Total Dipole Moment    :      0.94716       0.64830      -0.68467
                        -----------------------------------------
Magnitude (a.u.)       :      1.33648
Magnitude (Debye)      :      3.39705

                             ****ORCA TERMINATED NORMALLY****
TOTAL RUN TIME: 0 days 0 hours 15 minutes 58 seconds 100 msec
