                         Program Version 3.0.3 - RELEASE   -
|  1> ! RI-MP2 RIJK def2-TZVP def2-TZVP/C def2-TZVP/JK TIGHTSCF
|  2> % maxcore 2000
|  3> % mp2 density relaxed end
|  4> *xyz 0 1
|  5>  O       -0.2941539867     1.3227010733     0.5759993401
|  6>  C       -0.1121426310    -0.0246351571     0.2446250840
|  7>  C        0.8464639005    -0.2596901712    -0.8874717599
|  8>  C        1.2332424823    -0.6526686758     0.5223841548
|  9>  C       -1.3399882878    -0.8839002849     0.3471005437
| 10>  C       -2.3941264794    -0.6427799392     1.3949080403
| 11>  N       -2.6512497983    -0.3662838438     0.0014972316
| 12>  C       -2.9540120359     0.8991653687    -0.4835893760
| 13>  O       -3.7109554430     1.6693990259     0.0528079005
| 14>  H       -0.3598202304     1.3999829623     1.5343352921
| 15>  H        0.6214916640    -1.0438195687    -1.6018145590
| 16>  H        1.3137281905     0.6237741278    -1.3056752684
| 17>  H        1.9602951355    -0.0297432332     1.0308072644
| 18>  H        1.2758217368    -1.7060705193     0.7780297251
| 19>  H       -1.1724693755    -1.9143254401     0.0353483083
| 20>  H       -2.9251988935    -1.4845017164     1.8307549908
| 21>  H       -2.2930173979     0.2226415171     2.0454996838
| 22>  H       -2.4902637402     1.0829736445    -1.4694906861
| 23> *
| 24>
| 25>                          ****END OF INPUT****

CARTESIAN COORDINATES (ANGSTROEM)
---------------------------------
  O     -0.294154    1.322701    0.575999
  C     -0.112143   -0.024635    0.244625
  C      0.846464   -0.259690   -0.887472
  C      1.233242   -0.652669    0.522384
  C     -1.339988   -0.883900    0.347101
  C     -2.394126   -0.642780    1.394908
  N     -2.651250   -0.366284    0.001497
  C     -2.954012    0.899165   -0.483589
  O     -3.710955    1.669399    0.052808
  H     -0.359820    1.399983    1.534335
  H      0.621492   -1.043820   -1.601815
  H      1.313728    0.623774   -1.305675
  H      1.960295   -0.029743    1.030807
  H      1.275822   -1.706071    0.778030
  H     -1.172469   -1.914325    0.035348
  H     -2.925199   -1.484502    1.830755
  H     -2.293017    0.222642    2.045500
  H     -2.490264    1.082974   -1.469491

 Total Charge           Charge          ....    0
 Multiplicity           Mult            ....    1
 Number of Electrons    NEL             ....   68
 Basis Dimension        Dim             ....  333

ORBITAL ENERGIES
----------------

  NO   OCC          E(Eh)            E(eV)
   0   2.0000     -20.582796      -560.0864
   1   2.0000     -20.531311      -558.6854
   2   2.0000     -15.585557      -424.1046
   3   2.0000     -11.347367      -308.7776
   4   2.0000     -11.311408      -307.7991
   5   2.0000     -11.294642      -307.3428
   6   2.0000     -11.277832      -306.8854
   7   2.0000     -11.245883      -306.0160
   8   2.0000     -11.242848      -305.9334
   9   2.0000      -1.399769       -38.0897
  10   2.0000      -1.387175       -37.7470
  11   2.0000      -1.294466       -35.2242
  12   2.0000      -1.150035       -31.2940
  13   2.0000      -0.994724       -27.0678
  14   2.0000      -0.906985       -24.6803
  15   2.0000      -0.850240       -23.1362
  16   2.0000      -0.813414       -22.1341
  17   2.0000      -0.779485       -21.2109
  18   2.0000      -0.732254       -19.9256
  19   2.0000      -0.702419       -19.1138
  20   2.0000      -0.675794       -18.3893
  21   2.0000      -0.645684       -17.5700
  22   2.0000      -0.642997       -17.4968
  23   2.0000      -0.617961       -16.8156
  24   2.0000      -0.563571       -15.3355
  25   2.0000      -0.542840       -14.7714
  26   2.0000      -0.537000       -14.6125
  27   2.0000      -0.526346       -14.3226
  28   2.0000      -0.518547       -14.1104
  29   2.0000      -0.508902       -13.8479
  30   2.0000      -0.447422       -12.1750
  31   2.0000      -0.434667       -11.8279
  32   2.0000      -0.415065       -11.2945
  33   2.0000      -0.383236       -10.4284
  34   0.0000       0.128306         3.4914
  35   0.0000       0.141338         3.8460
  36   0.0000       0.161153         4.3852
  37   0.0000       0.166144         4.5210
  38   0.0000       0.171805         4.6751

MULLIKEN ATOMIC CHARGES
-----------------------
   0 O :   -0.469952
   1 C :    0.226858
   2 C :   -0.270764
   3 C :   -0.314546
   4 C :   -0.080106
   5 C :   -0.183735
   6 N :   -0.152420
   7 C :    0.186461
   8 O :   -0.312845
   9 H :    0.329048
  10 H :    0.141027
  11 H :    0.143260
  12 H :    0.143273
  13 H :    0.132361
  14 H :    0.134904
  15 H :    0.137421
  16 H :    0.125101
  17 H :    0.084654
Sum of atomic charges:   -0.0000000

LOEWDIN ATOMIC CHARGES
----------------------
   0 O :    0.050405
   1 C :   -0.364204
   2 C :   -0.196986
   3 C :   -0.207057
   4 C :   -0.204305
   5 C :   -0.214579
   6 N :    0.169659
   7 C :   -0.393322
   8 O :    0.097192
   9 H :    0.184080
  10 H :    0.136504
  11 H :    0.142419
  12 H :    0.138584
  13 H :    0.135228
  14 H :    0.154595
  15 H :    0.129610
  16 H :    0.128507
  17 H :    0.113669

  Mayer bond orders larger than 0.1
B(  0-O ,  1-C ) :   0.9265 B(  0-O ,  9-H ) :   0.8353 B(  1-C ,  2-C ) :   0.8632
B(  1-C ,  3-C ) :   0.8851 B(  1-C ,  4-C ) :   0.9354 B(  2-C ,  3-C ) :   0.9260
B(  2-C , 10-H ) :   0.9284 B(  2-C , 11-H ) :   0.9220 B(  3-C , 12-H ) :   0.9233
B(  3-C , 13-H ) :   0.9176 B(  4-C ,  5-C ) :   0.9321 B(  4-C ,  6-N ) :   0.8939
B(  4-C , 14-H ) :   0.8913 B(  5-C ,  6-N ) :   0.8613 B(  5-C , 15-H ) :   0.9169
B(  5-C , 16-H ) :   0.9227 B(  6-N ,  7-C ) :   1.0271 B(  7-C ,  8-O ) :   1.9651
B(  7-C , 17-H ) :   0.9301

MP2 TOTAL ENERGY:     -438.332280127 Eh
FINAL SINGLE POINT ENERGY      -438.332280126514

DIPOLE MOMENT
-------------
                                X             Y             Z
Electronic contribution:     -5.58599       2.95382      -0.48302
Nuclear contribution   :      6.91244      -4.03625       0.93200
                        -----------------------------------------
Total Dipole Moment    :      1.32644      -1.08243       0.44898
                        -----------------------------------------
Magnitude (a.u.)       :      1.76994
Magnitude (Debye)      :      4.49883

                             ****ORCA TERMINATED NORMALLY****
TOTAL RUN TIME: 0 days 0 hours 17 minutes 33 seconds 704 msec
