                         Program Version 3.0.3 - RELEASE   -
|  1> ! RI-MP2 RIJK def2-TZVP def2-TZVP/C def2-TZVP/JK TIGHTSCF
|  2> % maxcore 2000
|  3> % mp2 density relaxed end
|  4> *xyz 0 1
|  5>  C        0.6268117837     0.8709902741    -0.3154463038
|  6>  O       -0.2932980549     0.2009088613     0.5212642385
|  7>  C        0.2996581143    -0.6305473771     1.4887359937
|  8>  C       -0.8390027846    -1.1695102639     2.3549525867
|  9>  C        1.0640507603    -1.8016793972     0.8359398139
| 10>  O        0.6666626771    -2.3729084459    -0.1532908393
| 11>  N        2.2941225921    -2.0903840754     1.4235914911
| 12>  C        2.5249326088    -2.5952727584     2.7659415077
| 13>  C        2.8238682271    -3.4241773543     1.5493758643
| 14>  H        1.1906834249     0.1722070870    -0.9469627815
| 15>  H        0.0442480649     1.5348383430    -0.9581843611
| 16>  H        1.3377372193     1.4759775168     0.2688217129
| 17>  H        1.0100937026    -0.0553792566     2.1051869037
| 18>  H       -0.4618378392    -1.7696093862     3.1880024084
| 19>  H       -1.4119573672    -0.3318325329     2.7601253476
| 20>  H       -1.5019853700    -1.7870532749     1.7437909833
| 21>  H        3.3328473324    -2.1257063746     3.3204188320
| 22>  H        1.6622975257    -2.8794012162     3.3630404101
| 23>  H        2.1527380723    -4.2448409968     1.3103569128
| 24>  H        3.8542108904    -3.5592205817     1.2336438690
| 25> *
| 26>
| 27>                          ****END OF INPUT****

CARTESIAN COORDINATES (ANGSTROEM)
---------------------------------
  C      0.626812    0.870990   -0.315446
  O     -0.293298    0.200909    0.521264
  C      0.299658   -0.630547    1.488736
  C     -0.839003   -1.169510    2.354953
  C      1.064051   -1.801679    0.835940
  O      0.666663   -2.372908   -0.153291
  N      2.294123   -2.090384    1.423591
  C      2.524933   -2.595273    2.765942
  C      2.823868   -3.424177    1.549376
  H      1.190683    0.172207   -0.946963
  H      0.044248    1.534838   -0.958184
  H      1.337737    1.475978    0.268822
  H      1.010094   -0.055379    2.105187
  H     -0.461838   -1.769609    3.188002
  H     -1.411957   -0.331833    2.760125
  H     -1.501985   -1.787053    1.743791
  H      3.332847   -2.125706    3.320419
  H      1.662298   -2.879401    3.363040
  H      2.152738   -4.244841    1.310357
  H      3.854211   -3.559221    1.233644

 Total Charge           Charge          ....    0
 Multiplicity           Mult            ....    1
 Number of Electrons    NEL             ....   70
 Basis Dimension        Dim             ....  345

ORBITAL ENERGIES
----------------

  NO   OCC          E(Eh)            E(eV)
   0   2.0000     -20.558713      -559.4310
   1   2.0000     -20.534452      -558.7708
   2   2.0000     -15.589500      -424.2119
   3   2.0000     -11.350924      -308.8744
   4   2.0000     -11.296381      -307.3901
   5   2.0000     -11.288159      -307.1664
   6   2.0000     -11.278072      -306.8919
   7   2.0000     -11.266858      -306.5868
   8   2.0000     -11.226622      -305.4919
   9   2.0000      -1.403666       -38.1957
  10   2.0000      -1.373805       -37.3831
  11   2.0000      -1.295462       -35.2513
  12   2.0000      -1.055087       -28.7104
  13   2.0000      -0.985552       -26.8182
  14   2.0000      -0.917532       -24.9673
  15   2.0000      -0.876470       -23.8499
  16   2.0000      -0.850321       -23.1384
  17   2.0000      -0.758060       -20.6279
  18   2.0000      -0.715695       -19.4751
  19   2.0000      -0.692734       -18.8502
  20   2.0000      -0.668485       -18.1904
  21   2.0000      -0.645829       -17.5739
  22   2.0000      -0.636969       -17.3328
  23   2.0000      -0.597419       -16.2566
  24   2.0000      -0.565501       -15.3881
  25   2.0000      -0.557109       -15.1597
  26   2.0000      -0.538770       -14.6607
  27   2.0000      -0.536200       -14.5908
  28   2.0000      -0.514254       -13.9936
  29   2.0000      -0.512419       -13.9436
  30   2.0000      -0.503983       -13.7141
  31   2.0000      -0.475536       -12.9400
  32   2.0000      -0.450197       -12.2505
  33   2.0000      -0.412052       -11.2125
  34   2.0000      -0.399071       -10.8593
  35   0.0000       0.127925         3.4810
  36   0.0000       0.153944         4.1890
  37   0.0000       0.162386         4.4188
  38   0.0000       0.165679         4.5084
  39   0.0000       0.173203         4.7131

MULLIKEN ATOMIC CHARGES
-----------------------
   0 C :   -0.234301
   1 O :   -0.290855
   2 C :    0.095368
   3 C :   -0.386444
   4 C :    0.190324
   5 O :   -0.298249
   6 N :   -0.178888
   7 C :   -0.183180
   8 C :   -0.160402
   9 H :    0.135219
  10 H :    0.140994
  11 H :    0.110778
  12 H :    0.087593
  13 H :    0.111143
  14 H :    0.143734
  15 H :    0.153509
  16 H :    0.139797
  17 H :    0.138003
  18 H :    0.144546
  19 H :    0.141309
Sum of atomic charges:    0.0000000

LOEWDIN ATOMIC CHARGES
----------------------
   0 C :   -0.347759
   1 O :    0.172220
   2 C :   -0.332436
   3 C :   -0.280380
   4 C :   -0.416328
   5 O :    0.140313
   6 N :    0.166422
   7 C :   -0.236125
   8 C :   -0.233862
   9 H :    0.109128
  10 H :    0.114690
  11 H :    0.101753
  12 H :    0.140849
  13 H :    0.121011
  14 H :    0.130310
  15 H :    0.134762
  16 H :    0.127524
  17 H :    0.126146
  18 H :    0.131974
  19 H :    0.129789

  Mayer bond orders larger than 0.1
B(  0-C ,  1-O ) :   0.9094 B(  0-C ,  9-H ) :   0.9319 B(  0-C , 10-H ) :   0.9400
B(  0-C , 11-H ) :   0.9333 B(  1-O ,  2-C ) :   0.9933 B(  2-C ,  3-C ) :   0.8890
B(  2-C ,  4-C ) :   0.8563 B(  2-C , 12-H ) :   0.9416 B(  3-C , 13-H ) :   0.9295
B(  3-C , 14-H ) :   0.9347 B(  3-C , 15-H ) :   0.9372 B(  4-C ,  5-O ) :   2.0047
B(  4-C ,  6-N ) :   1.0261 B(  6-N ,  7-C ) :   0.8496 B(  6-N ,  8-C ) :   0.8723
B(  7-C ,  8-C ) :   0.9314 B(  7-C , 16-H ) :   0.9263 B(  7-C , 17-H ) :   0.9220
B(  8-C , 18-H ) :   0.9265 B(  8-C , 19-H ) :   0.9235

MP2 TOTAL ENERGY:     -439.541694161 Eh
FINAL SINGLE POINT ENERGY      -439.541694160808

DIPOLE MOMENT
-------------
                                X             Y             Z
Electronic contribution:      0.45037      -1.91290      -3.31265
Nuclear contribution   :      0.31372       1.88143       4.49269
                        -----------------------------------------
Total Dipole Moment    :      0.76410      -0.03147       1.18003
                        -----------------------------------------
Magnitude (a.u.)       :      1.40617
Magnitude (Debye)      :      3.57419

                             ****ORCA TERMINATED NORMALLY****
TOTAL RUN TIME: 0 days 0 hours 18 minutes 20 seconds 182 msec
