                         Program Version 3.0.3 - RELEASE   -
|  1> ! RI-MP2 RIJK def2-TZVP def2-TZVP/C def2-TZVP/JK TIGHTSCF
|  2> % maxcore 2000
|  3> % mp2 density relaxed end
|  4> *xyz 0 1
|  5>  O       -0.0303824105    -0.0675592248     0.1142870120
|  6>  C       -0.0268294711     1.1478271897     0.0501831275
|  7>  C       -1.3276734386     1.9506179237    -0.0196224850
|  8>  C       -1.1780155941     3.4140217024     0.3445195510
|  9>  C       -2.3703725527     4.2077105231     0.7187397474
| 10>  N       -1.3718798388     3.8388876515     1.7444243379
| 11>  C        0.0217189455     4.0443077186    -0.3316984379
| 12>  C        1.2844955919     3.3122102783     0.1231650126
| 13>  N        1.1332225349     1.8679481843    -0.0327119538
| 14>  H       -1.6919573604     1.8560389485    -1.0513886769
| 15>  H       -2.0595546790     1.4408512313     0.6136249920
| 16>  H       -2.4164769509     5.2686499564     0.4865131987
| 17>  H       -3.3356722674     3.7070603152     0.7286364643
| 18>  H       -1.7247424195     3.0644414992     2.3020190146
| 19>  H       -0.0849335458     3.9721589873    -1.4209648311
| 20>  H        0.1007965706     5.1011557831    -0.0653048741
| 21>  H        2.1499398307     3.6356688936    -0.4644245454
| 22>  H        1.4813262048     3.5692806934     1.1734067830
| 23>  H        1.9615461004     1.2955155152     0.0516060533
| 24> *
| 25>
| 26>                          ****END OF INPUT****

CARTESIAN COORDINATES (ANGSTROEM)
---------------------------------
  O     -0.030382   -0.067559    0.114287
  C     -0.026829    1.147827    0.050183
  C     -1.327673    1.950618   -0.019622
  C     -1.178016    3.414022    0.344520
  C     -2.370373    4.207711    0.718740
  N     -1.371880    3.838888    1.744424
  C      0.021719    4.044308   -0.331698
  C      1.284496    3.312210    0.123165
  N      1.133223    1.867948   -0.032712
  H     -1.691957    1.856039   -1.051389
  H     -2.059555    1.440851    0.613625
  H     -2.416477    5.268650    0.486513
  H     -3.335672    3.707060    0.728636
  H     -1.724742    3.064441    2.302019
  H     -0.084934    3.972159   -1.420965
  H      0.100797    5.101156   -0.065305
  H      2.149940    3.635669   -0.464425
  H      1.481326    3.569281    1.173407
  H      1.961546    1.295516    0.051606

 Total Charge           Charge          ....    0
 Multiplicity           Mult            ....    1
 Number of Electrons    NEL             ....   68
 Basis Dimension        Dim             ....  339

ORBITAL ENERGIES
----------------

  NO   OCC          E(Eh)            E(eV)
   0   2.0000     -20.511310      -558.1411
   1   2.0000     -15.580984      -423.9801
   2   2.0000     -15.566148      -423.5764
   3   2.0000     -11.348148      -308.7988
   4   2.0000     -11.279836      -306.9400
   5   2.0000     -11.275813      -306.8305
   6   2.0000     -11.265072      -306.5382
   7   2.0000     -11.247809      -306.0685
   8   2.0000     -11.240347      -305.8654
   9   2.0000      -1.377898       -37.4945
  10   2.0000      -1.277571       -34.7645
  11   2.0000      -1.230728       -33.4898
  12   2.0000      -1.053570       -28.6691
  13   2.0000      -1.021751       -27.8033
  14   2.0000      -0.907013       -24.6811
  15   2.0000      -0.879383       -23.9292
  16   2.0000      -0.806824       -21.9548
  17   2.0000      -0.754119       -20.5206
  18   2.0000      -0.706363       -19.2211
  19   2.0000      -0.684002       -18.6126
  20   2.0000      -0.655367       -17.8334
  21   2.0000      -0.634002       -17.2521
  22   2.0000      -0.627438       -17.0735
  23   2.0000      -0.588567       -16.0157
  24   2.0000      -0.578237       -15.7346
  25   2.0000      -0.568506       -15.4698
  26   2.0000      -0.546068       -14.8593
  27   2.0000      -0.508372       -13.8335
  28   2.0000      -0.498392       -13.5619
  29   2.0000      -0.479323       -13.0430
  30   2.0000      -0.469206       -12.7677
  31   2.0000      -0.424889       -11.5618
  32   2.0000      -0.392379       -10.6772
  33   2.0000      -0.386543       -10.5184
  34   0.0000       0.123525         3.3613
  35   0.0000       0.146244         3.9795
  36   0.0000       0.151622         4.1259
  37   0.0000       0.163378         4.4457
  38   0.0000       0.170780         4.6472

MULLIKEN ATOMIC CHARGES
-----------------------
   0 O :   -0.349805
   1 C :    0.189149
   2 C :   -0.206359
   3 C :    0.106313
   4 C :   -0.201402
   5 N :   -0.393044
   6 C :   -0.214160
   7 C :   -0.130535
   8 N :   -0.294273
   9 H :    0.139374
  10 H :    0.130003
  11 H :    0.122697
  12 H :    0.131032
  13 H :    0.220420
  14 H :    0.116873
  15 H :    0.132617
  16 H :    0.131652
  17 H :    0.131616
  18 H :    0.237832
Sum of atomic charges:   -0.0000000

LOEWDIN ATOMIC CHARGES
----------------------
   0 O :    0.074337
   1 C :   -0.453552
   2 C :   -0.188559
   3 C :   -0.316514
   4 C :   -0.240568
   5 N :    0.003842
   6 C :   -0.215760
   7 C :   -0.270107
   8 N :    0.112301
   9 H :    0.163562
  10 H :    0.155957
  11 H :    0.126985
  12 H :    0.124791
  13 H :    0.166468
  14 H :    0.146442
  15 H :    0.151346
  16 H :    0.133728
  17 H :    0.135437
  18 H :    0.189863

  Mayer bond orders larger than 0.1
B(  0-O ,  1-C ) :   1.9943 B(  1-C ,  2-C ) :   0.9349 B(  1-C ,  8-N ) :   1.1812
B(  2-C ,  3-C ) :   0.9307 B(  2-C ,  9-H ) :   0.9087 B(  2-C , 10-H ) :   0.9071
B(  3-C ,  4-C ) :   0.9307 B(  3-C ,  5-N ) :   0.8426 B(  3-C ,  6-C ) :   0.8977
B(  4-C ,  5-N ) :   0.9654 B(  4-C , 11-H ) :   0.9069 B(  4-C , 12-H ) :   0.9222
B(  5-N , 13-H ) :   0.8673 B(  6-C ,  7-C ) :   0.9586 B(  6-C , 14-H ) :   0.9280
B(  6-C , 15-H ) :   0.9195 B(  7-C ,  8-N ) :   0.8688 B(  7-C , 16-H ) :   0.9276
B(  7-C , 17-H ) :   0.9326 B(  8-N , 18-H ) :   0.8593

MP2 TOTAL ENERGY:     -418.528643094 Eh
FINAL SINGLE POINT ENERGY      -418.528643093867

DIPOLE MOMENT
-------------
                                X             Y             Z
Electronic contribution:      1.33803      -5.22683       0.37071
Nuclear contribution   :     -1.34476       6.36230      -0.67472
                        -----------------------------------------
Total Dipole Moment    :     -0.00674       1.13547      -0.30400
                        -----------------------------------------
Magnitude (a.u.)       :      1.17548
Magnitude (Debye)      :      2.98784

                             ****ORCA TERMINATED NORMALLY****
TOTAL RUN TIME: 0 days 0 hours 17 minutes 28 seconds 770 msec
