                         Program Version 3.0.3 - RELEASE   -
|  1> ! RI-MP2 RIJK def2-TZVP def2-TZVP/C def2-TZVP/JK TIGHTSCF
|  2> % maxcore 2000
|  3> % mp2 density relaxed end
|  4> *xyz 0 1
|  5>  C       -0.0297258558     1.6115190338     0.0042890185
|  6>  C        0.0079125464     0.0814066820    -0.0170609642
|  7>  C       -1.3936302778    -0.5335178590     0.0535765934
|  8>  C       -1.3681381530    -2.0658517606     0.0352400168
|  9>  O       -0.6890611064    -2.5068048597     1.2088981656
| 10>  C       -0.2869249408    -3.8036820042     1.2357272079
| 11>  N        0.3336981143    -4.2336851903     2.2418413114
| 12>  C       -2.7334112080    -2.6258525448    -0.0199668931
| 13>  N       -3.8003046641    -3.0654491649    -0.0754344055
| 14>  H        0.9797431792     2.0293415348    -0.0480093992
| 15>  H       -0.6003617630     2.0088260199    -0.8423088897
| 16>  H       -0.4965679799     1.9828985275     0.9228293120
| 17>  H        0.5077918220    -0.2623858959    -0.9325638110
| 18>  H        0.6037377884    -0.2908837983     0.8220646120
| 19>  H       -1.9085943913    -0.2139210773     0.9661414212
| 20>  H       -2.0037380941    -0.1979447552    -0.7927845875
| 21>  H       -0.8301227872    -2.4134506836    -0.8585557410
| 22>  H       -0.5572225081    -4.3673866662     0.3335985564
| 23>  H        0.5712999592    -5.2153918878     2.1162716458
| 24> *
| 25>
| 26>                          ****END OF INPUT****

CARTESIAN COORDINATES (ANGSTROEM)
---------------------------------
  C     -0.029726    1.611519    0.004289
  C      0.007913    0.081407   -0.017061
  C     -1.393630   -0.533518    0.053577
  C     -1.368138   -2.065852    0.035240
  O     -0.689061   -2.506805    1.208898
  C     -0.286925   -3.803682    1.235727
  N      0.333698   -4.233685    2.241841
  C     -2.733411   -2.625853   -0.019967
  N     -3.800305   -3.065449   -0.075434
  H      0.979743    2.029342   -0.048009
  H     -0.600362    2.008826   -0.842309
  H     -0.496568    1.982899    0.922829
  H      0.507792   -0.262386   -0.932564
  H      0.603738   -0.290884    0.822065
  H     -1.908594   -0.213921    0.966141
  H     -2.003738   -0.197945   -0.792785
  H     -0.830123   -2.413451   -0.858556
  H     -0.557223   -4.367387    0.333599
  H      0.571300   -5.215392    2.116272

 Total Charge           Charge          ....    0
 Multiplicity           Mult            ....    1
 Number of Electrons    NEL             ....   68
 Basis Dimension        Dim             ....  339

ORBITAL ENERGIES
----------------

  NO   OCC          E(Eh)            E(eV)
   0   2.0000     -20.618887      -561.0684
   1   2.0000     -15.590412      -424.2367
   2   2.0000     -15.557328      -423.3364
   3   2.0000     -11.360531      -309.1358
   4   2.0000     -11.355056      -308.9868
   5   2.0000     -11.286658      -307.1256
   6   2.0000     -11.257894      -306.3429
   7   2.0000     -11.240699      -305.8750
   8   2.0000     -11.228106      -305.5323
   9   2.0000      -1.454978       -39.5920
  10   2.0000      -1.237214       -33.6663
  11   2.0000      -1.217386       -33.1268
  12   2.0000      -1.107928       -30.1483
  13   2.0000      -1.030434       -28.0395
  14   2.0000      -0.920380       -25.0448
  15   2.0000      -0.860555       -23.4169
  16   2.0000      -0.826815       -22.4988
  17   2.0000      -0.764320       -20.7982
  18   2.0000      -0.735174       -20.0051
  19   2.0000      -0.691181       -18.8080
  20   2.0000      -0.643394       -17.5076
  21   2.0000      -0.627221       -17.0676
  22   2.0000      -0.599417       -16.3110
  23   2.0000      -0.582874       -15.8608
  24   2.0000      -0.568002       -15.4561
  25   2.0000      -0.564020       -15.3478
  26   2.0000      -0.547210       -14.8904
  27   2.0000      -0.518010       -14.0958
  28   2.0000      -0.500108       -13.6086
  29   2.0000      -0.492837       -13.4108
  30   2.0000      -0.483256       -13.1501
  31   2.0000      -0.470514       -12.8033
  32   2.0000      -0.452380       -12.3099
  33   2.0000      -0.425090       -11.5673
  34   0.0000       0.114822         3.1245
  35   0.0000       0.131502         3.5783
  36   0.0000       0.136738         3.7208
  37   0.0000       0.147248         4.0068
  38   0.0000       0.161794         4.4026

MULLIKEN ATOMIC CHARGES
-----------------------
   0 C :   -0.389923
   1 C :   -0.209478
   2 C :   -0.236781
   3 C :    0.112664
   4 O :   -0.204691
   5 C :    0.064306
   6 N :   -0.331038
   7 C :   -0.160568
   8 N :   -0.040355
   9 H :    0.140982
  10 H :    0.124497
  11 H :    0.132058
  12 H :    0.102828
  13 H :    0.147549
  14 H :    0.139460
  15 H :    0.135984
  16 H :    0.139240
  17 H :    0.101045
  18 H :    0.232220
Sum of atomic charges:    0.0000000

LOEWDIN ATOMIC CHARGES
----------------------
   0 C :   -0.315592
   1 C :   -0.289601
   2 C :   -0.229189
   3 C :   -0.304322
   4 O :    0.271168
   5 C :   -0.385059
   6 N :   -0.063364
   7 C :   -0.167167
   8 N :    0.079179
   9 H :    0.124085
  10 H :    0.121196
  11 H :    0.123762
  12 H :    0.135825
  13 H :    0.143879
  14 H :    0.153139
  15 H :    0.151807
  16 H :    0.163289
  17 H :    0.114368
  18 H :    0.172596

  Mayer bond orders larger than 0.1
B(  0-C ,  1-C ) :   0.9213 B(  0-C ,  9-H ) :   0.9422 B(  0-C , 10-H ) :   0.9375
B(  0-C , 11-H ) :   0.9393 B(  1-C ,  2-C ) :   0.9239 B(  1-C , 12-H ) :   0.9262
B(  1-C , 13-H ) :   0.9339 B(  2-C ,  3-C ) :   0.9263 B(  2-C , 14-H ) :   0.9173
B(  2-C , 15-H ) :   0.9223 B(  3-C ,  4-O ) :   0.8977 B(  3-C ,  7-C ) :   0.9020
B(  3-C , 16-H ) :   0.9309 B(  4-O ,  5-C ) :   1.0165 B(  5-C ,  6-N ) :   1.9669
B(  5-C , 17-H ) :   0.9206 B(  6-N , 18-H ) :   0.8473 B(  7-C ,  8-N ) :   2.8622

MP2 TOTAL ENERGY:     -418.507373062 Eh
FINAL SINGLE POINT ENERGY      -418.507373061930

DIPOLE MOMENT
-------------
                                X             Y             Z
Electronic contribution:     -5.46357     -10.77686       2.29746
Nuclear contribution   :      6.38939      11.11822      -3.37661
                        -----------------------------------------
Total Dipole Moment    :      0.92583       0.34135      -1.07916
                        -----------------------------------------
Magnitude (a.u.)       :      1.46228
Magnitude (Debye)      :      3.71682

                             ****ORCA TERMINATED NORMALLY****
TOTAL RUN TIME: 0 days 0 hours 16 minutes 7 seconds 156 msec
