                         Program Version 3.0.3 - RELEASE   -
|  1> ! RI-MP2 RIJK def2-TZVP def2-TZVP/C def2-TZVP/JK TIGHTSCF
|  2> % maxcore 2000
|  3> % mp2 density relaxed end
|  4> *xyz 0 1
|  5>  C       -0.0594536277     1.5195306353     0.0879416685
|  6>  C        0.0349074359     0.0024326267    -0.0564712047
|  7>  C        0.7524485427    -0.4426766343    -1.3097407614
|  8>  N        1.2232287913     0.3938701542    -2.1478282001
|  9>  N        0.8535132835    -1.8291044926    -1.4679377447
| 10>  C        1.4749431639    -2.6144764051    -2.5473934743
| 11>  C        1.0499375949    -3.8980736192    -1.7825170396
| 12>  C        0.4445746545    -2.9478072447    -0.7333191467
| 13>  O       -0.1453606541    -3.0594414173     0.3043626007
| 14>  H        0.9329502611     1.9754530203     0.1164183146
| 15>  H       -0.5954809251     1.9632764618    -0.7542630944
| 16>  H       -0.5875617655     1.7738910689     1.0114325944
| 17>  H        0.5438852556    -0.4448438001     0.8056862371
| 18>  H       -0.9608225394    -0.4568367826    -0.0515421952
| 19>  H        1.6761758820    -0.0712548389    -2.9364909398
| 20>  H        0.9986685887    -2.4678330305    -3.5210974981
| 21>  H        2.5534855374    -2.4549241541    -2.6353756108
| 22>  H        0.3171269451    -4.5288534647    -2.2880808012
| 23>  H        1.8664086952    -4.5160712432    -1.4057684344
| 24> *
| 25>
| 26>                          ****END OF INPUT****

CARTESIAN COORDINATES (ANGSTROEM)
---------------------------------
  C     -0.059454    1.519531    0.087942
  C      0.034907    0.002433   -0.056471
  C      0.752449   -0.442677   -1.309741
  N      1.223229    0.393870   -2.147828
  N      0.853513   -1.829104   -1.467938
  C      1.474943   -2.614476   -2.547393
  C      1.049938   -3.898074   -1.782517
  C      0.444575   -2.947807   -0.733319
  O     -0.145361   -3.059441    0.304363
  H      0.932950    1.975453    0.116418
  H     -0.595481    1.963276   -0.754263
  H     -0.587562    1.773891    1.011433
  H      0.543885   -0.444844    0.805686
  H     -0.960823   -0.456837   -0.051542
  H      1.676176   -0.071255   -2.936491
  H      0.998669   -2.467833   -3.521097
  H      2.553486   -2.454924   -2.635376
  H      0.317127   -4.528853   -2.288081
  H      1.866409   -4.516071   -1.405768

 Total Charge           Charge          ....    0
 Multiplicity           Mult            ....    1
 Number of Electrons    NEL             ....   68
 Basis Dimension        Dim             ....  339

ORBITAL ENERGIES
----------------

  NO   OCC          E(Eh)            E(eV)
   0   2.0000     -20.549389      -559.1773
   1   2.0000     -15.611730      -424.8168
   2   2.0000     -15.537853      -422.8065
   3   2.0000     -11.374346      -309.5117
   4   2.0000     -11.326255      -308.2031
   5   2.0000     -11.297888      -307.4311
   6   2.0000     -11.266749      -306.5838
   7   2.0000     -11.231327      -305.6199
   8   2.0000     -11.207416      -304.9693
   9   2.0000      -1.412501       -38.4361
  10   2.0000      -1.312514       -35.7153
  11   2.0000      -1.204547       -32.7774
  12   2.0000      -1.054359       -28.6906
  13   2.0000      -1.023976       -27.8638
  14   2.0000      -0.919520       -25.0214
  15   2.0000      -0.888675       -24.1821
  16   2.0000      -0.819770       -22.3071
  17   2.0000      -0.729009       -19.8373
  18   2.0000      -0.699374       -19.0309
  19   2.0000      -0.698492       -19.0069
  20   2.0000      -0.673719       -18.3328
  21   2.0000      -0.618702       -16.8357
  22   2.0000      -0.608086       -16.5469
  23   2.0000      -0.577310       -15.7094
  24   2.0000      -0.570316       -15.5191
  25   2.0000      -0.557787       -15.1782
  26   2.0000      -0.546192       -14.8626
  27   2.0000      -0.510433       -13.8896
  28   2.0000      -0.502210       -13.6658
  29   2.0000      -0.501710       -13.6522
  30   2.0000      -0.466508       -12.6943
  31   2.0000      -0.457711       -12.4549
  32   2.0000      -0.419879       -11.4255
  33   2.0000      -0.378919       -10.3109
  34   0.0000       0.119436         3.2500
  35   0.0000       0.131207         3.5703
  36   0.0000       0.145982         3.9724
  37   0.0000       0.152584         4.1520
  38   0.0000       0.180685         4.9167

MULLIKEN ATOMIC CHARGES
-----------------------
   0 C :   -0.348490
   1 C :   -0.183363
   2 C :    0.066505
   3 N :   -0.371096
   4 N :   -0.054739
   5 C :   -0.199408
   6 C :   -0.220138
   7 C :    0.178090
   8 O :   -0.302429
   9 H :    0.130914
  10 H :    0.130910
  11 H :    0.130602
  12 H :    0.136830
  13 H :    0.136810
  14 H :    0.202482
  15 H :    0.138299
  16 H :    0.138289
  17 H :    0.144967
  18 H :    0.144964
Sum of atomic charges:    0.0000000

LOEWDIN ATOMIC CHARGES
----------------------
   0 C :   -0.307329
   1 C :   -0.249844
   2 C :   -0.333170
   3 N :   -0.042843
   4 N :    0.234949
   5 C :   -0.219835
   6 C :   -0.196907
   7 C :   -0.396684
   8 O :    0.129276
   9 H :    0.126208
  10 H :    0.126207
  11 H :    0.121087
  12 H :    0.153311
  13 H :    0.153309
  14 H :    0.157093
  15 H :    0.128150
  16 H :    0.128152
  17 H :    0.144436
  18 H :    0.144435

  Mayer bond orders larger than 0.1
B(  0-C ,  1-C ) :   0.9280 B(  0-C ,  9-H ) :   0.9349 B(  0-C , 10-H ) :   0.9349
B(  0-C , 11-H ) :   0.9384 B(  1-C ,  2-C ) :   0.9395 B(  1-C , 12-H ) :   0.9171
B(  1-C , 13-H ) :   0.9171 B(  2-C ,  3-N ) :   1.9617 B(  2-C ,  4-N ) :   1.0280
B(  3-N , 14-H ) :   0.8676 B(  4-N ,  5-C ) :   0.8761 B(  4-N ,  7-C ) :   1.0258
B(  5-C ,  6-C ) :   0.9472 B(  5-C , 15-H ) :   0.9179 B(  5-C , 16-H ) :   0.9179
B(  6-C ,  7-C ) :   0.9440 B(  6-C , 17-H ) :   0.9109 B(  6-C , 18-H ) :   0.9109
B(  7-C ,  8-O ) :   1.9782

MP2 TOTAL ENERGY:     -418.530485640 Eh
FINAL SINGLE POINT ENERGY      -418.530485639515

DIPOLE MOMENT
-------------
                                X             Y             Z
Electronic contribution:     -0.00198      -5.41285       0.08020
Nuclear contribution   :      0.52290       4.63859      -0.98404
                        -----------------------------------------
Total Dipole Moment    :      0.52092      -0.77426      -0.90384
                        -----------------------------------------
Magnitude (a.u.)       :      1.29914
Magnitude (Debye)      :      3.30216

                             ****ORCA TERMINATED NORMALLY****
TOTAL RUN TIME: 0 days 0 hours 17 minutes 35 seconds 163 msec
