                         Program Version 3.0.3 - RELEASE   -
|  1> ! RI-MP2 RIJK def2-TZVP def2-TZVP/C def2-TZVP/JK TIGHTSCF
|  2> % maxcore 2000
|  3> % mp2 density relaxed end
|  4> *xyz 0 1
|  5>  C        0.3471747444    -0.1598335597    -1.1579178051
|  6>  C        0.1751629636     0.5522160548    -0.2047796039
|  7>  C        0.0239184718     1.4181280160     0.9672246194
|  8>  N        1.2251956843     2.1954113637     1.3110227551
|  9>  C        1.5694500303     3.2559217767     0.4826647414
| 10>  C        2.7548822739     3.7033587464    -0.0212467945
| 11>  C        2.4488174087     4.9306983057    -0.7031490533
| 12>  C        1.1150826051     5.1230144692    -0.5757476805
| 13>  O        0.5614201919     4.1036333194     0.1605063738
| 14>  H        0.4862358201    -0.7830012986    -2.0065240235
| 15>  H       -0.7938552728     2.1266052509     0.8113940190
| 16>  H       -0.2434378949     0.8157753034     1.8419661902
| 17>  H        2.0246148602     1.5961756553     1.4700352513
| 18>  H        3.7149445262     3.2214116797     0.0694517554
| 19>  H        3.1398579169     5.5715060147    -1.2283435019
| 20>  H        0.4223075505     5.8689154923    -0.9248726231
| 21> *
| 22>
| 23>                          ****END OF INPUT****

CARTESIAN COORDINATES (ANGSTROEM)
---------------------------------
  C      0.347175   -0.159834   -1.157918
  C      0.175163    0.552216   -0.204780
  C      0.023918    1.418128    0.967225
  N      1.225196    2.195411    1.311023
  C      1.569450    3.255922    0.482665
  C      2.754882    3.703359   -0.021247
  C      2.448817    4.930698   -0.703149
  C      1.115083    5.123014   -0.575748
  O      0.561420    4.103633    0.160506
  H      0.486236   -0.783001   -2.006524
  H     -0.793855    2.126605    0.811394
  H     -0.243438    0.815775    1.841966
  H      2.024615    1.596176    1.470035
  H      3.714945    3.221412    0.069452
  H      3.139858    5.571506   -1.228344
  H      0.422308    5.868915   -0.924873

 Total Charge           Charge          ....    0
 Multiplicity           Mult            ....    1
 Number of Electrons    NEL             ....   64
 Basis Dimension        Dim             ....  321

ORBITAL ENERGIES
----------------

  NO   OCC          E(Eh)            E(eV)
   0   2.0000     -20.615802      -560.9845
   1   2.0000     -15.583150      -424.0391
   2   2.0000     -11.324772      -308.1627
   3   2.0000     -11.294785      -307.3467
   4   2.0000     -11.273523      -306.7682
   5   2.0000     -11.238725      -305.8213
   6   2.0000     -11.230470      -305.5966
   7   2.0000     -11.226165      -305.4795
   8   2.0000     -11.212546      -305.1089
   9   2.0000      -1.458727       -39.6940
  10   2.0000      -1.244198       -33.8564
  11   2.0000      -1.079092       -29.3636
  12   2.0000      -1.053273       -28.6610
  13   2.0000      -0.989397       -26.9229
  14   2.0000      -0.932173       -25.3657
  15   2.0000      -0.816007       -22.2047
  16   2.0000      -0.767713       -20.8905
  17   2.0000      -0.737948       -20.0806
  18   2.0000      -0.732439       -19.9307
  19   2.0000      -0.669018       -18.2049
  20   2.0000      -0.657193       -17.8831
  21   2.0000      -0.636925       -17.3316
  22   2.0000      -0.616633       -16.7794
  23   2.0000      -0.577506       -15.7147
  24   2.0000      -0.571226       -15.5439
  25   2.0000      -0.555637       -15.1197
  26   2.0000      -0.542092       -14.7511
  27   2.0000      -0.462839       -12.5945
  28   2.0000      -0.401233       -10.9181
  29   2.0000      -0.395301       -10.7567
  30   2.0000      -0.391767       -10.6605
  31   2.0000      -0.286807        -7.8044
  32   0.0000       0.133808         3.6411
  33   0.0000       0.154052         4.1920
  34   0.0000       0.166369         4.5271
  35   0.0000       0.169966         4.6250
  36   0.0000       0.173884         4.7316

MULLIKEN ATOMIC CHARGES
-----------------------
   0 C :   -0.187778
   1 C :   -0.043878
   2 C :   -0.189090
   3 N :   -0.309432
   4 C :    0.286477
   5 C :   -0.294934
   6 C :   -0.146484
   7 C :   -0.051512
   8 O :   -0.238198
   9 H :    0.191550
  10 H :    0.170298
  11 H :    0.162107
  12 H :    0.229837
  13 H :    0.137952
  14 H :    0.136782
  15 H :    0.146304
Sum of atomic charges:   -0.0000000

LOEWDIN ATOMIC CHARGES
----------------------
   0 C :   -0.095574
   1 C :   -0.117470
   2 C :   -0.273768
   3 N :    0.067826
   4 C :   -0.336133
   5 C :   -0.190298
   6 C :   -0.195617
   7 C :   -0.247206
   8 O :    0.344842
   9 H :    0.127628
  10 H :    0.158163
  11 H :    0.152140
  12 H :    0.191536
  13 H :    0.140754
  14 H :    0.142571
  15 H :    0.130606

  Mayer bond orders larger than 0.1
B(  0-C ,  1-C ) :   2.6740 B(  0-C ,  9-H ) :   0.9104 B(  1-C ,  2-C ) :   0.9570
B(  2-C ,  3-N ) :   0.9078 B(  2-C , 10-H ) :   0.9427 B(  2-C , 11-H ) :   0.9524
B(  3-N ,  4-C ) :   1.1258 B(  3-N , 12-H ) :   0.8799 B(  4-C ,  5-C ) :   1.5213
B(  4-C ,  8-O ) :   1.0326 B(  5-C ,  6-C ) :   1.1900 B(  5-C , 13-H ) :   0.9148
B(  6-C ,  7-C ) :   1.5865 B(  6-C , 14-H ) :   0.9243 B(  7-C ,  8-O ) :   1.0087
B(  7-C , 15-H ) :   0.9342

MP2 TOTAL ENERGY:     -400.019098004 Eh
FINAL SINGLE POINT ENERGY      -400.019098003929

DIPOLE MOMENT
-------------
                                X             Y             Z
Electronic contribution:     -0.63861       0.80633       0.22441
Nuclear contribution   :      0.81432      -1.19523      -0.30716
                        -----------------------------------------
Total Dipole Moment    :      0.17571      -0.38889      -0.08276
                        -----------------------------------------
Magnitude (a.u.)       :      0.43470
Magnitude (Debye)      :      1.10491

                             ****ORCA TERMINATED NORMALLY****
TOTAL RUN TIME: 0 days 0 hours 14 minutes 59 seconds 383 msec
