                         Program Version 3.0.3 - RELEASE   -
|  1> ! RI-MP2 RIJK def2-TZVP def2-TZVP/C def2-TZVP/JK TIGHTSCF
|  2> % maxcore 2000
|  3> % mp2 density relaxed end
|  4> *xyz 0 1
|  5>  O       -0.2092280910     1.5751512100     0.1862596335
|  6>  C       -0.0337117012     0.1848172433    -0.0476631445
|  7>  C        0.9462077691    -0.3861745947     0.9558306388
|  8>  C        1.2384188823    -1.6601051196     1.2133412146
|  9>  C        0.7063780218    -2.9125286914     0.5757769567
| 10>  C       -0.6077545799    -2.9139281197    -0.1507308037
| 11>  C       -1.4858070581    -1.9378879729    -0.3860780193
| 12>  C       -1.4204505300    -0.4812270197    -0.0127152920
| 13>  O       -2.0250211505    -0.2155738293     1.2648186663
| 14>  H       -0.8397853675     1.6277287631     0.9182393900
| 15>  H        0.3761217596     0.0982920561    -1.0619749448
| 16>  H        1.4820364372     0.3868362167     1.5015882845
| 17>  H        2.0102122193    -1.8498936033     1.9575325816
| 18>  H        1.4785869503    -3.3043551132    -0.1086842920
| 19>  H        0.6437284816    -3.6921776722     1.3506803037
| 20>  H       -0.8778542955    -3.9056279421    -0.5128143898
| 21>  H       -2.3999951662    -2.2178253395    -0.9046434103
| 22>  H       -2.0424458405     0.0832076254    -0.7151842344
| 23>  H       -1.5605123707    -0.7679211470     1.9056312612
| 24> *
| 25>
| 26>                          ****END OF INPUT****

CARTESIAN COORDINATES (ANGSTROEM)
---------------------------------
  O     -0.209228    1.575151    0.186260
  C     -0.033712    0.184817   -0.047663
  C      0.946208   -0.386175    0.955831
  C      1.238419   -1.660105    1.213341
  C      0.706378   -2.912529    0.575777
  C     -0.607755   -2.913928   -0.150731
  C     -1.485807   -1.937888   -0.386078
  C     -1.420451   -0.481227   -0.012715
  O     -2.025021   -0.215574    1.264819
  H     -0.839785    1.627729    0.918239
  H      0.376122    0.098292   -1.061975
  H      1.482036    0.386836    1.501588
  H      2.010212   -1.849894    1.957533
  H      1.478587   -3.304355   -0.108684
  H      0.643728   -3.692178    1.350680
  H     -0.877854   -3.905628   -0.512814
  H     -2.399995   -2.217825   -0.904643
  H     -2.042446    0.083208   -0.715184
  H     -1.560512   -0.767921    1.905631

 Total Charge           Charge          ....    0
 Multiplicity           Mult            ....    1
 Number of Electrons    NEL             ....   68
 Basis Dimension        Dim             ....  339

ORBITAL ENERGIES
----------------

  NO   OCC          E(Eh)            E(eV)
   0   2.0000     -20.564327      -559.5838
   1   2.0000     -20.549027      -559.1675
   2   2.0000     -11.289922      -307.2144
   3   2.0000     -11.285717      -307.1000
   4   2.0000     -11.249932      -306.1262
   5   2.0000     -11.248753      -306.0941
   6   2.0000     -11.241657      -305.9010
   7   2.0000     -11.235617      -305.7367
   8   2.0000     -11.232905      -305.6629
   9   2.0000      -1.379808       -37.5465
  10   2.0000      -1.347468       -36.6665
  11   2.0000      -1.119401       -30.4604
  12   2.0000      -1.049603       -28.5612
  13   2.0000      -1.021603       -27.7992
  14   2.0000      -0.915882       -24.9224
  15   2.0000      -0.881866       -23.9968
  16   2.0000      -0.764503       -20.8032
  17   2.0000      -0.730426       -19.8759
  18   2.0000      -0.714428       -19.4406
  19   2.0000      -0.666822       -18.1452
  20   2.0000      -0.655309       -17.8319
  21   2.0000      -0.642461       -17.4823
  22   2.0000      -0.604465       -16.4483
  23   2.0000      -0.596707       -16.2372
  24   2.0000      -0.591547       -16.0968
  25   2.0000      -0.566920       -15.4267
  26   2.0000      -0.538463       -14.6523
  27   2.0000      -0.518419       -14.1069
  28   2.0000      -0.515832       -14.0365
  29   2.0000      -0.483506       -13.1569
  30   2.0000      -0.459156       -12.4943
  31   2.0000      -0.435262       -11.8441
  32   2.0000      -0.375308       -10.2127
  33   2.0000      -0.359923        -9.7940
  34   0.0000       0.122752         3.3403
  35   0.0000       0.138048         3.7565
  36   0.0000       0.143090         3.8937
  37   0.0000       0.164882         4.4867
  38   0.0000       0.169771         4.6197

MULLIKEN ATOMIC CHARGES
-----------------------
   0 O :   -0.476158
   1 C :    0.172787
   2 C :   -0.266730
   3 C :   -0.213994
   4 C :   -0.078618
   5 C :   -0.194320
   6 C :   -0.225375
   7 C :    0.102067
   8 O :   -0.480107
   9 H :    0.327170
  10 H :    0.110755
  11 H :    0.132450
  12 H :    0.127387
  13 H :    0.140968
  14 H :    0.136147
  15 H :    0.124943
  16 H :    0.122570
  17 H :    0.114459
  18 H :    0.323600
Sum of atomic charges:    0.0000000

LOEWDIN ATOMIC CHARGES
----------------------
   0 O :   -0.018475
   1 C :   -0.318189
   2 C :   -0.164008
   3 C :   -0.177357
   4 C :   -0.247313
   5 C :   -0.161097
   6 C :   -0.161834
   7 C :   -0.318973
   8 O :   -0.025052
   9 H :    0.178831
  10 H :    0.155590
  11 H :    0.152670
  12 H :    0.149431
  13 H :    0.162813
  14 H :    0.159293
  15 H :    0.150742
  16 H :    0.150317
  17 H :    0.155995
  18 H :    0.176616

  Mayer bond orders larger than 0.1
B(  0-O ,  1-C ) :   0.9242 B(  0-O ,  9-H ) :   0.8215 B(  1-C ,  2-C ) :   0.9364
B(  1-C ,  7-C ) :   0.9232 B(  1-C , 10-H ) :   0.8975 B(  2-C ,  3-C ) :   1.7542
B(  2-C , 11-H ) :   0.9282 B(  3-C ,  4-C ) :   0.9351 B(  3-C , 12-H ) :   0.9228
B(  4-C ,  5-C ) :   0.9408 B(  4-C , 13-H ) :   0.8909 B(  4-C , 14-H ) :   0.9150
B(  5-C ,  6-C ) :   1.7912 B(  5-C , 15-H ) :   0.9228 B(  6-C ,  7-C ) :   0.9555
B(  6-C , 16-H ) :   0.9286 B(  7-C ,  8-O ) :   0.8710 B(  7-C , 17-H ) :   0.9329
B(  8-O , 18-H ) :   0.8344

MP2 TOTAL ENERGY:     -422.315034714 Eh
FINAL SINGLE POINT ENERGY      -422.315034713509

DIPOLE MOMENT
-------------
                                X             Y             Z
Electronic contribution:     -1.41695       3.08321       0.07632
Nuclear contribution   :      1.72921      -4.23255       0.10207
                        -----------------------------------------
Total Dipole Moment    :      0.31227      -1.14934       0.17839
                        -----------------------------------------
Magnitude (a.u.)       :      1.20429
Magnitude (Debye)      :      3.06106

                             ****ORCA TERMINATED NORMALLY****
TOTAL RUN TIME: 0 days 0 hours 17 minutes 52 seconds 455 msec
