                         Program Version 3.0.3 - RELEASE   -
|  1> ! RI-MP2 RIJK def2-TZVP def2-TZVP/C def2-TZVP/JK TIGHTSCF
|  2> % maxcore 2000
|  3> % mp2 density relaxed end
|  4> *xyz 0 1
|  5>  C        0.8625804005     1.3770197457    -0.0237136357
|  6>  C        0.0351024020     0.0898597443     0.0460863414
|  7>  O        0.2360973006    -0.6682873268    -1.1602477030
|  8>  C        0.9795099883    -1.7964949967    -1.1050372210
|  9>  N        1.4441132501    -2.4221837875    -0.1126502186
| 10>  C        1.1780451788    -1.9445655027     1.2379622590
| 11>  C        2.4984811899    -1.7756166973     2.0115180955
| 12>  C        0.3437425443    -0.6731508166     1.3340848776
| 13>  O       -0.0524899392    -0.2344296717     2.3882788106
| 14>  H        1.9332792490     1.1522718441    -0.0495523669
| 15>  H        0.6039699069     1.9327262483    -0.9282182664
| 16>  H        0.6527665487     1.9946940071     0.8523187799
| 17>  H       -1.0300131758     0.3413903625     0.0693249292
| 18>  H        1.1498137906    -2.1626280156    -2.1159934493
| 19>  H        0.5963319695    -2.7218109184     1.7532740341
| 20>  H        3.1260071543    -1.0093243381     1.5458194482
| 21>  H        2.2948760597    -1.4861657521     3.0444189207
| 22>  H        3.0482536618    -2.7192155083     1.9949780447
| 23> *
| 24>
| 25>                          ****END OF INPUT****

CARTESIAN COORDINATES (ANGSTROEM)
---------------------------------
  C      0.862580    1.377020   -0.023714
  C      0.035102    0.089860    0.046086
  O      0.236097   -0.668287   -1.160248
  C      0.979510   -1.796495   -1.105037
  N      1.444113   -2.422184   -0.112650
  C      1.178045   -1.944566    1.237962
  C      2.498481   -1.775617    2.011518
  C      0.343743   -0.673151    1.334085
  O     -0.052490   -0.234430    2.388279
  H      1.933279    1.152272   -0.049552
  H      0.603970    1.932726   -0.928218
  H      0.652767    1.994694    0.852319
  H     -1.030013    0.341390    0.069325
  H      1.149814   -2.162628   -2.115993
  H      0.596332   -2.721811    1.753274
  H      3.126007   -1.009324    1.545819
  H      2.294876   -1.486166    3.044419
  H      3.048254   -2.719216    1.994978

 Total Charge           Charge          ....    0
 Multiplicity           Mult            ....    1
 Number of Electrons    NEL             ....   68
 Basis Dimension        Dim             ....  333

ORBITAL ENERGIES
----------------

  NO   OCC          E(Eh)            E(eV)
   0   2.0000     -20.610895      -560.8510
   1   2.0000     -20.561243      -559.4999
   2   2.0000     -15.558346      -423.3641
   3   2.0000     -11.346584      -308.7562
   4   2.0000     -11.344066      -308.6877
   5   2.0000     -11.317340      -307.9605
   6   2.0000     -11.280793      -306.9660
   7   2.0000     -11.241642      -305.9006
   8   2.0000     -11.228301      -305.5376
   9   2.0000      -1.445388       -39.3310
  10   2.0000      -1.405048       -38.2333
  11   2.0000      -1.235841       -33.6289
  12   2.0000      -1.082615       -29.4594
  13   2.0000      -1.032652       -28.0999
  14   2.0000      -0.931858       -25.3571
  15   2.0000      -0.872320       -23.7370
  16   2.0000      -0.859563       -23.3899
  17   2.0000      -0.738342       -20.0913
  18   2.0000      -0.733130       -19.9495
  19   2.0000      -0.677817       -18.4443
  20   2.0000      -0.673060       -18.3149
  21   2.0000      -0.635436       -17.2911
  22   2.0000      -0.619770       -16.8648
  23   2.0000      -0.593404       -16.1473
  24   2.0000      -0.574446       -15.6315
  25   2.0000      -0.559347       -15.2206
  26   2.0000      -0.553426       -15.0595
  27   2.0000      -0.544161       -14.8074
  28   2.0000      -0.536116       -14.5885
  29   2.0000      -0.528638       -14.3850
  30   2.0000      -0.485375       -13.2077
  31   2.0000      -0.469467       -12.7748
  32   2.0000      -0.400953       -10.9105
  33   2.0000      -0.394032       -10.7221
  34   0.0000       0.109829         2.9886
  35   0.0000       0.143385         3.9017
  36   0.0000       0.154071         4.1925
  37   0.0000       0.162211         4.4140
  38   0.0000       0.171473         4.6660

MULLIKEN ATOMIC CHARGES
-----------------------
   0 C :   -0.418692
   1 C :    0.109446
   2 O :   -0.259696
   3 C :    0.081705
   4 N :   -0.273606
   5 C :    0.052823
   6 C :   -0.390452
   7 C :    0.127509
   8 O :   -0.278723
   9 H :    0.135487
  10 H :    0.149509
  11 H :    0.154755
  12 H :    0.129310
  13 H :    0.140128
  14 H :    0.124751
  15 H :    0.118443
  16 H :    0.148798
  17 H :    0.148503
Sum of atomic charges:    0.0000000

LOEWDIN ATOMIC CHARGES
----------------------
   0 C :   -0.276788
   1 C :   -0.274229
   2 O :    0.246121
   3 C :   -0.359965
   4 N :    0.093377
   5 C :   -0.286055
   6 C :   -0.275178
   7 C :   -0.285216
   8 O :    0.171240
   9 H :    0.128413
  10 H :    0.130752
  11 H :    0.136954
  12 H :    0.160028
  13 H :    0.136664
  14 H :    0.169120
  15 H :    0.123353
  16 H :    0.130994
  17 H :    0.130416

  Mayer bond orders larger than 0.1
B(  0-C ,  1-C ) :   0.9159 B(  0-C ,  9-H ) :   0.9259 B(  0-C , 10-H ) :   0.9325
B(  0-C , 11-H ) :   0.9283 B(  1-C ,  2-O ) :   0.8395 B(  1-C ,  7-C ) :   0.9001
B(  1-C , 12-H ) :   0.9168 B(  2-O ,  3-C ) :   1.0717 B(  3-C ,  4-N ) :   1.8378
B(  3-C , 13-H ) :   0.9258 B(  4-N ,  5-C ) :   0.9007 B(  5-C ,  6-C ) :   0.9071
B(  5-C ,  7-C ) :   0.9100 B(  5-C , 14-H ) :   0.9024 B(  6-C , 15-H ) :   0.9270
B(  6-C , 16-H ) :   0.9333 B(  6-C , 17-H ) :   0.9341 B(  7-C ,  8-O ) :   1.9877

MP2 TOTAL ENERGY:     -438.388896869 Eh
FINAL SINGLE POINT ENERGY      -438.388896868649

DIPOLE MOMENT
-------------
                                X             Y             Z
Electronic contribution:     -4.41190      -2.52058      -1.76641
Nuclear contribution   :      4.52054       2.90746       1.37910
                        -----------------------------------------
Total Dipole Moment    :      0.10863       0.38689      -0.38730
                        -----------------------------------------
Magnitude (a.u.)       :      0.55811
Magnitude (Debye)      :      1.41860

                             ****ORCA TERMINATED NORMALLY****
TOTAL RUN TIME: 0 days 0 hours 17 minutes 36 seconds 996 msec
