                         Program Version 3.0.3 - RELEASE   -
|  1> ! RI-MP2 RIJK def2-TZVP def2-TZVP/C def2-TZVP/JK TIGHTSCF
|  2> % maxcore 2000
|  3> % mp2 density relaxed end
|  4> *xyz 0 1
|  5>  C       -0.2123175916     1.6035985780    -0.0866047584
|  6>  C       -0.0689854245     0.0877395522    -0.0474542774
|  7>  C        1.0825437764    -0.5550728996    -0.9608027269
|  8>  C        1.8959291421    -0.7108525922     0.3423348590
|  9>  C        2.5556046060    -1.5666732286     1.4580461745
| 10>  C        1.6835895515    -0.5416961699     2.3432119944
| 11>  C        2.4004296621     0.7539023719     2.0015089364
| 12>  O        2.5122360231     0.5910057804     0.5762408106
| 13>  C        0.6348512233    -0.6698707215     1.1617862814
| 14>  H        0.7503618654     2.1035226579     0.0213042492
| 15>  H       -0.6519517125     1.9146579072    -1.0415091195
| 16>  H       -0.8821642810     1.9493263186     0.7086966406
| 17>  H       -1.0482301926    -0.3598554154    -0.2426261101
| 18>  H        0.7636931471    -1.5067752483    -1.3911666332
| 19>  H        1.5269425584     0.0732121322    -1.7362143006
| 20>  H        2.1838238234    -2.5896010203     1.5176587006
| 21>  H        3.6420879231    -1.5312253637     1.5797191077
| 22>  H        1.4387367914    -0.7416067260     3.3868886829
| 23>  H        1.8229592769     1.6546888508     2.2401353166
| 24>  H        3.3951668535     0.8374693555     2.4561820277
| 25>  H        0.1811295584    -1.6612048290     1.2266436343
| 26> *
| 27>
| 28>                          ****END OF INPUT****

CARTESIAN COORDINATES (ANGSTROEM)
---------------------------------
  C     -0.212318    1.603599   -0.086605
  C     -0.068985    0.087740   -0.047454
  C      1.082544   -0.555073   -0.960803
  C      1.895929   -0.710853    0.342335
  C      2.555605   -1.566673    1.458046
  C      1.683590   -0.541696    2.343212
  C      2.400430    0.753902    2.001509
  O      2.512236    0.591006    0.576241
  C      0.634851   -0.669871    1.161786
  H      0.750362    2.103523    0.021304
  H     -0.651952    1.914658   -1.041509
  H     -0.882164    1.949326    0.708697
  H     -1.048230   -0.359855   -0.242626
  H      0.763693   -1.506775   -1.391167
  H      1.526943    0.073212   -1.736214
  H      2.183824   -2.589601    1.517659
  H      3.642088   -1.531225    1.579719
  H      1.438737   -0.741607    3.386889
  H      1.822959    1.654689    2.240135
  H      3.395167    0.837469    2.456182
  H      0.181130   -1.661205    1.226644

 Total Charge           Charge          ....    0
 Multiplicity           Mult            ....    1
 Number of Electrons    NEL             ....   68
 Basis Dimension        Dim             ....  351

ORBITAL ENERGIES
----------------

  NO   OCC          E(Eh)            E(eV)
   0   2.0000     -20.540612      -558.9385
   1   2.0000     -11.274860      -306.8046
   2   2.0000     -11.267706      -306.6099
   3   2.0000     -11.251340      -306.1645
   4   2.0000     -11.241788      -305.9046
   5   2.0000     -11.237763      -305.7951
   6   2.0000     -11.231063      -305.6128
   7   2.0000     -11.216795      -305.2245
   8   2.0000     -11.205230      -304.9098
   9   2.0000      -1.376278       -37.4504
  10   2.0000      -1.141017       -31.0487
  11   2.0000      -1.063952       -28.9516
  12   2.0000      -0.979979       -26.6666
  13   2.0000      -0.922560       -25.1041
  14   2.0000      -0.877750       -23.8848
  15   2.0000      -0.806110       -21.9354
  16   2.0000      -0.770552       -20.9678
  17   2.0000      -0.729697       -19.8561
  18   2.0000      -0.676473       -18.4078
  19   2.0000      -0.652588       -17.7578
  20   2.0000      -0.610995       -16.6260
  21   2.0000      -0.595501       -16.2044
  22   2.0000      -0.590647       -16.0723
  23   2.0000      -0.555066       -15.1041
  24   2.0000      -0.538725       -14.6595
  25   2.0000      -0.516511       -14.0550
  26   2.0000      -0.510730       -13.8977
  27   2.0000      -0.493561       -13.4305
  28   2.0000      -0.474279       -12.9058
  29   2.0000      -0.465431       -12.6650
  30   2.0000      -0.450030       -12.2459
  31   2.0000      -0.427003       -11.6193
  32   2.0000      -0.411855       -11.2072
  33   2.0000      -0.351376        -9.5614
  34   0.0000       0.135632         3.6907
  35   0.0000       0.153439         4.1753
  36   0.0000       0.161958         4.4071
  37   0.0000       0.168172         4.5762
  38   0.0000       0.193212         5.2576

MULLIKEN ATOMIC CHARGES
-----------------------
   0 C :   -0.454113
   1 C :   -0.026201
   2 C :   -0.239674
   3 C :    0.142857
   4 C :   -0.239073
   5 C :   -0.095721
   6 C :   -0.074812
   7 O :   -0.338678
   8 C :   -0.142237
   9 H :    0.158484
  10 H :    0.127709
  11 H :    0.127065
  12 H :    0.102731
  13 H :    0.120413
  14 H :    0.124465
  15 H :    0.127883
  16 H :    0.120310
  17 H :    0.131822
  18 H :    0.113126
  19 H :    0.110158
  20 H :    0.103488
Sum of atomic charges:    0.0000000

LOEWDIN ATOMIC CHARGES
----------------------
   0 C :   -0.304851
   1 C :   -0.206282
   2 C :   -0.174115
   3 C :   -0.284183
   4 C :   -0.175494
   5 C :   -0.188153
   6 C :   -0.281536
   7 O :    0.174562
   8 C :   -0.147066
   9 H :    0.128404
  10 H :    0.123834
  11 H :    0.123570
  12 H :    0.140491
  13 H :    0.136305
  14 H :    0.131922
  15 H :    0.136514
  16 H :    0.127161
  17 H :    0.133124
  18 H :    0.122516
  19 H :    0.123174
  20 H :    0.160105

  Mayer bond orders larger than 0.1
B(  0-C ,  1-C ) :   0.8903 B(  0-C ,  9-H ) :   0.9351 B(  0-C , 10-H ) :   0.9332
B(  0-C , 11-H ) :   0.9376 B(  1-C ,  2-C ) :   0.9286 B(  1-C ,  8-C ) :   0.8852
B(  1-C , 12-H ) :   0.9280 B(  2-C ,  3-C ) :   0.8992 B(  2-C , 13-H ) :   0.9139
B(  2-C , 14-H ) :   0.9200 B(  3-C ,  4-C ) :   0.9293 B(  3-C ,  7-O ) :   0.9227
B(  3-C ,  8-C ) :   0.8733 B(  4-C ,  5-C ) :   0.9076 B(  4-C , 15-H ) :   0.9214
B(  4-C , 16-H ) :   0.9172 B(  5-C ,  6-C ) :   0.9628 B(  5-C ,  8-C ) :   0.8857
B(  5-C , 17-H ) :   0.9033 B(  6-C ,  7-O ) :   0.9172 B(  6-C , 18-H ) :   0.9340
B(  6-C , 19-H ) :   0.9143 B(  8-C , 20-H ) :   0.9264

MP2 TOTAL ENERGY:     -386.326816945 Eh
FINAL SINGLE POINT ENERGY      -386.326816945163

DIPOLE MOMENT
-------------
                                X             Y             Z
Electronic contribution:      3.03337      -1.41127       0.57262
Nuclear contribution   :     -3.37319       1.01448      -0.21362
                        -----------------------------------------
Total Dipole Moment    :     -0.33982      -0.39678       0.35899
                        -----------------------------------------
Magnitude (a.u.)       :      0.63387
Magnitude (Debye)      :      1.61117

                             ****ORCA TERMINATED NORMALLY****
TOTAL RUN TIME: 0 days 0 hours 22 minutes 35 seconds 550 msec
