                         Program Version 3.0.3 - RELEASE   -
|  1> ! RI-MP2 RIJK def2-TZVP def2-TZVP/C def2-TZVP/JK TIGHTSCF
|  2> % maxcore 2000
|  3> % mp2 density relaxed end
|  4> *xyz 0 1
|  5>  C       -0.0865371595     1.4728134534     0.0060536243
|  6>  C        0.0008991215    -0.0404737573     0.0342608672
|  7>  O       -1.3414692343    -0.5527492357    -0.0113683815
|  8>  C       -1.4463486119    -1.8853008691     0.0075339527
|  9>  N       -0.4757558999    -2.7700634930     0.0624977104
| 10>  C       -1.1223977396    -3.9858225855     0.0574084493
| 11>  O       -0.4185309548    -5.1397318896     0.1062287019
| 12>  C       -2.4771327038    -3.8441817108    -0.0003176725
| 13>  N       -2.6707639027    -2.4540454333    -0.0324969665
| 14>  H        0.9191482783     1.9020203585     0.0399648559
| 15>  H       -0.5787381752     1.8181945017    -0.9074369820
| 16>  H       -0.6507697823     1.8469394918     0.8649459297
| 17>  H        0.5616135881    -0.4343230858    -0.8205503213
| 18>  H        0.4907066777    -0.4055632404     0.9436365089
| 19>  H        0.5106335132    -4.8839983166     0.1395790265
| 20>  H       -3.2905976385    -4.5454183979    -0.0213374809
| 21>  H       -3.5450427863    -1.9608659302    -0.0764600021
| 22> *
| 23>
| 24>                          ****END OF INPUT****

CARTESIAN COORDINATES (ANGSTROEM)
---------------------------------
  C     -0.086537    1.472813    0.006054
  C      0.000899   -0.040474    0.034261
  O     -1.341469   -0.552749   -0.011368
  C     -1.446349   -1.885301    0.007534
  N     -0.475756   -2.770063    0.062498
  C     -1.122398   -3.985823    0.057408
  O     -0.418531   -5.139732    0.106229
  C     -2.477133   -3.844182   -0.000318
  N     -2.670764   -2.454045   -0.032497
  H      0.919148    1.902020    0.039965
  H     -0.578738    1.818195   -0.907437
  H     -0.650770    1.846939    0.864946
  H      0.561614   -0.434323   -0.820550
  H      0.490707   -0.405563    0.943637
  H      0.510634   -4.883998    0.139579
  H     -3.290598   -4.545418   -0.021337
  H     -3.545043   -1.960866   -0.076460

 Total Charge           Charge          ....    0
 Multiplicity           Mult            ....    1
 Number of Electrons    NEL             ....   68
 Basis Dimension        Dim             ....  327

ORBITAL ENERGIES
----------------

  NO   OCC          E(Eh)            E(eV)
   0   2.0000     -20.603082      -560.6384
   1   2.0000     -20.577932      -559.9540
   2   2.0000     -15.607237      -424.6945
   3   2.0000     -15.539504      -422.8514
   4   2.0000     -11.363100      -309.2057
   5   2.0000     -11.305798      -307.6464
   6   2.0000     -11.291741      -307.2639
   7   2.0000     -11.236387      -305.7576
   8   2.0000     -11.227266      -305.5094
   9   2.0000      -1.446379       -39.3580
  10   2.0000      -1.403027       -38.1783
  11   2.0000      -1.317138       -35.8412
  12   2.0000      -1.168139       -31.7867
  13   2.0000      -1.046112       -28.4662
  14   2.0000      -0.978739       -26.6329
  15   2.0000      -0.873090       -23.7580
  16   2.0000      -0.822513       -22.3817
  17   2.0000      -0.794585       -21.6217
  18   2.0000      -0.771021       -20.9805
  19   2.0000      -0.706800       -19.2330
  20   2.0000      -0.688552       -18.7365
  21   2.0000      -0.633468       -17.2375
  22   2.0000      -0.625241       -17.0137
  23   2.0000      -0.620980       -16.8977
  24   2.0000      -0.596095       -16.2206
  25   2.0000      -0.569882       -15.5073
  26   2.0000      -0.549672       -14.9573
  27   2.0000      -0.546984       -14.8842
  28   2.0000      -0.529678       -14.4133
  29   2.0000      -0.513770       -13.9804
  30   2.0000      -0.475769       -12.9463
  31   2.0000      -0.454615       -12.3707
  32   2.0000      -0.398107       -10.8330
  33   2.0000      -0.289548        -7.8790
  34   0.0000       0.134841         3.6692
  35   0.0000       0.144370         3.9285
  36   0.0000       0.164469         4.4754
  37   0.0000       0.187478         5.1015
  38   0.0000       0.191415         5.2087

MULLIKEN ATOMIC CHARGES
-----------------------
   0 C :   -0.358967
   1 C :   -0.046814
   2 O :   -0.278834
   3 C :    0.361812
   4 N :   -0.378942
   5 C :    0.207914
   6 O :   -0.446651
   7 C :   -0.166169
   8 N :   -0.269904
   9 H :    0.130896
  10 H :    0.132212
  11 H :    0.132210
  12 H :    0.118180
  13 H :    0.118261
  14 H :    0.338255
  15 H :    0.151592
  16 H :    0.254948
Sum of atomic charges:   -0.0000000

LOEWDIN ATOMIC CHARGES
----------------------
   0 C :   -0.315354
   1 C :   -0.304817
   2 O :    0.242951
   3 C :   -0.452026
   4 N :    0.081391
   5 C :   -0.412109
   6 O :    0.060232
   7 C :   -0.242619
   8 N :    0.183471
   9 H :    0.128603
  10 H :    0.124915
  11 H :    0.124926
  12 H :    0.127523
  13 H :    0.127538
  14 H :    0.196912
  15 H :    0.134160
  16 H :    0.194303

  Mayer bond orders larger than 0.1
B(  0-C ,  1-C ) :   0.9388 B(  0-C ,  9-H ) :   0.9339 B(  0-C , 10-H ) :   0.9345
B(  0-C , 11-H ) :   0.9345 B(  1-C ,  2-O ) :   0.8301 B(  1-C , 12-H ) :   0.9299
B(  1-C , 13-H ) :   0.9299 B(  2-O ,  3-C ) :   1.1240 B(  3-C ,  4-N ) :   1.4706
B(  3-C ,  8-N ) :   1.2178 B(  4-N ,  5-C ) :   1.2310 B(  5-C ,  6-O ) :   1.0816
B(  5-C ,  7-C ) :   1.5818 B(  6-O , 14-H ) :   0.8216 B(  7-C ,  8-N ) :   1.0162
B(  7-C , 15-H ) :   0.9085 B(  8-N , 16-H ) :   0.8642

MP2 TOTAL ENERGY:     -454.446771650 Eh
FINAL SINGLE POINT ENERGY      -454.446771649604

DIPOLE MOMENT
-------------
                                X             Y             Z
Electronic contribution:     -3.23654      -8.66148       0.01622
Nuclear contribution   :      2.93396       9.56361      -0.04412
                        -----------------------------------------
Total Dipole Moment    :     -0.30259       0.90213      -0.02790
                        -----------------------------------------
Magnitude (a.u.)       :      0.95193
Magnitude (Debye)      :      2.41961

                             ****ORCA TERMINATED NORMALLY****
TOTAL RUN TIME: 0 days 0 hours 14 minutes 16 seconds 109 msec
