                         Program Version 3.0.3 - RELEASE   -
|  1> ! RI-MP2 RIJK def2-TZVP def2-TZVP/C def2-TZVP/JK TIGHTSCF
|  2> % maxcore 2000
|  3> % mp2 density relaxed end
|  4> *xyz 0 1
|  5>  C        0.0368057600     1.4861123510    -0.1160990795
|  6>  C        0.0078765668    -0.0442596062    -0.1294702732
|  7>  O        0.7602405342    -0.5666541812    -1.2270263365
|  8>  C        0.6565464650    -0.6234996004     1.1171815406
|  9>  C       -0.0700582188    -0.6615145509     2.5000640253
| 10>  C       -0.9279096632    -1.8519703015     1.9756396547
| 11>  C        0.5256729623    -2.1341928676     1.4917965613
| 12>  C        0.9865481953    -1.7250815656     2.9218543368
| 13>  H        1.0670438924     1.8484233450    -0.0389387003
| 14>  H       -0.4007891764     1.8938387906    -1.0351368030
| 15>  H       -0.5370076170     1.8834356162     0.7275723757
| 16>  H       -1.0386965515    -0.3719871765    -0.2117649339
| 17>  H        0.4241473518    -0.1634545806    -2.0337921905
| 18>  H        1.6877634605    -0.2527494925     1.1679901127
| 19>  H       -0.4128368638     0.1909281646     3.0899865369
| 20>  H       -1.3199871493    -2.5312388713     2.7379126872
| 21>  H       -1.6873288984    -1.6439875525     1.2207947391
| 22>  H        0.8743983355    -2.9829675108     0.9034416855
| 23>  H        2.0185452038    -1.3788947220     3.0272936465
| 24>  H        0.7007996706    -2.3958189178     3.7365768144
| 25> *
| 26>
| 27>                          ****END OF INPUT****

CARTESIAN COORDINATES (ANGSTROEM)
---------------------------------
  C      0.036806    1.486112   -0.116099
  C      0.007877   -0.044260   -0.129470
  O      0.760241   -0.566654   -1.227026
  C      0.656546   -0.623500    1.117182
  C     -0.070058   -0.661515    2.500064
  C     -0.927910   -1.851970    1.975640
  C      0.525673   -2.134193    1.491797
  C      0.986548   -1.725082    2.921854
  H      1.067044    1.848423   -0.038939
  H     -0.400789    1.893839   -1.035137
  H     -0.537008    1.883436    0.727572
  H     -1.038697   -0.371987   -0.211765
  H      0.424147   -0.163455   -2.033792
  H      1.687763   -0.252749    1.167990
  H     -0.412837    0.190928    3.089987
  H     -1.319987   -2.531239    2.737913
  H     -1.687329   -1.643988    1.220795
  H      0.874398   -2.982968    0.903442
  H      2.018545   -1.378895    3.027294
  H      0.700800   -2.395819    3.736577

 Total Charge           Charge          ....    0
 Multiplicity           Mult            ....    1
 Number of Electrons    NEL             ....   62
 Basis Dimension        Dim             ....  320

ORBITAL ENERGIES
----------------

  NO   OCC          E(Eh)            E(eV)
   0   2.0000     -20.549317      -559.1754
   1   2.0000     -11.275290      -306.8162
   2   2.0000     -11.240475      -305.8689
   3   2.0000     -11.236478      -305.7601
   4   2.0000     -11.226596      -305.4912
   5   2.0000     -11.223586      -305.4093
   6   2.0000     -11.223245      -305.4000
   7   2.0000     -11.217505      -305.2438
   8   2.0000      -1.354744       -36.8645
   9   2.0000      -1.204418       -32.7739
  10   2.0000      -1.024286       -27.8722
  11   2.0000      -0.914019       -24.8717
  12   2.0000      -0.901470       -24.5302
  13   2.0000      -0.848399       -23.0861
  14   2.0000      -0.810827       -22.0637
  15   2.0000      -0.721972       -19.6459
  16   2.0000      -0.683472       -18.5982
  17   2.0000      -0.666771       -18.1438
  18   2.0000      -0.628713       -17.1082
  19   2.0000      -0.617153       -16.7936
  20   2.0000      -0.583773       -15.8853
  21   2.0000      -0.554749       -15.0955
  22   2.0000      -0.539026       -14.6676
  23   2.0000      -0.510564       -13.8931
  24   2.0000      -0.486946       -13.2505
  25   2.0000      -0.454730       -12.3738
  26   2.0000      -0.450501       -12.2587
  27   2.0000      -0.446496       -12.1498
  28   2.0000      -0.436543       -11.8789
  29   2.0000      -0.426913       -11.6169
  30   2.0000      -0.422606       -11.4997
  31   0.0000       0.134142         3.6502
  32   0.0000       0.159938         4.3521
  33   0.0000       0.165057         4.4914
  34   0.0000       0.168600         4.5879
  35   0.0000       0.192636         5.2419

MULLIKEN ATOMIC CHARGES
-----------------------
   0 C :   -0.427692
   1 C :    0.063902
   2 O :   -0.463491
   3 C :   -0.043259
   4 C :   -0.148383
   5 C :   -0.227291
   6 C :   -0.118115
   7 C :   -0.190767
   8 H :    0.137973
   9 H :    0.124139
  10 H :    0.128622
  11 H :    0.065744
  12 H :    0.308779
  13 H :    0.088519
  14 H :    0.128397
  15 H :    0.107707
  16 H :    0.112204
  17 H :    0.132887
  18 H :    0.109314
  19 H :    0.110810
Sum of atomic charges:    0.0000000

LOEWDIN ATOMIC CHARGES
----------------------
   0 C :   -0.302347
   1 C :   -0.357330
   2 O :   -0.023283
   3 C :   -0.172165
   4 C :   -0.167463
   5 C :   -0.198639
   6 C :   -0.158940
   7 C :   -0.197679
   8 H :    0.126375
   9 H :    0.118892
  10 H :    0.127173
  11 H :    0.132776
  12 H :    0.170715
  13 H :    0.151699
  14 H :    0.121783
  15 H :    0.126959
  16 H :    0.121651
  17 H :    0.126287
  18 H :    0.126994
  19 H :    0.126544

  Mayer bond orders larger than 0.1
B(  0-C ,  1-C ) :   0.9172 B(  0-C ,  8-H ) :   0.9396 B(  0-C ,  9-H ) :   0.9348
B(  0-C , 10-H ) :   0.9320 B(  1-C ,  2-O ) :   1.0129 B(  1-C ,  3-C ) :   0.9153
B(  1-C , 11-H ) :   0.9169 B(  2-O ,  3-C ) :  -0.1057 B(  2-O , 12-H ) :   0.8479
B(  3-C ,  4-C ) :   0.9002 B(  3-C ,  6-C ) :   0.8910 B(  3-C , 13-H ) :   0.9222
B(  4-C ,  5-C ) :   0.9077 B(  4-C ,  7-C ) :   0.9120 B(  4-C , 14-H ) :   0.8899
B(  5-C ,  6-C ) :   0.9050 B(  5-C , 15-H ) :   0.9271 B(  5-C , 16-H ) :   0.9288
B(  6-C ,  7-C ) :   0.9070 B(  6-C , 17-H ) :   0.8975 B(  7-C , 18-H ) :   0.9280
B(  7-C , 19-H ) :   0.9277

MP2 TOTAL ENERGY:     -348.352262458 Eh
FINAL SINGLE POINT ENERGY      -348.352262458192

DIPOLE MOMENT
-------------
                                X             Y             Z
Electronic contribution:      1.08102      -2.25490      -1.35261
Nuclear contribution   :     -1.52669       2.66593       1.29630
                        -----------------------------------------
Total Dipole Moment    :     -0.44567       0.41103      -0.05631
                        -----------------------------------------
Magnitude (a.u.)       :      0.60888
Magnitude (Debye)      :      1.54766

                             ****ORCA TERMINATED NORMALLY****
TOTAL RUN TIME: 0 days 0 hours 13 minutes 39 seconds 556 msec
