                         Program Version 3.0.3 - RELEASE   -
|  1> ! RI-MP2 RIJK def2-TZVP def2-TZVP/C def2-TZVP/JK TIGHTSCF
|  2> % maxcore 2000
|  3> % mp2 density relaxed end
|  4> *xyz 0 1
|  5>  O        1.9791561964     4.1320999595     0.0675420249
|  6>  C        1.0805892977     3.3279074458     0.0588028025
|  7>  N        1.2169134179     1.9574574925    -0.0384810488
|  8>  C        2.3841369461     1.2201987811    -0.1446594205
|  9>  C        2.4261564341    -0.1258604078    -0.2358952576
| 10>  C        3.8142427569    -0.5897701498    -0.3350749810
| 11>  O        4.2019803090    -1.7334177749    -0.4291442416
| 12>  C        4.7110732123     0.6601041095    -0.2954390708
| 13>  C        3.7542166511     1.8605327956    -0.1693558253
| 14>  H        0.0122512401     3.6080734641     0.1295789065
| 15>  H        0.3548502419     1.4300652270    -0.0310683597
| 16>  H        1.5788992911    -0.8001294779    -0.2389180292
| 17>  H        5.4042893915     0.5810797258     0.5466624404
| 18>  H        5.3195580351     0.6972921822    -1.2033311836
| 19>  H        3.8324970536     2.5676354858    -0.9995094430
| 20>  H        3.9173020653     2.4530586816     0.7348497169
| 21> *
| 22>
| 23>                          ****END OF INPUT****

CARTESIAN COORDINATES (ANGSTROEM)
---------------------------------
  O      1.979156    4.132100    0.067542
  C      1.080589    3.327907    0.058803
  N      1.216913    1.957457   -0.038481
  C      2.384137    1.220199   -0.144659
  C      2.426156   -0.125860   -0.235895
  C      3.814243   -0.589770   -0.335075
  O      4.201980   -1.733418   -0.429144
  C      4.711073    0.660104   -0.295439
  C      3.754217    1.860533   -0.169356
  H      0.012251    3.608073    0.129579
  H      0.354850    1.430065   -0.031068
  H      1.578899   -0.800129   -0.238918
  H      5.404289    0.581080    0.546662
  H      5.319558    0.697292   -1.203331
  H      3.832497    2.567635   -0.999509
  H      3.917302    2.453059    0.734850

 Total Charge           Charge          ....    0
 Multiplicity           Mult            ....    1
 Number of Electrons    NEL             ....   66
 Basis Dimension        Dim             ....  321

ORBITAL ENERGIES
----------------

  NO   OCC          E(Eh)            E(eV)
   0   2.0000     -20.562679      -559.5389
   1   2.0000     -20.525804      -558.5355
   2   2.0000     -15.638761      -425.5523
   3   2.0000     -11.387915      -309.8809
   4   2.0000     -11.326062      -308.1978
   5   2.0000     -11.323148      -308.1185
   6   2.0000     -11.252072      -306.1844
   7   2.0000     -11.238044      -305.8027
   8   2.0000     -11.233232      -305.6718
   9   2.0000      -1.423969       -38.7482
  10   2.0000      -1.370626       -37.2966
  11   2.0000      -1.292958       -35.1832
  12   2.0000      -1.142181       -31.0803
  13   2.0000      -1.005865       -27.3710
  14   2.0000      -0.953268       -25.9397
  15   2.0000      -0.882251       -24.0073
  16   2.0000      -0.792677       -21.5698
  17   2.0000      -0.772223       -21.0133
  18   2.0000      -0.726666       -19.7736
  19   2.0000      -0.697072       -18.9683
  20   2.0000      -0.658669       -17.9233
  21   2.0000      -0.650348       -17.6969
  22   2.0000      -0.622056       -16.9270
  23   2.0000      -0.611943       -16.6518
  24   2.0000      -0.581232       -15.8161
  25   2.0000      -0.551311       -15.0019
  26   2.0000      -0.542962       -14.7747
  27   2.0000      -0.532427       -14.4881
  28   2.0000      -0.513744       -13.9797
  29   2.0000      -0.478308       -13.0154
  30   2.0000      -0.468688       -12.7537
  31   2.0000      -0.399973       -10.8838
  32   2.0000      -0.353667        -9.6238
  33   0.0000       0.089741         2.4420
  34   0.0000       0.111111         3.0235
  35   0.0000       0.137716         3.7474
  36   0.0000       0.168124         4.5749
  37   0.0000       0.168461         4.5841

MULLIKEN ATOMIC CHARGES
-----------------------
   0 O :   -0.318852
   1 C :    0.202228
   2 N :   -0.294997
   3 C :    0.148439
   4 C :   -0.284627
   5 C :    0.163523
   6 O :   -0.302493
   7 C :   -0.172679
   8 C :   -0.192437
   9 H :    0.100010
  10 H :    0.247079
  11 H :    0.138730
  12 H :    0.135836
  13 H :    0.135791
  14 H :    0.147209
  15 H :    0.147239
Sum of atomic charges:   -0.0000000

LOEWDIN ATOMIC CHARGES
----------------------
   0 O :    0.104068
   1 C :   -0.398854
   2 N :    0.147486
   3 C :   -0.179440
   4 C :   -0.125189
   5 C :   -0.337329
   6 O :    0.124955
   7 C :   -0.203354
   8 C :   -0.204163
   9 H :    0.116884
  10 H :    0.203294
  11 H :    0.144930
  12 H :    0.150661
  13 H :    0.150634
  14 H :    0.152708
  15 H :    0.152708

  Mayer bond orders larger than 0.1
B(  0-O ,  1-C ) :   1.9200 B(  1-C ,  2-N ) :   1.0559 B(  1-C ,  9-H ) :   0.9265
B(  2-N ,  3-C ) :   1.0085 B(  2-N , 10-H ) :   0.8686 B(  3-C ,  4-C ) :   1.5434
B(  3-C ,  8-C ) :   0.9370 B(  4-C ,  5-C ) :   1.0431 B(  4-C , 11-H ) :   0.9259
B(  5-C ,  6-O ) :   1.9972 B(  5-C ,  7-C ) :   0.9190 B(  7-C ,  8-C ) :   0.9103
B(  7-C , 12-H ) :   0.9081 B(  7-C , 13-H ) :   0.9081 B(  8-C , 14-H ) :   0.9055
B(  8-C , 15-H ) :   0.9057

MP2 TOTAL ENERGY:     -437.223536887 Eh
FINAL SINGLE POINT ENERGY      -437.223536886534

DIPOLE MOMENT
-------------
                                X             Y             Z
Electronic contribution:     -1.89383      -1.23860       0.00945
Nuclear contribution   :      0.53618       1.87346       0.09935
                        -----------------------------------------
Total Dipole Moment    :     -1.35765       0.63486       0.10880
                        -----------------------------------------
Magnitude (a.u.)       :      1.50269
Magnitude (Debye)      :      3.81954

                             ****ORCA TERMINATED NORMALLY****
TOTAL RUN TIME: 0 days 0 hours 15 minutes 39 seconds 412 msec
