                         Program Version 3.0.3 - RELEASE   -
|  1> ! RI-MP2 RIJK def2-TZVP def2-TZVP/C def2-TZVP/JK TIGHTSCF
|  2> % maxcore 2000
|  3> % mp2 density relaxed end
|  4> *xyz 0 1
|  5>  C       -0.0167984457     1.6488526180     0.2361883095
|  6>  C        0.0864149563     0.1362753161     0.0748410781
|  7>  C        0.7984475020    -0.3374005671    -1.1972768769
|  8>  O        1.5719754514    -1.4507142664    -0.7427091284
|  9>  C        1.6922276249    -1.3956391440     0.6140248330
| 10>  N        2.4012629741    -2.1253241655     1.3484785334
| 11>  O        0.9082509674    -0.4051862229     1.1201852978
| 12>  C       -1.3119907239    -0.4825741799     0.2178156719
| 13>  O       -2.0341491684    -0.7232721338    -0.7117210328
| 14>  H        0.9839864787     2.0884948901     0.2437785401
| 15>  H       -0.5924331735     2.0749489284    -0.5906096978
| 16>  H       -0.5144100199     1.9071872722     1.1752045449
| 17>  H        0.0924060913    -0.6706837477    -1.9593094886
| 18>  H        1.4635450989     0.4302445922    -1.6077587114
| 19>  H        2.9391816972    -2.7769398860     0.7822569109
| 20>  H       -1.6050818908    -0.6715464038     1.2726404462
| 21> *
| 22>
| 23>                          ****END OF INPUT****

CARTESIAN COORDINATES (ANGSTROEM)
---------------------------------
  C     -0.016798    1.648853    0.236188
  C      0.086415    0.136275    0.074841
  C      0.798448   -0.337401   -1.197277
  O      1.571975   -1.450714   -0.742709
  C      1.692228   -1.395639    0.614025
  N      2.401263   -2.125324    1.348479
  O      0.908251   -0.405186    1.120185
  C     -1.311991   -0.482574    0.217816
  O     -2.034149   -0.723272   -0.711721
  H      0.983986    2.088495    0.243779
  H     -0.592433    2.074949   -0.590610
  H     -0.514410    1.907187    1.175205
  H      0.092406   -0.670684   -1.959309
  H      1.463545    0.430245   -1.607759
  H      2.939182   -2.776940    0.782257
  H     -1.605082   -0.671546    1.272640

 Total Charge           Charge          ....    0
 Multiplicity           Mult            ....    1
 Number of Electrons    NEL             ....   68
 Basis Dimension        Dim             ....  321

ORBITAL ENERGIES
----------------

  NO   OCC          E(Eh)            E(eV)
   0   2.0000     -20.622621      -561.1701
   1   2.0000     -20.622298      -561.1612
   2   2.0000     -20.587780      -560.2220
   3   2.0000     -15.535008      -422.7291
   4   2.0000     -11.401956      -310.2630
   5   2.0000     -11.356453      -309.0248
   6   2.0000     -11.340006      -308.5772
   7   2.0000     -11.319900      -308.0301
   8   2.0000     -11.260045      -306.4014
   9   2.0000      -1.511842       -41.1393
  10   2.0000      -1.427249       -38.8374
  11   2.0000      -1.396589       -38.0031
  12   2.0000      -1.215222       -33.0679
  13   2.0000      -1.097127       -29.8543
  14   2.0000      -0.977325       -26.5944
  15   2.0000      -0.925619       -25.1874
  16   2.0000      -0.840722       -22.8772
  17   2.0000      -0.822873       -22.3915
  18   2.0000      -0.745609       -20.2891
  19   2.0000      -0.715150       -19.4602
  20   2.0000      -0.689630       -18.7658
  21   2.0000      -0.679492       -18.4899
  22   2.0000      -0.659522       -17.9465
  23   2.0000      -0.628634       -17.1060
  24   2.0000      -0.615047       -16.7363
  25   2.0000      -0.595928       -16.2160
  26   2.0000      -0.581024       -15.8105
  27   2.0000      -0.569256       -15.4902
  28   2.0000      -0.547919       -14.9096
  29   2.0000      -0.521144       -14.1811
  30   2.0000      -0.510888       -13.9020
  31   2.0000      -0.455750       -12.4016
  32   2.0000      -0.441931       -12.0256
  33   2.0000      -0.403628       -10.9833
  34   0.0000       0.102471         2.7884
  35   0.0000       0.127392         3.4665
  36   0.0000       0.161726         4.4008
  37   0.0000       0.168111         4.5745
  38   0.0000       0.177691         4.8352

MULLIKEN ATOMIC CHARGES
-----------------------
   0 C :   -0.405833
   1 C :    0.223745
   2 C :   -0.076438
   3 O :   -0.268235
   4 C :    0.267277
   5 N :   -0.383222
   6 O :   -0.251475
   7 C :    0.054067
   8 O :   -0.250680
   9 H :    0.152125
  10 H :    0.153331
  11 H :    0.153841
  12 H :    0.157848
  13 H :    0.118695
  14 H :    0.236911
  15 H :    0.118044
Sum of atomic charges:   -0.0000000

LOEWDIN ATOMIC CHARGES
----------------------
   0 C :   -0.252016
   1 C :   -0.356105
   2 C :   -0.225856
   3 O :    0.236628
   4 C :   -0.531557
   5 N :   -0.070894
   6 O :    0.294794
   7 C :   -0.242690
   8 O :    0.156535
   9 H :    0.136982
  10 H :    0.139926
  11 H :    0.137235
  12 H :    0.142229
  13 H :    0.132611
  14 H :    0.176438
  15 H :    0.125739

  Mayer bond orders larger than 0.1
B(  0-C ,  1-C ) :   0.9054 B(  0-C ,  9-H ) :   0.9268 B(  0-C , 10-H ) :   0.9250
B(  0-C , 11-H ) :   0.9260 B(  1-C ,  2-C ) :   0.9107 B(  1-C ,  6-O ) :   0.8773
B(  1-C ,  7-C ) :   0.8398 B(  2-C ,  3-O ) :   0.8957 B(  2-C , 12-H ) :   0.9067
B(  2-C , 13-H ) :   0.9274 B(  3-O ,  4-C ) :   1.0740 B(  4-C ,  5-N ) :   2.0156
B(  4-C ,  6-O ) :   1.0629 B(  5-N , 14-H ) :   0.8458 B(  7-C ,  8-O ) :   1.9832
B(  7-C , 15-H ) :   0.9237

MP2 TOTAL ENERGY:     -474.298146200 Eh
FINAL SINGLE POINT ENERGY      -474.298146199601

DIPOLE MOMENT
-------------
                                X             Y             Z
Electronic contribution:      0.24364      -4.90097       0.55761
Nuclear contribution   :     -0.38494       5.96702      -1.26417
                        -----------------------------------------
Total Dipole Moment    :     -0.14130       1.06605      -0.70657
                        -----------------------------------------
Magnitude (a.u.)       :      1.28673
Magnitude (Debye)      :      3.27060

                             ****ORCA TERMINATED NORMALLY****
TOTAL RUN TIME: 0 days 0 hours 16 minutes 19 seconds 776 msec
