                         Program Version 3.0.3 - RELEASE   -
|  1> ! RI-MP2 RIJK def2-TZVP def2-TZVP/C def2-TZVP/JK TIGHTSCF
|  2> % maxcore 2000
|  3> % mp2 density relaxed end
|  4> *xyz 0 1
|  5>  C       -0.0290920284     1.5968738856    -0.0345050413
|  6>  C        0.0827185904     0.0703129440    -0.0235972330
|  7>  C        0.8087467235    -0.5385903068    -1.2195951611
|  8>  C        2.3210494024    -0.5248657760    -1.2229641490
|  9>  C        1.5748760083    -1.7461887374    -0.7389743069
| 10>  C        1.3334902229    -1.9001928423     0.7612170809
| 11>  C        2.5168848657    -2.4392773378     1.5672670866
| 12>  C        0.8080158191    -0.5167776183     1.2232201261
| 13>  O        1.9151246630     0.2735103674     1.6556198302
| 14>  H        0.9592624722     2.0649328170    -0.0715200194
| 15>  H       -0.5867786626     1.9382641537    -0.9121798826
| 16>  H       -0.5580267295     1.9712718290     0.8510243910
| 17>  H       -0.9351298100    -0.3454439676    -0.0145394651
| 18>  H        0.2934386570    -0.5422833556    -2.1748753663
| 19>  H        2.8046410110    -0.6014739510    -2.1913558448
| 20>  H        2.8445934765     0.0893205088    -0.5009310719
| 21>  H        1.6285270474    -2.6513238130    -1.3353321595
| 22>  H        0.4928143437    -2.5989683208     0.8769615355
| 23>  H        3.3812599486    -1.7773575598     1.4855718239
| 24>  H        2.2654783217    -2.5326457752     2.6289608793
| 25>  H        2.8057940501    -3.4304902161     1.2022665330
| 26>  H        0.1037655564    -0.6309767738     2.0603161436
| 27>  H        1.5731348805     1.1209042959     1.9553856209
| 28> *
| 29>
| 30>                          ****END OF INPUT****

CARTESIAN COORDINATES (ANGSTROEM)
---------------------------------
  C     -0.029092    1.596874   -0.034505
  C      0.082719    0.070313   -0.023597
  C      0.808747   -0.538590   -1.219595
  C      2.321049   -0.524866   -1.222964
  C      1.574876   -1.746189   -0.738974
  C      1.333490   -1.900193    0.761217
  C      2.516885   -2.439277    1.567267
  C      0.808016   -0.516778    1.223220
  O      1.915125    0.273510    1.655620
  H      0.959262    2.064933   -0.071520
  H     -0.586779    1.938264   -0.912180
  H     -0.558027    1.971272    0.851024
  H     -0.935130   -0.345444   -0.014539
  H      0.293439   -0.542283   -2.174875
  H      2.804641   -0.601474   -2.191356
  H      2.844593    0.089321   -0.500931
  H      1.628527   -2.651324   -1.335332
  H      0.492814   -2.598968    0.876962
  H      3.381260   -1.777358    1.485572
  H      2.265478   -2.532646    2.628961
  H      2.805794   -3.430490    1.202267
  H      0.103766   -0.630977    2.060316
  H      1.573135    1.120904    1.955386

 Total Charge           Charge          ....    0
 Multiplicity           Mult            ....    1
 Number of Electrons    NEL             ....   70
 Basis Dimension        Dim             ....  363

ORBITAL ENERGIES
----------------

  NO   OCC          E(Eh)            E(eV)
   0   2.0000     -20.550329      -559.2029
   1   2.0000     -11.274434      -306.7929
   2   2.0000     -11.227327      -305.5111
   3   2.0000     -11.222950      -305.3920
   4   2.0000     -11.219096      -305.2871
   5   2.0000     -11.217691      -305.2489
   6   2.0000     -11.216435      -305.2147
   7   2.0000     -11.210538      -305.0542
   8   2.0000     -11.200819      -304.7898
   9   2.0000      -1.358510       -36.9669
  10   2.0000      -1.164334       -31.6831
  11   2.0000      -1.033004       -28.1095
  12   2.0000      -1.026925       -27.9440
  13   2.0000      -0.923316       -25.1247
  14   2.0000      -0.857211       -23.3259
  15   2.0000      -0.830913       -22.6103
  16   2.0000      -0.745815       -20.2947
  17   2.0000      -0.736207       -20.0332
  18   2.0000      -0.707910       -19.2632
  19   2.0000      -0.667976       -18.1766
  20   2.0000      -0.622550       -16.9405
  21   2.0000      -0.582340       -15.8463
  22   2.0000      -0.577647       -15.7186
  23   2.0000      -0.570603       -15.5269
  24   2.0000      -0.558208       -15.1896
  25   2.0000      -0.539597       -14.6832
  26   2.0000      -0.529761       -14.4155
  27   2.0000      -0.513075       -13.9615
  28   2.0000      -0.500743       -13.6259
  29   2.0000      -0.483252       -13.1500
  30   2.0000      -0.469050       -12.7635
  31   2.0000      -0.439463       -11.9584
  32   2.0000      -0.419466       -11.4142
  33   2.0000      -0.394024       -10.7219
  34   2.0000      -0.383855       -10.4452
  35   0.0000       0.125839         3.4243
  36   0.0000       0.147891         4.0243
  37   0.0000       0.160292         4.3618
  38   0.0000       0.171263         4.6603
  39   0.0000       0.191681         5.2159

MULLIKEN ATOMIC CHARGES
-----------------------
   0 C :   -0.483910
   1 C :   -0.030547
   2 C :   -0.083366
   3 C :   -0.314722
   4 C :   -0.121381
   5 C :   -0.026636
   6 C :   -0.397513
   7 C :    0.033921
   8 O :   -0.476232
   9 H :    0.142749
  10 H :    0.135729
  11 H :    0.134918
  12 H :    0.087192
  13 H :    0.116798
  14 H :    0.124463
  15 H :    0.151938
  16 H :    0.115863
  17 H :    0.087981
  18 H :    0.142366
  19 H :    0.121874
  20 H :    0.124468
  21 H :    0.097554
  22 H :    0.316491
Sum of atomic charges:    0.0000000

LOEWDIN ATOMIC CHARGES
----------------------
   0 C :   -0.302119
   1 C :   -0.240386
   2 C :   -0.181652
   3 C :   -0.203880
   4 C :   -0.179215
   5 C :   -0.233132
   6 C :   -0.289060
   7 C :   -0.278791
   8 O :   -0.010960
   9 H :    0.124274
  10 H :    0.126897
  11 H :    0.120756
  12 H :    0.158276
  13 H :    0.141554
  14 H :    0.132116
  15 H :    0.138079
  16 H :    0.141931
  17 H :    0.158948
  18 H :    0.127776
  19 H :    0.123176
  20 H :    0.121982
  21 H :    0.131478
  22 H :    0.171951

  Mayer bond orders larger than 0.1
B(  0-C ,  1-C ) :   0.8540 B(  0-C ,  9-H ) :   0.9399 B(  0-C , 10-H ) :   0.9371
B(  0-C , 11-H ) :   0.9430 B(  1-C ,  2-C ) :   0.9426 B(  1-C ,  7-C ) :   0.9187
B(  1-C , 12-H ) :   0.9183 B(  2-C ,  3-C ) :   0.8787 B(  2-C ,  4-C ) :   0.8640
B(  2-C , 13-H ) :   0.9319 B(  3-C ,  4-C ) :   0.8787 B(  3-C , 14-H ) :   0.9329
B(  3-C , 15-H ) :   0.9173 B(  4-C ,  5-C ) :   0.9634 B(  4-C , 16-H ) :   0.9294
B(  5-C ,  6-C ) :   0.8991 B(  5-C ,  7-C ) :   0.8926 B(  5-C , 17-H ) :   0.9216
B(  6-C , 18-H ) :   0.9348 B(  6-C , 19-H ) :   0.9380 B(  6-C , 20-H ) :   0.9400
B(  7-C ,  8-O ) :   0.9739 B(  7-C , 21-H ) :   0.9340 B(  8-O , 22-H ) :   0.8446

MP2 TOTAL ENERGY:     -387.626917479 Eh
FINAL SINGLE POINT ENERGY      -387.626917479334

DIPOLE MOMENT
-------------
                                X             Y             Z
Electronic contribution:      0.12529      -0.26547      -0.08859
Nuclear contribution   :     -0.72487       0.45161       0.08975
                        -----------------------------------------
Total Dipole Moment    :     -0.59958       0.18615       0.00116
                        -----------------------------------------
Magnitude (a.u.)       :      0.62782
Magnitude (Debye)      :      1.59578

                             ****ORCA TERMINATED NORMALLY****
TOTAL RUN TIME: 0 days 0 hours 22 minutes 17 seconds 807 msec
