                         Program Version 3.0.3 - RELEASE   -
|  1> ! RI-MP2 RIJK def2-TZVP def2-TZVP/C def2-TZVP/JK TIGHTSCF
|  2> % maxcore 2000
|  3> % mp2 density relaxed end
|  4> *xyz 0 1
|  5>  N       -0.1889737982     1.3930861516     0.0841536633
|  6>  C        0.0332004666    -0.0500153794    -0.0079201083
|  7>  C        0.7000903776    -0.4668558369    -1.2628943963
|  8>  N        1.2352794019    -0.7518045956    -2.2476485545
|  9>  C        0.8340300665    -0.5363662391     1.2047220044
| 10>  C        0.0479923299    -0.4975287467     2.5303111442
| 11>  O       -0.0445612009    -1.9379238048     2.5625767465
| 12>  C        0.8400376632    -2.0634728111     1.4307370494
| 13>  H        0.6926182950     1.8871811734    -0.0253746920
| 14>  H       -0.7916366039     1.7070359272    -0.6705558250
| 15>  H       -0.9488795841    -0.5387389461     0.0153750916
| 16>  H        1.8143249974    -0.0539035993     1.2163959672
| 17>  H        0.6100193129    -0.1031630987     3.3859379198
| 18>  H       -0.9329306028    -0.0120753121     2.4910906945
| 19>  H        0.4099096745    -2.6776866724     0.6302347961
| 20>  H        1.8145949946    -2.4807725001     1.7123967591
| 21> *
| 22>
| 23>                          ****END OF INPUT****

CARTESIAN COORDINATES (ANGSTROEM)
---------------------------------
  N     -0.188974    1.393086    0.084154
  C      0.033200   -0.050015   -0.007920
  C      0.700090   -0.466856   -1.262894
  N      1.235279   -0.751805   -2.247649
  C      0.834030   -0.536366    1.204722
  C      0.047992   -0.497529    2.530311
  O     -0.044561   -1.937924    2.562577
  C      0.840038   -2.063473    1.430737
  H      0.692618    1.887181   -0.025375
  H     -0.791637    1.707036   -0.670556
  H     -0.948880   -0.538739    0.015375
  H      1.814325   -0.053904    1.216396
  H      0.610019   -0.103163    3.385938
  H     -0.932931   -0.012075    2.491091
  H      0.409910   -2.677687    0.630235
  H      1.814595   -2.480773    1.712397

 Total Charge           Charge          ....    0
 Multiplicity           Mult            ....    1
 Number of Electrons    NEL             ....   60
 Basis Dimension        Dim             ....  296

ORBITAL ENERGIES
----------------

  NO   OCC          E(Eh)            E(eV)
   0   2.0000     -20.559672      -559.4571
   1   2.0000     -15.581624      -423.9975
   2   2.0000     -15.580857      -423.9767
   3   2.0000     -11.324990      -308.1686
   4   2.0000     -11.293733      -307.3181
   5   2.0000     -11.291339      -307.2529
   6   2.0000     -11.278989      -306.9169
   7   2.0000     -11.262665      -306.4727
   8   2.0000      -1.390909       -37.8486
   9   2.0000      -1.245905       -33.9028
  10   2.0000      -1.211284       -32.9607
  11   2.0000      -1.064244       -28.9596
  12   2.0000      -0.951754       -25.8985
  13   2.0000      -0.942718       -25.6527
  14   2.0000      -0.789738       -21.4899
  15   2.0000      -0.744967       -20.2716
  16   2.0000      -0.709496       -19.3064
  17   2.0000      -0.692475       -18.8432
  18   2.0000      -0.658802       -17.9269
  19   2.0000      -0.615627       -16.7521
  20   2.0000      -0.604099       -16.4384
  21   2.0000      -0.576517       -15.6878
  22   2.0000      -0.567724       -15.4486
  23   2.0000      -0.553504       -15.0616
  24   2.0000      -0.493830       -13.4378
  25   2.0000      -0.482972       -13.1423
  26   2.0000      -0.473490       -12.8843
  27   2.0000      -0.463404       -12.6099
  28   2.0000      -0.440805       -11.9949
  29   2.0000      -0.427316       -11.6279
  30   0.0000       0.111909         3.0452
  31   0.0000       0.141034         3.8377
  32   0.0000       0.141727         3.8566
  33   0.0000       0.159702         4.3457
  34   0.0000       0.172682         4.6989

MULLIKEN ATOMIC CHARGES
-----------------------
   0 N :   -0.519421
   1 C :    0.050278
   2 C :   -0.219462
   3 N :   -0.056433
   4 C :   -0.068600
   5 C :   -0.014020
   6 O :   -0.327932
   7 C :   -0.043084
   8 H :    0.239554
   9 H :    0.243524
  10 H :    0.155614
  11 H :    0.127629
  12 H :    0.098365
  13 H :    0.115928
  14 H :    0.112371
  15 H :    0.105688
Sum of atomic charges:    0.0000000

LOEWDIN ATOMIC CHARGES
----------------------
   0 N :   -0.117954
   1 C :   -0.312220
   2 C :   -0.180665
   3 N :    0.062211
   4 C :   -0.214058
   5 C :   -0.245560
   6 O :    0.111746
   7 C :   -0.246069
   8 H :    0.163068
   9 H :    0.162523
  10 H :    0.176429
  11 H :    0.150232
  12 H :    0.120262
  13 H :    0.124390
  14 H :    0.124078
  15 H :    0.121588

  Mayer bond orders larger than 0.1
B(  0-N ,  1-C ) :   0.9376 B(  0-N ,  8-H ) :   0.8871 B(  0-N ,  9-H ) :   0.8910
B(  1-C ,  2-C ) :   0.9103 B(  1-C ,  4-C ) :   0.9164 B(  1-C , 10-H ) :   0.9166
B(  2-C ,  3-N ) :   2.8640 B(  4-C ,  5-C ) :   0.9457 B(  4-C ,  7-C ) :   0.9611
B(  4-C , 11-H ) :   0.9005 B(  5-C ,  6-O ) :   0.9450 B(  5-C , 12-H ) :   0.9177
B(  5-C , 13-H ) :   0.9061 B(  6-O ,  7-C ) :   0.9491 B(  7-C , 14-H ) :   0.9106
B(  7-C , 15-H ) :   0.9127

MP2 TOTAL ENERGY:     -379.269034510 Eh
FINAL SINGLE POINT ENERGY      -379.269034510315

DIPOLE MOMENT
-------------
                                X             Y             Z
Electronic contribution:      0.49179      -1.53875      -3.36891
Nuclear contribution   :     -0.58964       2.39178       3.78706
                        -----------------------------------------
Total Dipole Moment    :     -0.09784       0.85302       0.41816
                        -----------------------------------------
Magnitude (a.u.)       :      0.95503
Magnitude (Debye)      :      2.42749

                             ****ORCA TERMINATED NORMALLY****
TOTAL RUN TIME: 0 days 0 hours 12 minutes 12 seconds 137 msec
