                         Program Version 3.0.3 - RELEASE   -
|  1> ! RI-MP2 RIJK def2-TZVP def2-TZVP/C def2-TZVP/JK TIGHTSCF
|  2> % maxcore 2000
|  3> % mp2 density relaxed end
|  4> *xyz 0 1
|  5>  C        0.0483061551     1.5020056963    -0.1386995064
|  6>  C       -0.0430903571     0.0182755466     0.1490570890
|  7>  C       -1.1632575249    -0.6965369544    -0.5791381837
|  8>  O        1.2087137092    -0.6947369476     0.1460744261
|  9>  C        0.4850527966    -0.5891701790     1.3865668109
| 10>  C        1.2108560733     0.1297046761     2.4969792699
| 11>  O        2.3025164203    -0.6477133831     2.9632055464
| 12>  H        0.9235683046     1.9564319485     0.3263359107
| 13>  H        0.1192068834     1.6655469802    -1.2195917248
| 14>  H       -0.8481391336     2.0211630331     0.2170796562
| 15>  H       -1.0523924620    -0.5737040855    -1.6620177603
| 16>  H       -1.1553238814    -1.7654048508    -0.3534538518
| 17>  H       -2.1374601519    -0.2852745932    -0.2935272163
| 18>  H        0.0383188507    -1.5335669703     1.7056362113
| 19>  H        1.5419914110     1.1240147029     2.1697890102
| 20>  H        0.5411384728     0.2639810951     3.3537136490
| 21>  H        2.8511787839    -0.8363654249     2.1930592836
| 22> *
| 23>
| 24>                          ****END OF INPUT****

CARTESIAN COORDINATES (ANGSTROEM)
---------------------------------
  C      0.048306    1.502006   -0.138700
  C     -0.043090    0.018276    0.149057
  C     -1.163258   -0.696537   -0.579138
  O      1.208714   -0.694737    0.146074
  C      0.485053   -0.589170    1.386567
  C      1.210856    0.129705    2.496979
  O      2.302516   -0.647713    2.963206
  H      0.923568    1.956432    0.326336
  H      0.119207    1.665547   -1.219592
  H     -0.848139    2.021163    0.217080
  H     -1.052392   -0.573704   -1.662018
  H     -1.155324   -1.765405   -0.353454
  H     -2.137460   -0.285275   -0.293527
  H      0.038319   -1.533567    1.705636
  H      1.541991    1.124015    2.169789
  H      0.541138    0.263981    3.353714
  H      2.851179   -0.836365    2.193059

 Total Charge           Charge          ....    0
 Multiplicity           Mult            ....    1
 Number of Electrons    NEL             ....   56
 Basis Dimension        Dim             ....  277

ORBITAL ENERGIES
----------------

  NO   OCC          E(Eh)            E(eV)
   0   2.0000     -20.565062      -559.6038
   1   2.0000     -20.556102      -559.3600
   2   2.0000     -11.300265      -307.4959
   3   2.0000     -11.284205      -307.0588
   4   2.0000     -11.281779      -306.9928
   5   2.0000     -11.229942      -305.5823
   6   2.0000     -11.227646      -305.5198
   7   2.0000      -1.411306       -38.4036
   8   2.0000      -1.358962       -36.9792
   9   2.0000      -1.046889       -28.4873
  10   2.0000      -0.989044       -26.9133
  11   2.0000      -0.955435       -25.9987
  12   2.0000      -0.849856       -23.1258
  13   2.0000      -0.773717       -21.0539
  14   2.0000      -0.710927       -19.3453
  15   2.0000      -0.659563       -17.9476
  16   2.0000      -0.640364       -17.4252
  17   2.0000      -0.615607       -16.7515
  18   2.0000      -0.608825       -16.5670
  19   2.0000      -0.575494       -15.6600
  20   2.0000      -0.560483       -15.2515
  21   2.0000      -0.549914       -14.9639
  22   2.0000      -0.528752       -14.3881
  23   2.0000      -0.514547       -14.0015
  24   2.0000      -0.496606       -13.5133
  25   2.0000      -0.462183       -12.5766
  26   2.0000      -0.436610       -11.8807
  27   2.0000      -0.423223       -11.5165
  28   0.0000       0.132974         3.6184
  29   0.0000       0.162773         4.4293
  30   0.0000       0.169847         4.6218
  31   0.0000       0.178543         4.8584
  32   0.0000       0.192235         5.2310

MULLIKEN ATOMIC CHARGES
-----------------------
   0 C :   -0.388949
   1 C :    0.177022
   2 C :   -0.395418
   3 O :   -0.358923
   4 C :   -0.035255
   5 C :    0.016697
   6 O :   -0.474531
   7 H :    0.134619
   8 H :    0.137189
   9 H :    0.134573
  10 H :    0.135547
  11 H :    0.141615
  12 H :    0.129323
  13 H :    0.111901
  14 H :    0.100327
  15 H :    0.107549
  16 H :    0.326715
Sum of atomic charges:   -0.0000000

LOEWDIN ATOMIC CHARGES
----------------------
   0 C :   -0.267303
   1 C :   -0.347349
   2 C :   -0.265992
   3 O :    0.161703
   4 C :   -0.263352
   5 C :   -0.330906
   6 O :   -0.045252
   7 H :    0.126861
   8 H :    0.132223
   9 H :    0.132082
  10 H :    0.130207
  11 H :    0.131925
  12 H :    0.130502
  13 H :    0.140738
  14 H :    0.119977
  15 H :    0.133806
  16 H :    0.180128

  Mayer bond orders larger than 0.1
B(  0-C ,  1-C ) :   0.8908 B(  0-C ,  7-H ) :   0.9409 B(  0-C ,  8-H ) :   0.9346
B(  0-C ,  9-H ) :   0.9280 B(  1-C ,  2-C ) :   0.8994 B(  1-C ,  3-O ) :   0.8981
B(  1-C ,  4-C ) :   0.9521 B(  2-C , 10-H ) :   0.9353 B(  2-C , 11-H ) :   0.9378
B(  2-C , 12-H ) :   0.9286 B(  3-O ,  4-C ) :   0.8325 B(  4-C ,  5-C ) :   0.9427
B(  4-C , 13-H ) :   0.9092 B(  5-C ,  6-O ) :   0.9056 B(  5-C , 14-H ) :   0.9225
B(  5-C , 15-H ) :   0.9222 B(  6-O , 16-H ) :   0.8383

MP2 TOTAL ENERGY:     -346.279181839 Eh
FINAL SINGLE POINT ENERGY      -346.279181838679

DIPOLE MOMENT
-------------
                                X             Y             Z
Electronic contribution:      4.26582      -2.79289       2.40501
Nuclear contribution   :     -5.02499       3.27781      -2.76553
                        -----------------------------------------
Total Dipole Moment    :     -0.75917       0.48492      -0.36052
                        -----------------------------------------
Magnitude (a.u.)       :      0.97029
Magnitude (Debye)      :      2.46629

                             ****ORCA TERMINATED NORMALLY****
TOTAL RUN TIME: 0 days 0 hours 7 minutes 51 seconds 225 msec
