                         Program Version 3.0.3 - RELEASE   -
|  1> ! RI-MP2 RIJK def2-TZVP def2-TZVP/C def2-TZVP/JK TIGHTSCF
|  2> % maxcore 2000
|  3> % mp2 density relaxed end
|  4> *xyz 0 1
|  5>  C        0.0032034369     1.4023462208    -0.0373217379
|  6>  C       -0.0023568538    -0.0512352065    -0.0080558349
|  7>  C       -0.0046712944    -1.2558390026     0.0093713394
|  8>  C       -0.0163769945    -2.6844824466     0.0531542284
|  9>  C        0.8126414629    -3.6561491104     0.9469710452
| 10>  C        0.0586571685    -4.4757448828    -0.1227533740
| 11>  C       -1.2251549354    -3.6637063272     0.1546509607
| 12>  O        0.4490115046    -3.4698435995    -1.1363173147
| 13>  H        0.6954363728     1.8134192227     0.7055098211
| 14>  H        0.3136055613     1.7703552903    -1.0213407976
| 15>  H       -0.9928038745     1.8082617186     0.1705613055
| 16>  H        1.8918891615    -3.5896454179     0.8086678123
| 17>  H        0.5143715836    -3.7606348845     1.9930910567
| 18>  H        0.1679374629    -5.5244115222    -0.3938150561
| 19>  H       -1.7112080268    -3.7688957267     1.1277583322
| 20>  H       -1.9279270158    -3.6037988957    -0.6765221762
| 21> *
| 22>
| 23>                          ****END OF INPUT****

CARTESIAN COORDINATES (ANGSTROEM)
---------------------------------
  C      0.003203    1.402346   -0.037322
  C     -0.002357   -0.051235   -0.008056
  C     -0.004671   -1.255839    0.009371
  C     -0.016377   -2.684482    0.053154
  C      0.812641   -3.656149    0.946971
  C      0.058657   -4.475745   -0.122753
  C     -1.225155   -3.663706    0.154651
  O      0.449012   -3.469844   -1.136317
  H      0.695436    1.813419    0.705510
  H      0.313606    1.770355   -1.021341
  H     -0.992804    1.808262    0.170561
  H      1.891889   -3.589645    0.808668
  H      0.514372   -3.760635    1.993091
  H      0.167937   -5.524412   -0.393815
  H     -1.711208   -3.768896    1.127758
  H     -1.927927   -3.603799   -0.676522

 Total Charge           Charge          ....    0
 Multiplicity           Mult            ....    1
 Number of Electrons    NEL             ....   58
 Basis Dimension        Dim             ....  296

ORBITAL ENERGIES
----------------

  NO   OCC          E(Eh)            E(eV)
   0   2.0000     -20.548590      -559.1556
   1   2.0000     -11.322547      -308.1022
   2   2.0000     -11.300082      -307.4909
   3   2.0000     -11.252153      -306.1866
   4   2.0000     -11.241046      -305.8844
   5   2.0000     -11.241032      -305.8840
   6   2.0000     -11.238401      -305.8124
   7   2.0000     -11.222730      -305.3860
   8   2.0000      -1.393029       -37.9062
   9   2.0000      -1.083867       -29.4935
  10   2.0000      -1.062553       -28.9135
  11   2.0000      -0.982743       -26.7418
  12   2.0000      -0.928519       -25.2663
  13   2.0000      -0.889204       -24.1965
  14   2.0000      -0.763069       -20.7642
  15   2.0000      -0.733422       -19.9574
  16   2.0000      -0.636077       -17.3085
  17   2.0000      -0.628353       -17.0983
  18   2.0000      -0.625973       -17.0336
  19   2.0000      -0.593239       -16.1429
  20   2.0000      -0.593162       -16.1407
  21   2.0000      -0.559613       -15.2278
  22   2.0000      -0.508392       -13.8340
  23   2.0000      -0.498148       -13.5553
  24   2.0000      -0.484679       -13.1888
  25   2.0000      -0.477472       -12.9927
  26   2.0000      -0.416010       -11.3202
  27   2.0000      -0.380029       -10.3411
  28   2.0000      -0.367249        -9.9934
  29   0.0000       0.132938         3.6174
  30   0.0000       0.153938         4.1889
  31   0.0000       0.165316         4.4985
  32   0.0000       0.166831         4.5397
  33   0.0000       0.171250         4.6599

MULLIKEN ATOMIC CHARGES
-----------------------
   0 C :   -0.470561
   1 C :    0.083947
   2 C :    0.071237
   3 C :   -0.212604
   4 C :   -0.113776
   5 C :   -0.061807
   6 C :   -0.113806
   7 O :   -0.293404
   8 H :    0.165120
   9 H :    0.169287
  10 H :    0.165019
  11 H :    0.120099
  12 H :    0.114624
  13 H :    0.141903
  14 H :    0.114617
  15 H :    0.120107
Sum of atomic charges:    0.0000000

LOEWDIN ATOMIC CHARGES
----------------------
   0 C :   -0.289627
   1 C :   -0.069397
   2 C :   -0.042519
   3 C :   -0.264489
   4 C :   -0.164611
   5 C :   -0.236226
   6 C :   -0.164611
   7 O :    0.146786
   8 H :    0.142770
   9 H :    0.145388
  10 H :    0.142856
  11 H :    0.135195
  12 H :    0.130004
  13 H :    0.123284
  14 H :    0.130002
  15 H :    0.135195

  Mayer bond orders larger than 0.1
B(  0-C ,  1-C ) :   0.8537 B(  0-C ,  8-H ) :   0.9451 B(  0-C ,  9-H ) :   0.9401
B(  0-C , 10-H ) :   0.9453 B(  1-C ,  2-C ) :   2.6625 B(  1-C ,  3-C ) :  -0.1843
B(  2-C ,  3-C ) :   1.1748 B(  3-C ,  4-C ) :   0.8840 B(  3-C ,  6-C ) :   0.8840
B(  3-C ,  7-O ) :   0.9487 B(  4-C ,  5-C ) :   0.9310 B(  4-C , 11-H ) :   0.9184
B(  4-C , 12-H ) :   0.9169 B(  5-C ,  6-C ) :   0.9311 B(  5-C ,  7-O ) :   0.9012
B(  5-C , 13-H ) :   0.8946 B(  6-C , 14-H ) :   0.9169 B(  6-C , 15-H ) :   0.9184

MP2 TOTAL ENERGY:     -345.893855366 Eh
FINAL SINGLE POINT ENERGY      -345.893855365763

DIPOLE MOMENT
-------------
                                X             Y             Z
Electronic contribution:      0.79739      -2.64411      -2.02111
Nuclear contribution   :     -1.09084       2.92866       2.77141
                        -----------------------------------------
Total Dipole Moment    :     -0.29346       0.28455       0.75029
                        -----------------------------------------
Magnitude (a.u.)       :      0.85441
Magnitude (Debye)      :      2.17175

                             ****ORCA TERMINATED NORMALLY****
TOTAL RUN TIME: 0 days 0 hours 11 minutes 9 seconds 485 msec
