                         Program Version 3.0.3 - RELEASE   -
|  1> ! RI-MP2 RIJK def2-TZVP def2-TZVP/C def2-TZVP/JK TIGHTSCF
|  2> % maxcore 2000
|  3> % mp2 density relaxed end
|  4> *xyz 0 1
|  5>  C        0.0649631605     1.5040350045    -0.2355244957
|  6>  C       -0.0912212633    -0.0054521843    -0.0028661038
|  7>  C        0.6293102390    -0.4680822604     1.2321915453
|  8>  C        2.1148302881    -0.8623946915     1.2859884672
|  9>  C        1.0756022580    -1.8142429288     1.7611720696
| 10>  O        0.6896428919    -1.4658319488     3.1156343078
| 11>  C        0.1885485314    -0.2409476059     2.6449962091
| 12>  N       -0.4632721322     0.6474689058     3.2345459493
| 13>  C       -0.7711156682     0.4856707695     4.6488014700
| 14>  H        1.1169245810     1.7733545265    -0.3757335086
| 15>  H       -0.4878350071     1.8203104403    -1.1251825017
| 16>  H       -0.3150259147     2.0615371908     0.6248050632
| 17>  H       -1.1554121708    -0.2529642748     0.0905684287
| 18>  H        0.2860858466    -0.5624027060    -0.8691188085
| 19>  H        2.5427511629    -1.0725453479     0.3095319287
| 20>  H        2.7926590230    -0.4096682290     2.0031059907
| 21>  H        0.8874109263    -2.8283494760     1.4358074568
| 22>  H       -0.2746093365     1.2801535346     5.2172125823
| 23>  H       -1.8488101125     0.6137724929     4.7959366427
| 24>  H       -0.4692402033    -0.4831409415     5.0630327770
| 25> *
| 26>
| 27>                          ****END OF INPUT****

CARTESIAN COORDINATES (ANGSTROEM)
---------------------------------
  C      0.064963    1.504035   -0.235524
  C     -0.091221   -0.005452   -0.002866
  C      0.629310   -0.468082    1.232192
  C      2.114830   -0.862395    1.285988
  C      1.075602   -1.814243    1.761172
  O      0.689643   -1.465832    3.115634
  C      0.188549   -0.240948    2.644996
  N     -0.463272    0.647469    3.234546
  C     -0.771116    0.485671    4.648801
  H      1.116925    1.773355   -0.375734
  H     -0.487835    1.820310   -1.125183
  H     -0.315026    2.061537    0.624805
  H     -1.155412   -0.252964    0.090568
  H      0.286086   -0.562403   -0.869119
  H      2.542751   -1.072545    0.309532
  H      2.792659   -0.409668    2.003106
  H      0.887411   -2.828349    1.435807
  H     -0.274609    1.280154    5.217213
  H     -1.848810    0.613772    4.795937
  H     -0.469240   -0.483141    5.063033

 Total Charge           Charge          ....    0
 Multiplicity           Mult            ....    1
 Number of Electrons    NEL             ....   68
 Basis Dimension        Dim             ....  345

ORBITAL ENERGIES
----------------

  NO   OCC          E(Eh)            E(eV)
   0   2.0000     -20.584947      -560.1449
   1   2.0000     -15.540078      -422.8670
   2   2.0000     -11.331427      -308.3438
   3   2.0000     -11.305917      -307.6497
   4   2.0000     -11.258378      -306.3560
   5   2.0000     -11.252070      -306.1844
   6   2.0000     -11.239282      -305.8364
   7   2.0000     -11.237213      -305.7801
   8   2.0000     -11.214110      -305.1514
   9   2.0000      -1.432040       -38.9678
  10   2.0000      -1.214157       -33.0389
  11   2.0000      -1.148551       -31.2537
  12   2.0000      -1.033210       -28.1151
  13   2.0000      -0.953696       -25.9514
  14   2.0000      -0.887273       -24.1439
  15   2.0000      -0.841523       -22.8990
  16   2.0000      -0.837499       -22.7895
  17   2.0000      -0.695834       -18.9346
  18   2.0000      -0.682931       -18.5835
  19   2.0000      -0.681794       -18.5526
  20   2.0000      -0.643570       -17.5124
  21   2.0000      -0.608578       -16.5603
  22   2.0000      -0.597424       -16.2567
  23   2.0000      -0.580005       -15.7827
  24   2.0000      -0.563750       -15.3404
  25   2.0000      -0.554157       -15.0794
  26   2.0000      -0.530255       -14.4290
  27   2.0000      -0.527954       -14.3663
  28   2.0000      -0.505547       -13.7566
  29   2.0000      -0.489288       -13.3142
  30   2.0000      -0.456970       -12.4348
  31   2.0000      -0.405614       -11.0373
  32   2.0000      -0.398689       -10.8489
  33   2.0000      -0.374971       -10.2035
  34   0.0000       0.137962         3.7541
  35   0.0000       0.159058         4.3282
  36   0.0000       0.163551         4.4505
  37   0.0000       0.167830         4.5669
  38   0.0000       0.179963         4.8970

MULLIKEN ATOMIC CHARGES
-----------------------
   0 C :   -0.406887
   1 C :   -0.193965
   2 C :   -0.009615
   3 C :   -0.252714
   4 C :    0.060091
   5 O :   -0.303176
   6 C :    0.166172
   7 N :   -0.256808
   8 C :   -0.275864
   9 H :    0.121526
  10 H :    0.130544
  11 H :    0.157203
  12 H :    0.119366
  13 H :    0.108427
  14 H :    0.133316
  15 H :    0.147662
  16 H :    0.149483
  17 H :    0.136691
  18 H :    0.135891
  19 H :    0.132656
Sum of atomic charges:    0.0000000

LOEWDIN ATOMIC CHARGES
----------------------
   0 C :   -0.305631
   1 C :   -0.248078
   2 C :   -0.171481
   3 C :   -0.168206
   4 C :   -0.198368
   5 O :    0.215592
   6 C :   -0.313228
   7 N :    0.083669
   8 C :   -0.324544
   9 H :    0.121182
  10 H :    0.120134
  11 H :    0.129577
  12 H :    0.146861
  13 H :    0.141903
  14 H :    0.145542
  15 H :    0.139745
  16 H :    0.135856
  17 H :    0.119439
  18 H :    0.118070
  19 H :    0.111967

  Mayer bond orders larger than 0.1
B(  0-C ,  1-C ) :   0.9277 B(  0-C ,  9-H ) :   0.9363 B(  0-C , 10-H ) :   0.9370
B(  0-C , 11-H ) :   0.9324 B(  1-C ,  2-C ) :   0.9239 B(  1-C , 12-H ) :   0.9282
B(  1-C , 13-H ) :   0.9248 B(  2-C ,  3-C ) :   0.8582 B(  2-C ,  4-C ) :   0.8697
B(  2-C ,  6-C ) :   0.9254 B(  3-C ,  4-C ) :   0.8997 B(  3-C , 14-H ) :   0.9203
B(  3-C , 15-H ) :   0.9035 B(  4-C ,  5-O ) :   0.9144 B(  4-C , 16-H ) :   0.9108
B(  5-O ,  6-C ) :   1.0284 B(  6-C ,  7-N ) :   1.9670 B(  7-N ,  8-C ) :   0.8477
B(  8-C , 17-H ) :   0.9338 B(  8-C , 18-H ) :   0.9359 B(  8-C , 19-H ) :   0.9306

MP2 TOTAL ENERGY:     -402.419561508 Eh
FINAL SINGLE POINT ENERGY      -402.419561507647

DIPOLE MOMENT
-------------
                                X             Y             Z
Electronic contribution:      1.21100      -4.61037       3.75707
Nuclear contribution   :     -0.92494       4.21910      -4.36442
                        -----------------------------------------
Total Dipole Moment    :      0.28606      -0.39127      -0.60735
                        -----------------------------------------
Magnitude (a.u.)       :      0.77704
Magnitude (Debye)      :      1.97509

                             ****ORCA TERMINATED NORMALLY****
TOTAL RUN TIME: 0 days 0 hours 17 minutes 28 seconds 431 msec
