                         Program Version 3.0.3 - RELEASE   -
|  1> ! RI-MP2 RIJK def2-TZVP def2-TZVP/C def2-TZVP/JK TIGHTSCF
|  2> % maxcore 2000
|  3> % mp2 density relaxed end
|  4> *xyz 0 1
|  5>  C       -0.2263987231     1.2934190674     0.6242041150
|  6>  N       -0.1301950158    -0.1220305611     0.3071340558
|  7>  C       -1.1007741492    -0.7131729861    -0.2294848525
|  8>  C       -1.1324530283    -2.1716828903    -0.6355033272
|  9>  C       -2.6254139208    -2.4695309920    -0.7661161567
| 10>  O       -3.0837176958    -2.8773868217     0.5126843485
| 11>  C       -3.1688004725    -1.0876844338    -1.1687357491
| 12>  O       -2.3065657470    -0.1300972938    -0.5527401629
| 13>  H        0.5813049734     1.8294564557     0.1122634575
| 14>  H       -1.1817252228     1.7568227490     0.3539418422
| 15>  H       -0.0615696361     1.4297331197     1.6992553204
| 16>  H       -0.6254531733    -2.2972293461    -1.5983088274
| 17>  H       -0.6425172233    -2.8088726095     0.0997189187
| 18>  H       -2.8482308506    -3.2265508575    -1.5296017055
| 19>  H       -4.0396417831    -2.9840684202     0.4750440117
| 20>  H       -3.1504050846    -0.9548982136    -2.2591738204
| 21>  H       -4.1882882370    -0.9135772361    -0.8106601981
| 22> *
| 23>
| 24>                          ****END OF INPUT****

CARTESIAN COORDINATES (ANGSTROEM)
---------------------------------
  C     -0.226399    1.293419    0.624204
  N     -0.130195   -0.122031    0.307134
  C     -1.100774   -0.713173   -0.229485
  C     -1.132453   -2.171683   -0.635503
  C     -2.625414   -2.469531   -0.766116
  O     -3.083718   -2.877387    0.512684
  C     -3.168800   -1.087684   -1.168736
  O     -2.306566   -0.130097   -0.552740
  H      0.581305    1.829456    0.112263
  H     -1.181725    1.756823    0.353942
  H     -0.061570    1.429733    1.699255
  H     -0.625453   -2.297229   -1.598309
  H     -0.642517   -2.808873    0.099719
  H     -2.848231   -3.226551   -1.529602
  H     -4.039642   -2.984068    0.475044
  H     -3.150405   -0.954898   -2.259174
  H     -4.188288   -0.913577   -0.810660

 Total Charge           Charge          ....    0
 Multiplicity           Mult            ....    1
 Number of Electrons    NEL             ....   62
 Basis Dimension        Dim             ....  302

ORBITAL ENERGIES
----------------

  NO   OCC          E(Eh)            E(eV)
   0   2.0000     -20.587623      -560.2177
   1   2.0000     -20.572546      -559.8074
   2   2.0000     -15.528100      -422.5411
   3   2.0000     -11.324690      -308.1605
   4   2.0000     -11.302255      -307.5500
   5   2.0000     -11.297725      -307.4267
   6   2.0000     -11.239817      -305.8510
   7   2.0000     -11.229911      -305.5814
   8   2.0000      -1.426474       -38.8163
   9   2.0000      -1.377114       -37.4732
  10   2.0000      -1.205507       -32.8035
  11   2.0000      -1.066770       -29.0283
  12   2.0000      -0.986850       -26.8536
  13   2.0000      -0.908954       -24.7339
  14   2.0000      -0.832052       -22.6413
  15   2.0000      -0.762850       -20.7582
  16   2.0000      -0.728174       -19.8146
  17   2.0000      -0.680048       -18.5050
  18   2.0000      -0.669275       -18.2119
  19   2.0000      -0.636464       -17.3191
  20   2.0000      -0.600378       -16.3371
  21   2.0000      -0.597524       -16.2594
  22   2.0000      -0.568093       -15.4586
  23   2.0000      -0.557777       -15.1779
  24   2.0000      -0.547177       -14.8895
  25   2.0000      -0.521892       -14.2014
  26   2.0000      -0.499113       -13.5816
  27   2.0000      -0.493455       -13.4276
  28   2.0000      -0.460503       -12.5309
  29   2.0000      -0.397475       -10.8158
  30   2.0000      -0.371367       -10.1054
  31   0.0000       0.120755         3.2859
  32   0.0000       0.153875         4.1872
  33   0.0000       0.166558         4.5323
  34   0.0000       0.175278         4.7696
  35   0.0000       0.183238         4.9862

MULLIKEN ATOMIC CHARGES
-----------------------
   0 C :   -0.267424
   1 N :   -0.252555
   2 C :    0.121016
   3 C :   -0.148035
   4 C :    0.037240
   5 O :   -0.462935
   6 C :   -0.058985
   7 O :   -0.276824
   8 H :    0.131013
   9 H :    0.125883
  10 H :    0.133204
  11 H :    0.135731
  12 H :    0.145279
  13 H :    0.106705
  14 H :    0.314482
  15 H :    0.104814
  16 H :    0.111390
Sum of atomic charges:   -0.0000000

LOEWDIN ATOMIC CHARGES
----------------------
   0 C :   -0.333384
   1 N :    0.070458
   2 C :   -0.365750
   3 C :   -0.195493
   4 C :   -0.347683
   5 O :   -0.010137
   6 C :   -0.268140
   7 O :    0.230105
   8 H :    0.117198
   9 H :    0.108174
  10 H :    0.118128
  11 H :    0.155355
  12 H :    0.158584
  13 H :    0.133207
  14 H :    0.175318
  15 H :    0.126956
  16 H :    0.127103

  Mayer bond orders larger than 0.1
B(  0-C ,  1-N ) :   0.8578 B(  0-C ,  8-H ) :   0.9359 B(  0-C ,  9-H ) :   0.9305
B(  0-C , 10-H ) :   0.9360 B(  1-N ,  2-C ) :   1.9826 B(  2-C ,  3-C ) :   0.9291
B(  2-C ,  7-O ) :   1.0319 B(  3-C ,  4-C ) :   0.9098 B(  3-C , 11-H ) :   0.9144
B(  3-C , 12-H ) :   0.9032 B(  4-C ,  5-O ) :   0.9821 B(  4-C ,  6-C ) :   0.9451
B(  4-C , 13-H ) :   0.9333 B(  5-O , 14-H ) :   0.8454 B(  6-C ,  7-O ) :   0.9075
B(  6-C , 15-H ) :   0.9175 B(  6-C , 16-H ) :   0.9245

MP2 TOTAL ENERGY:     -400.361025832 Eh
FINAL SINGLE POINT ENERGY      -400.361025831778

DIPOLE MOMENT
-------------
                                X             Y             Z
Electronic contribution:     -0.88421      -1.54838       0.45269
Nuclear contribution   :     -0.25282       1.12059      -1.33122
                        -----------------------------------------
Total Dipole Moment    :     -1.13702      -0.42779      -0.87852
                        -----------------------------------------
Magnitude (a.u.)       :      1.49921
Magnitude (Debye)      :      3.81069

                             ****ORCA TERMINATED NORMALLY****
TOTAL RUN TIME: 0 days 0 hours 11 minutes 40 seconds 151 msec
