                         Program Version 3.0.3 - RELEASE   -
|  1> ! RI-MP2 RIJK def2-TZVP def2-TZVP/C def2-TZVP/JK TIGHTSCF
|  2> % maxcore 2000
|  3> % mp2 density relaxed end
|  4> *xyz 0 1
|  5>  C       -0.0811760420     1.4455416970    -0.0714348017
|  6>  N       -0.0014427181    -0.0052298712    -0.0413011478
|  7>  C        0.5842213299    -0.5653103703     0.9435081949
|  8>  C        1.2425473630    -0.0081083767     2.1207970207
|  9>  N        1.8095311332    -0.7105510427     3.0507118609
| 10>  N        1.8107189984    -2.0785797143     3.0031182254
| 11>  C        1.2545155532    -2.6483855031     1.9598551063
| 12>  N        1.3176252661    -4.0138300249     1.8483820036
| 13>  N        0.6587305537    -1.9652960649     0.9516173558
| 14>  H        0.2879333612    -2.4314723906     0.1340618213
| 15>  H        0.9083597548     1.9236953775    -0.1116111806
| 16>  H       -0.6272416661     1.7491797648    -0.9682271695
| 17>  H       -0.6146605361     1.8614465838     0.7956150575
| 18>  H        1.2785382061     1.0689662007     2.2390276747
| 19>  H        1.6329658984    -4.4526641224     2.7017860909
| 20>  H        0.5427977042    -4.4818410828     1.4026031975
| 21> *
| 22>
| 23>                          ****END OF INPUT****

CARTESIAN COORDINATES (ANGSTROEM)
---------------------------------
  C     -0.081176    1.445542   -0.071435
  N     -0.001443   -0.005230   -0.041301
  C      0.584221   -0.565310    0.943508
  C      1.242547   -0.008108    2.120797
  N      1.809531   -0.710551    3.050712
  N      1.810719   -2.078580    3.003118
  C      1.254516   -2.648386    1.959855
  N      1.317625   -4.013830    1.848382
  N      0.658731   -1.965296    0.951617
  H      0.287933   -2.431472    0.134062
  H      0.908360    1.923695   -0.111611
  H     -0.627242    1.749180   -0.968227
  H     -0.614661    1.861447    0.795615
  H      1.278538    1.068966    2.239028
  H      1.632966   -4.452664    2.701786
  H      0.542798   -4.481841    1.402603

 Total Charge           Charge          ....    0
 Multiplicity           Mult            ....    1
 Number of Electrons    NEL             ....   66
 Basis Dimension        Dim             ....  321

ORBITAL ENERGIES
----------------

  NO   OCC          E(Eh)            E(eV)
   0   2.0000     -15.630146      -425.3179
   1   2.0000     -15.619990      -425.0415
   2   2.0000     -15.602956      -424.5780
   3   2.0000     -15.567697      -423.6186
   4   2.0000     -15.543416      -422.9579
   5   2.0000     -11.380559      -309.6807
   6   2.0000     -11.335626      -308.4581
   7   2.0000     -11.273213      -306.7597
   8   2.0000     -11.248238      -306.0801
   9   2.0000      -1.380396       -37.5625
  10   2.0000      -1.281461       -34.8703
  11   2.0000      -1.261175       -34.3183
  12   2.0000      -1.191344       -32.4181
  13   2.0000      -1.098038       -29.8791
  14   2.0000      -0.962395       -26.1881
  15   2.0000      -0.922071       -25.0908
  16   2.0000      -0.856799       -23.3147
  17   2.0000      -0.785829       -21.3835
  18   2.0000      -0.747070       -20.3288
  19   2.0000      -0.713170       -19.4063
  20   2.0000      -0.685182       -18.6448
  21   2.0000      -0.648266       -17.6402
  22   2.0000      -0.642284       -17.4774
  23   2.0000      -0.621519       -16.9124
  24   2.0000      -0.589046       -16.0288
  25   2.0000      -0.557239       -15.1633
  26   2.0000      -0.512713       -13.9516
  27   2.0000      -0.496276       -13.5044
  28   2.0000      -0.490526       -13.3479
  29   2.0000      -0.432428       -11.7670
  30   2.0000      -0.408193       -11.1075
  31   2.0000      -0.397694       -10.8218
  32   2.0000      -0.319841        -8.7033
  33   0.0000       0.084416         2.2971
  34   0.0000       0.110872         3.0170
  35   0.0000       0.147078         4.0022
  36   0.0000       0.159388         4.3372
  37   0.0000       0.166478         4.5301

MULLIKEN ATOMIC CHARGES
-----------------------
   0 C :   -0.323165
   1 N :   -0.249346
   2 C :    0.181796
   3 C :   -0.175459
   4 N :   -0.105371
   5 N :   -0.227805
   6 C :    0.339696
   7 N :   -0.503857
   8 N :   -0.282181
   9 H :    0.244992
  10 H :    0.135495
  11 H :    0.146316
  12 H :    0.134037
  13 H :    0.149564
  14 H :    0.279582
  15 H :    0.255707
Sum of atomic charges:    0.0000000

LOEWDIN ATOMIC CHARGES
----------------------
   0 C :   -0.342895
   1 N :    0.052065
   2 C :   -0.343458
   3 C :   -0.219417
   4 N :    0.067276
   5 N :   -0.001444
   6 C :   -0.429832
   7 N :   -0.038171
   8 N :    0.206113
   9 H :    0.203167
  10 H :    0.113243
  11 H :    0.116822
  12 H :    0.112643
  13 H :    0.146899
  14 H :    0.185981
  15 H :    0.171007

  Mayer bond orders larger than 0.1
B(  0-C ,  1-N ) :   0.8985 B(  0-C , 10-H ) :   0.9294 B(  0-C , 11-H ) :   0.9444
B(  0-C , 12-H ) :   0.9300 B(  1-N ,  2-C ) :   1.8483 B(  2-C ,  3-C ) :   1.0078
B(  2-C ,  8-N ) :   1.0034 B(  3-C ,  4-N ) :   1.7383 B(  3-C , 13-H ) :   0.9403
B(  4-N ,  5-N ) :   0.9646 B(  5-N ,  6-C ) :   1.6292 B(  6-C ,  7-N ) :   1.1090
B(  6-C ,  8-N ) :   1.1621 B(  7-N , 14-H ) :   0.8577 B(  7-N , 15-H ) :   0.8682
B(  8-N ,  9-H ) :   0.8451

MP2 TOTAL ENERGY:     -429.520186772 Eh
FINAL SINGLE POINT ENERGY      -429.520186772286

DIPOLE MOMENT
-------------
                                X             Y             Z
Electronic contribution:      2.19989      -4.17311       3.34384
Nuclear contribution   :     -2.98164       3.33728      -4.11044
                        -----------------------------------------
Total Dipole Moment    :     -0.78175      -0.83583      -0.76660
                        -----------------------------------------
Magnitude (a.u.)       :      1.37747
Magnitude (Debye)      :      3.50124

                             ****ORCA TERMINATED NORMALLY****
TOTAL RUN TIME: 0 days 0 hours 16 minutes 35 seconds 627 msec
