                         Program Version 3.0.3 - RELEASE   -
|  1> ! RI-MP2 RIJK def2-TZVP def2-TZVP/C def2-TZVP/JK TIGHTSCF
|  2> % maxcore 2000
|  3> % mp2 density relaxed end
|  4> *xyz 0 1
|  5>  C        0.1044244782     1.1241987782    -0.5278989103
|  6>  O       -0.1892277886     0.2030515706     0.5027658613
|  7>  C       -1.3850822960    -0.4785241573     0.2990020782
|  8>  C       -1.4015200176    -1.6892273945    -0.6048057212
|  9>  C       -1.5064062914    -1.8435139526     0.9047828501
| 10>  C       -0.3639888747    -2.4493391109     1.6910359744
| 11>  C       -0.3728353987    -3.9922828449     1.6305924960
| 12>  C        0.7118124337    -4.5969594376     2.3937960643
| 13>  C        1.6162228761    -5.0689167809     3.0298545016
| 14>  H        1.0529405862     1.6020362817    -0.2721611492
| 15>  H        0.2012614533     0.6255909926    -1.5030080425
| 16>  H       -0.6732637248     1.8985669598    -0.6116059103
| 17>  H       -2.2676405253     0.1641190446     0.3024000280
| 18>  H       -2.2712219063    -1.8800062487    -1.2240160707
| 19>  H       -0.4524923405    -1.9636865369    -1.0551376845
| 20>  H       -2.4953049528    -2.0911416715     1.2842614269
| 21>  H        0.5884425703    -2.0729611402     1.3096217765
| 22>  H       -0.4229415926    -2.1330756782     2.7387447249
| 23>  H       -1.3349320014    -4.3683165033     2.0034728527
| 24>  H       -0.3099312218    -4.3128502412     0.5828380518
| 25>  H        2.4109091446    -5.4961907587     3.5891301120
| 26> *
| 27>
| 28>                          ****END OF INPUT****

CARTESIAN COORDINATES (ANGSTROEM)
---------------------------------
  C      0.104424    1.124199   -0.527899
  O     -0.189228    0.203052    0.502766
  C     -1.385082   -0.478524    0.299002
  C     -1.401520   -1.689227   -0.604806
  C     -1.506406   -1.843514    0.904783
  C     -0.363989   -2.449339    1.691036
  C     -0.372835   -3.992283    1.630592
  C      0.711812   -4.596959    2.393796
  C      1.616223   -5.068917    3.029855
  H      1.052941    1.602036   -0.272161
  H      0.201261    0.625591   -1.503008
  H     -0.673264    1.898567   -0.611606
  H     -2.267641    0.164119    0.302400
  H     -2.271222   -1.880006   -1.224016
  H     -0.452492   -1.963687   -1.055138
  H     -2.495305   -2.091142    1.284261
  H      0.588443   -2.072961    1.309622
  H     -0.422942   -2.133076    2.738745
  H     -1.334932   -4.368317    2.003473
  H     -0.309931   -4.312850    0.582838
  H      2.410909   -5.496191    3.589130

 Total Charge           Charge          ....    0
 Multiplicity           Mult            ....    1
 Number of Electrons    NEL             ....   68
 Basis Dimension        Dim             ....  351

ORBITAL ENERGIES
----------------

  NO   OCC          E(Eh)            E(eV)
   0   2.0000     -20.561806      -559.5152
   1   2.0000     -11.282813      -307.0209
   2   2.0000     -11.272754      -306.7472
   3   2.0000     -11.246734      -306.0392
   4   2.0000     -11.234083      -305.6949
   5   2.0000     -11.227423      -305.5137
   6   2.0000     -11.226875      -305.4988
   7   2.0000     -11.225951      -305.4737
   8   2.0000     -11.213265      -305.1285
   9   2.0000      -1.385685       -37.7064
  10   2.0000      -1.143629       -31.1197
  11   2.0000      -1.071490       -29.1567
  12   2.0000      -0.992373       -27.0038
  13   2.0000      -0.935087       -25.4450
  14   2.0000      -0.893175       -24.3045
  15   2.0000      -0.812628       -22.1127
  16   2.0000      -0.773454       -21.0468
  17   2.0000      -0.714741       -19.4491
  18   2.0000      -0.697437       -18.9782
  19   2.0000      -0.664672       -18.0866
  20   2.0000      -0.635659       -17.2972
  21   2.0000      -0.627318       -17.0702
  22   2.0000      -0.610148       -16.6030
  23   2.0000      -0.598291       -16.2803
  24   2.0000      -0.562938       -15.3183
  25   2.0000      -0.543395       -14.7865
  26   2.0000      -0.517336       -14.0774
  27   2.0000      -0.505389       -13.7523
  28   2.0000      -0.487926       -13.2771
  29   2.0000      -0.464393       -12.6368
  30   2.0000      -0.413280       -11.2459
  31   2.0000      -0.393730       -10.7139
  32   2.0000      -0.379056       -10.3146
  33   2.0000      -0.375104       -10.2071
  34   0.0000       0.138393         3.7659
  35   0.0000       0.151761         4.1296
  36   0.0000       0.155899         4.2422
  37   0.0000       0.172289         4.6882
  38   0.0000       0.178558         4.8588

MULLIKEN ATOMIC CHARGES
-----------------------
   0 C :   -0.210356
   1 O :   -0.309180
   2 C :    0.046005
   3 C :   -0.304031
   4 C :   -0.092284
   5 C :   -0.202220
   6 C :   -0.396416
   7 C :   -0.002537
   8 C :   -0.124551
   9 H :    0.140200
  10 H :    0.115526
  11 H :    0.112116
  12 H :    0.103245
  13 H :    0.130881
  14 H :    0.138795
  15 H :    0.119767
  16 H :    0.138476
  17 H :    0.126391
  18 H :    0.137130
  19 H :    0.145431
  20 H :    0.187612
Sum of atomic charges:   -0.0000000

LOEWDIN ATOMIC CHARGES
----------------------
   0 C :   -0.347157
   1 O :    0.170109
   2 C :   -0.303776
   3 C :   -0.217444
   4 C :   -0.209408
   5 C :   -0.227085
   6 C :   -0.245457
   7 C :   -0.112258
   8 C :   -0.112240
   9 H :    0.113348
  10 H :    0.102906
  11 H :    0.102974
  12 H :    0.132900
  13 H :    0.129810
  14 H :    0.139830
  15 H :    0.149674
  16 H :    0.149531
  17 H :    0.146590
  18 H :    0.155443
  19 H :    0.156690
  20 H :    0.125021

  Mayer bond orders larger than 0.1
B(  0-C ,  1-O ) :   0.9030 B(  0-C ,  9-H ) :   0.9389 B(  0-C , 10-H ) :   0.9351
B(  0-C , 11-H ) :   0.9377 B(  1-O ,  2-C ) :   0.9721 B(  2-C ,  3-C ) :   0.8974
B(  2-C ,  4-C ) :   0.8954 B(  2-C , 12-H ) :   0.9345 B(  3-C ,  4-C ) :   0.8757
B(  3-C , 13-H ) :   0.9195 B(  3-C , 14-H ) :   0.9227 B(  4-C ,  5-C ) :   0.9110
B(  4-C , 15-H ) :   0.9175 B(  5-C ,  6-C ) :   0.9248 B(  5-C , 16-H ) :   0.9271
B(  5-C , 17-H ) :   0.9301 B(  6-C ,  7-C ) :   1.1170 B(  6-C ,  8-C ) :  -0.1222
B(  6-C , 18-H ) :   0.9195 B(  6-C , 19-H ) :   0.9293 B(  7-C ,  8-C ) :   2.6118
B(  8-C , 20-H ) :   0.8968

MP2 TOTAL ENERGY:     -386.340225464 Eh
FINAL SINGLE POINT ENERGY      -386.340225463818

DIPOLE MOMENT
-------------
                                X             Y             Z
Electronic contribution:      1.55021      -3.13388       3.74816
Nuclear contribution   :     -1.95419       3.46110      -4.28628
                        -----------------------------------------
Total Dipole Moment    :     -0.40398       0.32722      -0.53813
                        -----------------------------------------
Magnitude (a.u.)       :      0.74823
Magnitude (Debye)      :      1.90186

                             ****ORCA TERMINATED NORMALLY****
TOTAL RUN TIME: 0 days 0 hours 26 minutes 8 seconds 803 msec
