                         Program Version 3.0.3 - RELEASE   -
|  1> ! RI-MP2 RIJK def2-TZVP def2-TZVP/C def2-TZVP/JK TIGHTSCF
|  2> % maxcore 2000
|  3> % mp2 density relaxed end
|  4> *xyz 0 1
|  5>  O        0.0589533883    -0.0776669630    -0.2997061133
|  6>  C        0.0215680816     1.0627671078     0.0940690439
|  7>  C        1.2244649782     1.9398811673     0.1013664717
|  8>  C        1.1941638577     3.4494250024    -0.1629749121
|  9>  C       -0.1302861535     4.1357917751    -0.0248952153
| 10>  C       -0.5724000052     4.1269081038     1.2398850142
| 11>  C        0.4107701293     3.4280070249     2.1179736490
| 12>  O        0.3545108933     3.2823584869     3.3148387823
| 13>  C        1.5393067059     2.9639962507     1.2059439031
| 14>  H       -0.9198011844     1.5107837693     0.4669199416
| 15>  H        2.0986101126     1.4240159872    -0.2847387319
| 16>  H        1.9316544739     3.8386449918    -0.8549727089
| 17>  H       -0.6557990887     4.5494612504    -0.8779420988
| 18>  H       -1.5096586598     4.5177636781     1.6128248097
| 19>  H        2.5444101707     2.9473969071     1.6067709149
| 20> *
| 21>
| 22>                          ****END OF INPUT****

CARTESIAN COORDINATES (ANGSTROEM)
---------------------------------
  O      0.058953   -0.077667   -0.299706
  C      0.021568    1.062767    0.094069
  C      1.224465    1.939881    0.101366
  C      1.194164    3.449425   -0.162975
  C     -0.130286    4.135792   -0.024895
  C     -0.572400    4.126908    1.239885
  C      0.410770    3.428007    2.117974
  O      0.354511    3.282358    3.314839
  C      1.539307    2.963996    1.205944
  H     -0.919801    1.510784    0.466920
  H      2.098610    1.424016   -0.284739
  H      1.931654    3.838645   -0.854973
  H     -0.655799    4.549461   -0.877942
  H     -1.509659    4.517764    1.612825
  H      2.544410    2.947397    1.606771

 Total Charge           Charge          ....    0
 Multiplicity           Mult            ....    1
 Number of Electrons    NEL             ....   64
 Basis Dimension        Dim             ....  315

ORBITAL ENERGIES
----------------

  NO   OCC          E(Eh)            E(eV)
   0   2.0000     -20.563764      -559.5685
   1   2.0000     -20.559378      -559.4491
   2   2.0000     -11.350057      -308.8507
   3   2.0000     -11.343148      -308.6627
   4   2.0000     -11.288823      -307.1845
   5   2.0000     -11.285305      -307.0888
   6   2.0000     -11.282447      -307.0110
   7   2.0000     -11.275096      -306.8110
   8   2.0000     -11.259351      -306.3825
   9   2.0000      -1.402991       -38.1773
  10   2.0000      -1.401313       -38.1317
  11   2.0000      -1.227548       -33.4033
  12   2.0000      -1.084141       -29.5010
  13   2.0000      -0.949560       -25.8388
  14   2.0000      -0.936749       -25.4902
  15   2.0000      -0.824051       -22.4236
  16   2.0000      -0.798760       -21.7354
  17   2.0000      -0.749595       -20.3975
  18   2.0000      -0.725423       -19.7398
  19   2.0000      -0.685174       -18.6445
  20   2.0000      -0.643320       -17.5056
  21   2.0000      -0.633685       -17.2434
  22   2.0000      -0.625118       -17.0103
  23   2.0000      -0.602436       -16.3931
  24   2.0000      -0.568263       -15.4632
  25   2.0000      -0.557314       -15.1653
  26   2.0000      -0.552007       -15.0209
  27   2.0000      -0.494239       -13.4489
  28   2.0000      -0.463909       -12.6236
  29   2.0000      -0.435484       -11.8501
  30   2.0000      -0.425578       -11.5806
  31   2.0000      -0.382663       -10.4128
  32   0.0000       0.063373         1.7245
  33   0.0000       0.114992         3.1291
  34   0.0000       0.132077         3.5940
  35   0.0000       0.151156         4.1132
  36   0.0000       0.169946         4.6245

MULLIKEN ATOMIC CHARGES
-----------------------
   0 O :   -0.260410
   1 C :    0.095591
   2 C :   -0.155945
   3 C :   -0.000243
   4 C :   -0.183089
   5 C :   -0.181322
   6 C :    0.147677
   7 O :   -0.264066
   8 C :   -0.076491
   9 H :    0.106223
  10 H :    0.143305
  11 H :    0.158746
  12 H :    0.151833
  13 H :    0.152395
  14 H :    0.165798
Sum of atomic charges:   -0.0000000

LOEWDIN ATOMIC CHARGES
----------------------
   0 O :    0.136813
   1 C :   -0.278233
   2 C :   -0.145445
   3 C :   -0.151423
   4 C :   -0.087714
   5 C :   -0.114914
   6 C :   -0.302355
   7 O :    0.161457
   8 C :   -0.117622
   9 H :    0.123002
  10 H :    0.164744
  11 H :    0.156405
  12 H :    0.146641
  13 H :    0.148056
  14 H :    0.160587

  Mayer bond orders larger than 0.1
B(  0-O ,  1-C ) :   1.9726 B(  1-C ,  2-C ) :   0.9241 B(  1-C ,  9-H ) :   0.9386
B(  2-C ,  3-C ) :   0.8027 B(  2-C ,  8-C ) :   0.7860 B(  2-C , 10-H ) :   0.9148
B(  3-C ,  4-C ) :   0.9186 B(  3-C ,  8-C ) :   0.8261 B(  3-C , 11-H ) :   0.9066
B(  4-C ,  5-C ) :   1.6777 B(  4-C , 12-H ) :   0.9174 B(  5-C ,  6-C ) :   0.9851
B(  5-C ,  8-C ) :  -0.1007 B(  5-C , 13-H ) :   0.9207 B(  6-C ,  7-O ) :   1.9862
B(  6-C ,  8-C ) :   0.9119 B(  8-C , 14-H ) :   0.9121

MP2 TOTAL ENERGY:     -419.926416030 Eh
FINAL SINGLE POINT ENERGY      -419.926416029743

DIPOLE MOMENT
-------------
                                X             Y             Z
Electronic contribution:     -0.48901      -1.45969       2.25284
Nuclear contribution   :      0.75804       2.67400      -3.24699
                        -----------------------------------------
Total Dipole Moment    :      0.26902       1.21431      -0.99415
                        -----------------------------------------
Magnitude (a.u.)       :      1.59225
Magnitude (Debye)      :      4.04717

                             ****ORCA TERMINATED NORMALLY****
TOTAL RUN TIME: 0 days 0 hours 15 minutes 21 seconds 530 msec
