                         Program Version 3.0.3 - RELEASE   -
|  1> ! RI-MP2 RIJK def2-TZVP def2-TZVP/C def2-TZVP/JK TIGHTSCF
|  2> % maxcore 2000
|  3> % mp2 density relaxed end
|  4> *xyz 0 1
|  5>  N       -0.0393228607     1.0888607871     0.5030048617
|  6>  C       -0.0007537129    -0.0770223033     0.0354705027
|  7>  N        0.9529190082    -0.9508205804    -0.5040454728
|  8>  C        0.0442825641    -2.0861823893    -0.6452696655
|  9>  C       -0.2431263949    -2.8990442574     0.6318946342
| 10>  O       -1.2342775536    -1.9388221239     1.0779878160
| 11>  C       -1.0967975455    -1.1491926389    -0.1203511483
| 12>  C       -2.3421148703    -0.8472167281    -0.7905890019
| 13>  N       -3.3260827894    -0.6137970343    -1.3490816900
| 14>  H        0.8818308933     1.5272108745     0.5461831581
| 15>  H        1.9316332728    -0.9978527166    -0.2542911659
| 16>  H        0.0538967265    -2.5868093209    -1.6117359114
| 17>  H       -0.7033206139    -3.8761293890     0.4479989522
| 18>  H        0.5868654363    -3.0021981094     1.3382168110
| 19> *
| 20>
| 21>                          ****END OF INPUT****

CARTESIAN COORDINATES (ANGSTROEM)
---------------------------------
  N     -0.039323    1.088861    0.503005
  C     -0.000754   -0.077022    0.035471
  N      0.952919   -0.950821   -0.504045
  C      0.044283   -2.086182   -0.645270
  C     -0.243126   -2.899044    0.631895
  O     -1.234278   -1.938822    1.077988
  C     -1.096798   -1.149193   -0.120351
  C     -2.342115   -0.847217   -0.790589
  N     -3.326083   -0.613797   -1.349082
  H      0.881831    1.527211    0.546183
  H      1.931633   -0.997853   -0.254291
  H      0.053897   -2.586809   -1.611736
  H     -0.703321   -3.876129    0.447999
  H      0.586865   -3.002198    1.338217

 Total Charge           Charge          ....    0
 Multiplicity           Mult            ....    1
 Number of Electrons    NEL             ....   64
 Basis Dimension        Dim             ....  309

ORBITAL ENERGIES
----------------

  NO   OCC          E(Eh)            E(eV)
   0   2.0000     -20.600179      -560.5594
   1   2.0000     -15.612679      -424.8426
   2   2.0000     -15.589327      -424.2072
   3   2.0000     -15.555939      -423.2986
   4   2.0000     -11.363316      -309.2116
   5   2.0000     -11.348131      -308.7983
   6   2.0000     -11.320849      -308.0560
   7   2.0000     -11.319155      -308.0099
   8   2.0000     -11.285817      -307.1027
   9   2.0000      -1.439218       -39.1631
  10   2.0000      -1.310064       -35.6487
  11   2.0000      -1.230656       -33.4879
  12   2.0000      -1.199983       -32.6532
  13   2.0000      -1.031570       -28.0704
  14   2.0000      -1.012926       -27.5631
  15   2.0000      -0.866733       -23.5850
  16   2.0000      -0.849465       -23.1151
  17   2.0000      -0.743780       -20.2393
  18   2.0000      -0.734152       -19.9773
  19   2.0000      -0.710456       -19.3325
  20   2.0000      -0.655978       -17.8501
  21   2.0000      -0.628087       -17.0911
  22   2.0000      -0.611189       -16.6313
  23   2.0000      -0.579179       -15.7602
  24   2.0000      -0.559980       -15.2378
  25   2.0000      -0.531414       -14.4605
  26   2.0000      -0.517148       -14.0723
  27   2.0000      -0.487743       -13.2722
  28   2.0000      -0.476999       -12.9798
  29   2.0000      -0.462464       -12.5843
  30   2.0000      -0.435548       -11.8519
  31   2.0000      -0.392986       -10.6937
  32   0.0000       0.102832         2.7982
  33   0.0000       0.121137         3.2963
  34   0.0000       0.136240         3.7073
  35   0.0000       0.148942         4.0529
  36   0.0000       0.162900         4.4327

MULLIKEN ATOMIC CHARGES
-----------------------
   0 N :   -0.346966
   1 C :    0.029574
   2 N :   -0.317680
   3 C :   -0.097213
   4 C :    0.001623
   5 O :   -0.306774
   6 C :    0.448211
   7 C :   -0.213286
   8 N :   -0.034246
   9 H :    0.220571
  10 H :    0.239423
  11 H :    0.150651
  12 H :    0.117690
  13 H :    0.108423
Sum of atomic charges:    0.0000000

LOEWDIN ATOMIC CHARGES
----------------------
   0 N :   -0.036227
   1 C :   -0.324013
   2 N :    0.117289
   3 C :   -0.186848
   4 C :   -0.236411
   5 O :    0.192101
   6 C :   -0.234237
   7 C :   -0.126478
   8 N :    0.098452
   9 H :    0.170049
  10 H :    0.173001
  11 H :    0.141200
  12 H :    0.128482
  13 H :    0.123641

  Mayer bond orders larger than 0.1
B(  0-N ,  1-C ) :   2.0866 B(  0-N ,  9-H ) :   0.8435 B(  1-C ,  2-N ) :   1.1176
B(  1-C ,  6-C ) :   0.7689 B(  2-N ,  3-C ) :   0.9689 B(  2-N ,  6-C ) :  -0.1016
B(  2-N , 10-H ) :   0.8556 B(  3-C ,  4-C ) :   0.9907 B(  3-C ,  6-C ) :   0.8803
B(  3-C , 11-H ) :   0.9108 B(  4-C ,  5-O ) :   0.9323 B(  4-C , 12-H ) :   0.9144
B(  4-C , 13-H ) :   0.8970 B(  5-O ,  6-C ) :   0.9418 B(  6-C ,  7-C ) :   0.9429
B(  7-C ,  8-N ) :   2.8352

MP2 TOTAL ENERGY:     -432.104331438 Eh
FINAL SINGLE POINT ENERGY      -432.104331437790

DIPOLE MOMENT
-------------
                                X             Y             Z
Electronic contribution:     -3.78434       2.07174      -0.92749
Nuclear contribution   :      6.17271      -3.37190       0.90134
                        -----------------------------------------
Total Dipole Moment    :      2.38837      -1.30016      -0.02615
                        -----------------------------------------
Magnitude (a.u.)       :      2.71945
Magnitude (Debye)      :      6.91229

                             ****ORCA TERMINATED NORMALLY****
TOTAL RUN TIME: 0 days 0 hours 15 minutes 50 seconds 225 msec
