                         Program Version 3.0.3 - RELEASE   -
|  1> ! RI-MP2 RIJK def2-TZVP def2-TZVP/C def2-TZVP/JK TIGHTSCF
|  2> % maxcore 2000
|  3> % mp2 density relaxed end
|  4> *xyz 0 1
|  5>  O        0.1045765898     1.4568882830    -0.0369981016
|  6>  C        0.0701695722     0.0430192630     0.0278991083
|  7>  C       -1.3596172610    -0.5133821568    -0.1026665900
|  8>  C       -1.4052658451    -2.0076876072    -0.0547146096
|  9>  C       -1.6323197696    -2.9183750260    -1.0364577737
| 10>  O       -1.5657347710    -4.1758832141    -0.5723570381
| 11>  N       -1.2763022931    -4.1324249833     0.7940346327
| 12>  C       -1.1865383745    -2.8565711299     1.0743102661
| 13>  O       -0.9179598907    -2.4119498740     2.3140556612
| 14>  H       -0.3141462365     1.8005545739     0.7585942545
| 15>  H        0.6792361111    -0.3135293350    -0.8090218895
| 16>  H        0.5299680230    -0.3350411391     0.9527245040
| 17>  H       -1.9701507966    -0.1018694408     0.7120506005
| 18>  H       -1.7933289683    -0.1498287045    -1.0392971341
| 19>  H       -1.8564726341    -2.8184054036    -2.0879643265
| 20>  H       -0.8200115656    -3.1824208157     2.8896370757
| 21> *
| 22>
| 23>                          ****END OF INPUT****

CARTESIAN COORDINATES (ANGSTROEM)
---------------------------------
  O      0.104577    1.456888   -0.036998
  C      0.070170    0.043019    0.027899
  C     -1.359617   -0.513382   -0.102667
  C     -1.405266   -2.007688   -0.054715
  C     -1.632320   -2.918375   -1.036458
  O     -1.565735   -4.175883   -0.572357
  N     -1.276302   -4.132425    0.794035
  C     -1.186538   -2.856571    1.074310
  O     -0.917960   -2.411950    2.314056
  H     -0.314146    1.800555    0.758594
  H      0.679236   -0.313529   -0.809022
  H      0.529968   -0.335041    0.952725
  H     -1.970151   -0.101869    0.712051
  H     -1.793329   -0.149829   -1.039297
  H     -1.856473   -2.818405   -2.087964
  H     -0.820012   -3.182421    2.889637

 Total Charge           Charge          ....    0
 Multiplicity           Mult            ....    1
 Number of Electrons    NEL             ....   68
 Basis Dimension        Dim             ....  321

ORBITAL ENERGIES
----------------

  NO   OCC          E(Eh)            E(eV)
   0   2.0000     -20.645153      -561.7832
   1   2.0000     -20.620509      -561.1126
   2   2.0000     -20.562845      -559.5435
   3   2.0000     -15.612087      -424.8265
   4   2.0000     -11.347299      -308.7757
   5   2.0000     -11.321077      -308.0622
   6   2.0000     -11.284230      -307.0595
   7   2.0000     -11.251332      -306.1643
   8   2.0000     -11.248899      -306.0981
   9   2.0000      -1.497941       -40.7610
  10   2.0000      -1.439652       -39.1749
  11   2.0000      -1.367772       -37.2190
  12   2.0000      -1.155523       -31.4434
  13   2.0000      -1.110414       -30.2159
  14   2.0000      -1.008339       -27.4383
  15   2.0000      -0.875214       -23.8158
  16   2.0000      -0.859757       -23.3952
  17   2.0000      -0.812955       -22.1216
  18   2.0000      -0.742902       -20.2154
  19   2.0000      -0.702752       -19.1229
  20   2.0000      -0.677259       -18.4292
  21   2.0000      -0.673926       -18.3385
  22   2.0000      -0.641792       -17.4641
  23   2.0000      -0.625050       -17.0085
  24   2.0000      -0.608551       -16.5595
  25   2.0000      -0.600309       -16.3352
  26   2.0000      -0.570602       -15.5269
  27   2.0000      -0.560188       -15.2435
  28   2.0000      -0.538075       -14.6418
  29   2.0000      -0.499237       -13.5849
  30   2.0000      -0.479984       -13.0610
  31   2.0000      -0.459054       -12.4915
  32   2.0000      -0.398174       -10.8349
  33   2.0000      -0.368150       -10.0179
  34   0.0000       0.121384         3.3030
  35   0.0000       0.124968         3.4005
  36   0.0000       0.142364         3.8739
  37   0.0000       0.153307         4.1717
  38   0.0000       0.180163         4.9025

MULLIKEN ATOMIC CHARGES
-----------------------
   0 O :   -0.467310
   1 C :   -0.050955
   2 C :   -0.207421
   3 C :   -0.098323
   4 C :    0.001720
   5 O :   -0.111663
   6 N :   -0.146786
   7 C :    0.187836
   8 O :   -0.427850
   9 H :    0.316593
  10 H :    0.116123
  11 H :    0.124565
  12 H :    0.124584
  13 H :    0.131542
  14 H :    0.161492
  15 H :    0.345853
Sum of atomic charges:   -0.0000000

LOEWDIN ATOMIC CHARGES
----------------------
   0 O :   -0.046326
   1 C :   -0.340010
   2 C :   -0.235051
   3 C :   -0.178547
   4 C :   -0.232721
   5 O :    0.269816
   6 N :    0.015599
   7 C :   -0.411140
   8 O :    0.089220
   9 H :    0.174504
  10 H :    0.130156
  11 H :    0.120862
  12 H :    0.147839
  13 H :    0.149604
  14 H :    0.140818
  15 H :    0.205377

  Mayer bond orders larger than 0.1
B(  0-O ,  1-C ) :   0.9401 B(  0-O ,  9-H ) :   0.8468 B(  1-C ,  2-C ) :   0.9013
B(  1-C , 10-H ) :   0.9219 B(  1-C , 11-H ) :   0.9427 B(  2-C ,  3-C ) :   0.8561
B(  2-C , 12-H ) :   0.9218 B(  2-C , 13-H ) :   0.9268 B(  3-C ,  4-C ) :   1.5387
B(  3-C ,  7-C ) :   1.1920 B(  4-C ,  5-O ) :   1.1282 B(  4-C ,  6-N ) :   0.1055
B(  4-C , 14-H ) :   0.9189 B(  5-O ,  6-N ) :   0.8744 B(  6-N ,  7-C ) :   1.5953
B(  7-C ,  8-O ) :   1.1307 B(  8-O , 15-H ) :   0.8153

MP2 TOTAL ENERGY:     -474.262140179 Eh
FINAL SINGLE POINT ENERGY      -474.262140179085

DIPOLE MOMENT
-------------
                                X             Y             Z
Electronic contribution:     -1.58135      -7.23259       0.98988
Nuclear contribution   :      1.30302       7.63344      -0.66129
                        -----------------------------------------
Total Dipole Moment    :     -0.27833       0.40085       0.32859
                        -----------------------------------------
Magnitude (a.u.)       :      0.58832
Magnitude (Debye)      :      1.49538

                             ****ORCA TERMINATED NORMALLY****
TOTAL RUN TIME: 0 days 0 hours 16 minutes 17 seconds 223 msec
