                         Program Version 3.0.3 - RELEASE   -
|  1> ! RI-MP2 RIJK def2-TZVP def2-TZVP/C def2-TZVP/JK TIGHTSCF
|  2> % maxcore 2000
|  3> % mp2 density relaxed end
|  4> *xyz 0 1
|  5>  O       -0.0724745898     1.3847915932     0.0165915967
|  6>  C        0.0034760141    -0.0146601565     0.0061606249
|  7>  C       -1.3569147240    -0.6407875348     0.0448004896
|  8>  C       -0.5341479345    -0.6572747799    -1.2537246043
|  9>  N       -0.5114604895    -2.1345645120    -1.2869832274
| 10>  C        0.6505029491    -2.8191414267    -0.6205621355
| 11>  C       -0.1742691715    -2.9850325071     0.6981150739
| 12>  O        0.3198933919    -2.4089875892     1.8846066595
| 13>  C       -1.2978068652    -2.1688290224    -0.0007148607
| 14>  H        0.6492264538     1.7223897034    -0.5242323377
| 15>  H        0.8224791066    -0.4371066535     0.5813175065
| 16>  H       -2.2250699581    -0.0494675843     0.3045541192
| 17>  H       -0.6478870135    -0.0789582378    -2.1651877250
| 18>  H        0.9123022778    -3.7534739057    -1.1259375136
| 19>  H        1.5501408121    -2.2056078047    -0.5154334012
| 20>  H       -0.4791202972    -4.0261808676     0.8671874744
| 21>  H        0.9593699069    -3.0152165924     2.2716180455
| 22>  H       -2.2790956791    -2.6491739320    -0.0507514848
| 23> *
| 24>
| 25>                          ****END OF INPUT****

CARTESIAN COORDINATES (ANGSTROEM)
---------------------------------
  O     -0.072475    1.384792    0.016592
  C      0.003476   -0.014660    0.006161
  C     -1.356915   -0.640788    0.044800
  C     -0.534148   -0.657275   -1.253725
  N     -0.511460   -2.134565   -1.286983
  C      0.650503   -2.819141   -0.620562
  C     -0.174269   -2.985033    0.698115
  O      0.319893   -2.408988    1.884607
  C     -1.297807   -2.168829   -0.000715
  H      0.649226    1.722390   -0.524232
  H      0.822479   -0.437107    0.581318
  H     -2.225070   -0.049468    0.304554
  H     -0.647887   -0.078958   -2.165188
  H      0.912302   -3.753474   -1.125938
  H      1.550141   -2.205608   -0.515433
  H     -0.479120   -4.026181    0.867187
  H      0.959370   -3.015217    2.271618
  H     -2.279096   -2.649174   -0.050751

 Total Charge           Charge          ....    0
 Multiplicity           Mult            ....    1
 Number of Electrons    NEL             ....   68
 Basis Dimension        Dim             ....  333

ORBITAL ENERGIES
----------------

  NO   OCC          E(Eh)            E(eV)
   0   2.0000     -20.567943      -559.6822
   1   2.0000     -20.564191      -559.5801
   2   2.0000     -15.549308      -423.1182
   3   2.0000     -11.290217      -307.2224
   4   2.0000     -11.282231      -307.0051
   5   2.0000     -11.262565      -306.4700
   6   2.0000     -11.258421      -306.3572
   7   2.0000     -11.252078      -306.1846
   8   2.0000     -11.232615      -305.6550
   9   2.0000      -1.378018       -37.4978
  10   2.0000      -1.373038       -37.3623
  11   2.0000      -1.274750       -34.6877
  12   2.0000      -1.092631       -29.7320
  13   2.0000      -0.968645       -26.3582
  14   2.0000      -0.932793       -25.3826
  15   2.0000      -0.823655       -22.4128
  16   2.0000      -0.797363       -21.6973
  17   2.0000      -0.734224       -19.9793
  18   2.0000      -0.722913       -19.6715
  19   2.0000      -0.694132       -18.8883
  20   2.0000      -0.670319       -18.2403
  21   2.0000      -0.642486       -17.4829
  22   2.0000      -0.627314       -17.0701
  23   2.0000      -0.591622       -16.0989
  24   2.0000      -0.583987       -15.8911
  25   2.0000      -0.558791       -15.2055
  26   2.0000      -0.532362       -14.4863
  27   2.0000      -0.504703       -13.7337
  28   2.0000      -0.487739       -13.2720
  29   2.0000      -0.462986       -12.5985
  30   2.0000      -0.447675       -12.1818
  31   2.0000      -0.419408       -11.4127
  32   2.0000      -0.369029       -10.0418
  33   2.0000      -0.354934        -9.6582
  34   0.0000       0.126458         3.4411
  35   0.0000       0.139725         3.8021
  36   0.0000       0.163265         4.4427
  37   0.0000       0.169575         4.6144
  38   0.0000       0.188126         5.1192

MULLIKEN ATOMIC CHARGES
-----------------------
   0 O :   -0.456072
   1 C :    0.060130
   2 C :   -0.198408
   3 C :   -0.118933
   4 N :   -0.162084
   5 C :   -0.154523
   6 C :   -0.037567
   7 O :   -0.444856
   8 C :    0.036520
   9 H :    0.324542
  10 H :    0.124476
  11 H :    0.143841
  12 H :    0.128281
  13 H :    0.117249
  14 H :    0.107848
  15 H :    0.094468
  16 H :    0.319480
  17 H :    0.115606
Sum of atomic charges:   -0.0000000

LOEWDIN ATOMIC CHARGES
----------------------
   0 O :    0.006041
   1 C :   -0.308637
   2 C :   -0.146528
   3 C :   -0.210913
   4 N :    0.120605
   5 C :   -0.238537
   6 C :   -0.316629
   7 O :   -0.009685
   8 C :   -0.172797
   9 H :    0.181536
  10 H :    0.130310
  11 H :    0.143046
  12 H :    0.131816
  13 H :    0.121887
  14 H :    0.123509
  15 H :    0.129058
  16 H :    0.177269
  17 H :    0.138650

  Mayer bond orders larger than 0.1
B(  0-O ,  1-C ) :   1.0139 B(  0-O ,  9-H ) :   0.8419 B(  1-C ,  2-C ) :   0.8702
B(  1-C ,  3-C ) :   0.8285 B(  1-C , 10-H ) :   0.9424 B(  2-C ,  3-C ) :   0.8704
B(  2-C ,  8-C ) :   0.9671 B(  2-C , 11-H ) :   0.9164 B(  3-C ,  4-N ) :   0.9538
B(  3-C , 12-H ) :   0.9270 B(  4-N ,  5-C ) :   0.9023 B(  4-N ,  8-C ) :   0.9412
B(  5-C ,  6-C ) :   0.9453 B(  5-C , 13-H ) :   0.9133 B(  5-C , 14-H ) :   0.9188
B(  6-C ,  7-O ) :   1.1273 B(  6-C ,  8-C ) :   0.8822 B(  6-C , 15-H ) :   0.9439
B(  7-O , 16-H ) :   0.8414 B(  8-C , 17-H ) :   0.8938

MP2 TOTAL ENERGY:     -438.273284023 Eh
FINAL SINGLE POINT ENERGY      -438.273284023235

DIPOLE MOMENT
-------------
                                X             Y             Z
Electronic contribution:     -0.95926       1.53073       0.30492
Nuclear contribution   :      1.74209      -2.12538      -0.21423
                        -----------------------------------------
Total Dipole Moment    :      0.78284      -0.59465       0.09069
                        -----------------------------------------
Magnitude (a.u.)       :      0.98725
Magnitude (Debye)      :      2.50939

                             ****ORCA TERMINATED NORMALLY****
TOTAL RUN TIME: 0 days 0 hours 18 minutes 56 seconds 920 msec
