                         Program Version 3.0.3 - RELEASE   -
|  1> ! RI-MP2 RIJK def2-TZVP def2-TZVP/C def2-TZVP/JK TIGHTSCF
|  2> % maxcore 2000
|  3> % mp2 density relaxed end
|  4> *xyz 0 1
|  5>  C       -0.5176762747     1.5142448036    -0.0334105732
|  6>  C        0.2171927779     0.2020308049     0.0224472426
|  7>  O        1.1415844143     0.0893164559    -1.1203353950
|  8>  C        2.2101952823    -0.5067675839    -0.5386346291
|  9>  C        2.1496815579    -0.5308606739     0.8174116611
| 10>  O        0.9866562297     0.0938376426     1.2343614651
| 11>  C        3.3540907407    -1.1036113921     1.2425457489
| 12>  N        4.1074202719    -1.4213260970     0.1754502542
| 13>  N        3.3837284906    -1.0318842823    -0.9207649980
| 14>  H        0.1934500645     2.3419569255     0.0131716020
| 15>  H       -1.0930538542     1.5809913687    -0.9601124054
| 16>  H       -1.2043514501     1.5829302212     0.8141159161
| 17>  H       -0.4543216793    -0.6682471980    -0.0410057832
| 18>  H        3.7248208198    -1.3098025187     2.2338995215
| 19>  H        3.7528449586    -1.1989872266    -1.8399289475
| 20> *
| 21>
| 22>                          ****END OF INPUT****

CARTESIAN COORDINATES (ANGSTROEM)
---------------------------------
  C     -0.517676    1.514245   -0.033411
  C      0.217193    0.202031    0.022447
  O      1.141584    0.089316   -1.120335
  C      2.210195   -0.506768   -0.538635
  C      2.149682   -0.530861    0.817412
  O      0.986656    0.093838    1.234361
  C      3.354091   -1.103611    1.242546
  N      4.107420   -1.421326    0.175450
  N      3.383728   -1.031884   -0.920765
  H      0.193450    2.341957    0.013172
  H     -1.093054    1.580991   -0.960112
  H     -1.204351    1.582930    0.814116
  H     -0.454322   -0.668247   -0.041006
  H      3.724821   -1.309803    2.233900
  H      3.752845   -1.198987   -1.839929

 Total Charge           Charge          ....    0
 Multiplicity           Mult            ....    1
 Number of Electrons    NEL             ....   66
 Basis Dimension        Dim             ....  315

ORBITAL ENERGIES
----------------

  NO   OCC          E(Eh)            E(eV)
   0   2.0000     -20.616028      -560.9906
   1   2.0000     -20.596169      -560.4502
   2   2.0000     -15.645345      -425.7315
   3   2.0000     -15.584136      -424.0659
   4   2.0000     -11.369917      -309.3912
   5   2.0000     -11.329554      -308.2928
   6   2.0000     -11.268887      -306.6420
   7   2.0000     -11.267312      -306.5991
   8   2.0000     -11.237972      -305.8008
   9   2.0000      -1.479297       -40.2537
  10   2.0000      -1.378191       -37.5025
  11   2.0000      -1.363840       -37.1120
  12   2.0000      -1.100751       -29.9529
  13   2.0000      -1.074607       -29.2415
  14   2.0000      -1.002966       -27.2921
  15   2.0000      -0.865317       -23.5465
  16   2.0000      -0.837814       -22.7981
  17   2.0000      -0.818305       -22.2672
  18   2.0000      -0.759402       -20.6644
  19   2.0000      -0.722630       -19.6638
  20   2.0000      -0.679916       -18.5014
  21   2.0000      -0.640142       -17.4192
  22   2.0000      -0.615395       -16.7457
  23   2.0000      -0.594906       -16.1882
  24   2.0000      -0.580680       -15.8011
  25   2.0000      -0.573304       -15.6004
  26   2.0000      -0.560816       -15.2606
  27   2.0000      -0.546012       -14.8577
  28   2.0000      -0.536621       -14.6022
  29   2.0000      -0.496836       -13.5196
  30   2.0000      -0.458601       -12.4792
  31   2.0000      -0.372339       -10.1319
  32   2.0000      -0.306825        -8.3491
  33   0.0000       0.136792         3.7223
  34   0.0000       0.143788         3.9127
  35   0.0000       0.160044         4.3550
  36   0.0000       0.178430         4.8553
  37   0.0000       0.187630         5.1057

MULLIKEN ATOMIC CHARGES
-----------------------
   0 C :   -0.359461
   1 C :    0.255399
   2 O :   -0.289635
   3 C :    0.186615
   4 C :    0.123509
   5 O :   -0.297463
   6 C :   -0.168254
   7 N :   -0.208928
   8 N :   -0.161898
   9 H :    0.140831
  10 H :    0.140677
  11 H :    0.144370
  12 H :    0.092279
  13 H :    0.138093
  14 H :    0.263865
Sum of atomic charges:    0.0000000

LOEWDIN ATOMIC CHARGES
----------------------
   0 C :   -0.284228
   1 C :   -0.304692
   2 O :    0.233535
   3 C :   -0.360317
   4 C :   -0.280364
   5 O :    0.229288
   6 C :   -0.256574
   7 N :    0.012133
   8 N :    0.147218
   9 H :    0.134081
  10 H :    0.134341
  11 H :    0.136571
  12 H :    0.132270
  13 H :    0.135934
  14 H :    0.190803

  Mayer bond orders larger than 0.1
B(  0-C ,  1-C ) :   0.9452 B(  0-C ,  9-H ) :   0.9275 B(  0-C , 10-H ) :   0.9275
B(  0-C , 11-H ) :   0.9269 B(  1-C ,  2-O ) :   0.8461 B(  1-C ,  5-O ) :   0.9215
B(  1-C , 12-H ) :   0.9197 B(  2-O ,  3-C ) :   1.0592 B(  3-C ,  4-C ) :   1.3495
B(  3-C ,  7-N ) :   0.1256 B(  3-C ,  8-N ) :   1.2039 B(  4-C ,  5-O ) :   1.0000
B(  4-C ,  6-C ) :   1.3015 B(  6-C ,  7-N ) :   1.4943 B(  6-C , 13-H ) :   0.9439
B(  7-N ,  8-N ) :   1.0223 B(  8-N , 14-H ) :   0.8658

MP2 TOTAL ENERGY:     -453.191759144 Eh
FINAL SINGLE POINT ENERGY      -453.191759143510

DIPOLE MOMENT
-------------
                                X             Y             Z
Electronic contribution:      4.95778      -3.39400      -0.39899
Nuclear contribution   :     -5.78593       3.71105      -0.23410
                        -----------------------------------------
Total Dipole Moment    :     -0.82815       0.31705      -0.63309
                        -----------------------------------------
Magnitude (a.u.)       :      1.08957
Magnitude (Debye)      :      2.76945

                             ****ORCA TERMINATED NORMALLY****
TOTAL RUN TIME: 0 days 0 hours 15 minutes 26 seconds 517 msec
