                         Program Version 3.0.3 - RELEASE   -
|  1> ! RI-MP2 RIJK def2-TZVP def2-TZVP/C def2-TZVP/JK TIGHTSCF
|  2> % maxcore 2000
|  3> % mp2 density relaxed end
|  4> *xyz 0 1
|  5>  N        0.1900706963     1.4696331291     0.0203662630
|  6>  C        0.0080932992     0.0773337880    -0.0127951201
|  7>  C       -1.0732871215    -0.7569636294    -0.0336406943
|  8>  O       -2.3699774750    -0.3890974172    -0.0263593010
|  9>  N       -0.7040492559    -2.0824777861    -0.0644316390
| 10>  C        0.6042279910    -2.0802254361    -0.0630405836
| 11>  N        1.1134367322    -0.8059327655    -0.0323475807
| 12>  C        2.4667332112    -0.4575754474    -0.0224396921
| 13>  O        3.3578527080    -1.2662651873    -0.0408220769
| 14>  H       -0.2159102700     1.8905604718     0.8492535686
| 15>  H       -0.2124022177     1.9292161205    -0.7894914027
| 16>  H       -2.8866654462    -1.2042350398    -0.0459526150
| 17>  H        1.2523585277    -2.9415455195    -0.0826821611
| 18>  H        2.5994907309     0.6343623089     0.0033520149
| 19> *
| 20>
| 21>                          ****END OF INPUT****

CARTESIAN COORDINATES (ANGSTROEM)
---------------------------------
  N      0.190071    1.469633    0.020366
  C      0.008093    0.077334   -0.012795
  C     -1.073287   -0.756964   -0.033641
  O     -2.369977   -0.389097   -0.026359
  N     -0.704049   -2.082478   -0.064432
  C      0.604228   -2.080225   -0.063041
  N      1.113437   -0.805933   -0.032348
  C      2.466733   -0.457575   -0.022440
  O      3.357853   -1.266265   -0.040822
  H     -0.215910    1.890560    0.849254
  H     -0.212402    1.929216   -0.789491
  H     -2.886665   -1.204235   -0.045953
  H      1.252359   -2.941546   -0.082682
  H      2.599491    0.634362    0.003352

 Total Charge           Charge          ....    0
 Multiplicity           Mult            ....    1
 Number of Electrons    NEL             ....   66
 Basis Dimension        Dim             ....  309

ORBITAL ENERGIES
----------------

  NO   OCC          E(Eh)            E(eV)
   0   2.0000     -20.600014      -560.5549
   1   2.0000     -20.564136      -559.5786
   2   2.0000     -15.639805      -425.5807
   3   2.0000     -15.581396      -423.9913
   4   2.0000     -15.572355      -423.7453
   5   2.0000     -11.380189      -309.6707
   6   2.0000     -11.324928      -308.1670
   7   2.0000     -11.323416      -308.1258
   8   2.0000     -11.297391      -307.4176
   9   2.0000      -1.432815       -38.9889
  10   2.0000      -1.421903       -38.6919
  11   2.0000      -1.352636       -36.8071
  12   2.0000      -1.225293       -33.3419
  13   2.0000      -1.188893       -32.3514
  14   2.0000      -1.003358       -27.3028
  15   2.0000      -0.929286       -25.2872
  16   2.0000      -0.833911       -22.6919
  17   2.0000      -0.802041       -21.8246
  18   2.0000      -0.740296       -20.1445
  19   2.0000      -0.701667       -19.0933
  20   2.0000      -0.699593       -19.0369
  21   2.0000      -0.688235       -18.7278
  22   2.0000      -0.658641       -17.9225
  23   2.0000      -0.640392       -17.4259
  24   2.0000      -0.618004       -16.8167
  25   2.0000      -0.594050       -16.1649
  26   2.0000      -0.575388       -15.6571
  27   2.0000      -0.528538       -14.3823
  28   2.0000      -0.508845       -13.8464
  29   2.0000      -0.456420       -12.4198
  30   2.0000      -0.436698       -11.8832
  31   2.0000      -0.413958       -11.2644
  32   2.0000      -0.320843        -8.7306
  33   0.0000       0.094025         2.5586
  34   0.0000       0.120231         3.2717
  35   0.0000       0.152399         4.1470
  36   0.0000       0.176042         4.7903
  37   0.0000       0.179478         4.8839

MULLIKEN ATOMIC CHARGES
-----------------------
   0 N :   -0.571126
   1 C :    0.067309
   2 C :    0.189178
   3 O :   -0.438627
   4 N :   -0.287517
   5 C :    0.006966
   6 N :   -0.033005
   7 C :    0.158882
   8 O :   -0.288281
   9 H :    0.263877
  10 H :    0.263856
  11 H :    0.347356
  12 H :    0.175787
  13 H :    0.145344
Sum of atomic charges:    0.0000000

LOEWDIN ATOMIC CHARGES
----------------------
   0 N :   -0.107975
   1 C :   -0.299090
   2 C :   -0.388475
   3 O :    0.070290
   4 N :    0.105757
   5 C :   -0.250965
   6 N :    0.252602
   7 C :   -0.325191
   8 O :    0.124312
   9 H :    0.172565
  10 H :    0.172551
  11 H :    0.202769
  12 H :    0.142301
  13 H :    0.128550

  Mayer bond orders larger than 0.1
B(  0-N ,  1-C ) :   1.0422 B(  0-N ,  9-H ) :   0.8822 B(  0-N , 10-H ) :   0.8822
B(  1-C ,  2-C ) :   1.5372 B(  1-C ,  6-N ) :   1.0268 B(  2-C ,  3-O ) :   1.1350
B(  2-C ,  4-N ) :   1.2380 B(  3-O , 11-H ) :   0.8162 B(  4-N ,  5-C ) :   1.5723
B(  5-C ,  6-N ) :   1.1214 B(  5-C , 12-H ) :   0.9181 B(  6-N ,  7-C ) :   0.9547
B(  7-C ,  8-O ) :   1.9503 B(  7-C , 13-H ) :   0.9200

MP2 TOTAL ENERGY:     -469.302083651 Eh
FINAL SINGLE POINT ENERGY      -469.302083650833

DIPOLE MOMENT
-------------
                                X             Y             Z
Electronic contribution:      0.65071      -2.53058      -0.05872
Nuclear contribution   :     -1.29840       3.41332       0.07857
                        -----------------------------------------
Total Dipole Moment    :     -0.64768       0.88274       0.01986
                        -----------------------------------------
Magnitude (a.u.)       :      1.09504
Magnitude (Debye)      :      2.78338

                             ****ORCA TERMINATED NORMALLY****
TOTAL RUN TIME: 0 days 0 hours 13 minutes 33 seconds 732 msec
