                         Program Version 3.0.3 - RELEASE   -
|  1> ! RI-MP2 RIJK def2-TZVP def2-TZVP/C def2-TZVP/JK TIGHTSCF
|  2> % maxcore 2000
|  3> % mp2 density relaxed end
|  4> *xyz 0 1
|  5>  N       -0.0809852810     1.3139445313     0.0118843856
|  6>  C       -0.0643802448     0.0469249504     0.0039565995
|  7>  O        1.0734020911    -0.7402562929    -0.0069297473
|  8>  C        0.7469053941    -2.1545826725    -0.0139379704
|  9>  C       -0.7488925228    -2.1805781885    -0.0061947726
| 10>  C       -1.1736376773    -0.8788322260     0.0040937961
| 11>  N       -2.5358034858    -0.8500107051     0.0115152404
| 12>  C       -2.9841688468    -2.1495966491     0.0059259063
| 13>  C       -1.8966275271    -3.0089221770    -0.0052107279
| 14>  H        0.8691787861     1.6859485549     0.0091685753
| 15>  H        1.1990775779    -2.6019282675    -0.9070525317
| 16>  H        1.2084527425    -2.6129006312     0.8687573890
| 17>  H       -3.1063354000    -0.0219437606     0.0196241756
| 18>  H       -4.0408157149    -2.3665769140     0.0102285812
| 19>  H       -1.9514885011    -4.0862569321    -0.0115823289
| 20> *
| 21>
| 22>                          ****END OF INPUT****

CARTESIAN COORDINATES (ANGSTROEM)
---------------------------------
  N     -0.080985    1.313945    0.011884
  C     -0.064380    0.046925    0.003957
  O      1.073402   -0.740256   -0.006930
  C      0.746905   -2.154583   -0.013938
  C     -0.748893   -2.180578   -0.006195
  C     -1.173638   -0.878832    0.004094
  N     -2.535803   -0.850011    0.011515
  C     -2.984169   -2.149597    0.005926
  C     -1.896628   -3.008922   -0.005211
  H      0.869179    1.685949    0.009169
  H      1.199078   -2.601928   -0.907053
  H      1.208453   -2.612901    0.868757
  H     -3.106335   -0.021944    0.019624
  H     -4.040816   -2.366577    0.010229
  H     -1.951489   -4.086257   -0.011582

 Total Charge           Charge          ....    0
 Multiplicity           Mult            ....    1
 Number of Electrons    NEL             ....   64
 Basis Dimension        Dim             ....  315

ORBITAL ENERGIES
----------------

  NO   OCC          E(Eh)            E(eV)
   0   2.0000     -20.589516      -560.2692
   1   2.0000     -15.626120      -425.2083
   2   2.0000     -15.526928      -422.5092
   3   2.0000     -11.341896      -308.6287
   4   2.0000     -11.304131      -307.6010
   5   2.0000     -11.282785      -307.0202
   6   2.0000     -11.261002      -306.4274
   7   2.0000     -11.238538      -305.8162
   8   2.0000     -11.235347      -305.7293
   9   2.0000      -1.420816       -38.6624
  10   2.0000      -1.312505       -35.7151
  11   2.0000      -1.189032       -32.3552
  12   2.0000      -1.086627       -29.5686
  13   2.0000      -1.022504       -27.8237
  14   2.0000      -0.960618       -26.1397
  15   2.0000      -0.845408       -23.0047
  16   2.0000      -0.806380       -21.9427
  17   2.0000      -0.780977       -21.2515
  18   2.0000      -0.705087       -19.1864
  19   2.0000      -0.674133       -18.3441
  20   2.0000      -0.666103       -18.1256
  21   2.0000      -0.635099       -17.2819
  22   2.0000      -0.606128       -16.4936
  23   2.0000      -0.586024       -15.9465
  24   2.0000      -0.582911       -15.8618
  25   2.0000      -0.543219       -14.7817
  26   2.0000      -0.533029       -14.5045
  27   2.0000      -0.514376       -13.9969
  28   2.0000      -0.435810       -11.8590
  29   2.0000      -0.412168       -11.2157
  30   2.0000      -0.365956        -9.9582
  31   2.0000      -0.309782        -8.4296
  32   0.0000       0.116148         3.1606
  33   0.0000       0.137067         3.7298
  34   0.0000       0.152843         4.1591
  35   0.0000       0.169776         4.6198
  36   0.0000       0.176843         4.8122

MULLIKEN ATOMIC CHARGES
-----------------------
   0 N :   -0.411625
   1 C :    0.063866
   2 O :   -0.258120
   3 C :    0.001820
   4 C :   -0.035623
   5 C :    0.157603
   6 N :   -0.267320
   7 C :   -0.014653
   8 C :   -0.273716
   9 H :    0.225413
  10 H :    0.129027
  11 H :    0.129027
  12 H :    0.263093
  13 H :    0.152191
  14 H :    0.139017
Sum of atomic charges:    0.0000000

LOEWDIN ATOMIC CHARGES
----------------------
   0 N :   -0.073339
   1 C :   -0.378555
   2 O :    0.224369
   3 C :   -0.215244
   4 C :   -0.145800
   5 C :   -0.180802
   6 N :    0.223565
   7 C :   -0.207378
   8 C :   -0.164124
   9 H :    0.168069
  10 H :    0.134982
  11 H :    0.134982
  12 H :    0.202349
  13 H :    0.135121
  14 H :    0.141806

  Mayer bond orders larger than 0.1
B(  0-N ,  1-C ) :   2.0529 B(  0-N ,  5-C ) :  -0.1026 B(  0-N ,  9-H ) :   0.8574
B(  1-C ,  2-O ) :   1.1118 B(  1-C ,  5-C ) :   0.9664 B(  2-O ,  3-C ) :   0.8953
B(  3-C ,  4-C ) :   0.9804 B(  3-C , 10-H ) :   0.9114 B(  3-C , 11-H ) :   0.9114
B(  4-C ,  5-C ) :   1.3808 B(  4-C ,  8-C ) :   1.2490 B(  5-C ,  6-N ) :   1.1322
B(  6-N ,  7-C ) :   1.1269 B(  6-N , 12-H ) :   0.8623 B(  7-C ,  8-C ) :   1.4681
B(  7-C , 13-H ) :   0.9201 B(  8-C , 14-H ) :   0.9266

MP2 TOTAL ENERGY:     -416.144515774 Eh
FINAL SINGLE POINT ENERGY      -416.144515773826

DIPOLE MOMENT
-------------
                                X             Y             Z
Electronic contribution:      0.27016       2.07764       0.01132
Nuclear contribution   :     -0.88275      -2.93665      -0.01337
                        -----------------------------------------
Total Dipole Moment    :     -0.61260      -0.85901      -0.00205
                        -----------------------------------------
Magnitude (a.u.)       :      1.05507
Magnitude (Debye)      :      2.68177

                             ****ORCA TERMINATED NORMALLY****
TOTAL RUN TIME: 0 days 0 hours 15 minutes 13 seconds 854 msec
