                         Program Version 3.0.3 - RELEASE   -
|  1> ! RI-MP2 RIJK def2-TZVP def2-TZVP/C def2-TZVP/JK TIGHTSCF
|  2> % maxcore 2000
|  3> % mp2 density relaxed end
|  4> *xyz 0 1
|  5>  C       -0.1192013132     1.5323782895    -0.0886269102
|  6>  C        0.0105188006     0.0297192137     0.0332809493
|  7>  C        1.3326980002    -0.6614672997    -0.2060406089
|  8>  C        0.7356394931    -0.6381808128     1.1832824441
|  9>  C        1.3820317021     0.1281460848     2.2946931172
| 10>  C        0.7437902176     0.1676858563     3.6627398824
| 11>  C        2.0185111988    -0.6108734290     3.4473320154
| 12>  H        0.7931509924     2.0478320023     0.2251908522
| 13>  H       -0.3154423872     1.8224296281    -1.1269114595
| 14>  H       -0.9424489533     1.9146905866     0.5253347643
| 15>  H       -0.8642217449    -0.5103262219    -0.3216425553
| 16>  H        1.3519464901    -1.5961409493    -0.7562915787
| 17>  H        2.1977741569    -0.0282604736    -0.3821694019
| 18>  H        0.2952023493    -1.5757266431     1.5171547563
| 19>  H        1.8918324736     1.0366641736     1.9881725004
| 20>  H        0.7909888507     1.0902918342     4.2309253519
| 21>  H       -0.1739967983    -0.3935363153     3.8059203743
| 22>  H        1.9562973528    -1.6944049760     3.4454514119
| 23>  H        2.9393423888    -0.2217011985     3.8677985148
| 24> *
| 25>
| 26>                          ****END OF INPUT****

CARTESIAN COORDINATES (ANGSTROEM)
---------------------------------
  C     -0.119201    1.532378   -0.088627
  C      0.010519    0.029719    0.033281
  C      1.332698   -0.661467   -0.206041
  C      0.735639   -0.638181    1.183282
  C      1.382032    0.128146    2.294693
  C      0.743790    0.167686    3.662740
  C      2.018511   -0.610873    3.447332
  H      0.793151    2.047832    0.225191
  H     -0.315442    1.822430   -1.126911
  H     -0.942449    1.914691    0.525335
  H     -0.864222   -0.510326   -0.321643
  H      1.351946   -1.596141   -0.756292
  H      2.197774   -0.028260   -0.382169
  H      0.295202   -1.575727    1.517155
  H      1.891832    1.036664    1.988173
  H      0.790989    1.090292    4.230925
  H     -0.173997   -0.393536    3.805920
  H      1.956297   -1.694405    3.445451
  H      2.939342   -0.221701    3.867799

 Total Charge           Charge          ....    0
 Multiplicity           Mult            ....    1
 Number of Electrons    NEL             ....   54
 Basis Dimension        Dim             ....  289

ORBITAL ENERGIES
----------------

  NO   OCC          E(Eh)            E(eV)
   0   2.0000     -11.228091      -305.5319
   1   2.0000     -11.226104      -305.4778
   2   2.0000     -11.224784      -305.4419
   3   2.0000     -11.219360      -305.2943
   4   2.0000     -11.218687      -305.2760
   5   2.0000     -11.215530      -305.1901
   6   2.0000     -11.213148      -305.1253
   7   2.0000      -1.158357       -31.5205
   8   2.0000      -1.112861       -30.2825
   9   2.0000      -0.959955       -26.1217
  10   2.0000      -0.861114       -23.4321
  11   2.0000      -0.817324       -22.2405
  12   2.0000      -0.791386       -21.5347
  13   2.0000      -0.742949       -20.2167
  14   2.0000      -0.672329       -18.2950
  15   2.0000      -0.644250       -17.5309
  16   2.0000      -0.615787       -16.7564
  17   2.0000      -0.564003       -15.3473
  18   2.0000      -0.561374       -15.2758
  19   2.0000      -0.542457       -14.7610
  20   2.0000      -0.510626       -13.8948
  21   2.0000      -0.498829       -13.5738
  22   2.0000      -0.474747       -12.9185
  23   2.0000      -0.461697       -12.5634
  24   2.0000      -0.431010       -11.7284
  25   2.0000      -0.389121       -10.5885
  26   2.0000      -0.362224        -9.8566
  27   0.0000       0.149191         4.0597
  28   0.0000       0.151804         4.1308
  29   0.0000       0.167429         4.5560
  30   0.0000       0.171525         4.6674
  31   0.0000       0.195703         5.3254

MULLIKEN ATOMIC CHARGES
-----------------------
   0 C :   -0.396562
   1 C :   -0.067513
   2 C :   -0.285553
   3 C :   -0.107201
   4 C :   -0.082551
   5 C :   -0.261254
   6 C :   -0.264485
   7 H :    0.116928
   8 H :    0.133949
   9 H :    0.129519
  10 H :    0.111597
  11 H :    0.128374
  12 H :    0.118618
  13 H :    0.112190
  14 H :    0.114915
  15 H :    0.125716
  16 H :    0.123568
  17 H :    0.123458
  18 H :    0.126288
Sum of atomic charges:    0.0000000

LOEWDIN ATOMIC CHARGES
----------------------
   0 C :   -0.295843
   1 C :   -0.232986
   2 C :   -0.209111
   3 C :   -0.197008
   4 C :   -0.214108
   5 C :   -0.228571
   6 C :   -0.227695
   7 H :    0.123030
   8 H :    0.124973
   9 H :    0.125356
  10 H :    0.145544
  11 H :    0.128757
  12 H :    0.134327
  13 H :    0.152147
  14 H :    0.148773
  15 H :    0.129246
  16 H :    0.132009
  17 H :    0.131981
  18 H :    0.129180

  Mayer bond orders larger than 0.1
B(  0-C ,  1-C ) :   0.9169 B(  0-C ,  7-H ) :   0.9362 B(  0-C ,  8-H ) :   0.9387
B(  0-C ,  9-H ) :   0.9399 B(  1-C ,  2-C ) :   0.9007 B(  1-C ,  3-C ) :   0.8788
B(  1-C , 10-H ) :   0.9282 B(  2-C ,  3-C ) :   0.8812 B(  2-C , 11-H ) :   0.9265
B(  2-C , 12-H ) :   0.9256 B(  3-C ,  4-C ) :   0.9255 B(  3-C , 13-H ) :   0.9137
B(  4-C ,  5-C ) :   0.8854 B(  4-C ,  6-C ) :   0.8922 B(  4-C , 14-H ) :   0.9127
B(  5-C ,  6-C ) :   0.9117 B(  5-C , 15-H ) :   0.9275 B(  5-C , 16-H ) :   0.9277
B(  6-C , 17-H ) :   0.9281 B(  6-C , 18-H ) :   0.9278

MP2 TOTAL ENERGY:     -273.246592653 Eh
FINAL SINGLE POINT ENERGY      -273.246592652716

DIPOLE MOMENT
-------------
                                X             Y             Z
Electronic contribution:      0.40969      -1.59486       0.54021
Nuclear contribution   :     -0.44581       1.62557      -0.56093
                        -----------------------------------------
Total Dipole Moment    :     -0.03612       0.03071      -0.02072
                        -----------------------------------------
Magnitude (a.u.)       :      0.05174
Magnitude (Debye)      :      0.13151

                             ****ORCA TERMINATED NORMALLY****
TOTAL RUN TIME: 0 days 0 hours 9 minutes 0 seconds 380 msec
