                         Program Version 3.0.3 - RELEASE   -
|  1> ! RI-MP2 RIJK def2-TZVP def2-TZVP/C def2-TZVP/JK TIGHTSCF
|  2> % maxcore 2000
|  3> % mp2 density relaxed end
|  4> *xyz 0 1
|  5>  O        0.0259014196    -0.0145492882    -0.1741314909
|  6>  C       -0.0003039946     1.1892157304    -0.0579140637
|  7>  N       -1.0943314952     2.0229810420    -0.2558400432
|  8>  C       -0.8134629123     3.3799665941     0.1891788371
|  9>  C        0.7148990251     3.4015712612     0.1242656362
| 10>  C        1.4703390560     4.3010704392    -0.8191475887
| 11>  C        1.5368193002     4.5154467960     0.6855027972
| 12>  N        1.0614600401     2.0145308839     0.3060413224
| 13>  H       -2.0064141201     1.6121726350    -0.1376317044
| 14>  H       -1.2630073838     4.1308572360    -0.4676423226
| 15>  H       -1.1621918599     3.5626589677     1.2169365213
| 16>  H        2.3502062596     3.8976628166    -1.3103775423
| 17>  H        0.9107246072     5.0122107501    -1.4181688540
| 18>  H        1.0223598514     5.3730138274     1.1079892215
| 19>  H        2.4593298503     4.2571042430     1.1948322980
| 20>  H        1.9889404664     1.6781314558     0.0991953561
| 21> *
| 22>
| 23>                          ****END OF INPUT****

CARTESIAN COORDINATES (ANGSTROEM)
---------------------------------
  O      0.025901   -0.014549   -0.174131
  C     -0.000304    1.189216   -0.057914
  N     -1.094331    2.022981   -0.255840
  C     -0.813463    3.379967    0.189179
  C      0.714899    3.401571    0.124266
  C      1.470339    4.301070   -0.819148
  C      1.536819    4.515447    0.685503
  N      1.061460    2.014531    0.306041
  H     -2.006414    1.612173   -0.137632
  H     -1.263007    4.130857   -0.467642
  H     -1.162192    3.562659    1.216937
  H      2.350206    3.897663   -1.310378
  H      0.910725    5.012211   -1.418169
  H      1.022360    5.373014    1.107989
  H      2.459330    4.257104    1.194832
  H      1.988940    1.678131    0.099195

 Total Charge           Charge          ....    0
 Multiplicity           Mult            ....    1
 Number of Electrons    NEL             ....   60
 Basis Dimension        Dim             ....  296

ORBITAL ENERGIES
----------------

  NO   OCC          E(Eh)            E(eV)
   0   2.0000     -20.509295      -558.0863
   1   2.0000     -15.580800      -423.9751
   2   2.0000     -15.579012      -423.9265
   3   2.0000     -11.369329      -309.3752
   4   2.0000     -11.292576      -307.2866
   5   2.0000     -11.282327      -307.0077
   6   2.0000     -11.242215      -305.9162
   7   2.0000     -11.240755      -305.8765
   8   2.0000      -1.392399       -37.8891
   9   2.0000      -1.287682       -35.0396
  10   2.0000      -1.192689       -32.4547
  11   2.0000      -1.132012       -30.8036
  12   2.0000      -0.963923       -26.2297
  13   2.0000      -0.846561       -23.0361
  14   2.0000      -0.830726       -22.6052
  15   2.0000      -0.806976       -21.9589
  16   2.0000      -0.704245       -19.1635
  17   2.0000      -0.671182       -18.2638
  18   2.0000      -0.665969       -18.1219
  19   2.0000      -0.652967       -17.7681
  20   2.0000      -0.624766       -17.0007
  21   2.0000      -0.596513       -16.2320
  22   2.0000      -0.568389       -15.4667
  23   2.0000      -0.540153       -14.6983
  24   2.0000      -0.532129       -14.4800
  25   2.0000      -0.497134       -13.5277
  26   2.0000      -0.454022       -12.3546
  27   2.0000      -0.427481       -11.6323
  28   2.0000      -0.402264       -10.9461
  29   2.0000      -0.368536       -10.0284
  30   0.0000       0.127922         3.4809
  31   0.0000       0.147061         4.0017
  32   0.0000       0.153993         4.1904
  33   0.0000       0.164706         4.4819
  34   0.0000       0.188499         5.1293

MULLIKEN ATOMIC CHARGES
-----------------------
   0 O :   -0.357591
   1 C :    0.290769
   2 N :   -0.347536
   3 C :   -0.102262
   4 C :    0.147820
   5 C :   -0.296441
   6 C :   -0.273824
   7 N :   -0.321729
   8 H :    0.242334
   9 H :    0.119906
  10 H :    0.118439
  11 H :    0.136191
  12 H :    0.132599
  13 H :    0.135073
  14 H :    0.138212
  15 H :    0.238038
Sum of atomic charges:    0.0000000

LOEWDIN ATOMIC CHARGES
----------------------
   0 O :    0.064772
   1 C :   -0.533203
   2 N :    0.083679
   3 C :   -0.223475
   4 C :   -0.289250
   5 C :   -0.207423
   6 C :   -0.205686
   7 N :    0.131681
   8 H :    0.183609
   9 H :    0.134521
  10 H :    0.130601
  11 H :    0.134221
  12 H :    0.134037
  13 H :    0.136149
  14 H :    0.137398
  15 H :    0.188370

  Mayer bond orders larger than 0.1
B(  0-O ,  1-C ) :   2.0131 B(  1-C ,  2-N ) :   1.0983 B(  1-C ,  7-N ) :   1.0930
B(  2-N ,  3-C ) :   0.9224 B(  2-N ,  8-H ) :   0.8724 B(  3-C ,  4-C ) :   0.9229
B(  3-C ,  9-H ) :   0.9177 B(  3-C , 10-H ) :   0.9325 B(  4-C ,  5-C ) :   0.8801
B(  4-C ,  6-C ) :   0.8718 B(  4-C ,  7-N ) :   0.9195 B(  5-C ,  6-C ) :   0.8797
B(  5-C , 11-H ) :   0.9239 B(  5-C , 12-H ) :   0.9167 B(  6-C , 13-H ) :   0.9222
B(  6-C , 14-H ) :   0.9218 B(  7-N , 15-H ) :   0.8664

MP2 TOTAL ENERGY:     -379.319810101 Eh
FINAL SINGLE POINT ENERGY      -379.319810101029

DIPOLE MOMENT
-------------
                                X             Y             Z
Electronic contribution:     -1.42384      -6.74127      -0.14325
Nuclear contribution   :      1.40016       8.39669       0.28746
                        -----------------------------------------
Total Dipole Moment    :     -0.02368       1.65542       0.14422
                        -----------------------------------------
Magnitude (a.u.)       :      1.66185
Magnitude (Debye)      :      4.22410

                             ****ORCA TERMINATED NORMALLY****
TOTAL RUN TIME: 0 days 0 hours 11 minutes 20 seconds 131 msec
