                         Program Version 3.0.3 - RELEASE   -
|  1> ! RI-MP2 RIJK def2-TZVP def2-TZVP/C def2-TZVP/JK TIGHTSCF
|  2> % maxcore 2000
|  3> % mp2 density relaxed end
|  4> *xyz 0 1
|  5>  C       -0.0398238199     1.5569140046    -0.0340823906
|  6>  C       -0.0039773618     0.0615011786     0.0223866310
|  7>  C       -0.1328934888    -1.0340992377    -0.9880070704
|  8>  O        1.0168116936    -1.7567513312    -0.5441801202
|  9>  C        1.0883369964    -0.8668846630     0.6211237198
| 10>  C        0.4545117811    -1.5964790743     1.7980578213
| 11>  C       -1.0076074365    -1.8475794269     1.3199894798
| 12>  O       -1.9862108382    -1.4806856701     2.2859477999
| 13>  C       -1.1616484635    -0.9173182335     0.1236972156
| 14>  H        0.8776573527     1.9663560538    -0.4716441917
| 15>  H       -0.8816144967     1.9021829677    -0.6429262611
| 16>  H       -0.1602404691     1.9914344014     0.9652499715
| 17>  H       -0.3637699733    -1.0466102033    -2.0474145873
| 18>  H        2.0980990059    -0.4775614827     0.7654978188
| 19>  H        0.9933593472    -2.5152411743     2.0473874047
| 20>  H        0.4263978259    -0.9473391755     2.6811802233
| 21>  H       -1.1458257698    -2.8965916932     1.0240697048
| 22>  H       -1.9346008651    -2.1109832623     3.0114499294
| 23>  H       -2.1590339800    -0.5948025182    -0.1539534486
| 24> *
| 25>
| 26>                          ****END OF INPUT****

CARTESIAN COORDINATES (ANGSTROEM)
---------------------------------
  C     -0.039824    1.556914   -0.034082
  C     -0.003977    0.061501    0.022387
  C     -0.132893   -1.034099   -0.988007
  O      1.016812   -1.756751   -0.544180
  C      1.088337   -0.866885    0.621124
  C      0.454512   -1.596479    1.798058
  C     -1.007607   -1.847579    1.319989
  O     -1.986211   -1.480686    2.285948
  C     -1.161648   -0.917318    0.123697
  H      0.877657    1.966356   -0.471644
  H     -0.881614    1.902183   -0.642926
  H     -0.160240    1.991434    0.965250
  H     -0.363770   -1.046610   -2.047415
  H      2.098099   -0.477561    0.765498
  H      0.993359   -2.515241    2.047387
  H      0.426398   -0.947339    2.681180
  H     -1.145826   -2.896592    1.024070
  H     -1.934601   -2.110983    3.011450
  H     -2.159034   -0.594803   -0.153953

 Total Charge           Charge          ....    0
 Multiplicity           Mult            ....    1
 Number of Electrons    NEL             ....   68
 Basis Dimension        Dim             ....  339

ORBITAL ENERGIES
----------------

  NO   OCC          E(Eh)            E(eV)
   0   2.0000     -20.555545      -559.3448
   1   2.0000     -20.548539      -559.1542
   2   2.0000     -11.286978      -307.1343
   3   2.0000     -11.284118      -307.0565
   4   2.0000     -11.283072      -307.0280
   5   2.0000     -11.237878      -305.7982
   6   2.0000     -11.229729      -305.5765
   7   2.0000     -11.226998      -305.5022
   8   2.0000     -11.223322      -305.4021
   9   2.0000      -1.392154       -37.8824
  10   2.0000      -1.360204       -37.0130
  11   2.0000      -1.139821       -31.0161
  12   2.0000      -1.034259       -28.1436
  13   2.0000      -0.986371       -26.8405
  14   2.0000      -0.916700       -24.9447
  15   2.0000      -0.838198       -22.8085
  16   2.0000      -0.768256       -20.9053
  17   2.0000      -0.733777       -19.9671
  18   2.0000      -0.703029       -19.1304
  19   2.0000      -0.677563       -18.4374
  20   2.0000      -0.638602       -17.3772
  21   2.0000      -0.606681       -16.5086
  22   2.0000      -0.602033       -16.3822
  23   2.0000      -0.576089       -15.6762
  24   2.0000      -0.561137       -15.2693
  25   2.0000      -0.560685       -15.2570
  26   2.0000      -0.550420       -14.9777
  27   2.0000      -0.526328       -14.3221
  28   2.0000      -0.502989       -13.6870
  29   2.0000      -0.480663       -13.0795
  30   2.0000      -0.443940       -12.0802
  31   2.0000      -0.431232       -11.7344
  32   2.0000      -0.388186       -10.5631
  33   2.0000      -0.371722       -10.1151
  34   0.0000       0.137746         3.7483
  35   0.0000       0.140624         3.8266
  36   0.0000       0.171260         4.6602
  37   0.0000       0.176053         4.7907
  38   0.0000       0.187483         5.1017

MULLIKEN ATOMIC CHARGES
-----------------------
   0 C :   -0.410070
   1 C :   -0.022011
   2 C :   -0.004791
   3 O :   -0.335098
   4 C :    0.101720
   5 C :   -0.243325
   6 C :    0.061490
   7 O :   -0.464218
   8 C :   -0.110256
   9 H :    0.137880
  10 H :    0.134848
  11 H :    0.140417
  12 H :    0.130990
  13 H :    0.119337
  14 H :    0.119317
  15 H :    0.110021
  16 H :    0.088583
  17 H :    0.314637
  18 H :    0.130529
Sum of atomic charges:   -0.0000000

LOEWDIN ATOMIC CHARGES
----------------------
   0 C :   -0.275130
   1 C :   -0.189816
   2 C :   -0.213165
   3 O :    0.158838
   4 C :   -0.198366
   5 C :   -0.219595
   6 C :   -0.302055
   7 O :   -0.025665
   8 C :   -0.142876
   9 H :    0.129014
  10 H :    0.132982
  11 H :    0.131066
  12 H :    0.132489
  13 H :    0.137228
  14 H :    0.137382
  15 H :    0.144910
  16 H :    0.134881
  17 H :    0.172722
  18 H :    0.155157

  Mayer bond orders larger than 0.1
B(  0-C ,  1-C ) :   0.8463 B(  0-C ,  9-H ) :   0.9443 B(  0-C , 10-H ) :   0.9364
B(  0-C , 11-H ) :   0.9389 B(  1-C ,  2-C ) :   0.9262 B(  1-C ,  4-C ) :   0.9228
B(  1-C ,  8-C ) :   0.8509 B(  2-C ,  3-O ) :   0.9733 B(  2-C ,  8-C ) :   0.8540
B(  2-C , 12-H ) :   0.9221 B(  3-O ,  4-C ) :   0.9228 B(  4-C ,  5-C ) :   0.9250
B(  4-C , 13-H ) :   0.9193 B(  5-C ,  6-C ) :   0.9690 B(  5-C , 14-H ) :   0.9063
B(  5-C , 15-H ) :   0.9002 B(  6-C ,  7-O ) :   1.0338 B(  6-C ,  8-C ) :   0.8980
B(  6-C , 16-H ) :   0.9447 B(  7-O , 17-H ) :   0.8466 B(  8-C , 18-H ) :   0.9197

MP2 TOTAL ENERGY:     -422.290679137 Eh
FINAL SINGLE POINT ENERGY      -422.290679136748

DIPOLE MOMENT
-------------
                                X             Y             Z
Electronic contribution:      0.09748      -3.71110      -1.22800
Nuclear contribution   :     -0.07903       3.89615       1.57660
                        -----------------------------------------
Total Dipole Moment    :      0.01844       0.18504       0.34860
                        -----------------------------------------
Magnitude (a.u.)       :      0.39510
Magnitude (Debye)      :      1.00426

                             ****ORCA TERMINATED NORMALLY****
TOTAL RUN TIME: 0 days 0 hours 16 minutes 48 seconds 743 msec
