                         Program Version 3.0.3 - RELEASE   -
|  1> ! RI-MP2 RIJK def2-TZVP def2-TZVP/C def2-TZVP/JK TIGHTSCF
|  2> % maxcore 2000
|  3> % mp2 density relaxed end
|  4> *xyz 0 1
|  5>  C       -0.0996083430     1.5747517981    -0.0981383010
|  6>  C        0.0016413899     0.0524111443    -0.0322559709
|  7>  C        1.1759581018    -0.5319725667    -0.8740728623
|  8>  C        2.0134483688    -0.6609374227     0.4257051411
|  9>  C        0.6962483021    -0.5360247821     1.2443492985
| 10>  C        0.6892002799     0.2410977400     2.5541125423
| 11>  C        1.4723347400    -0.4607473367     3.6571410692
| 12>  O        1.4076725868     0.3462851267     4.8244324880
| 13>  H        0.8697831295     2.0567629843     0.0697163569
| 14>  H       -0.4538113694     1.8890325806    -1.0860948055
| 15>  H       -0.7991893886     1.9677532065     0.6471142920
| 16>  H       -0.9814314954    -0.3794037297    -0.2459828354
| 17>  H        0.9316943183    -1.5074815443    -1.3037490763
| 18>  H        1.5755010561     0.1048978899    -1.6684027869
| 19>  H        2.6102584404    -1.5672595728     0.5561559178
| 20>  H        2.6678449686     0.2034775274     0.5793080535
| 21>  H        0.2917401131    -1.5405851840     1.4225488683
| 22>  H        1.1171130244     1.2403199620     2.4131567779
| 23>  H       -0.3409615777     0.3875235524     2.9032915170
| 24>  H        1.0423155478    -1.4597412267     3.8398062066
| 25>  H        2.5157777512    -0.6112625045     3.3356056408
| 26>  H        1.9147414456    -0.0866284320     5.5172273682
| 27> *
| 28>
| 29>                          ****END OF INPUT****

CARTESIAN COORDINATES (ANGSTROEM)
---------------------------------
  C     -0.099608    1.574752   -0.098138
  C      0.001641    0.052411   -0.032256
  C      1.175958   -0.531973   -0.874073
  C      2.013448   -0.660937    0.425705
  C      0.696248   -0.536025    1.244349
  C      0.689200    0.241098    2.554113
  C      1.472335   -0.460747    3.657141
  O      1.407673    0.346285    4.824432
  H      0.869783    2.056763    0.069716
  H     -0.453811    1.889033   -1.086095
  H     -0.799189    1.967753    0.647114
  H     -0.981431   -0.379404   -0.245983
  H      0.931694   -1.507482   -1.303749
  H      1.575501    0.104898   -1.668403
  H      2.610258   -1.567260    0.556156
  H      2.667845    0.203478    0.579308
  H      0.291740   -1.540585    1.422549
  H      1.117113    1.240320    2.413157
  H     -0.340962    0.387524    2.903292
  H      1.042316   -1.459741    3.839806
  H      2.515778   -0.611263    3.335606
  H      1.914741   -0.086628    5.517227

 Total Charge           Charge          ....    0
 Multiplicity           Mult            ....    1
 Number of Electrons    NEL             ....   64
 Basis Dimension        Dim             ....  332

ORBITAL ENERGIES
----------------

  NO   OCC          E(Eh)            E(eV)
   0   2.0000     -20.551355      -559.2308
   1   2.0000     -11.270910      -306.6971
   2   2.0000     -11.222300      -305.3743
   3   2.0000     -11.221618      -305.3557
   4   2.0000     -11.215483      -305.1888
   5   2.0000     -11.214513      -305.1624
   6   2.0000     -11.211594      -305.0830
   7   2.0000     -11.209829      -305.0350
   8   2.0000      -1.354935       -36.8696
   9   2.0000      -1.134440       -30.8697
  10   2.0000      -1.021884       -27.8069
  11   2.0000      -0.972007       -26.4497
  12   2.0000      -0.887983       -24.1633
  13   2.0000      -0.848977       -23.1018
  14   2.0000      -0.808481       -21.9999
  15   2.0000      -0.722300       -19.6548
  16   2.0000      -0.685202       -18.6453
  17   2.0000      -0.664644       -18.0859
  18   2.0000      -0.637666       -17.3518
  19   2.0000      -0.604471       -16.4485
  20   2.0000      -0.586433       -15.9577
  21   2.0000      -0.555751       -15.1228
  22   2.0000      -0.545413       -14.8414
  23   2.0000      -0.539853       -14.6901
  24   2.0000      -0.518523       -14.1097
  25   2.0000      -0.501256       -13.6399
  26   2.0000      -0.487718       -13.2715
  27   2.0000      -0.454715       -12.3734
  28   2.0000      -0.441506       -12.0140
  29   2.0000      -0.440461       -11.9855
  30   2.0000      -0.416768       -11.3408
  31   2.0000      -0.414797       -11.2872
  32   0.0000       0.134104         3.6492
  33   0.0000       0.143704         3.9104
  34   0.0000       0.154314         4.1991
  35   0.0000       0.164527         4.4770
  36   0.0000       0.171070         4.6551

MULLIKEN ATOMIC CHARGES
-----------------------
   0 C :   -0.461997
   1 C :    0.012653
   2 C :   -0.216031
   3 C :   -0.290167
   4 C :   -0.097046
   5 C :   -0.187134
   6 C :   -0.070454
   7 O :   -0.464386
   8 H :    0.131070
   9 H :    0.135744
  10 H :    0.134854
  11 H :    0.098872
  12 H :    0.113198
  13 H :    0.110386
  14 H :    0.116594
  15 H :    0.114293
  16 H :    0.092065
  17 H :    0.109201
  18 H :    0.114791
  19 H :    0.090793
  20 H :    0.099006
  21 H :    0.313699
Sum of atomic charges:    0.0000000

LOEWDIN ATOMIC CHARGES
----------------------
   0 C :   -0.298246
   1 C :   -0.232002
   2 C :   -0.224000
   3 C :   -0.227325
   4 C :   -0.217556
   5 C :   -0.256684
   6 C :   -0.348769
   7 O :   -0.053376
   8 H :    0.123858
   9 H :    0.124377
  10 H :    0.124073
  11 H :    0.137171
  12 H :    0.132145
  13 H :    0.124391
  14 H :    0.121444
  15 H :    0.133930
  16 H :    0.151346
  17 H :    0.142347
  18 H :    0.142902
  19 H :    0.113788
  20 H :    0.115474
  21 H :    0.170711

  Mayer bond orders larger than 0.1
B(  0-C ,  1-C ) :   0.9002 B(  0-C ,  8-H ) :   0.9382 B(  0-C ,  9-H ) :   0.9380
B(  0-C , 10-H ) :   0.9401 B(  1-C ,  2-C ) :   0.9033 B(  1-C ,  4-C ) :   0.9074
B(  1-C , 11-H ) :   0.9250 B(  2-C ,  3-C ) :   0.9403 B(  2-C , 12-H ) :   0.9248
B(  2-C , 13-H ) :   0.9260 B(  3-C ,  4-C ) :   0.9287 B(  3-C , 14-H ) :   0.9257
B(  3-C , 15-H ) :   0.9249 B(  4-C ,  5-C ) :   0.8990 B(  4-C , 16-H ) :   0.9218
B(  5-C ,  6-C ) :   0.9298 B(  5-C ,  7-O ) :  -0.1025 B(  5-C , 17-H ) :   0.9188
B(  5-C , 18-H ) :   0.9318 B(  6-C ,  7-O ) :   1.0228 B(  6-C , 19-H ) :   0.9337
B(  6-C , 20-H ) :   0.9330 B(  7-O , 21-H ) :   0.8499

MP2 TOTAL ENERGY:     -349.591015213 Eh
FINAL SINGLE POINT ENERGY      -349.591015212634

DIPOLE MOMENT
-------------
                                X             Y             Z
Electronic contribution:      0.39726      -0.91642       4.32228
Nuclear contribution   :     -0.14555       0.38504      -4.36945
                        -----------------------------------------
Total Dipole Moment    :      0.25171      -0.53138      -0.04717
                        -----------------------------------------
Magnitude (a.u.)       :      0.58987
Magnitude (Debye)      :      1.49932

                             ****ORCA TERMINATED NORMALLY****
TOTAL RUN TIME: 0 days 0 hours 19 minutes 55 seconds 110 msec
