                         Program Version 3.0.3 - RELEASE   -
|  1> ! RI-MP2 RIJK def2-TZVP def2-TZVP/C def2-TZVP/JK TIGHTSCF
|  2> % maxcore 2000
|  3> % mp2 density relaxed end
|  4> *xyz 0 1
|  5>  O       -0.5547081550     0.7842062694     0.6818036117
|  6>  C        0.2275757668     0.9837832266    -0.2166077321
|  7>  C        1.3771685411     1.8992258720    -0.1135132666
|  8>  C        1.7727932149     2.7353261786     1.1131152617
|  9>  C        2.1059928850     3.8935101126     0.1479316980
| 10>  C        1.8900213878     5.3352866452     0.3687681506
| 11>  N        3.2541471419     4.7973889339     0.1581202122
| 12>  C        1.7192086329     3.0573934910    -1.0578759638
| 13>  N        2.4464885357     1.8100258693    -1.1069089274
| 14>  H        0.1318513851     0.4969901865    -1.2107865410
| 15>  H        0.9234055779     2.9437224743     1.7664989547
| 16>  H        2.5966327602     2.3265093775     1.7082394135
| 17>  H        1.5228696888     5.9636876624    -0.4384346177
| 18>  H        1.6003711668     5.6608174802     1.3646376954
| 19>  H        3.7385119225     4.7307013136     1.0506383550
| 20>  H        1.1982575035     3.3905372999    -1.9483253003
| 21>  H        3.3711510140     1.8732807972    -0.6841385641
| 22> *
| 23>
| 24>                          ****END OF INPUT****

CARTESIAN COORDINATES (ANGSTROEM)
---------------------------------
  O     -0.554708    0.784206    0.681804
  C      0.227576    0.983783   -0.216608
  C      1.377169    1.899226   -0.113513
  C      1.772793    2.735326    1.113115
  C      2.105993    3.893510    0.147932
  C      1.890021    5.335287    0.368768
  N      3.254147    4.797389    0.158120
  C      1.719209    3.057393   -1.057876
  N      2.446489    1.810026   -1.106909
  H      0.131851    0.496990   -1.210787
  H      0.923406    2.943722    1.766499
  H      2.596633    2.326509    1.708239
  H      1.522870    5.963688   -0.438435
  H      1.600371    5.660817    1.364638
  H      3.738512    4.730701    1.050638
  H      1.198258    3.390537   -1.948325
  H      3.371151    1.873281   -0.684139

 Total Charge           Charge          ....    0
 Multiplicity           Mult            ....    1
 Number of Electrons    NEL             ....   66
 Basis Dimension        Dim             ....  327

ORBITAL ENERGIES
----------------

  NO   OCC          E(Eh)            E(eV)
   0   2.0000     -20.557462      -559.3970
   1   2.0000     -15.588232      -424.1774
   2   2.0000     -15.572685      -423.7543
   3   2.0000     -11.335749      -308.4614
   4   2.0000     -11.289604      -307.2057
   5   2.0000     -11.288959      -307.1882
   6   2.0000     -11.286723      -307.1274
   7   2.0000     -11.271684      -306.7181
   8   2.0000     -11.253585      -306.2256
   9   2.0000      -1.396602       -38.0035
  10   2.0000      -1.321151       -35.9503
  11   2.0000      -1.267596       -34.4930
  12   2.0000      -1.048255       -28.5245
  13   2.0000      -0.948570       -25.8119
  14   2.0000      -0.914387       -24.8817
  15   2.0000      -0.889965       -24.2172
  16   2.0000      -0.792928       -21.5767
  17   2.0000      -0.750158       -20.4128
  18   2.0000      -0.715590       -19.4722
  19   2.0000      -0.698009       -18.9938
  20   2.0000      -0.671496       -18.2723
  21   2.0000      -0.643687       -17.5156
  22   2.0000      -0.608159       -16.5489
  23   2.0000      -0.582741       -15.8572
  24   2.0000      -0.558997       -15.2111
  25   2.0000      -0.542184       -14.7536
  26   2.0000      -0.508222       -13.8294
  27   2.0000      -0.491805       -13.3827
  28   2.0000      -0.479539       -13.0489
  29   2.0000      -0.448660       -12.2087
  30   2.0000      -0.431565       -11.7435
  31   2.0000      -0.407429       -11.0867
  32   2.0000      -0.393439       -10.7060
  33   0.0000       0.114855         3.1254
  34   0.0000       0.126476         3.4416
  35   0.0000       0.152232         4.1424
  36   0.0000       0.163041         4.4366
  37   0.0000       0.177776         4.8375

MULLIKEN ATOMIC CHARGES
-----------------------
   0 O :   -0.275560
   1 C :    0.040765
   2 C :    0.138917
   3 C :   -0.210554
   4 C :    0.079738
   5 C :   -0.229402
   6 N :   -0.383418
   7 C :   -0.077413
   8 N :   -0.321394
   9 H :    0.096785
  10 H :    0.144935
  11 H :    0.130643
  12 H :    0.126572
  13 H :    0.135854
  14 H :    0.223114
  15 H :    0.148171
  16 H :    0.232248
Sum of atomic charges:   -0.0000000

LOEWDIN ATOMIC CHARGES
----------------------
   0 O :    0.130475
   1 C :   -0.272077
   2 C :   -0.249232
   3 C :   -0.157248
   4 C :   -0.286805
   5 C :   -0.232476
   6 N :    0.001652
   7 C :   -0.158754
   8 N :    0.072298
   9 H :    0.123384
  10 H :    0.151508
  11 H :    0.135477
  12 H :    0.129529
  13 H :    0.125547
  14 H :    0.168630
  15 H :    0.141680
  16 H :    0.176412

  Mayer bond orders larger than 0.1
B(  0-O ,  1-C ) :   1.9941 B(  1-C ,  2-C ) :   0.8866 B(  1-C ,  9-H ) :   0.9617
B(  2-C ,  3-C ) :   0.9100 B(  2-C ,  7-C ) :   0.7957 B(  2-C ,  8-N ) :   0.8913
B(  3-C ,  4-C ) :   0.9189 B(  3-C , 10-H ) :   0.8965 B(  3-C , 11-H ) :   0.9177
B(  4-C ,  5-C ) :   0.9109 B(  4-C ,  6-N ) :   0.8639 B(  4-C ,  7-C ) :   0.8736
B(  5-C ,  6-N ) :   0.9743 B(  5-C , 12-H ) :   0.9134 B(  5-C , 13-H ) :   0.9215
B(  6-N , 14-H ) :   0.8677 B(  7-C ,  8-N ) :   0.9781 B(  7-C , 15-H ) :   0.9155
B(  8-N , 16-H ) :   0.8581

MP2 TOTAL ENERGY:     -417.233482598 Eh
FINAL SINGLE POINT ENERGY      -417.233482598470

DIPOLE MOMENT
-------------
                                X             Y             Z
Electronic contribution:     -1.85397      -3.92050      -1.02872
Nuclear contribution   :      2.32024       4.64445       1.38368
                        -----------------------------------------
Total Dipole Moment    :      0.46627       0.72394       0.35496
                        -----------------------------------------
Magnitude (a.u.)       :      0.93139
Magnitude (Debye)      :      2.36742

                             ****ORCA TERMINATED NORMALLY****
TOTAL RUN TIME: 0 days 0 hours 17 minutes 6 seconds 739 msec
