                         Program Version 3.0.3 - RELEASE   -
|  1> ! RI-MP2 RIJK def2-TZVP def2-TZVP/C def2-TZVP/JK TIGHTSCF
|  2> % maxcore 2000
|  3> % mp2 density relaxed end
|  4> *xyz 0 1
|  5>  C       -0.0318320848     1.5173744116     0.1566884319
|  6>  C       -0.0002349016     0.0332712457    -0.0037354354
|  7>  C        0.0109592928    -0.6877282593    -1.1367815948
|  8>  C        0.0099331708    -0.2162901876    -2.5550653775
|  9>  N        0.0281653201    -2.0803369355    -0.8444154670
| 10>  C        0.2219249775    -2.2758024101     0.6035019916
| 11>  C       -0.0391476098    -0.8798358371     1.2047603169
| 12>  C       -0.0971013368    -3.1278509289    -1.7052326195
| 13>  O       -0.2488157976    -3.0709356296    -2.9095043320
| 14>  H        0.8281617569     1.8734705535     0.7395505513
| 15>  H       -0.0250563215     2.0434967798    -0.8003806668
| 16>  H       -0.9291385075     1.8359961740     0.7047914505
| 17>  H        0.8754264159    -0.6027165065    -3.1005696194
| 18>  H       -0.8715156321    -0.5739013500    -3.0920715296
| 19>  H        0.0309738440     0.8747051727    -2.5877335594
| 20>  H       -0.4547725204    -3.0452733788     0.9821456522
| 21>  H        1.2504689614    -2.6007952054     0.8004459930
| 22>  H        0.7136332078    -0.6180540784     1.9564565438
| 23>  H       -1.0143296506    -0.8227038446     1.7091454936
| 24>  H       -0.0455846645    -4.0913695355    -1.1582645332
| 25> *
| 26>
| 27>                          ****END OF INPUT****

CARTESIAN COORDINATES (ANGSTROEM)
---------------------------------
  C     -0.031832    1.517374    0.156688
  C     -0.000235    0.033271   -0.003735
  C      0.010959   -0.687728   -1.136782
  C      0.009933   -0.216290   -2.555065
  N      0.028165   -2.080337   -0.844415
  C      0.221925   -2.275802    0.603502
  C     -0.039148   -0.879836    1.204760
  C     -0.097101   -3.127851   -1.705233
  O     -0.248816   -3.070936   -2.909504
  H      0.828162    1.873471    0.739551
  H     -0.025056    2.043497   -0.800381
  H     -0.929139    1.835996    0.704791
  H      0.875426   -0.602717   -3.100570
  H     -0.871516   -0.573901   -3.092072
  H      0.030974    0.874705   -2.587734
  H     -0.454773   -3.045273    0.982146
  H      1.250469   -2.600795    0.800446
  H      0.713633   -0.618054    1.956457
  H     -1.014330   -0.822704    1.709145
  H     -0.045585   -4.091370   -1.158265

 Total Charge           Charge          ....    0
 Multiplicity           Mult            ....    1
 Number of Electrons    NEL             ....   68
 Basis Dimension        Dim             ....  345

ORBITAL ENERGIES
----------------

  NO   OCC          E(Eh)            E(eV)
   0   2.0000     -20.518589      -558.3392
   1   2.0000     -15.595196      -424.3668
   2   2.0000     -11.347115      -308.7707
   3   2.0000     -11.277886      -306.8869
   4   2.0000     -11.273171      -306.7586
   5   2.0000     -11.240189      -305.8611
   6   2.0000     -11.227837      -305.5250
   7   2.0000     -11.227019      -305.5027
   8   2.0000     -11.219432      -305.2963
   9   2.0000      -1.379525       -37.5388
  10   2.0000      -1.273902       -34.6646
  11   2.0000      -1.094289       -29.7771
  12   2.0000      -1.036778       -28.2122
  13   2.0000      -0.975692       -26.5499
  14   2.0000      -0.917580       -24.9686
  15   2.0000      -0.870660       -23.6919
  16   2.0000      -0.805428       -21.9168
  17   2.0000      -0.702180       -19.1073
  18   2.0000      -0.691283       -18.8108
  19   2.0000      -0.670319       -18.2403
  20   2.0000      -0.630339       -17.1524
  21   2.0000      -0.613834       -16.7033
  22   2.0000      -0.583912       -15.8891
  23   2.0000      -0.578218       -15.7341
  24   2.0000      -0.572294       -15.5729
  25   2.0000      -0.546279       -14.8650
  26   2.0000      -0.544584       -14.8189
  27   2.0000      -0.531136       -14.4530
  28   2.0000      -0.519438       -14.1346
  29   2.0000      -0.516424       -14.0526
  30   2.0000      -0.484109       -13.1733
  31   2.0000      -0.438630       -11.9357
  32   2.0000      -0.424160       -11.5420
  33   2.0000      -0.301496        -8.2041
  34   0.0000       0.127597         3.4721
  35   0.0000       0.144711         3.9378
  36   0.0000       0.146275         3.9803
  37   0.0000       0.163866         4.4590
  38   0.0000       0.168004         4.5716

MULLIKEN ATOMIC CHARGES
-----------------------
   0 C :   -0.401299
   1 C :    0.023172
   2 C :   -0.040033
   3 C :   -0.358934
   4 N :   -0.023398
   5 C :   -0.173181
   6 C :   -0.219866
   7 C :    0.132145
   8 O :   -0.361277
   9 H :    0.139390
  10 H :    0.131866
  11 H :    0.138091
  12 H :    0.147810
  13 H :    0.159421
  14 H :    0.120198
  15 H :    0.137617
  16 H :    0.123489
  17 H :    0.129116
  18 H :    0.115041
  19 H :    0.080631
Sum of atomic charges:    0.0000000

LOEWDIN ATOMIC CHARGES
----------------------
   0 C :   -0.274567
   1 C :   -0.182743
   2 C :   -0.182335
   3 C :   -0.262216
   4 N :    0.218631
   5 C :   -0.214921
   6 C :   -0.209544
   7 C :   -0.413485
   8 O :    0.060807
   9 H :    0.130828
  10 H :    0.128559
  11 H :    0.131712
  12 H :    0.138663
  13 H :    0.140062
  14 H :    0.127792
  15 H :    0.133284
  16 H :    0.133159
  17 H :    0.140719
  18 H :    0.140463
  19 H :    0.115134

  Mayer bond orders larger than 0.1
B(  0-C ,  1-C ) :   0.8856 B(  0-C ,  9-H ) :   0.9331 B(  0-C , 10-H ) :   0.9493
B(  0-C , 11-H ) :   0.9295 B(  1-C ,  2-C ) :   1.6824 B(  1-C ,  6-C ) :   0.9411
B(  2-C ,  3-C ) :   0.9388 B(  2-C ,  4-N ) :   1.0137 B(  3-C , 12-H ) :   0.9209
B(  3-C , 13-H ) :   0.9195 B(  3-C , 14-H ) :   0.9395 B(  4-N ,  5-C ) :   0.8642
B(  4-N ,  7-C ) :   1.1146 B(  5-C ,  6-C ) :   0.9743 B(  5-C , 15-H ) :   0.9277
B(  5-C , 16-H ) :   0.9196 B(  6-C , 17-H ) :   0.9359 B(  6-C , 18-H ) :   0.8981
B(  7-C ,  8-O ) :   1.8861 B(  7-C , 19-H ) :   0.9326

MP2 TOTAL ENERGY:     -402.497114646 Eh
FINAL SINGLE POINT ENERGY      -402.497114645556

DIPOLE MOMENT
-------------
                                X             Y             Z
Electronic contribution:     -0.35514      -6.55825      -3.47987
Nuclear contribution   :      0.52510       7.10583       4.89550
                        -----------------------------------------
Total Dipole Moment    :      0.16996       0.54758       1.41563
                        -----------------------------------------
Magnitude (a.u.)       :      1.52733
Magnitude (Debye)      :      3.88217

                             ****ORCA TERMINATED NORMALLY****
TOTAL RUN TIME: 0 days 0 hours 19 minutes 47 seconds 224 msec
