                         Program Version 3.0.3 - RELEASE   -
|  1> ! RI-MP2 RIJK def2-TZVP def2-TZVP/C def2-TZVP/JK TIGHTSCF
|  2> % maxcore 2000
|  3> % mp2 density relaxed end
|  4> *xyz 0 1
|  5>  O        0.1208235305     1.4202137593    -0.1875368175
|  6>  C        0.0220404042     0.0379665478    -0.0218478943
|  7>  C        0.3161156997    -0.5905129244     1.4119141327
|  8>  O        0.6646571810     0.2580505030     2.4637135695
|  9>  C       -1.1052007692    -1.2437008619     1.4036168808
| 10>  C       -2.2728973441    -0.4064137198     1.9667082174
| 11>  N       -1.9758627784     1.0331352481     1.7087977200
| 12>  C       -2.5480785249     0.1815771718     0.6250762643
| 13>  C       -1.3947677167    -0.6248575840    -0.0082974582
| 14>  H       -0.4445589775     1.8106461056     0.4931518054
| 15>  H        0.6661871751    -0.4117686525    -0.7830776667
| 16>  H        1.1038150952    -1.3471086957     1.3506806826
| 17>  H       -0.0315254209     0.9280666445     2.5066223390
| 18>  H       -1.1877248536    -2.3140714687     1.5886069212
| 19>  H       -2.9446100500    -0.6662563099     2.7754165345
| 20>  H       -2.7398632015     1.5779771162     2.1042810554
| 21>  H       -3.4806512123     0.4791322005     0.1619404755
| 22>  H       -1.6890417165    -1.2426338100    -0.8559294416
| 23> *
| 24>
| 25>                          ****END OF INPUT****

CARTESIAN COORDINATES (ANGSTROEM)
---------------------------------
  O      0.120824    1.420214   -0.187537
  C      0.022040    0.037967   -0.021848
  C      0.316116   -0.590513    1.411914
  O      0.664657    0.258051    2.463714
  C     -1.105201   -1.243701    1.403617
  C     -2.272897   -0.406414    1.966708
  N     -1.975863    1.033135    1.708798
  C     -2.548079    0.181577    0.625076
  C     -1.394768   -0.624858   -0.008297
  H     -0.444559    1.810646    0.493152
  H      0.666187   -0.411769   -0.783078
  H      1.103815   -1.347109    1.350681
  H     -0.031525    0.928067    2.506622
  H     -1.187725   -2.314071    1.588607
  H     -2.944610   -0.666256    2.775417
  H     -2.739863    1.577977    2.104281
  H     -3.480651    0.479132    0.161940
  H     -1.689042   -1.242634   -0.855929

 Total Charge           Charge          ....    0
 Multiplicity           Mult            ....    1
 Number of Electrons    NEL             ....   68
 Basis Dimension        Dim             ....  333

ORBITAL ENERGIES
----------------

  NO   OCC          E(Eh)            E(eV)
   0   2.0000     -20.541762      -558.9698
   1   2.0000     -20.541754      -558.9696
   2   2.0000     -15.588707      -424.1903
   3   2.0000     -11.283949      -307.0519
   4   2.0000     -11.283228      -307.0322
   5   2.0000     -11.275432      -306.8201
   6   2.0000     -11.274958      -306.8072
   7   2.0000     -11.239328      -305.8377
   8   2.0000     -11.238806      -305.8234
   9   2.0000      -1.368103       -37.2280
  10   2.0000      -1.343536       -36.5595
  11   2.0000      -1.297734       -35.3131
  12   2.0000      -1.111188       -30.2370
  13   2.0000      -0.957114       -26.0444
  14   2.0000      -0.922617       -25.1057
  15   2.0000      -0.833191       -22.6723
  16   2.0000      -0.828758       -22.5517
  17   2.0000      -0.751914       -20.4606
  18   2.0000      -0.729132       -19.8407
  19   2.0000      -0.698288       -19.0014
  20   2.0000      -0.641191       -17.4477
  21   2.0000      -0.616094       -16.7648
  22   2.0000      -0.615069       -16.7369
  23   2.0000      -0.596681       -16.2365
  24   2.0000      -0.574949       -15.6452
  25   2.0000      -0.568881       -15.4800
  26   2.0000      -0.523960       -14.2577
  27   2.0000      -0.523192       -14.2368
  28   2.0000      -0.499051       -13.5799
  29   2.0000      -0.465993       -12.6803
  30   2.0000      -0.440569       -11.9885
  31   2.0000      -0.415242       -11.2993
  32   2.0000      -0.395628       -10.7656
  33   2.0000      -0.370556       -10.0833
  34   0.0000       0.122338         3.3290
  35   0.0000       0.149770         4.0755
  36   0.0000       0.157643         4.2897
  37   0.0000       0.173236         4.7140
  38   0.0000       0.187940         5.1141

MULLIKEN ATOMIC CHARGES
-----------------------
   0 O :   -0.447591
   1 C :   -0.008648
   2 C :   -0.008647
   3 O :   -0.447590
   4 C :    0.011442
   5 C :   -0.133636
   6 N :   -0.484967
   7 C :   -0.133592
   8 C :    0.011401
   9 H :    0.334385
  10 H :    0.099778
  11 H :    0.099778
  12 H :    0.334379
  13 H :    0.127810
  14 H :    0.147782
  15 H :    0.222321
  16 H :    0.147785
  17 H :    0.127809
Sum of atomic charges:   -0.0000000

LOEWDIN ATOMIC CHARGES
----------------------
   0 O :   -0.002019
   1 C :   -0.300498
   2 C :   -0.300497
   3 O :   -0.002018
   4 C :   -0.152676
   5 C :   -0.201634
   6 N :   -0.022191
   7 C :   -0.201634
   8 C :   -0.152675
   9 H :    0.168760
  10 H :    0.139424
  11 H :    0.139425
  12 H :    0.168768
  13 H :    0.140854
  14 H :    0.131739
  15 H :    0.174277
  16 H :    0.131739
  17 H :    0.140853

  Mayer bond orders larger than 0.1
B(  0-O ,  1-C ) :   1.0309 B(  0-O ,  9-H ) :   0.8124 B(  1-C ,  2-C ) :   0.9371
B(  1-C ,  8-C ) :   0.8721 B(  1-C , 10-H ) :   0.9354 B(  2-C ,  3-O ) :   1.0309
B(  2-C ,  4-C ) :   0.8721 B(  2-C , 11-H ) :   0.9354 B(  3-O , 12-H ) :   0.8124
B(  4-C ,  5-C ) :   0.8716 B(  4-C ,  8-C ) :   0.9238 B(  4-C , 13-H ) :   0.9117
B(  5-C ,  6-N ) :   0.8414 B(  5-C ,  7-C ) :   0.8566 B(  5-C , 14-H ) :   0.9167
B(  6-N ,  7-C ) :   0.8414 B(  6-N , 15-H ) :   0.8707 B(  7-C ,  8-C ) :   0.8717
B(  7-C , 16-H ) :   0.9167 B(  8-C , 17-H ) :   0.9117

MP2 TOTAL ENERGY:     -438.297112201 Eh
FINAL SINGLE POINT ENERGY      -438.297112200613

DIPOLE MOMENT
-------------
                                X             Y             Z
Electronic contribution:      1.06255       1.13947       0.28155
Nuclear contribution   :     -2.75974      -1.63873      -0.15227
                        -----------------------------------------
Total Dipole Moment    :     -1.69719      -0.49926       0.12928
                        -----------------------------------------
Magnitude (a.u.)       :      1.77382
Magnitude (Debye)      :      4.50869

                             ****ORCA TERMINATED NORMALLY****
TOTAL RUN TIME: 0 days 0 hours 18 minutes 55 seconds 658 msec
