                         Program Version 3.0.3 - RELEASE   -
|  1> ! RI-MP2 RIJK def2-TZVP def2-TZVP/C def2-TZVP/JK TIGHTSCF
|  2> % maxcore 2000
|  3> % mp2 density relaxed end
|  4> *xyz 0 1
|  5>  O       -0.1173766215     1.3627505297    -0.2017242533
|  6>  C        0.0244822978    -0.0183868363    -0.0613200747
|  7>  C        0.2744456326    -0.6675809283     1.3628549612
|  8>  C       -0.6481693999    -1.8659897607     0.9539717871
|  9>  C       -1.9007090369    -2.3090853648     1.6925357545
| 10>  O       -2.6563408701    -1.2714593443     2.3079955456
| 11>  C       -3.0608999922    -1.7126653756     0.9819282113
| 12>  C       -2.5222155701    -0.7919626222    -0.0694709828
| 13>  C       -1.1901549543    -0.9178160701    -0.0974968589
| 14>  H       -0.8666188161     1.6331170504     0.3421118001
| 15>  H        0.8144024287    -0.3212496965    -0.7558746309
| 16>  H        1.3101744272    -0.8948350449     1.6215863471
| 17>  H       -0.1962381252    -0.0648038248     2.1426324680
| 18>  H       -0.0760161550    -2.7176742654     0.5754102744
| 19>  H       -1.9526891011    -3.2772024851     2.1829312770
| 20>  H       -4.0458456509    -2.1678122187     0.9433546571
| 21>  H       -3.1146368331    -0.0201654822    -0.5457722329
| 22> *
| 23>
| 24>                          ****END OF INPUT****

CARTESIAN COORDINATES (ANGSTROEM)
---------------------------------
  O     -0.117377    1.362751   -0.201724
  C      0.024482   -0.018387   -0.061320
  C      0.274446   -0.667581    1.362855
  C     -0.648169   -1.865990    0.953972
  C     -1.900709   -2.309085    1.692536
  O     -2.656341   -1.271459    2.307996
  C     -3.060900   -1.712665    0.981928
  C     -2.522216   -0.791963   -0.069471
  C     -1.190155   -0.917816   -0.097497
  H     -0.866619    1.633117    0.342112
  H      0.814402   -0.321250   -0.755875
  H      1.310174   -0.894835    1.621586
  H     -0.196238   -0.064804    2.142632
  H     -0.076016   -2.717674    0.575410
  H     -1.952689   -3.277202    2.182931
  H     -4.045846   -2.167812    0.943355
  H     -3.114637   -0.020165   -0.545772

 Total Charge           Charge          ....    0
 Multiplicity           Mult            ....    1
 Number of Electrons    NEL             ....   66
 Basis Dimension        Dim             ....  327

ORBITAL ENERGIES
----------------

  NO   OCC          E(Eh)            E(eV)
   0   2.0000     -20.569581      -559.7268
   1   2.0000     -20.566698      -559.6483
   2   2.0000     -11.301385      -307.5263
   3   2.0000     -11.293192      -307.3034
   4   2.0000     -11.291373      -307.2539
   5   2.0000     -11.247378      -306.0567
   6   2.0000     -11.245050      -305.9934
   7   2.0000     -11.241589      -305.8992
   8   2.0000     -11.235724      -305.7396
   9   2.0000      -1.412755       -38.4430
  10   2.0000      -1.377591       -37.4862
  11   2.0000      -1.164599       -31.6903
  12   2.0000      -1.033673       -28.1277
  13   2.0000      -0.962421       -26.1888
  14   2.0000      -0.882292       -24.0084
  15   2.0000      -0.861512       -23.4429
  16   2.0000      -0.789856       -21.4931
  17   2.0000      -0.755375       -20.5548
  18   2.0000      -0.723077       -19.6759
  19   2.0000      -0.662121       -18.0172
  20   2.0000      -0.649429       -17.6719
  21   2.0000      -0.617110       -16.7924
  22   2.0000      -0.607964       -16.5435
  23   2.0000      -0.589096       -16.0301
  24   2.0000      -0.553656       -15.0658
  25   2.0000      -0.547456       -14.8970
  26   2.0000      -0.517827       -14.0908
  27   2.0000      -0.499803       -13.6003
  28   2.0000      -0.490565       -13.3490
  29   2.0000      -0.446464       -12.1489
  30   2.0000      -0.429000       -11.6737
  31   2.0000      -0.419560       -11.4168
  32   2.0000      -0.351378        -9.5615
  33   0.0000       0.116478         3.1695
  34   0.0000       0.145810         3.9677
  35   0.0000       0.154561         4.2058
  36   0.0000       0.165314         4.4984
  37   0.0000       0.173472         4.7204

MULLIKEN ATOMIC CHARGES
-----------------------
   0 O :   -0.451938
   1 C :    0.096097
   2 C :   -0.267672
   3 C :    0.026730
   4 C :   -0.077243
   5 O :   -0.322307
   6 C :    0.095476
   7 C :   -0.298579
   8 C :   -0.039155
   9 H :    0.321381
  10 H :    0.116697
  11 H :    0.126740
  12 H :    0.140095
  13 H :    0.122036
  14 H :    0.135033
  15 H :    0.132896
  16 H :    0.143712
Sum of atomic charges:    0.0000000

LOEWDIN ATOMIC CHARGES
----------------------
   0 O :   -0.000024
   1 C :   -0.293651
   2 C :   -0.174976
   3 C :   -0.162106
   4 C :   -0.239574
   5 O :    0.165288
   6 C :   -0.224391
   7 C :   -0.125877
   8 C :   -0.117389
   9 H :    0.181240
  10 H :    0.150604
  11 H :    0.127949
  12 H :    0.143538
  13 H :    0.156591
  14 H :    0.135785
  15 H :    0.134706
  16 H :    0.142287

  Mayer bond orders larger than 0.1
B(  0-O ,  1-C ) :   0.9994 B(  0-O ,  9-H ) :   0.8337 B(  1-C ,  2-C ) :   0.9056
B(  1-C ,  8-C ) :   0.9028 B(  1-C , 10-H ) :   0.9271 B(  2-C ,  3-C ) :   0.8764
B(  2-C , 11-H ) :   0.9206 B(  2-C , 12-H ) :   0.9044 B(  3-C ,  4-C ) :   0.9064
B(  3-C ,  8-C ) :   0.8888 B(  3-C , 13-H ) :   0.8998 B(  4-C ,  5-O ) :   0.9306
B(  4-C ,  6-C ) :   0.9414 B(  4-C , 14-H ) :   0.9242 B(  5-O ,  6-C ) :   0.8710
B(  6-C ,  7-C ) :   0.9124 B(  6-C , 15-H ) :   0.9264 B(  7-C ,  8-C ) :   1.7550
B(  7-C , 16-H ) :   0.9348

MP2 TOTAL ENERGY:     -421.071561033 Eh
FINAL SINGLE POINT ENERGY      -421.071561033302

DIPOLE MOMENT
-------------
                                X             Y             Z
Electronic contribution:     -2.15874       0.31109      -0.25652
Nuclear contribution   :      2.10315      -0.91568       0.21935
                        -----------------------------------------
Total Dipole Moment    :     -0.05560      -0.60459      -0.03717
                        -----------------------------------------
Magnitude (a.u.)       :      0.60828
Magnitude (Debye)      :      1.54612

                             ****ORCA TERMINATED NORMALLY****
TOTAL RUN TIME: 0 days 0 hours 17 minutes 6 seconds 541 msec
