                         Program Version 3.0.3 - RELEASE   -
|  1> ! RI-MP2 RIJK def2-TZVP def2-TZVP/C def2-TZVP/JK TIGHTSCF
|  2> % maxcore 2000
|  3> % mp2 density relaxed end
|  4> *xyz 0 1
|  5>  O        0.0661577033     1.1270476856    -0.7132040044
|  6>  C        0.0589854853    -0.2050401846    -0.2460062971
|  7>  C       -1.3435377097    -0.5840821043     0.2241464177
|  8>  N       -2.3223359601    -0.4145284759    -0.8972236404
|  9>  C       -2.6148482032    -1.8728929477    -0.9400118421
| 10>  C       -2.1150441498    -2.5215731830    -2.1523316536
| 11>  N       -1.6509629154    -3.0600805328    -3.0644486238
| 12>  C       -1.6906540687    -2.1013012505     0.3185665646
| 13>  O       -0.6941487515    -3.0705052939     0.2787821080
| 14>  H       -0.6152499606     1.1609355420    -1.3978382134
| 15>  H        0.3986175398    -0.9010984331    -1.0300266300
| 16>  H        0.7705253901    -0.2675605724     0.5827303065
| 17>  H       -1.5955052283    -0.0024794372     1.1165222199
| 18>  H       -3.1406582887     0.1274690063    -0.6479625818
| 19>  H       -3.6636011577    -2.1480039531    -0.7943799601
| 20>  H       -2.2975762595    -2.3252874862     1.1982537520
| 21>  H       -0.2602120454    -3.0563308391    -0.5831021919
| 22> *
| 23>
| 24>                          ****END OF INPUT****

CARTESIAN COORDINATES (ANGSTROEM)
---------------------------------
  O      0.066158    1.127048   -0.713204
  C      0.058985   -0.205040   -0.246006
  C     -1.343538   -0.584082    0.224146
  N     -2.322336   -0.414528   -0.897224
  C     -2.614848   -1.872893   -0.940012
  C     -2.115044   -2.521573   -2.152332
  N     -1.650963   -3.060081   -3.064449
  C     -1.690654   -2.101301    0.318567
  O     -0.694149   -3.070505    0.278782
  H     -0.615250    1.160936   -1.397838
  H      0.398618   -0.901098   -1.030027
  H      0.770525   -0.267561    0.582730
  H     -1.595505   -0.002479    1.116522
  H     -3.140658    0.127469   -0.647963
  H     -3.663601   -2.148004   -0.794380
  H     -2.297576   -2.325287    1.198254
  H     -0.260212   -3.056331   -0.583102

 Total Charge           Charge          ....    0
 Multiplicity           Mult            ....    1
 Number of Electrons    NEL             ....   68
 Basis Dimension        Dim             ....  327

ORBITAL ENERGIES
----------------

  NO   OCC          E(Eh)            E(eV)
   0   2.0000     -20.589132      -560.2588
   1   2.0000     -20.560822      -559.4884
   2   2.0000     -15.589260      -424.2053
   3   2.0000     -15.587252      -424.1507
   4   2.0000     -11.328457      -308.2630
   5   2.0000     -11.325648      -308.1866
   6   2.0000     -11.287482      -307.1480
   7   2.0000     -11.286060      -307.1093
   8   2.0000     -11.285165      -307.0849
   9   2.0000      -1.404044       -38.2060
  10   2.0000      -1.369894       -37.2767
  11   2.0000      -1.275123       -34.6979
  12   2.0000      -1.228652       -33.4333
  13   2.0000      -1.022267       -27.8173
  14   2.0000      -1.007073       -27.4039
  15   2.0000      -0.921501       -25.0753
  16   2.0000      -0.816849       -22.2276
  17   2.0000      -0.760466       -20.6933
  18   2.0000      -0.739623       -20.1262
  19   2.0000      -0.692406       -18.8413
  20   2.0000      -0.663639       -18.0585
  21   2.0000      -0.654685       -17.8149
  22   2.0000      -0.633499       -17.2384
  23   2.0000      -0.603496       -16.4220
  24   2.0000      -0.586092       -15.9484
  25   2.0000      -0.574395       -15.6301
  26   2.0000      -0.561141       -15.2694
  27   2.0000      -0.535805       -14.5800
  28   2.0000      -0.510857       -13.9011
  29   2.0000      -0.491524       -13.3751
  30   2.0000      -0.477760       -13.0005
  31   2.0000      -0.464913       -12.6509
  32   2.0000      -0.441004       -12.0003
  33   2.0000      -0.414180       -11.2704
  34   0.0000       0.101514         2.7623
  35   0.0000       0.127538         3.4705
  36   0.0000       0.139148         3.7864
  37   0.0000       0.153979         4.1900
  38   0.0000       0.176970         4.8156

MULLIKEN ATOMIC CHARGES
-----------------------
   0 O :   -0.476820
   1 C :    0.007122
   2 C :   -0.069420
   3 N :   -0.370998
   4 C :    0.087472
   5 C :   -0.205095
   6 N :   -0.047677
   7 C :    0.017226
   8 O :   -0.428189
   9 H :    0.326727
  10 H :    0.077128
  11 H :    0.125583
  12 H :    0.117616
  13 H :    0.226846
  14 H :    0.156655
  15 H :    0.122653
  16 H :    0.333171
Sum of atomic charges:   -0.0000000

LOEWDIN ATOMIC CHARGES
----------------------
   0 O :   -0.038443
   1 C :   -0.332258
   2 C :   -0.261335
   3 N :    0.022269
   4 C :   -0.244486
   5 C :   -0.179305
   6 N :    0.071828
   7 C :   -0.285392
   8 O :    0.023492
   9 H :    0.176238
  10 H :    0.116175
  11 H :    0.133766
  12 H :    0.140078
  13 H :    0.167201
  14 H :    0.160126
  15 H :    0.146455
  16 H :    0.183590

  Mayer bond orders larger than 0.1
B(  0-O ,  1-C ) :   0.9245 B(  0-O ,  9-H ) :   0.8270 B(  1-C ,  2-C ) :   0.9449
B(  1-C , 10-H ) :   0.9004 B(  1-C , 11-H ) :   0.9288 B(  2-C ,  3-N ) :   0.9395
B(  2-C ,  7-C ) :   0.8783 B(  2-C , 12-H ) :   0.9114 B(  3-N ,  4-C ) :   0.9860
B(  3-N , 13-H ) :   0.8701 B(  4-C ,  5-C ) :   0.9078 B(  4-C ,  7-C ) :   0.8636
B(  4-C , 14-H ) :   0.8992 B(  5-C ,  6-N ) :   2.8257 B(  7-C ,  8-O ) :   1.0801
B(  7-C , 15-H ) :   0.9287 B(  8-O , 16-H ) :   0.8190

MP2 TOTAL ENERGY:     -454.393764546 Eh
FINAL SINGLE POINT ENERGY      -454.393764545524

DIPOLE MOMENT
-------------
                                X             Y             Z
Electronic contribution:     -1.32222      -2.92127      -3.23367
Nuclear contribution   :      0.14560       3.28854       4.25939
                        -----------------------------------------
Total Dipole Moment    :     -1.17662       0.36727       1.02572
                        -----------------------------------------
Magnitude (a.u.)       :      1.60356
Magnitude (Debye)      :      4.07594

                             ****ORCA TERMINATED NORMALLY****
TOTAL RUN TIME: 0 days 0 hours 24 minutes 30 seconds 974 msec
