                         Program Version 3.0.3 - RELEASE   -
|  1> ! RI-MP2 RIJK def2-TZVP def2-TZVP/C def2-TZVP/JK TIGHTSCF
|  2> % maxcore 2000
|  3> % mp2 density relaxed end
|  4> *xyz 0 1
|  5>  C       -0.2953102268     1.5602276196     0.2086301008
|  6>  C       -0.0189911149     0.1089824403     0.0057869073
|  7>  C        0.2221230268    -0.6615508556    -1.1140575856
|  8>  N        0.4152169148    -1.9560533239    -0.7169625508
|  9>  N        0.3139679513    -2.0374370992     0.5759040968
| 10>  N        0.0550140007    -0.7946450972     1.0197640593
| 11>  C        0.2681271759    -0.2844369766    -2.5389055997
| 12>  C        1.2583493082    -0.9337408556    -3.4445232133
| 13>  N       -0.1676122399    -1.2622335324    -3.5547556022
| 14>  H        0.5395155344     2.0700957569     0.7031503754
| 15>  H       -0.4575710736     2.0504543706    -0.7534721413
| 16>  H       -1.1912083157     1.7203499933     0.8184179818
| 17>  H       -0.0670841513    -0.6427272944     2.0087297918
| 18>  H       -0.0351995505     0.7372151388    -2.7535677102
| 19>  H        1.6700318870    -0.3755578843    -4.2811564506
| 20>  H        1.9243980150    -1.6644140631    -2.9949517064
| 21>  H       -0.3359100916    -2.1477942573    -3.0792679730
| 22> *
| 23>
| 24>                          ****END OF INPUT****

CARTESIAN COORDINATES (ANGSTROEM)
---------------------------------
  C     -0.295310    1.560228    0.208630
  C     -0.018991    0.108982    0.005787
  C      0.222123   -0.661551   -1.114058
  N      0.415217   -1.956053   -0.716963
  N      0.313968   -2.037437    0.575904
  N      0.055014   -0.794645    1.019764
  C      0.268127   -0.284437   -2.538906
  C      1.258349   -0.933741   -3.444523
  N     -0.167612   -1.262234   -3.554756
  H      0.539516    2.070096    0.703150
  H     -0.457571    2.050454   -0.753472
  H     -1.191208    1.720350    0.818418
  H     -0.067084   -0.642727    2.008730
  H     -0.035200    0.737215   -2.753568
  H      1.670032   -0.375558   -4.281156
  H      1.924398   -1.664414   -2.994952
  H     -0.335910   -2.147794   -3.079268

 Total Charge           Charge          ....    0
 Multiplicity           Mult            ....    1
 Number of Electrons    NEL             ....   66
 Basis Dimension        Dim             ....  327

ORBITAL ENERGIES
----------------

  NO   OCC          E(Eh)            E(eV)
   0   2.0000     -15.656507      -426.0352
   1   2.0000     -15.643311      -425.6761
   2   2.0000     -15.596893      -424.4130
   3   2.0000     -15.553332      -423.2277
   4   2.0000     -11.292866      -307.2945
   5   2.0000     -11.267046      -306.5919
   6   2.0000     -11.260041      -306.4013
   7   2.0000     -11.259742      -306.3932
   8   2.0000     -11.251537      -306.1699
   9   2.0000      -1.438892       -39.1542
  10   2.0000      -1.262148       -34.3448
  11   2.0000      -1.203737       -32.7553
  12   2.0000      -1.108079       -30.1524
  13   2.0000      -0.992351       -27.0033
  14   2.0000      -0.909206       -24.7408
  15   2.0000      -0.866992       -23.5920
  16   2.0000      -0.865546       -23.5527
  17   2.0000      -0.788171       -21.4472
  18   2.0000      -0.727533       -19.7972
  19   2.0000      -0.680882       -18.5277
  20   2.0000      -0.655469       -17.8362
  21   2.0000      -0.638154       -17.3651
  22   2.0000      -0.603190       -16.4136
  23   2.0000      -0.588273       -16.0077
  24   2.0000      -0.585090       -15.9211
  25   2.0000      -0.542417       -14.7599
  26   2.0000      -0.513467       -13.9721
  27   2.0000      -0.489335       -13.3155
  28   2.0000      -0.480972       -13.0879
  29   2.0000      -0.442520       -12.0416
  30   2.0000      -0.429912       -11.6985
  31   2.0000      -0.398302       -10.8383
  32   2.0000      -0.329040        -8.9536
  33   0.0000       0.115962         3.1555
  34   0.0000       0.131314         3.5732
  35   0.0000       0.148443         4.0393
  36   0.0000       0.175715         4.7815
  37   0.0000       0.178838         4.8664

MULLIKEN ATOMIC CHARGES
-----------------------
   0 C :   -0.415835
   1 C :   -0.036018
   2 C :    0.062994
   3 N :   -0.169975
   4 N :   -0.169728
   5 N :   -0.064820
   6 C :   -0.036936
   7 C :   -0.154767
   8 N :   -0.370485
   9 H :    0.158588
  10 H :    0.153475
  11 H :    0.152323
  12 H :    0.260097
  13 H :    0.123412
  14 H :    0.122678
  15 H :    0.145233
  16 H :    0.239766
Sum of atomic charges:   -0.0000000

LOEWDIN ATOMIC CHARGES
----------------------
   0 C :   -0.270009
   1 C :   -0.244955
   2 C :   -0.254584
   3 N :    0.020302
   4 N :   -0.051542
   5 N :    0.139294
   6 C :   -0.250107
   7 C :   -0.255078
   8 N :   -0.005674
   9 H :    0.136153
  10 H :    0.140195
  11 H :    0.135375
  12 H :    0.192101
  13 H :    0.145365
  14 H :    0.122998
  15 H :    0.128375
  16 H :    0.171790

  Mayer bond orders larger than 0.1
B(  0-C ,  1-C ) :   0.8426 B(  0-C ,  9-H ) :   0.9317 B(  0-C , 10-H ) :   0.9508
B(  0-C , 11-H ) :   0.9336 B(  1-C ,  2-C ) :   1.3744 B(  1-C ,  4-N ) :   0.1524
B(  1-C ,  5-N ) :   1.2349 B(  2-C ,  3-N ) :   1.3329 B(  2-C ,  6-C ) :   0.9567
B(  3-N ,  4-N ) :   1.3115 B(  4-N ,  5-N ) :   1.0501 B(  5-N , 12-H ) :   0.8604
B(  6-C ,  7-C ) :   0.9396 B(  6-C ,  8-N ) :   0.9383 B(  6-C , 13-H ) :   0.9158
B(  7-C ,  8-N ) :   0.9102 B(  7-C , 14-H ) :   0.9259 B(  7-C , 15-H ) :   0.9138
B(  8-N , 16-H ) :   0.8729

MP2 TOTAL ENERGY:     -413.463765117 Eh
FINAL SINGLE POINT ENERGY      -413.463765117439

DIPOLE MOMENT
-------------
                                X             Y             Z
Electronic contribution:     -0.20304      -5.17711       2.94773
Nuclear contribution   :      0.23050       6.79128      -1.79115
                        -----------------------------------------
Total Dipole Moment    :      0.02746       1.61417       1.15658
                        -----------------------------------------
Magnitude (a.u.)       :      1.98595
Magnitude (Debye)      :      5.04787

                             ****ORCA TERMINATED NORMALLY****
TOTAL RUN TIME: 0 days 0 hours 16 minutes 9 seconds 774 msec
