                         Program Version 3.0.3 - RELEASE   -
|  1> ! RI-MP2 RIJK def2-TZVP def2-TZVP/C def2-TZVP/JK TIGHTSCF
|  2> % maxcore 2000
|  3> % mp2 density relaxed end
|  4> *xyz 0 1
|  5>  C        0.0174693229     1.4842000202    -0.1373527642
|  6>  C       -0.1546723384    -0.0238399179    -0.1737153231
|  7>  O        0.8623752142    -0.5675089350    -1.0109132541
|  8>  C        0.8222176485    -1.9349926357    -1.1214524269
|  9>  C        1.2950927291    -2.9712589007    -0.1021298732
| 10>  C        1.2541718685    -3.9684676984    -1.2967927844
| 11>  C       -0.2570660655    -4.1022008764    -1.6410653274
| 12>  C       -0.1721827104    -2.6419247927    -2.0739949695
| 13>  C        1.3308766318    -2.7306542111    -2.2841831967
| 14>  H        1.0019731586     1.7487809549     0.2588295641
| 15>  H       -0.0708164079     1.9056158780    -1.1428129543
| 16>  H       -0.7471809605     1.9394340471     0.4992097714
| 17>  H       -0.0742409499    -0.4474409046     0.8388501155
| 18>  H       -1.1450933070    -0.2995624273    -0.5658285235
| 19>  H        2.3207277796    -2.7615888263     0.2147012070
| 20>  H        0.6724111918    -3.2035030436     0.7699783899
| 21>  H        1.9135568347    -4.8330627949    -1.3103284501
| 22>  H       -0.4214770009    -4.7656725498    -2.4954935820
| 23>  H       -0.9368834306    -4.3792415767    -0.8260606813
| 24>  H       -0.8758626752    -2.0541139208    -2.6499947013
| 25>  H        1.9644719765    -2.4729714984    -3.1197423060
| 26> *
| 27>
| 28>                          ****END OF INPUT****

CARTESIAN COORDINATES (ANGSTROEM)
---------------------------------
  C      0.017469    1.484200   -0.137353
  C     -0.154672   -0.023840   -0.173715
  O      0.862375   -0.567509   -1.010913
  C      0.822218   -1.934993   -1.121452
  C      1.295093   -2.971259   -0.102130
  C      1.254172   -3.968468   -1.296793
  C     -0.257066   -4.102201   -1.641065
  C     -0.172183   -2.641925   -2.073995
  C      1.330877   -2.730654   -2.284183
  H      1.001973    1.748781    0.258830
  H     -0.070816    1.905616   -1.142813
  H     -0.747181    1.939434    0.499210
  H     -0.074241   -0.447441    0.838850
  H     -1.145093   -0.299562   -0.565829
  H      2.320728   -2.761589    0.214701
  H      0.672411   -3.203503    0.769978
  H      1.913557   -4.833063   -1.310328
  H     -0.421477   -4.765673   -2.495494
  H     -0.936883   -4.379242   -0.826061
  H     -0.875863   -2.054114   -2.649995
  H      1.964472   -2.472971   -3.119742

 Total Charge           Charge          ....    0
 Multiplicity           Mult            ....    1
 Number of Electrons    NEL             ....   68
 Basis Dimension        Dim             ....  351

ORBITAL ENERGIES
----------------

  NO   OCC          E(Eh)            E(eV)
   0   2.0000     -20.559135      -559.4425
   1   2.0000     -11.281703      -306.9907
   2   2.0000     -11.274598      -306.7974
   3   2.0000     -11.237501      -305.7880
   4   2.0000     -11.227597      -305.5185
   5   2.0000     -11.224561      -305.4358
   6   2.0000     -11.222669      -305.3844
   7   2.0000     -11.221610      -305.3555
   8   2.0000     -11.214170      -305.1531
   9   2.0000      -1.385369       -37.6978
  10   2.0000      -1.220385       -33.2084
  11   2.0000      -1.021442       -27.7948
  12   2.0000      -0.970409       -26.4062
  13   2.0000      -0.950385       -25.8613
  14   2.0000      -0.848539       -23.0899
  15   2.0000      -0.841423       -22.8963
  16   2.0000      -0.741172       -20.1683
  17   2.0000      -0.725403       -19.7392
  18   2.0000      -0.707522       -19.2527
  19   2.0000      -0.655596       -17.8397
  20   2.0000      -0.614696       -16.7267
  21   2.0000      -0.610760       -16.6196
  22   2.0000      -0.598610       -16.2890
  23   2.0000      -0.578189       -15.7333
  24   2.0000      -0.544800       -14.8248
  25   2.0000      -0.530290       -14.4299
  26   2.0000      -0.521234       -14.1835
  27   2.0000      -0.503232       -13.6936
  28   2.0000      -0.476098       -12.9553
  29   2.0000      -0.459911       -12.5148
  30   2.0000      -0.442718       -12.0470
  31   2.0000      -0.433721       -11.8022
  32   2.0000      -0.365736        -9.9522
  33   2.0000      -0.364075        -9.9070
  34   0.0000       0.141037         3.8378
  35   0.0000       0.155714         4.2372
  36   0.0000       0.168714         4.5909
  37   0.0000       0.172854         4.7036
  38   0.0000       0.184211         5.0126

MULLIKEN ATOMIC CHARGES
-----------------------
   0 C :   -0.361127
   1 C :   -0.045473
   2 O :   -0.299221
   3 C :    0.146286
   4 C :   -0.206230
   5 C :   -0.089237
   6 C :   -0.184385
   7 C :   -0.201711
   8 C :   -0.194515
   9 H :    0.130556
  10 H :    0.129443
  11 H :    0.122488
  12 H :    0.098956
  13 H :    0.098182
  14 H :    0.114248
  15 H :    0.108563
  16 H :    0.132912
  17 H :    0.111945
  18 H :    0.102530
  19 H :    0.133793
  20 H :    0.151998
Sum of atomic charges:    0.0000000

LOEWDIN ATOMIC CHARGES
----------------------
   0 C :   -0.317260
   1 C :   -0.329137
   2 O :    0.221304
   3 C :   -0.311061
   4 C :   -0.182860
   5 C :   -0.153741
   6 C :   -0.203279
   7 C :   -0.159060
   8 C :   -0.104336
   9 H :    0.124379
  10 H :    0.124023
  11 H :    0.124548
  12 H :    0.119575
  13 H :    0.118418
  14 H :    0.141416
  15 H :    0.123810
  16 H :    0.130000
  17 H :    0.137072
  18 H :    0.122496
  19 H :    0.138035
  20 H :    0.135660

  Mayer bond orders larger than 0.1
B(  0-C ,  1-C ) :   0.9525 B(  0-C ,  9-H ) :   0.9358 B(  0-C , 10-H ) :   0.9365
B(  0-C , 11-H ) :   0.9320 B(  1-C ,  2-O ) :   0.8764 B(  1-C , 12-H ) :   0.9230
B(  1-C , 13-H ) :   0.9216 B(  2-O ,  3-C ) :   1.0172 B(  3-C ,  4-C ) :   0.9502
B(  3-C ,  7-C ) :   0.8324 B(  3-C ,  8-C ) :   0.8883 B(  4-C ,  5-C ) :   0.8922
B(  4-C , 14-H ) :   0.9226 B(  4-C , 15-H ) :   0.9141 B(  5-C ,  6-C ) :   0.9150
B(  5-C ,  8-C ) :   0.9085 B(  5-C , 16-H ) :   0.9168 B(  6-C ,  7-C ) :   0.9206
B(  6-C , 17-H ) :   0.9194 B(  6-C , 18-H ) :   0.9198 B(  7-C ,  8-C ) :   0.8628
B(  7-C , 19-H ) :   0.9268 B(  8-C , 20-H ) :   0.8961

MP2 TOTAL ENERGY:     -386.349315994 Eh
FINAL SINGLE POINT ENERGY      -386.349315994275

DIPOLE MOMENT
-------------
                                X             Y             Z
Electronic contribution:      2.41553      -2.75510      -2.80662
Nuclear contribution   :     -2.69979       2.61579       3.01379
                        -----------------------------------------
Total Dipole Moment    :     -0.28425      -0.13931       0.20717
                        -----------------------------------------
Magnitude (a.u.)       :      0.37832
Magnitude (Debye)      :      0.96161

                             ****ORCA TERMINATED NORMALLY****
TOTAL RUN TIME: 0 days 0 hours 20 minutes 39 seconds 600 msec
