                         Program Version 3.0.3 - RELEASE   -
|  1> ! RI-MP2 RIJK def2-TZVP def2-TZVP/C def2-TZVP/JK TIGHTSCF
|  2> % maxcore 2000
|  3> % mp2 density relaxed end
|  4> *xyz 0 1
|  5>  C       -0.6729987484     1.1931513736    -0.0419116887
|  6>  C        0.1849928746    -0.0582889049    -0.1481066953
|  7>  C        1.5952776250     0.0338869914    -0.7889026463
|  8>  C        2.1148686425    -0.9847055106     0.2584795326
|  9>  C        0.8371133500    -0.6912685229     1.1259107390
| 10>  C        1.1331451988     0.2967063864     2.2604246091
| 11>  C        0.1447575371    -1.9470391439     1.6443875674
| 12>  C        0.8336682337    -2.7123036769     2.7658092245
| 13>  O       -0.8995882822    -2.3418227159     1.1745136823
| 14>  H       -0.1447206444     2.0169665118     0.4497971303
| 15>  H       -0.9652657208     1.5408414768    -1.0390733221
| 16>  H       -1.5920381690     0.9957097319     0.5202729119
| 17>  H       -0.3942470575    -0.8465727296    -0.6363370855
| 18>  H        1.6873753804    -0.2419030213    -1.8420489550
| 19>  H        2.0444558917     1.0227531313    -0.6531310825
| 20>  H        2.1253622883    -2.0071125630    -0.1301342993
| 21>  H        3.0791626789    -0.7801682296     0.7316857470
| 22>  H        1.6546848516     1.1801928069     1.8797809265
| 23>  H        0.2145483698     0.6380157606     2.7491595048
| 24>  H        1.7755322991    -0.1549839476     3.0225423565
| 25>  H        0.6475250872    -2.2111016992     3.7225548537
| 26>  H        0.4241281122    -3.7219623410     2.8189261253
| 27>  H        1.9185457815    -2.7496404444     2.6272223337
| 28> *
| 29>
| 30>                          ****END OF INPUT****

CARTESIAN COORDINATES (ANGSTROEM)
---------------------------------
  C     -0.672999    1.193151   -0.041912
  C      0.184993   -0.058289   -0.148107
  C      1.595278    0.033887   -0.788903
  C      2.114869   -0.984706    0.258480
  C      0.837113   -0.691269    1.125911
  C      1.133145    0.296706    2.260425
  C      0.144758   -1.947039    1.644388
  C      0.833668   -2.712304    2.765809
  O     -0.899588   -2.341823    1.174514
  H     -0.144721    2.016967    0.449797
  H     -0.965266    1.540841   -1.039073
  H     -1.592038    0.995710    0.520273
  H     -0.394247   -0.846573   -0.636337
  H      1.687375   -0.241903   -1.842049
  H      2.044456    1.022753   -0.653131
  H      2.125362   -2.007113   -0.130134
  H      3.079163   -0.780168    0.731686
  H      1.654685    1.180193    1.879781
  H      0.214548    0.638016    2.749160
  H      1.775532   -0.154984    3.022542
  H      0.647525   -2.211102    3.722555
  H      0.424128   -3.721962    2.818926
  H      1.918546   -2.749640    2.627222

 Total Charge           Charge          ....    0
 Multiplicity           Mult            ....    1
 Number of Electrons    NEL             ....   70
 Basis Dimension        Dim             ....  363

ORBITAL ENERGIES
----------------

  NO   OCC          E(Eh)            E(eV)
   0   2.0000     -20.538433      -558.8792
   1   2.0000     -11.322705      -308.1065
   2   2.0000     -11.242606      -305.9269
   3   2.0000     -11.231332      -305.6201
   4   2.0000     -11.231326      -305.6199
   5   2.0000     -11.228411      -305.5406
   6   2.0000     -11.222822      -305.3885
   7   2.0000     -11.221320      -305.3476
   8   2.0000     -11.210270      -305.0470
   9   2.0000      -1.382446       -37.6183
  10   2.0000      -1.148962       -31.2648
  11   2.0000      -1.025150       -27.8958
  12   2.0000      -0.980360       -26.6770
  13   2.0000      -0.976342       -26.5676
  14   2.0000      -0.880483       -23.9592
  15   2.0000      -0.851082       -23.1591
  16   2.0000      -0.773670       -21.0526
  17   2.0000      -0.699865       -19.0443
  18   2.0000      -0.674423       -18.3520
  19   2.0000      -0.627611       -17.0782
  20   2.0000      -0.620840       -16.8939
  21   2.0000      -0.605074       -16.4649
  22   2.0000      -0.593374       -16.1465
  23   2.0000      -0.580276       -15.7901
  24   2.0000      -0.560684       -15.2570
  25   2.0000      -0.551627       -15.0105
  26   2.0000      -0.544744       -14.8232
  27   2.0000      -0.537790       -14.6340
  28   2.0000      -0.513196       -13.9648
  29   2.0000      -0.497898       -13.5485
  30   2.0000      -0.467400       -12.7186
  31   2.0000      -0.457060       -12.4372
  32   2.0000      -0.440714       -11.9924
  33   2.0000      -0.424519       -11.5518
  34   2.0000      -0.391555       -10.6548
  35   0.0000       0.124629         3.3913
  36   0.0000       0.143988         3.9181
  37   0.0000       0.155839         4.2406
  38   0.0000       0.164069         4.4645
  39   0.0000       0.168844         4.5945

MULLIKEN ATOMIC CHARGES
-----------------------
   0 C :   -0.426616
   1 C :   -0.080938
   2 C :   -0.241299
   3 C :   -0.267389
   4 C :    0.197152
   5 C :   -0.485161
   6 C :    0.158681
   7 C :   -0.448761
   8 O :   -0.290969
   9 H :    0.118899
  10 H :    0.135202
  11 H :    0.141358
  12 H :    0.123136
  13 H :    0.119549
  14 H :    0.112470
  15 H :    0.122026
  16 H :    0.116613
  17 H :    0.143466
  18 H :    0.149025
  19 H :    0.145082
  20 H :    0.154250
  21 H :    0.156055
  22 H :    0.148170
Sum of atomic charges:   -0.0000000

LOEWDIN ATOMIC CHARGES
----------------------
   0 C :   -0.298116
   1 C :   -0.214584
   2 C :   -0.218132
   3 C :   -0.191013
   4 C :   -0.231646
   5 C :   -0.261526
   6 C :   -0.311179
   7 C :   -0.278126
   8 O :    0.148830
   9 H :    0.120547
  10 H :    0.126548
  11 H :    0.127843
  12 H :    0.160601
  13 H :    0.124804
  14 H :    0.133711
  15 H :    0.138497
  16 H :    0.126925
  17 H :    0.131247
  18 H :    0.130720
  19 H :    0.127875
  20 H :    0.139306
  21 H :    0.133681
  22 H :    0.133186

  Mayer bond orders larger than 0.1
B(  0-C ,  1-C ) :   0.9064 B(  0-C ,  9-H ) :   0.9336 B(  0-C , 10-H ) :   0.9383
B(  0-C , 11-H ) :   0.9422 B(  1-C ,  2-C ) :   0.9307 B(  1-C ,  4-C ) :   0.8803
B(  1-C , 12-H ) :   0.9223 B(  2-C ,  3-C ) :   0.9536 B(  2-C , 13-H ) :   0.9261
B(  2-C , 14-H ) :   0.9204 B(  3-C ,  4-C ) :   0.8876 B(  3-C , 15-H ) :   0.9096
B(  3-C , 16-H ) :   0.9213 B(  4-C ,  5-C ) :   0.8604 B(  4-C ,  6-C ) :   0.8342
B(  5-C , 17-H ) :   0.9343 B(  5-C , 18-H ) :   0.9394 B(  5-C , 19-H ) :   0.9338
B(  6-C ,  7-C ) :   0.9193 B(  6-C ,  8-O ) :   2.0047 B(  7-C , 20-H ) :   0.9128
B(  7-C , 21-H ) :   0.9353 B(  7-C , 22-H ) :   0.9245

MP2 TOTAL ENERGY:     -387.631171623 Eh
FINAL SINGLE POINT ENERGY      -387.631171622574

DIPOLE MOMENT
-------------
                                X             Y             Z
Electronic contribution:     -3.29778      -5.14595      -0.71156
Nuclear contribution   :      4.15721       5.53226       1.05223
                        -----------------------------------------
Total Dipole Moment    :      0.85943       0.38631       0.34067
                        -----------------------------------------
Magnitude (a.u.)       :      1.00195
Magnitude (Debye)      :      2.54675

                             ****ORCA TERMINATED NORMALLY****
TOTAL RUN TIME: 0 days 0 hours 22 minutes 53 seconds 394 msec
