                         Program Version 3.0.3 - RELEASE   -
|  1> ! RI-MP2 RIJK def2-TZVP def2-TZVP/C def2-TZVP/JK TIGHTSCF
|  2> % maxcore 2000
|  3> % mp2 density relaxed end
|  4> *xyz 0 1
|  5>  C       -0.0716755244     1.4853798144     0.0863592979
|  6>  C       -0.0095919675    -0.0139818439    -0.0013654974
|  7>  C        0.0291945175    -0.6889542911    -1.2193989647
|  8>  C        0.0859497120    -2.0828826265    -1.1904066786
|  9>  C        0.1311489380    -2.9070974849    -2.4469358311
| 10>  N        0.1029379456    -2.7572906750    -0.0351224086
| 11>  C        0.0624571284    -2.0145342643     1.0650137157
| 12>  O        0.0796842326    -2.6951987922     2.2218530835
| 13>  N        0.0072000400    -0.6844281964     1.1572101489
| 14>  H       -0.0819306978     1.9486646384    -0.9024496560
| 15>  H       -0.9691523014     1.7938953014     0.6318753514
| 16>  H        0.7879425315     1.8657409961     0.6472783389
| 17>  H        0.0157162689    -0.1489061131    -2.1579073445
| 18>  H        1.0356248717    -3.5233341913    -2.4577852856
| 19>  H       -0.7203646350    -3.5942106272    -2.4744368189
| 20>  H        0.1144770913    -2.2839005063    -3.3436104406
| 21>  H        0.0459948886    -2.0285113181     2.9212924895
| 22> *
| 23>
| 24>                          ****END OF INPUT****

CARTESIAN COORDINATES (ANGSTROEM)
---------------------------------
  C     -0.071676    1.485380    0.086359
  C     -0.009592   -0.013982   -0.001365
  C      0.029195   -0.688954   -1.219399
  C      0.085950   -2.082883   -1.190407
  C      0.131149   -2.907097   -2.446936
  N      0.102938   -2.757291   -0.035122
  C      0.062457   -2.014534    1.065014
  O      0.079684   -2.695199    2.221853
  N      0.007200   -0.684428    1.157210
  H     -0.081931    1.948665   -0.902450
  H     -0.969152    1.793895    0.631875
  H      0.787943    1.865741    0.647278
  H      0.015716   -0.148906   -2.157907
  H      1.035625   -3.523334   -2.457785
  H     -0.720365   -3.594211   -2.474437
  H      0.114477   -2.283901   -3.343610
  H      0.045995   -2.028511    2.921292

 Total Charge           Charge          ....    0
 Multiplicity           Mult            ....    1
 Number of Electrons    NEL             ....   66
 Basis Dimension        Dim             ....  327

ORBITAL ENERGIES
----------------

  NO   OCC          E(Eh)            E(eV)
   0   2.0000     -20.594109      -560.3942
   1   2.0000     -15.558427      -423.3663
   2   2.0000     -15.552811      -423.2135
   3   2.0000     -11.369773      -309.3873
   4   2.0000     -11.306069      -307.6538
   5   2.0000     -11.304149      -307.6015
   6   2.0000     -11.237011      -305.7746
   7   2.0000     -11.232956      -305.6643
   8   2.0000     -11.227119      -305.5054
   9   2.0000      -1.436089       -39.0780
  10   2.0000      -1.291892       -35.1542
  11   2.0000      -1.203082       -32.7375
  12   2.0000      -1.078711       -29.3532
  13   2.0000      -1.012261       -27.5450
  14   2.0000      -0.963135       -26.2082
  15   2.0000      -0.869219       -23.6527
  16   2.0000      -0.832544       -22.6547
  17   2.0000      -0.742550       -20.2058
  18   2.0000      -0.710450       -19.3323
  19   2.0000      -0.659338       -17.9415
  20   2.0000      -0.635729       -17.2991
  21   2.0000      -0.613626       -16.6976
  22   2.0000      -0.585367       -15.9286
  23   2.0000      -0.582104       -15.8399
  24   2.0000      -0.580779       -15.8038
  25   2.0000      -0.558874       -15.2077
  26   2.0000      -0.553760       -15.0686
  27   2.0000      -0.539277       -14.6745
  28   2.0000      -0.499961       -13.6046
  29   2.0000      -0.482465       -13.1286
  30   2.0000      -0.410452       -11.1690
  31   2.0000      -0.409405       -11.1405
  32   2.0000      -0.349204        -9.5023
  33   0.0000       0.098032         2.6676
  34   0.0000       0.137075         3.7300
  35   0.0000       0.143464         3.9039
  36   0.0000       0.154224         4.1966
  37   0.0000       0.163175         4.4402

MULLIKEN ATOMIC CHARGES
-----------------------
   0 C :   -0.419871
   1 C :    0.191804
   2 C :   -0.276426
   3 C :    0.201586
   4 C :   -0.416214
   5 N :   -0.246658
   6 C :    0.328680
   7 O :   -0.388922
   8 N :   -0.312320
   9 H :    0.135228
  10 H :    0.149241
  11 H :    0.149235
  12 H :    0.131739
  13 H :    0.150945
  14 H :    0.150929
  15 H :    0.132749
  16 H :    0.338275
Sum of atomic charges:    0.0000000

LOEWDIN ATOMIC CHARGES
----------------------
   0 C :   -0.261564
   1 C :   -0.236460
   2 C :   -0.122504
   3 C :   -0.232463
   4 C :   -0.260533
   5 N :    0.171932
   6 C :   -0.452982
   7 O :    0.097900
   8 N :    0.138477
   9 H :    0.128032
  10 H :    0.137505
  11 H :    0.137508
  12 H :    0.152739
  13 H :    0.138649
  14 H :    0.138652
  15 H :    0.126775
  16 H :    0.198339

  Mayer bond orders larger than 0.1
B(  0-C ,  1-C ) :   0.8843 B(  0-C ,  9-H ) :   0.9545 B(  0-C , 10-H ) :   0.9269
B(  0-C , 11-H ) :   0.9269 B(  1-C ,  2-C ) :   1.3553 B(  1-C ,  8-N ) :   1.3819
B(  2-C ,  3-C ) :   1.3305 B(  2-C , 12-H ) :   0.9044 B(  3-C ,  4-C ) :   0.8905
B(  3-C ,  5-N ) :   1.3489 B(  4-C , 13-H ) :   0.9254 B(  4-C , 14-H ) :   0.9254
B(  4-C , 15-H ) :   0.9557 B(  5-N ,  6-C ) :   1.4310 B(  6-C ,  7-O ) :   1.1598
B(  6-C ,  8-N ) :   1.3558 B(  7-O , 16-H ) :   0.8136

MP2 TOTAL ENERGY:     -417.379842988 Eh
FINAL SINGLE POINT ENERGY      -417.379842988302

DIPOLE MOMENT
-------------
                                X             Y             Z
Electronic contribution:      0.09950      -3.78088       6.01024
Nuclear contribution   :     -0.13467       4.77911      -6.62825
                        -----------------------------------------
Total Dipole Moment    :     -0.03517       0.99823      -0.61802
                        -----------------------------------------
Magnitude (a.u.)       :      1.17458
Magnitude (Debye)      :      2.98554

                             ****ORCA TERMINATED NORMALLY****
TOTAL RUN TIME: 0 days 0 hours 15 minutes 57 seconds 446 msec
