                         Program Version 3.0.3 - RELEASE   -
|  1> ! RI-MP2 RIJK def2-TZVP def2-TZVP/C def2-TZVP/JK TIGHTSCF
|  2> % maxcore 2000
|  3> % mp2 density relaxed end
|  4> *xyz 0 1
|  5>  C       -0.1012481899     1.5205346728     0.0457365429
|  6>  N        0.1031339991     0.0869435697    -0.0888960230
|  7>  C        0.6545432777    -0.5487153663    -1.2597338327
|  8>  C        1.3683398125    -0.5728165299     0.0709407603
|  9>  C        2.5528868540     0.2557814685    -0.5083194698
| 10>  C        3.8094704410    -0.4603103505    -0.5412920353
| 11>  N        4.8012702273    -1.0538580020    -0.5975474440
| 12>  C        1.7937211638     0.2487466299    -1.9270572307
| 13>  N        2.3793762303    -0.4582723485    -3.0353844022
| 14>  H        0.6922178273     2.1535439346    -0.3766741353
| 15>  H       -1.0403712211     1.7844025820    -0.4486983889
| 16>  H       -0.1973303658     1.7605980763     1.1085451818
| 17>  H        0.0829487575    -1.3177483952    -1.7691682481
| 18>  H        1.4764795434    -1.3612493116     0.8074191230
| 19>  H        2.7052101193     1.2353929173    -0.0440168115
| 20>  H        1.5257835790     1.2555699208    -2.2616765346
| 21>  H        3.1956287062     0.0293756347    -3.3910860794
| 22>  H        2.6925485383    -1.3846884527    -2.7581964625
| 23> *
| 24>
| 25>                          ****END OF INPUT****

CARTESIAN COORDINATES (ANGSTROEM)
---------------------------------
  C     -0.101248    1.520535    0.045737
  N      0.103134    0.086944   -0.088896
  C      0.654543   -0.548715   -1.259734
  C      1.368340   -0.572817    0.070941
  C      2.552887    0.255781   -0.508319
  C      3.809470   -0.460310   -0.541292
  N      4.801270   -1.053858   -0.597547
  C      1.793721    0.248747   -1.927057
  N      2.379376   -0.458272   -3.035384
  H      0.692218    2.153544   -0.376674
  H     -1.040371    1.784403   -0.448698
  H     -0.197330    1.760598    1.108545
  H      0.082949   -1.317748   -1.769168
  H      1.476480   -1.361249    0.807419
  H      2.705210    1.235393   -0.044017
  H      1.525784    1.255570   -2.261677
  H      3.195629    0.029376   -3.391086
  H      2.692549   -1.384688   -2.758196

 Total Charge           Charge          ....    0
 Multiplicity           Mult            ....    1
 Number of Electrons    NEL             ....   66
 Basis Dimension        Dim             ....  333

ORBITAL ENERGIES
----------------

  NO   OCC          E(Eh)            E(eV)
   0   2.0000     -15.582666      -424.0259
   1   2.0000     -15.574122      -423.7934
   2   2.0000     -15.562253      -423.4704
   3   2.0000     -11.295505      -307.3663
   4   2.0000     -11.288584      -307.1780
   5   2.0000     -11.287006      -307.1351
   6   2.0000     -11.278083      -306.8922
   7   2.0000     -11.278047      -306.8913
   8   2.0000     -11.264071      -306.5110
   9   2.0000      -1.320725       -35.9388
  10   2.0000      -1.225975       -33.3605
  11   2.0000      -1.203668       -32.7535
  12   2.0000      -1.075799       -29.2740
  13   2.0000      -0.998118       -27.1602
  14   2.0000      -0.926183       -25.2027
  15   2.0000      -0.820610       -22.3299
  16   2.0000      -0.798490       -21.7280
  17   2.0000      -0.730697       -19.8833
  18   2.0000      -0.701700       -19.0942
  19   2.0000      -0.669688       -18.2231
  20   2.0000      -0.642551       -17.4847
  21   2.0000      -0.615381       -16.7454
  22   2.0000      -0.608146       -16.5485
  23   2.0000      -0.589870       -16.0512
  24   2.0000      -0.568660       -15.4740
  25   2.0000      -0.553750       -15.0683
  26   2.0000      -0.519012       -14.1230
  27   2.0000      -0.481311       -13.0971
  28   2.0000      -0.465802       -12.6751
  29   2.0000      -0.456667       -12.4265
  30   2.0000      -0.432202       -11.7608
  31   2.0000      -0.420944       -11.4545
  32   2.0000      -0.381823       -10.3899
  33   0.0000       0.120825         3.2878
  34   0.0000       0.142770         3.8850
  35   0.0000       0.149309         4.0629
  36   0.0000       0.165131         4.4934
  37   0.0000       0.179503         4.8845

MULLIKEN ATOMIC CHARGES
-----------------------
   0 C :   -0.297094
   1 N :   -0.170059
   2 C :   -0.117399
   3 C :   -0.099600
   4 C :    0.095100
   5 C :   -0.304020
   6 N :   -0.032832
   7 C :   -0.018329
   8 N :   -0.514818
   9 H :    0.110776
  10 H :    0.150143
  11 H :    0.149204
  12 H :    0.142553
  13 H :    0.152101
  14 H :    0.147936
  15 H :    0.126672
  16 H :    0.237673
  17 H :    0.241993
Sum of atomic charges:   -0.0000000

LOEWDIN ATOMIC CHARGES
----------------------
   0 C :   -0.316886
   1 N :    0.137122
   2 C :   -0.195054
   3 C :   -0.186734
   4 C :   -0.194988
   5 C :   -0.188607
   6 N :    0.059403
   7 C :   -0.261728
   8 N :   -0.116436
   9 H :    0.107010
  10 H :    0.124072
  11 H :    0.123181
  12 H :    0.139300
  13 H :    0.139694
  14 H :    0.163758
  15 H :    0.140316
  16 H :    0.162046
  17 H :    0.164531

  Mayer bond orders larger than 0.1
B(  0-C ,  1-N ) :   0.8671 B(  0-C ,  9-H ) :   0.9166 B(  0-C , 10-H ) :   0.9361
B(  0-C , 11-H ) :   0.9366 B(  1-N ,  2-C ) :   0.9297 B(  1-N ,  3-C ) :   0.9479
B(  2-C ,  3-C ) :   0.8511 B(  2-C ,  7-C ) :   0.8792 B(  2-C , 12-H ) :   0.9357
B(  3-C ,  4-C ) :   0.7780 B(  3-C , 13-H ) :   0.9206 B(  4-C ,  5-C ) :   0.9565
B(  4-C ,  7-C ) :   0.8076 B(  4-C , 14-H ) :   0.8950 B(  5-C ,  6-N ) :   2.8687
B(  7-C ,  8-N ) :   1.0248 B(  7-C , 15-H ) :   0.9379 B(  8-N , 16-H ) :   0.8879
B(  8-N , 17-H ) :   0.8801

MP2 TOTAL ENERGY:     -397.394388408 Eh
FINAL SINGLE POINT ENERGY      -397.394388407858

DIPOLE MOMENT
-------------
                                X             Y             Z
Electronic contribution:      4.82596      -3.68608       0.99155
Nuclear contribution   :     -5.60901       4.60834      -0.97685
                        -----------------------------------------
Total Dipole Moment    :     -0.78305       0.92226       0.01470
                        -----------------------------------------
Magnitude (a.u.)       :      1.20993
Magnitude (Debye)      :      3.07540

                             ****ORCA TERMINATED NORMALLY****
TOTAL RUN TIME: 0 days 0 hours 18 minutes 21 seconds 677 msec
