                         Program Version 3.0.3 - RELEASE   -
|  1> ! RI-MP2 RIJK def2-TZVP def2-TZVP/C def2-TZVP/JK TIGHTSCF
|  2> % maxcore 2000
|  3> % mp2 density relaxed end
|  4> *xyz 0 1
|  5>  C        0.0385504435     1.5287590011    -0.3018644389
|  6>  C       -0.0094210501     0.0311287321     0.0446620327
|  7>  C        0.7114901724    -0.2620001383     1.3579697884
|  8>  O        0.4119309718    -1.1341844579     2.1297646716
|  9>  C       -1.4039804647    -0.5693175245     0.0298389935
| 10>  C       -2.0205378020    -1.0140478652    -1.2965377190
| 11>  C       -1.5814943467    -2.0423093146    -0.3130967228
| 12>  C       -2.3706091845    -0.0443941540     1.0267641945
| 13>  O       -2.1425185574     0.8316133334     1.8249415354
| 14>  H        1.0714962825     1.8919038474    -0.2997596075
| 15>  H       -0.3741778452     1.7043457739    -1.2991923184
| 16>  H       -0.5354895542     2.1116276897     0.4199342379
| 17>  H        0.5923147766    -0.5009744534    -0.7106882246
| 18>  H        1.5969960218     0.3898455973     1.5416246246
| 19>  H       -3.0840130866    -0.8522050069    -1.4378956358
| 20>  H       -1.4219732596    -0.8442456137    -2.1846104588
| 21>  H       -0.6716137116    -2.5994660909    -0.5019323643
| 22>  H       -2.3373277148    -2.5972063366     0.2319133826
| 23>  H       -3.3716109211    -0.5348881489     0.9845674691
| 24> *
| 25>
| 26>                          ****END OF INPUT****

CARTESIAN COORDINATES (ANGSTROEM)
---------------------------------
  C      0.038550    1.528759   -0.301864
  C     -0.009421    0.031129    0.044662
  C      0.711490   -0.262000    1.357970
  O      0.411931   -1.134184    2.129765
  C     -1.403980   -0.569318    0.029839
  C     -2.020538   -1.014048   -1.296538
  C     -1.581494   -2.042309   -0.313097
  C     -2.370609   -0.044394    1.026764
  O     -2.142519    0.831613    1.824942
  H      1.071496    1.891904   -0.299760
  H     -0.374178    1.704346   -1.299192
  H     -0.535490    2.111628    0.419934
  H      0.592315   -0.500974   -0.710688
  H      1.596996    0.389846    1.541625
  H     -3.084013   -0.852205   -1.437896
  H     -1.421973   -0.844246   -2.184610
  H     -0.671614   -2.599466   -0.501932
  H     -2.337328   -2.597206    0.231913
  H     -3.371611   -0.534888    0.984567

 Total Charge           Charge          ....    0
 Multiplicity           Mult            ....    1
 Number of Electrons    NEL             ....   68
 Basis Dimension        Dim             ....  339

ORBITAL ENERGIES
----------------

  NO   OCC          E(Eh)            E(eV)
   0   2.0000     -20.553955      -559.3015
   1   2.0000     -20.552148      -559.2524
   2   2.0000     -11.333937      -308.4121
   3   2.0000     -11.330811      -308.3271
   4   2.0000     -11.262077      -306.4567
   5   2.0000     -11.259410      -306.3841
   6   2.0000     -11.256433      -306.3031
   7   2.0000     -11.252680      -306.2010
   8   2.0000     -11.229180      -305.5615
   9   2.0000      -1.397514       -38.0283
  10   2.0000      -1.391370       -37.8611
  11   2.0000      -1.184407       -32.2294
  12   2.0000      -1.066893       -29.0316
  13   2.0000      -0.922642       -25.1064
  14   2.0000      -0.897646       -24.4262
  15   2.0000      -0.848578       -23.0910
  16   2.0000      -0.820012       -22.3137
  17   2.0000      -0.742810       -20.2129
  18   2.0000      -0.695835       -18.9346
  19   2.0000      -0.675540       -18.3824
  20   2.0000      -0.659444       -17.9444
  21   2.0000      -0.635162       -17.2836
  22   2.0000      -0.623756       -16.9733
  23   2.0000      -0.598690       -16.2912
  24   2.0000      -0.559422       -15.2226
  25   2.0000      -0.559133       -15.2148
  26   2.0000      -0.543015       -14.7762
  27   2.0000      -0.536366       -14.5953
  28   2.0000      -0.525159       -14.2903
  29   2.0000      -0.498699       -13.5703
  30   2.0000      -0.464037       -12.6271
  31   2.0000      -0.429367       -11.6837
  32   2.0000      -0.416340       -11.3292
  33   2.0000      -0.406067       -11.0496
  34   0.0000       0.120115         3.2685
  35   0.0000       0.131140         3.5685
  36   0.0000       0.139174         3.7871
  37   0.0000       0.148342         4.0366
  38   0.0000       0.159283         4.3343

MULLIKEN ATOMIC CHARGES
-----------------------
   0 C :   -0.442900
   1 C :   -0.018422
   2 C :    0.080176
   3 O :   -0.261470
   4 C :    0.127331
   5 C :   -0.291534
   6 C :   -0.276467
   7 C :    0.070629
   8 O :   -0.287811
   9 H :    0.135717
  10 H :    0.136254
  11 H :    0.170660
  12 H :    0.110389
  13 H :    0.084320
  14 H :    0.146997
  15 H :    0.142189
  16 H :    0.144291
  17 H :    0.147251
  18 H :    0.082399
Sum of atomic charges:   -0.0000000

LOEWDIN ATOMIC CHARGES
----------------------
   0 C :   -0.279480
   1 C :   -0.241240
   2 C :   -0.264249
   3 O :    0.147487
   4 C :   -0.218772
   5 C :   -0.191645
   6 C :   -0.184113
   7 C :   -0.262739
   8 O :    0.135589
   9 H :    0.125155
  10 H :    0.126608
  11 H :    0.133612
  12 H :    0.175344
  13 H :    0.115226
  14 H :    0.138607
  15 H :    0.140038
  16 H :    0.142409
  17 H :    0.140433
  18 H :    0.121730

  Mayer bond orders larger than 0.1
B(  0-C ,  1-C ) :   0.8984 B(  0-C ,  9-H ) :   0.9309 B(  0-C , 10-H ) :   0.9354
B(  0-C , 11-H ) :   0.9295 B(  1-C ,  2-C ) :   0.8431 B(  1-C ,  4-C ) :   0.8821
B(  1-C , 12-H ) :   0.9068 B(  2-C ,  3-O ) :   2.0083 B(  2-C , 13-H ) :   0.9474
B(  4-C ,  5-C ) :   0.8239 B(  4-C ,  6-C ) :   0.8158 B(  4-C ,  7-C ) :   0.8849
B(  5-C ,  6-C ) :   0.9182 B(  5-C , 14-H ) :   0.9247 B(  5-C , 15-H ) :   0.9224
B(  6-C , 16-H ) :   0.9230 B(  6-C , 17-H ) :   0.9271 B(  7-C ,  8-O ) :   1.9606
B(  7-C , 18-H ) :   0.9501

MP2 TOTAL ENERGY:     -422.324811262 Eh
FINAL SINGLE POINT ENERGY      -422.324811261931

DIPOLE MOMENT
-------------
                                X             Y             Z
Electronic contribution:     -0.51709      -1.06180       6.42826
Nuclear contribution   :      0.62019       0.90188      -7.96233
                        -----------------------------------------
Total Dipole Moment    :      0.10310      -0.15991      -1.53406
                        -----------------------------------------
Magnitude (a.u.)       :      1.54582
Magnitude (Debye)      :      3.92916

                             ****ORCA TERMINATED NORMALLY****
TOTAL RUN TIME: 0 days 0 hours 21 minutes 7 seconds 560 msec
