                         Program Version 3.0.3 - RELEASE   -
|  1> ! RI-MP2 RIJK def2-TZVP def2-TZVP/C def2-TZVP/JK TIGHTSCF
|  2> % maxcore 2000
|  3> % mp2 density relaxed end
|  4> *xyz 0 1
|  5>  C        0.9471110280     0.9903526327     0.7586260612
|  6>  C       -0.1135227892     0.3466287855    -0.1273773886
|  7>  N        0.5249633714    -0.4171017305    -1.2106371266
|  8>  C        1.0802117784    -1.7522083726    -0.9846538565
|  9>  C        0.9781853757    -2.4752773068     0.3205361447
| 10>  O        1.8640565040    -3.1857908810     0.7244502355
| 11>  C       -0.1625699925    -1.5327962158    -1.8302784310
| 12>  C       -1.4507810210    -1.9807699726    -1.3486831443
| 13>  N       -2.4985136805    -2.3119636517    -0.9876441628
| 14>  H        1.5398049626     0.2361934764     1.2866660913
| 15>  H        1.6295049434     1.6018928586     0.1623598209
| 16>  H        0.4717890083     1.6282273047     1.5088039142
| 17>  H       -0.8109779495    -0.2519672323     0.4730348470
| 18>  H       -0.7115333895     1.1190884415    -0.6224242937
| 19>  H        2.0112977335    -1.9539277805    -1.5088287002
| 20>  H        0.0441916906    -2.3257559080     0.8978562822
| 21>  H       -0.0544232239    -1.6076814176    -2.9096636034
| 22> *
| 23>
| 24>                          ****END OF INPUT****

CARTESIAN COORDINATES (ANGSTROEM)
---------------------------------
  C      0.947111    0.990353    0.758626
  C     -0.113523    0.346629   -0.127377
  N      0.524963   -0.417102   -1.210637
  C      1.080212   -1.752208   -0.984654
  C      0.978185   -2.475277    0.320536
  O      1.864057   -3.185791    0.724450
  C     -0.162570   -1.532796   -1.830278
  C     -1.450781   -1.980770   -1.348683
  N     -2.498514   -2.311964   -0.987644
  H      1.539805    0.236193    1.286666
  H      1.629505    1.601893    0.162360
  H      0.471789    1.628227    1.508804
  H     -0.810978   -0.251967    0.473035
  H     -0.711533    1.119088   -0.622424
  H      2.011298   -1.953928   -1.508829
  H      0.044192   -2.325756    0.897856
  H     -0.054423   -1.607681   -2.909664

 Total Charge           Charge          ....    0
 Multiplicity           Mult            ....    1
 Number of Electrons    NEL             ....   66
 Basis Dimension        Dim             ....  327

ORBITAL ENERGIES
----------------

  NO   OCC          E(Eh)            E(eV)
   0   2.0000     -20.580281      -560.0179
   1   2.0000     -15.615963      -424.9320
   2   2.0000     -15.595680      -424.3800
   3   2.0000     -11.356430      -309.0242
   4   2.0000     -11.338295      -308.5307
   5   2.0000     -11.312142      -307.8190
   6   2.0000     -11.297318      -307.4157
   7   2.0000     -11.285600      -307.0968
   8   2.0000     -11.238217      -305.8074
   9   2.0000      -1.418671       -38.6040
  10   2.0000      -1.332536       -36.2602
  11   2.0000      -1.238125       -33.6911
  12   2.0000      -1.081011       -29.4158
  13   2.0000      -0.974717       -26.5234
  14   2.0000      -0.963350       -26.2141
  15   2.0000      -0.888403       -24.1747
  16   2.0000      -0.800449       -21.7813
  17   2.0000      -0.740286       -20.1442
  18   2.0000      -0.727142       -19.7865
  19   2.0000      -0.667892       -18.1743
  20   2.0000      -0.646902       -17.6031
  21   2.0000      -0.641087       -17.4449
  22   2.0000      -0.605558       -16.4781
  23   2.0000      -0.584272       -15.8988
  24   2.0000      -0.574258       -15.6263
  25   2.0000      -0.557995       -15.1838
  26   2.0000      -0.532744       -14.4967
  27   2.0000      -0.529926       -14.4200
  28   2.0000      -0.508195       -13.8287
  29   2.0000      -0.498469       -13.5640
  30   2.0000      -0.474877       -12.9221
  31   2.0000      -0.441061       -12.0019
  32   2.0000      -0.408305       -11.1105
  33   0.0000       0.096007         2.6125
  34   0.0000       0.130160         3.5418
  35   0.0000       0.135426         3.6851
  36   0.0000       0.141779         3.8580
  37   0.0000       0.154940         4.2161

MULLIKEN ATOMIC CHARGES
-----------------------
   0 C :   -0.389027
   1 C :   -0.153355
   2 N :   -0.174671
   3 C :   -0.035979
   4 C :    0.070104
   5 O :   -0.244967
   6 C :    0.040108
   7 C :   -0.196761
   8 N :   -0.039017
   9 H :    0.136349
  10 H :    0.141902
  11 H :    0.141587
  12 H :    0.129440
  13 H :    0.138545
  14 H :    0.152136
  15 H :    0.113426
  16 H :    0.170180
Sum of atomic charges:    0.0000000

LOEWDIN ATOMIC CHARGES
----------------------
   0 C :   -0.307850
   1 C :   -0.301761
   2 N :    0.164193
   3 C :   -0.204612
   4 C :   -0.282446
   5 O :    0.150921
   6 C :   -0.217216
   7 C :   -0.183813
   8 N :    0.079742
   9 H :    0.124865
  10 H :    0.128478
  11 H :    0.129224
  12 H :    0.128837
  13 H :    0.140573
  14 H :    0.156642
  15 H :    0.124728
  16 H :    0.169496

  Mayer bond orders larger than 0.1
B(  0-C ,  1-C ) :   0.9241 B(  0-C ,  9-H ) :   0.9342 B(  0-C , 10-H ) :   0.9320
B(  0-C , 11-H ) :   0.9338 B(  1-C ,  2-N ) :   0.8520 B(  1-C , 12-H ) :   0.9295
B(  1-C , 13-H ) :   0.9227 B(  2-N ,  3-C ) :   0.8719 B(  2-N ,  6-C ) :   0.9362
B(  3-C ,  4-C ) :   0.8755 B(  3-C ,  6-C ) :   0.8222 B(  3-C , 14-H ) :   0.9100
B(  4-C ,  5-O ) :   1.9775 B(  4-C , 15-H ) :   0.9487 B(  6-C ,  7-C ) :   0.9468
B(  6-C , 16-H ) :   0.8944 B(  7-C ,  8-N ) :   2.8147

MP2 TOTAL ENERGY:     -417.280734369 Eh
FINAL SINGLE POINT ENERGY      -417.280734368878

DIPOLE MOMENT
-------------
                                X             Y             Z
Electronic contribution:     -2.17699      -7.64215      -3.27243
Nuclear contribution   :      2.56584       8.65248       2.87914
                        -----------------------------------------
Total Dipole Moment    :      0.38885       1.01032      -0.39329
                        -----------------------------------------
Magnitude (a.u.)       :      1.15180
Magnitude (Debye)      :      2.92763

                             ****ORCA TERMINATED NORMALLY****
TOTAL RUN TIME: 0 days 0 hours 17 minutes 8 seconds 790 msec
