                         Program Version 3.0.3 - RELEASE   -
|  1> ! RI-MP2 RIJK def2-TZVP def2-TZVP/C def2-TZVP/JK TIGHTSCF
|  2> % maxcore 2000
|  3> % mp2 density relaxed end
|  4> *xyz 0 1
|  5>  C        0.0668222760     1.5542205431     0.0724175365
|  6>  C       -0.0368832709     0.0586089018    -0.0142740631
|  7>  C       -1.1887583264    -0.6048653707    -0.1314780894
|  8>  C       -1.2331540827    -2.0970131218    -0.1375758653
|  9>  C       -1.4281443193    -2.8972425351    -1.4710177157
| 10>  C       -0.2848228824    -3.8466530353    -1.0131154507
| 11>  C        0.1448950848    -2.7915154294     0.0281019728
| 12>  O        1.1889349704    -2.0063023018    -0.5170503926
| 13>  C        1.2674632936    -0.7082028775     0.0390238385
| 14>  H        0.6524235198     1.9636508961    -0.7611457704
| 15>  H       -0.9200375312     2.0246315102     0.0609345242
| 16>  H        0.5777361334     1.8660128085     0.9931147197
| 17>  H       -2.1286804750    -0.0603653292    -0.2055179675
| 18>  H       -1.9370163758    -2.4643893305     0.6185206689
| 19>  H       -2.4107252806    -3.3412671619    -1.6442270399
| 20>  H       -1.1472114329    -2.3019084268    -2.3420752108
| 21>  H       -0.6628615428    -4.7549672948    -0.5363851640
| 22>  H        0.4799158505    -4.1145538155    -1.7443989672
| 23>  H        0.4141576473    -3.1365862089     1.0374909392
| 24>  H        2.0336309099    -0.1821713740    -0.5432396304
| 25>  H        1.6372630443    -0.7490903467     1.0809644771
| 26> *
| 27>
| 28>                          ****END OF INPUT****

CARTESIAN COORDINATES (ANGSTROEM)
---------------------------------
  C      0.066822    1.554221    0.072418
  C     -0.036883    0.058609   -0.014274
  C     -1.188758   -0.604865   -0.131478
  C     -1.233154   -2.097013   -0.137576
  C     -1.428144   -2.897243   -1.471018
  C     -0.284823   -3.846653   -1.013115
  C      0.144895   -2.791515    0.028102
  O      1.188935   -2.006302   -0.517050
  C      1.267463   -0.708203    0.039024
  H      0.652424    1.963651   -0.761146
  H     -0.920038    2.024632    0.060935
  H      0.577736    1.866013    0.993115
  H     -2.128680   -0.060365   -0.205518
  H     -1.937016   -2.464389    0.618521
  H     -2.410725   -3.341267   -1.644227
  H     -1.147211   -2.301908   -2.342075
  H     -0.662862   -4.754967   -0.536385
  H      0.479916   -4.114554   -1.744399
  H      0.414158   -3.136586    1.037491
  H      2.033631   -0.182171   -0.543240
  H      1.637263   -0.749090    1.080964

 Total Charge           Charge          ....    0
 Multiplicity           Mult            ....    1
 Number of Electrons    NEL             ....   68
 Basis Dimension        Dim             ....  351

ORBITAL ENERGIES
----------------

  NO   OCC          E(Eh)            E(eV)
   0   2.0000     -20.550297      -559.2020
   1   2.0000     -11.275248      -306.8151
   2   2.0000     -11.271321      -306.7082
   3   2.0000     -11.231475      -305.6240
   4   2.0000     -11.226251      -305.4818
   5   2.0000     -11.224112      -305.4236
   6   2.0000     -11.217749      -305.2505
   7   2.0000     -11.217380      -305.2404
   8   2.0000     -11.215928      -305.2009
   9   2.0000      -1.375037       -37.4167
  10   2.0000      -1.122844       -30.5541
  11   2.0000      -1.088397       -29.6168
  12   2.0000      -0.963260       -26.2116
  13   2.0000      -0.933198       -25.3936
  14   2.0000      -0.875893       -23.8343
  15   2.0000      -0.856545       -23.3078
  16   2.0000      -0.769136       -20.9292
  17   2.0000      -0.705598       -19.2003
  18   2.0000      -0.664903       -18.0929
  19   2.0000      -0.650743       -17.7076
  20   2.0000      -0.646133       -17.5822
  21   2.0000      -0.610455       -16.6113
  22   2.0000      -0.575837       -15.6693
  23   2.0000      -0.563208       -15.3257
  24   2.0000      -0.557283       -15.1644
  25   2.0000      -0.550179       -14.9711
  26   2.0000      -0.523100       -14.2343
  27   2.0000      -0.502489       -13.6734
  28   2.0000      -0.482660       -13.1339
  29   2.0000      -0.469208       -12.7678
  30   2.0000      -0.464903       -12.6507
  31   2.0000      -0.426960       -11.6182
  32   2.0000      -0.393317       -10.7027
  33   2.0000      -0.335312        -9.1243
  34   0.0000       0.138109         3.7581
  35   0.0000       0.148518         4.0414
  36   0.0000       0.152328         4.1451
  37   0.0000       0.173583         4.7234
  38   0.0000       0.181837         4.9480

MULLIKEN ATOMIC CHARGES
-----------------------
   0 C :   -0.420948
   1 C :    0.039405
   2 C :   -0.301507
   3 C :    0.086173
   4 C :   -0.283074
   5 C :   -0.172178
   6 C :   -0.004779
   7 O :   -0.306583
   8 C :   -0.044074
   9 H :    0.139030
  10 H :    0.133822
  11 H :    0.136362
  12 H :    0.116819
  13 H :    0.104179
  14 H :    0.113686
  15 H :    0.119184
  16 H :    0.113910
  17 H :    0.116469
  18 H :    0.084609
  19 H :    0.127938
  20 H :    0.101558
Sum of atomic charges:    0.0000000

LOEWDIN ATOMIC CHARGES
----------------------
   0 C :   -0.273391
   1 C :   -0.199961
   2 C :   -0.137084
   3 C :   -0.203467
   4 C :   -0.211581
   5 C :   -0.219950
   6 C :   -0.269651
   7 O :    0.187510
   8 C :   -0.276236
   9 H :    0.129839
  10 H :    0.129896
  11 H :    0.130670
  12 H :    0.143790
  13 H :    0.156846
  14 H :    0.121763
  15 H :    0.136465
  16 H :    0.134960
  17 H :    0.130901
  18 H :    0.122532
  19 H :    0.138012
  20 H :    0.128139

  Mayer bond orders larger than 0.1
B(  0-C ,  1-C ) :   0.8938 B(  0-C ,  9-H ) :   0.9322 B(  0-C , 10-H ) :   0.9432
B(  0-C , 11-H ) :   0.9275 B(  1-C ,  2-C ) :   1.7722 B(  1-C ,  8-C ) :   0.9188
B(  2-C ,  3-C ) :   0.8902 B(  2-C , 12-H ) :   0.9268 B(  3-C ,  4-C ) :   0.9074
B(  3-C ,  6-C ) :   0.9286 B(  3-C , 13-H ) :   0.9081 B(  4-C ,  5-C ) :   0.9499
B(  4-C , 14-H ) :   0.9287 B(  4-C , 15-H ) :   0.9134 B(  5-C ,  6-C ) :   0.8977
B(  5-C , 16-H ) :   0.9181 B(  5-C , 17-H ) :   0.9152 B(  6-C ,  7-O ) :   1.0075
B(  6-C , 18-H ) :   0.9526 B(  7-O ,  8-C ) :   0.9495 B(  8-C , 19-H ) :   0.9207
B(  8-C , 20-H ) :   0.9353

MP2 TOTAL ENERGY:     -386.406011851 Eh
FINAL SINGLE POINT ENERGY      -386.406011850998

DIPOLE MOMENT
-------------
                                X             Y             Z
Electronic contribution:      1.36434      -2.09549       0.07450
Nuclear contribution   :     -1.66173       2.32773       0.23374
                        -----------------------------------------
Total Dipole Moment    :     -0.29738       0.23224       0.30824
                        -----------------------------------------
Magnitude (a.u.)       :      0.48722
Magnitude (Debye)      :      1.23841

                             ****ORCA TERMINATED NORMALLY****
TOTAL RUN TIME: 0 days 0 hours 20 minutes 19 seconds 680 msec
