                         Program Version 3.0.3 - RELEASE   -
|  1> ! RI-MP2 RIJK def2-TZVP def2-TZVP/C def2-TZVP/JK TIGHTSCF
|  2> % maxcore 2000
|  3> % mp2 density relaxed end
|  4> *xyz 0 1
|  5>  C       -0.5678936377     1.6423144153     0.1625475881
|  6>  C        0.0075019929     0.2237368029     0.0530367444
|  7>  C       -1.1342666232    -0.7953996186    -0.1609104797
|  8>  O       -1.8677320742    -0.5993443990    -1.3605875411
|  9>  C        1.0496883411     0.1002101832    -1.0932756302
| 10>  C        2.0394033922    -1.0057280118    -0.6584253976
| 11>  C        2.0189923717    -0.9709174036     0.8634048544
| 12>  C        2.1561730418     0.3778561673     1.5248747619
| 13>  C        0.7844735204    -0.2105199968     1.2975204125
| 14>  H        0.2202589936     2.3662968935     0.3893316305
| 15>  H       -1.0378003953     1.9587457866    -0.7761207386
| 16>  H       -1.3192128775     1.7097996162     0.9587338879
| 17>  H       -0.7188500961    -1.8058656730    -0.2332666722
| 18>  H       -1.8020367828    -0.7815847253     0.7159870932
| 19>  H       -2.3608966388     0.2220720846    -1.2759539703
| 20>  H        0.5561282999    -0.1202766988    -2.0427228230
| 21>  H        1.5748111172     1.0520970535    -1.2228323138
| 22>  H        1.6974837936    -1.9883134874    -1.0039296891
| 23>  H        3.0389730998    -0.8531383827    -1.0802807756
| 24>  H        2.3593129213    -1.8443812460     1.4090768262
| 25>  H        2.5187653627     0.3940300615     2.5470739937
| 26>  H        2.4792969977     1.2298811282     0.9345797425
| 27>  H        0.2133418396    -0.5165366598     2.1692424856
| 28> *
| 29>
| 30>                          ****END OF INPUT****

CARTESIAN COORDINATES (ANGSTROEM)
---------------------------------
  C     -0.567894    1.642314    0.162548
  C      0.007502    0.223737    0.053037
  C     -1.134267   -0.795400   -0.160910
  O     -1.867732   -0.599344   -1.360588
  C      1.049688    0.100210   -1.093276
  C      2.039403   -1.005728   -0.658425
  C      2.018992   -0.970917    0.863405
  C      2.156173    0.377856    1.524875
  C      0.784474   -0.210520    1.297520
  H      0.220259    2.366297    0.389332
  H     -1.037800    1.958746   -0.776121
  H     -1.319213    1.709800    0.958734
  H     -0.718850   -1.805866   -0.233267
  H     -1.802037   -0.781585    0.715987
  H     -2.360897    0.222072   -1.275954
  H      0.556128   -0.120277   -2.042723
  H      1.574811    1.052097   -1.222832
  H      1.697484   -1.988313   -1.003930
  H      3.038973   -0.853138   -1.080281
  H      2.359313   -1.844381    1.409077
  H      2.518765    0.394030    2.547074
  H      2.479297    1.229881    0.934580
  H      0.213342   -0.516537    2.169242

 Total Charge           Charge          ....    0
 Multiplicity           Mult            ....    1
 Number of Electrons    NEL             ....   70
 Basis Dimension        Dim             ....  363

ORBITAL ENERGIES
----------------

  NO   OCC          E(Eh)            E(eV)
   0   2.0000     -20.552221      -559.2544
   1   2.0000     -11.268905      -306.6425
   2   2.0000     -11.232891      -305.6625
   3   2.0000     -11.225290      -305.4557
   4   2.0000     -11.224394      -305.4313
   5   2.0000     -11.221490      -305.3523
   6   2.0000     -11.217840      -305.2529
   7   2.0000     -11.215921      -305.2007
   8   2.0000     -11.211961      -305.0930
   9   2.0000      -1.356903       -36.9232
  10   2.0000      -1.175358       -31.9831
  11   2.0000      -1.054770       -28.7017
  12   2.0000      -0.997658       -27.1477
  13   2.0000      -0.926236       -25.2042
  14   2.0000      -0.875601       -23.8263
  15   2.0000      -0.831658       -22.6306
  16   2.0000      -0.759088       -20.6558
  17   2.0000      -0.730941       -19.8899
  18   2.0000      -0.693801       -18.8793
  19   2.0000      -0.670644       -18.2492
  20   2.0000      -0.630986       -17.1700
  21   2.0000      -0.619887       -16.8680
  22   2.0000      -0.578889       -15.7524
  23   2.0000      -0.572216       -15.5708
  24   2.0000      -0.566330       -15.4106
  25   2.0000      -0.549397       -14.9498
  26   2.0000      -0.535767       -14.5790
  27   2.0000      -0.498838       -13.5741
  28   2.0000      -0.490539       -13.3483
  29   2.0000      -0.477003       -12.9799
  30   2.0000      -0.463121       -12.6022
  31   2.0000      -0.445878       -12.1330
  32   2.0000      -0.436998       -11.8913
  33   2.0000      -0.399589       -10.8734
  34   2.0000      -0.388519       -10.5721
  35   0.0000       0.130675         3.5558
  36   0.0000       0.148927         4.0525
  37   0.0000       0.162301         4.4164
  38   0.0000       0.171346         4.6626
  39   0.0000       0.182214         4.9583

MULLIKEN ATOMIC CHARGES
-----------------------
   0 C :   -0.450600
   1 C :    0.110888
   2 C :   -0.083027
   3 O :   -0.471727
   4 C :   -0.275241
   5 C :   -0.246222
   6 C :   -0.091726
   7 C :   -0.288292
   8 C :   -0.146657
   9 H :    0.134936
  10 H :    0.130075
  11 H :    0.133408
  12 H :    0.121511
  13 H :    0.109259
  14 H :    0.315918
  15 H :    0.140489
  16 H :    0.123029
  17 H :    0.119527
  18 H :    0.118206
  19 H :    0.120569
  20 H :    0.130541
  21 H :    0.129278
  22 H :    0.115861
Sum of atomic charges:   -0.0000000

LOEWDIN ATOMIC CHARGES
----------------------
   0 C :   -0.275862
   1 C :   -0.289716
   2 C :   -0.300153
   3 O :   -0.041121
   4 C :   -0.205710
   5 C :   -0.233524
   6 C :   -0.199090
   7 C :   -0.203427
   8 C :   -0.164746
   9 H :    0.128628
  10 H :    0.121540
  11 H :    0.125416
  12 H :    0.135869
  13 H :    0.120425
  14 H :    0.171102
  15 H :    0.143021
  16 H :    0.137445
  17 H :    0.139017
  18 H :    0.135458
  19 H :    0.141180
  20 H :    0.134398
  21 H :    0.134068
  22 H :    0.145784

  Mayer bond orders larger than 0.1
B(  0-C ,  1-C ) :   0.8898 B(  0-C ,  9-H ) :   0.9333 B(  0-C , 10-H ) :   0.9393
B(  0-C , 11-H ) :   0.9384 B(  1-C ,  2-C ) :   0.8945 B(  1-C ,  4-C ) :   0.8717
B(  1-C ,  8-C ) :   0.8965 B(  2-C ,  3-O ) :   0.9348 B(  2-C , 12-H ) :   0.9275
B(  2-C , 13-H ) :   0.9403 B(  3-O , 14-H ) :   0.8476 B(  4-C ,  5-C ) :   0.9361
B(  4-C , 15-H ) :   0.9180 B(  4-C , 16-H ) :   0.9351 B(  5-C ,  6-C ) :   0.9337
B(  5-C , 17-H ) :   0.9315 B(  5-C , 18-H ) :   0.9289 B(  6-C ,  7-C ) :   0.8873
B(  6-C ,  8-C ) :   0.8710 B(  6-C , 19-H ) :   0.9306 B(  7-C ,  8-C ) :   0.8769
B(  7-C , 20-H ) :   0.9330 B(  7-C , 21-H ) :   0.9238 B(  8-C , 22-H ) :   0.9229

MP2 TOTAL ENERGY:     -387.626589950 Eh
FINAL SINGLE POINT ENERGY      -387.626589949537

DIPOLE MOMENT
-------------
                                X             Y             Z
Electronic contribution:     -1.27418      -2.28207      -0.55326
Nuclear contribution   :      1.31551       2.64142       0.99957
                        -----------------------------------------
Total Dipole Moment    :      0.04133       0.35935       0.44631
                        -----------------------------------------
Magnitude (a.u.)       :      0.57448
Magnitude (Debye)      :      1.46022

                             ****ORCA TERMINATED NORMALLY****
TOTAL RUN TIME: 0 days 0 hours 22 minutes 23 seconds 172 msec
