                         Program Version 3.0.3 - RELEASE   -
|  1> ! RI-MP2 RIJK def2-TZVP def2-TZVP/C def2-TZVP/JK TIGHTSCF
|  2> % maxcore 2000
|  3> % mp2 density relaxed end
|  4> *xyz 0 1
|  5>  O       -0.0227630273    -0.0321220197     0.0041027441
|  6>  C       -0.0125471251     1.1730328519     0.0097479638
|  7>  N       -1.2206372995     1.9207631997     0.0292762191
|  8>  C       -1.1763515986     3.1873572898     0.0348700841
|  9>  O       -0.0666522349     3.9721985244     0.0241783150
| 10>  C        1.1265807575     3.3333356679     0.0054384477
| 11>  C        1.2343097968     1.9872691089    -0.0025509009
| 12>  C        2.5011121029     1.3531500862    -0.0221933379
| 13>  C        3.5738276535     0.8085997034    -0.0388947382
| 14>  H       -2.0697620515     3.8049629508     0.0496473431
| 15>  H        1.9595441956     4.0238767641    -0.0020727024
| 16>  H        4.5145777706     0.3156018427    -0.0536946174
| 17> *
| 18>
| 19>                          ****END OF INPUT****

CARTESIAN COORDINATES (ANGSTROEM)
---------------------------------
  O     -0.022763   -0.032122    0.004103
  C     -0.012547    1.173033    0.009748
  N     -1.220637    1.920763    0.029276
  C     -1.176352    3.187357    0.034870
  O     -0.066652    3.972199    0.024178
  C      1.126581    3.333336    0.005438
  C      1.234310    1.987269   -0.002551
  C      2.501112    1.353150   -0.022193
  C      3.573828    0.808600   -0.038895
  H     -2.069762    3.804963    0.049647
  H      1.959544    4.023877   -0.002073
  H      4.514578    0.315602   -0.053695

 Total Charge           Charge          ....    0
 Multiplicity           Mult            ....    1
 Number of Electrons    NEL             ....   62
 Basis Dimension        Dim             ....  297

ORBITAL ENERGIES
----------------

  NO   OCC          E(Eh)            E(eV)
   0   2.0000     -20.678075      -562.6790
   1   2.0000     -20.545086      -559.0602
   2   2.0000     -15.592543      -424.2947
   3   2.0000     -11.394337      -310.0557
   4   2.0000     -11.374003      -309.5024
   5   2.0000     -11.364096      -309.2328
   6   2.0000     -11.292467      -307.2836
   7   2.0000     -11.253095      -306.2123
   8   2.0000     -11.244806      -305.9867
   9   2.0000      -1.518577       -41.3226
  10   2.0000      -1.403596       -38.1938
  11   2.0000      -1.261156       -34.3178
  12   2.0000      -1.140354       -31.0306
  13   2.0000      -1.036334       -28.2001
  14   2.0000      -0.958087       -26.0709
  15   2.0000      -0.907116       -24.6839
  16   2.0000      -0.799035       -21.7429
  17   2.0000      -0.778128       -21.1739
  18   2.0000      -0.748957       -20.3802
  19   2.0000      -0.703031       -19.1305
  20   2.0000      -0.697753       -18.9868
  21   2.0000      -0.660288       -17.9674
  22   2.0000      -0.648152       -17.6371
  23   2.0000      -0.607244       -16.5239
  24   2.0000      -0.576206       -15.6794
  25   2.0000      -0.494393       -13.4531
  26   2.0000      -0.493112       -13.4183
  27   2.0000      -0.443115       -12.0578
  28   2.0000      -0.442398       -12.0383
  29   2.0000      -0.408120       -11.1055
  30   2.0000      -0.359093        -9.7714
  31   0.0000       0.072834         1.9819
  32   0.0000       0.089195         2.4271
  33   0.0000       0.147452         4.0124
  34   0.0000       0.155827         4.2403
  35   0.0000       0.162680         4.4268

MULLIKEN ATOMIC CHARGES
-----------------------
   0 O :   -0.258903
   1 C :    0.218802
   2 N :   -0.208369
   3 C :    0.133445
   4 O :   -0.196007
   5 C :    0.035579
   6 C :   -0.212517
   7 C :    0.058453
   8 C :   -0.108502
   9 H :    0.162543
  10 H :    0.173963
  11 H :    0.201514
Sum of atomic charges:   -0.0000000

LOEWDIN ATOMIC CHARGES
----------------------
   0 O :    0.164796
   1 C :   -0.376230
   2 N :    0.147450
   3 C :   -0.283111
   4 O :    0.322474
   5 C :   -0.148789
   6 C :   -0.144910
   7 C :   -0.062868
   8 C :   -0.046406
   9 H :    0.143010
  10 H :    0.152908
  11 H :    0.131676

  Mayer bond orders larger than 0.1
B(  0-O ,  1-C ) :   2.0461 B(  1-C ,  2-N ) :   1.0589 B(  1-C ,  6-C ) :   0.9623
B(  2-N ,  3-C ) :   1.7483 B(  3-C ,  4-O ) :   1.0228 B(  3-C ,  9-H ) :   0.9247
B(  4-O ,  5-C ) :   1.0235 B(  5-C ,  6-C ) :   1.5775 B(  5-C , 10-H ) :   0.9274
B(  6-C ,  7-C ) :   1.1472 B(  6-C ,  8-C ) :  -0.1623 B(  7-C ,  8-C ) :   2.5898
B(  8-C , 11-H ) :   0.8743

MP2 TOTAL ENERGY:     -434.748666406 Eh
FINAL SINGLE POINT ENERGY      -434.748666405702

DIPOLE MOMENT
-------------
                                X             Y             Z
Electronic contribution:     -1.76010      -0.36402       0.02117
Nuclear contribution   :      2.40725       2.05280      -0.02148
                        -----------------------------------------
Total Dipole Moment    :      0.64715       1.68878      -0.00031
                        -----------------------------------------
Magnitude (a.u.)       :      1.80853
Magnitude (Debye)      :      4.59692

                             ****ORCA TERMINATED NORMALLY****
TOTAL RUN TIME: 0 days 0 hours 12 minutes 47 seconds 134 msec
