                         Program Version 3.0.3 - RELEASE   -
|  1> ! RI-MP2 RIJK def2-TZVP def2-TZVP/C def2-TZVP/JK TIGHTSCF
|  2> % maxcore 2000
|  3> % mp2 density relaxed end
|  4> *xyz 0 1
|  5>  N       -2.4436837744     1.1805904135    -0.1621542959
|  6>  C       -2.2608255278     0.0041855479     0.2444123020
|  7>  O       -1.2242648775    -0.7195252685    -0.2586675467
|  8>  C       -1.1879292200    -2.0729720232    -0.0228559265
|  9>  C        0.0545874682    -2.6394525759     0.2675040964
| 10>  N        0.2283209264    -3.9422706293     0.4725299142
| 11>  C       -0.8478434522    -4.7326928539     0.4004477302
| 12>  C       -2.1238010501    -4.2607477995     0.1110301641
| 13>  C       -2.3033317789    -2.8991095196    -0.1156511957
| 14>  H       -3.2216273532     1.6062611910     0.3378901718
| 15>  H       -2.8330680537    -0.5385328770     1.0057647044
| 16>  H        0.9279922769    -1.9952211382     0.3260130610
| 17>  H       -0.6789325980    -5.7913658423     0.5777724335
| 18>  H       -2.9621529435    -4.9456302800     0.0497417071
| 19>  H       -3.2749471420    -2.4956870151    -0.3779871700
| 20> *
| 21>
| 22>                          ****END OF INPUT****

CARTESIAN COORDINATES (ANGSTROEM)
---------------------------------
  N     -2.443684    1.180590   -0.162154
  C     -2.260826    0.004186    0.244412
  O     -1.224265   -0.719525   -0.258668
  C     -1.187929   -2.072972   -0.022856
  C      0.054587   -2.639453    0.267504
  N      0.228321   -3.942271    0.472530
  C     -0.847843   -4.732693    0.400448
  C     -2.123801   -4.260748    0.111030
  C     -2.303332   -2.899110   -0.115651
  H     -3.221627    1.606261    0.337890
  H     -2.833068   -0.538533    1.005765
  H      0.927992   -1.995221    0.326013
  H     -0.678933   -5.791366    0.577772
  H     -2.962153   -4.945630    0.049742
  H     -3.274947   -2.495687   -0.377987

 Total Charge           Charge          ....    0
 Multiplicity           Mult            ....    1
 Number of Electrons    NEL             ....   64
 Basis Dimension        Dim             ....  315

ORBITAL ENERGIES
----------------

  NO   OCC          E(Eh)            E(eV)
   0   2.0000     -20.619955      -561.0975
   1   2.0000     -15.579876      -423.9500
   2   2.0000     -15.558065      -423.3565
   3   2.0000     -11.355534      -308.9998
   4   2.0000     -11.320166      -308.0374
   5   2.0000     -11.282896      -307.0232
   6   2.0000     -11.280417      -306.9558
   7   2.0000     -11.272118      -306.7299
   8   2.0000     -11.257885      -306.3426
   9   2.0000      -1.460640       -39.7460
  10   2.0000      -1.271866       -34.6092
  11   2.0000      -1.219027       -33.1714
  12   2.0000      -1.101304       -29.9680
  13   2.0000      -1.043861       -28.4049
  14   2.0000      -0.907874       -24.7045
  15   2.0000      -0.878385       -23.9021
  16   2.0000      -0.824475       -22.4351
  17   2.0000      -0.767410       -20.8823
  18   2.0000      -0.718774       -19.5588
  19   2.0000      -0.701771       -19.0962
  20   2.0000      -0.678569       -18.4648
  21   2.0000      -0.633448       -17.2370
  22   2.0000      -0.614552       -16.7228
  23   2.0000      -0.602894       -16.4056
  24   2.0000      -0.588548       -16.0152
  25   2.0000      -0.548716       -14.9313
  26   2.0000      -0.541309       -14.7298
  27   2.0000      -0.456248       -12.4151
  28   2.0000      -0.442460       -12.0400
  29   2.0000      -0.428332       -11.6555
  30   2.0000      -0.394972       -10.7477
  31   2.0000      -0.345624        -9.4049
  32   0.0000       0.088719         2.4142
  33   0.0000       0.112348         3.0571
  34   0.0000       0.134446         3.6585
  35   0.0000       0.143531         3.9057
  36   0.0000       0.159093         4.3292

MULLIKEN ATOMIC CHARGES
-----------------------
   0 N :   -0.327401
   1 C :    0.047493
   2 O :   -0.206122
   3 C :    0.254760
   4 C :   -0.085170
   5 N :   -0.236196
   6 C :   -0.038775
   7 C :   -0.099023
   8 C :   -0.231013
   9 H :    0.231778
  10 H :    0.109253
  11 H :    0.147474
  12 H :    0.135440
  13 H :    0.139300
  14 H :    0.158203
Sum of atomic charges:   -0.0000000

LOEWDIN ATOMIC CHARGES
----------------------
   0 N :   -0.061778
   1 C :   -0.376129
   2 O :    0.315939
   3 C :   -0.243339
   4 C :   -0.180090
   5 N :    0.138735
   6 C :   -0.214709
   7 C :   -0.141882
   8 C :   -0.119578
   9 H :    0.172578
  10 H :    0.115546
  11 H :    0.147835
  12 H :    0.140464
  13 H :    0.151630
  14 H :    0.154777

  Mayer bond orders larger than 0.1
B(  0-N ,  1-C ) :   1.9704 B(  0-N ,  9-H ) :   0.8475 B(  1-C ,  2-O ) :   0.9929
B(  1-C , 10-H ) :   0.9247 B(  2-O ,  3-C ) :   0.9743 B(  3-C ,  4-C ) :   1.2905
B(  3-C ,  8-C ) :   1.3271 B(  4-C ,  5-N ) :   1.4158 B(  4-C , 11-H ) :   0.9379
B(  5-N ,  6-C ) :   1.3720 B(  6-C ,  7-C ) :   1.3346 B(  6-C , 12-H ) :   0.9406
B(  7-C ,  8-C ) :   1.3323 B(  7-C , 13-H ) :   0.9165 B(  8-C , 14-H ) :   0.9235

MP2 TOTAL ENERGY:     -416.132349635 Eh
FINAL SINGLE POINT ENERGY      -416.132349635119

DIPOLE MOMENT
-------------
                                X             Y             Z
Electronic contribution:      2.23240       0.60687      -0.63283
Nuclear contribution   :     -3.60137      -1.09305       1.20705
                        -----------------------------------------
Total Dipole Moment    :     -1.36897      -0.48618       0.57422
                        -----------------------------------------
Magnitude (a.u.)       :      1.56210
Magnitude (Debye)      :      3.97055

                             ****ORCA TERMINATED NORMALLY****
TOTAL RUN TIME: 0 days 0 hours 14 minutes 22 seconds 650 msec
