                         Program Version 3.0.3 - RELEASE   -
|  1> ! RI-MP2 RIJK def2-TZVP def2-TZVP/C def2-TZVP/JK TIGHTSCF
|  2> % maxcore 2000
|  3> % mp2 density relaxed end
|  4> *xyz 0 1
|  5>  N       -0.1997365933     1.4997553264    -0.0711978311
|  6>  C       -0.1113754725     0.0783828903    -0.0826036902
|  7>  C       -1.2591619427    -0.8665067649     0.3095689621
|  8>  C       -0.6219430044    -1.9000047238    -0.7185463530
|  9>  C        0.5521735690    -0.9140261881    -1.0797233856
| 10>  O        1.7577190891    -1.0438916574    -0.2007909046
| 11>  C        0.9022798440    -0.6364668495     0.8095714077
| 12>  N        0.5468299153    -1.2485198442     1.8568782505
| 13>  C       -0.9513700185    -1.1132367537     1.8184477579
| 14>  H        0.7146906484     1.9327441764    -0.1584527733
| 15>  H       -0.7761988492     1.8394741739    -0.8341553572
| 16>  H       -2.2886842426    -0.5784311136     0.0874971175
| 17>  H       -0.3227087771    -2.8735829382    -0.3279254283
| 18>  H       -1.2701684800    -2.0431466128    -1.5862779819
| 19>  H        0.8549482735    -0.7549043941    -2.1135245014
| 20>  H       -1.3350642448    -0.3057157606     2.4544985318
| 21>  H       -1.3631929241    -2.0580563160     2.1857450891
| 22> *
| 23>
| 24>                          ****END OF INPUT****

CARTESIAN COORDINATES (ANGSTROEM)
---------------------------------
  N     -0.199737    1.499755   -0.071198
  C     -0.111375    0.078383   -0.082604
  C     -1.259162   -0.866507    0.309569
  C     -0.621943   -1.900005   -0.718546
  C      0.552174   -0.914026   -1.079723
  O      1.757719   -1.043892   -0.200791
  C      0.902280   -0.636467    0.809571
  N      0.546830   -1.248520    1.856878
  C     -0.951370   -1.113237    1.818448
  H      0.714691    1.932744   -0.158453
  H     -0.776199    1.839474   -0.834155
  H     -2.288684   -0.578431    0.087497
  H     -0.322709   -2.873583   -0.327925
  H     -1.270168   -2.043147   -1.586278
  H      0.854948   -0.754904   -2.113525
  H     -1.335064   -0.305716    2.454499
  H     -1.363193   -2.058056    2.185745

 Total Charge           Charge          ....    0
 Multiplicity           Mult            ....    1
 Number of Electrons    NEL             ....   66
 Basis Dimension        Dim             ....  327

ORBITAL ENERGIES
----------------

  NO   OCC          E(Eh)            E(eV)
   0   2.0000     -20.587476      -560.2137
   1   2.0000     -15.569221      -423.6600
   2   2.0000     -15.542373      -422.9295
   3   2.0000     -11.333400      -308.3975
   4   2.0000     -11.307837      -307.7019
   5   2.0000     -11.282556      -307.0140
   6   2.0000     -11.261557      -306.4425
   7   2.0000     -11.249015      -306.1013
   8   2.0000     -11.248493      -306.0871
   9   2.0000      -1.428257       -38.8649
  10   2.0000      -1.244924       -33.8761
  11   2.0000      -1.202981       -32.7348
  12   2.0000      -1.110322       -30.2134
  13   2.0000      -0.958904       -26.0931
  14   2.0000      -0.925924       -25.1957
  15   2.0000      -0.876779       -23.8584
  16   2.0000      -0.781720       -21.2717
  17   2.0000      -0.721324       -19.6282
  18   2.0000      -0.692238       -18.8368
  19   2.0000      -0.684286       -18.6204
  20   2.0000      -0.654167       -17.8008
  21   2.0000      -0.626446       -17.0465
  22   2.0000      -0.623857       -16.9760
  23   2.0000      -0.596124       -16.2213
  24   2.0000      -0.556654       -15.1473
  25   2.0000      -0.544090       -14.8054
  26   2.0000      -0.512321       -13.9410
  27   2.0000      -0.486582       -13.2406
  28   2.0000      -0.471096       -12.8192
  29   2.0000      -0.460906       -12.5419
  30   2.0000      -0.416651       -11.3376
  31   2.0000      -0.404755       -11.0139
  32   2.0000      -0.358846        -9.7647
  33   0.0000       0.110804         3.0151
  34   0.0000       0.131544         3.5795
  35   0.0000       0.155803         4.2396
  36   0.0000       0.162841         4.4311
  37   0.0000       0.179526         4.8851

MULLIKEN ATOMIC CHARGES
-----------------------
   0 N :   -0.541396
   1 C :    0.145255
   2 C :   -0.128325
   3 C :   -0.225048
   4 C :   -0.031165
   5 O :   -0.259343
   6 C :    0.094934
   7 N :   -0.204765
   8 C :   -0.117545
   9 H :    0.249179
  10 H :    0.241604
  11 H :    0.120838
  12 H :    0.137777
  13 H :    0.132844
  14 H :    0.130930
  15 H :    0.123647
  16 H :    0.130578
Sum of atomic charges:    0.0000000

LOEWDIN ATOMIC CHARGES
----------------------
   0 N :   -0.102394
   1 C :   -0.283657
   2 C :   -0.174657
   3 C :   -0.178552
   4 C :   -0.171194
   5 O :    0.208663
   6 C :   -0.331545
   7 N :    0.112886
   8 C :   -0.226761
   9 H :    0.168131
  10 H :    0.162871
  11 H :    0.139981
  12 H :    0.139803
  13 H :    0.139869
  14 H :    0.129481
  15 H :    0.132899
  16 H :    0.134176

  Mayer bond orders larger than 0.1
B(  0-N ,  1-C ) :   0.9327 B(  0-N ,  9-H ) :   0.8778 B(  0-N , 10-H ) :   0.8756
B(  1-C ,  2-C ) :   0.9278 B(  1-C ,  4-C ) :   0.9103 B(  1-C ,  6-C ) :   0.9099
B(  2-C ,  3-C ) :   0.9465 B(  2-C ,  8-C ) :   0.9413 B(  2-C , 11-H ) :   0.8995
B(  3-C ,  4-C ) :   0.9052 B(  3-C , 12-H ) :   0.8966 B(  3-C , 13-H ) :   0.9155
B(  4-C ,  5-O ) :   0.8790 B(  4-C , 14-H ) :   0.9195 B(  5-O ,  6-C ) :   1.0644
B(  6-C ,  7-N ) :   1.8979 B(  7-N ,  8-C ) :   0.8909 B(  8-C , 15-H ) :   0.9139
B(  8-C , 16-H ) :   0.9219

MP2 TOTAL ENERGY:     -417.228689599 Eh
FINAL SINGLE POINT ENERGY      -417.228689599274

DIPOLE MOMENT
-------------
                                X             Y             Z
Electronic contribution:      4.91831       0.10928       1.10006
Nuclear contribution   :     -5.96260       0.43908      -2.34222
                        -----------------------------------------
Total Dipole Moment    :     -1.04429       0.54837      -1.24215
                        -----------------------------------------
Magnitude (a.u.)       :      1.71295
Magnitude (Debye)      :      4.35398

                             ****ORCA TERMINATED NORMALLY****
TOTAL RUN TIME: 0 days 0 hours 20 minutes 45 seconds 575 msec
