                         Program Version 3.0.3 - RELEASE   -
|  1> ! RI-MP2 RIJK def2-TZVP def2-TZVP/C def2-TZVP/JK TIGHTSCF
|  2> % maxcore 2000
|  3> % mp2 density relaxed end
|  4> *xyz 0 1
|  5>  O       -0.0812970552     1.4371878990    -0.0109156273
|  6>  C       -0.0346649761     0.0258271465    -0.0035982077
|  7>  C       -1.4196149574    -0.5924827820     0.0463000885
|  8>  O       -2.0815418424    -0.1741231089    -1.1660902747
|  9>  C       -3.3479449958    -0.5426899403    -1.3069609375
| 10>  N       -4.0681797051    -0.1654131514    -2.3589440404
| 11>  N       -5.2222764229    -0.7637549101    -2.0710728558
| 12>  N       -5.2383416255    -1.4523275443    -0.9484228899
| 13>  N       -4.0353692505    -1.3239285264    -0.4369207417
| 14>  H       -0.6176775672     1.6934940268    -0.7694137783
| 15>  H        0.5067774998    -0.3693554726    -0.8772749793
| 16>  H        0.5161893449    -0.2722488936     0.8942643993
| 17>  H       -1.3773152899    -1.6862901510     0.0861062869
| 18>  H       -1.9849299980    -0.2274007511     0.9093764414
| 19>  H       -6.0308724188    -0.6949281206    -2.6706496737
| 20> *
| 21>
| 22>                          ****END OF INPUT****

CARTESIAN COORDINATES (ANGSTROEM)
---------------------------------
  O     -0.081297    1.437188   -0.010916
  C     -0.034665    0.025827   -0.003598
  C     -1.419615   -0.592483    0.046300
  O     -2.081542   -0.174123   -1.166090
  C     -3.347945   -0.542690   -1.306961
  N     -4.068180   -0.165413   -2.358944
  N     -5.222276   -0.763755   -2.071073
  N     -5.238342   -1.452328   -0.948423
  N     -4.035369   -1.323929   -0.436921
  H     -0.617678    1.693494   -0.769414
  H      0.506777   -0.369355   -0.877275
  H      0.516189   -0.272249    0.894264
  H     -1.377315   -1.686290    0.086106
  H     -1.984930   -0.227401    0.909376
  H     -6.030872   -0.694928   -2.670650

 Total Charge           Charge          ....    0
 Multiplicity           Mult            ....    1
 Number of Electrons    NEL             ....   68
 Basis Dimension        Dim             ....  315

ORBITAL ENERGIES
----------------

  NO   OCC          E(Eh)            E(eV)
   0   2.0000     -20.615487      -560.9759
   1   2.0000     -20.560712      -559.4854
   2   2.0000     -15.711151      -427.5222
   3   2.0000     -15.685043      -426.8117
   4   2.0000     -15.622640      -425.1136
   5   2.0000     -15.614058      -424.8801
   6   2.0000     -11.369312      -309.3747
   7   2.0000     -11.300876      -307.5125
   8   2.0000     -11.287508      -307.1487
   9   2.0000      -1.516893       -41.2767
  10   2.0000      -1.446022       -39.3483
  11   2.0000      -1.367004       -37.1981
  12   2.0000      -1.269826       -34.5537
  13   2.0000      -1.180272       -32.1168
  14   2.0000      -1.030743       -28.0480
  15   2.0000      -0.939175       -25.5563
  16   2.0000      -0.884649       -24.0725
  17   2.0000      -0.843506       -22.9530
  18   2.0000      -0.783378       -21.3168
  19   2.0000      -0.725872       -19.7520
  20   2.0000      -0.715902       -19.4807
  21   2.0000      -0.686535       -18.6816
  22   2.0000      -0.663673       -18.0595
  23   2.0000      -0.635821       -17.3016
  24   2.0000      -0.599445       -16.3117
  25   2.0000      -0.588215       -16.0061
  26   2.0000      -0.560993       -15.2654
  27   2.0000      -0.529498       -14.4084
  28   2.0000      -0.507025       -13.7969
  29   2.0000      -0.503536       -13.7019
  30   2.0000      -0.480761       -13.0822
  31   2.0000      -0.455649       -12.3988
  32   2.0000      -0.454047       -12.3552
  33   2.0000      -0.384903       -10.4737
  34   0.0000       0.109578         2.9818
  35   0.0000       0.123989         3.3739
  36   0.0000       0.142639         3.8814
  37   0.0000       0.164648         4.4803
  38   0.0000       0.187061         5.0902

MULLIKEN ATOMIC CHARGES
-----------------------
   0 O :   -0.480852
   1 C :    0.005892
   2 C :   -0.102796
   3 O :   -0.278650
   4 C :    0.253285
   5 N :   -0.209684
   6 N :    0.030789
   7 N :   -0.127366
   8 N :   -0.194050
   9 H :    0.329377
  10 H :    0.108624
  11 H :    0.119201
  12 H :    0.127844
  13 H :    0.137500
  14 H :    0.280887
Sum of atomic charges:   -0.0000000

LOEWDIN ATOMIC CHARGES
----------------------
   0 O :   -0.042434
   1 C :   -0.353681
   2 C :   -0.285799
   3 O :    0.253620
   4 C :   -0.511135
   5 N :    0.036591
   6 N :    0.061724
   7 N :   -0.057046
   8 N :    0.000647
   9 H :    0.178388
  10 H :    0.122303
  11 H :    0.135415
  12 H :    0.133499
  13 H :    0.134125
  14 H :    0.193784

  Mayer bond orders larger than 0.1
B(  0-O ,  1-C ) :   0.9287 B(  0-O ,  9-H ) :   0.8359 B(  1-C ,  2-C ) :   0.9446
B(  1-C , 10-H ) :   0.9317 B(  1-C , 11-H ) :   0.9237 B(  2-C ,  3-O ) :   0.8133
B(  2-C , 12-H ) :   0.9221 B(  2-C , 13-H ) :   0.9241 B(  3-O ,  4-C ) :   1.1395
B(  4-C ,  5-N ) :   1.4784 B(  4-C ,  8-N ) :   1.3453 B(  5-N ,  6-N ) :   1.1058
B(  5-N ,  7-N ) :   0.1320 B(  6-N ,  7-N ) :   1.1491 B(  6-N , 14-H ) :   0.8615
B(  7-N ,  8-N ) :   1.2246

MP2 TOTAL ENERGY:     -486.476415410 Eh
FINAL SINGLE POINT ENERGY      -486.476415410146

DIPOLE MOMENT
-------------
                                X             Y             Z
Electronic contribution:     -7.59089      -0.80596      -3.47984
Nuclear contribution   :      7.21160       0.57187       2.82157
                        -----------------------------------------
Total Dipole Moment    :     -0.37929      -0.23409      -0.65827
                        -----------------------------------------
Magnitude (a.u.)       :      0.79497
Magnitude (Debye)      :      2.02065

                             ****ORCA TERMINATED NORMALLY****
TOTAL RUN TIME: 0 days 0 hours 13 minutes 48 seconds 141 msec
