                         Program Version 3.0.3 - RELEASE   -
|  1> ! RI-MP2 RIJK def2-TZVP def2-TZVP/C def2-TZVP/JK TIGHTSCF
|  2> % maxcore 2000
|  3> % mp2 density relaxed end
|  4> *xyz 0 1
|  5>  C        0.3111693065     1.2441230989    -0.1149602491
|  6>  C       -0.3186000589    -0.1120376615    -0.0579071793
|  7>  C       -0.5475264980    -0.9178750756    -1.1306039553
|  8>  C        0.7463758493    -1.2712594885    -1.8974730011
|  9>  C        0.7894991530    -2.4287836044    -0.8191531015
| 10>  C        0.8445255221    -2.1384310195     0.7213048259
| 11>  C       -0.6460828894    -2.3765052255     0.8690219387
| 12>  C       -0.1570746729    -0.9806752279     1.1235314893
| 13>  C       -0.7556515104    -2.3748452112    -0.6620813780
| 14>  H        1.3257061373     1.2354688906     0.3081397042
| 15>  H        0.3623557657     1.6161824911    -1.1416576673
| 16>  H       -0.2638957589     1.9720669690     0.4713132384
| 17>  H        0.6317358744    -1.7082780488    -2.8961821807
| 18>  H        1.5328412920    -0.5132468817    -1.9156106130
| 19>  H        1.2854781332    -3.3657577611    -1.0863605010
| 20>  H        1.6503570530    -2.3986156971     1.3946325943
| 21>  H       -1.1955904052    -2.9686614514     1.5880926736
| 22>  H       -0.0656504500    -0.6197396435     2.1432198295
| 23>  H       -1.4228168730    -3.0305253818    -1.2175356377
| 24> *
| 25>
| 26>                          ****END OF INPUT****

CARTESIAN COORDINATES (ANGSTROEM)
---------------------------------
  C      0.311169    1.244123   -0.114960
  C     -0.318600   -0.112038   -0.057907
  C     -0.547526   -0.917875   -1.130604
  C      0.746376   -1.271259   -1.897473
  C      0.789499   -2.428784   -0.819153
  C      0.844526   -2.138431    0.721305
  C     -0.646083   -2.376505    0.869022
  C     -0.157075   -0.980675    1.123531
  C     -0.755652   -2.374845   -0.662081
  H      1.325706    1.235469    0.308140
  H      0.362356    1.616182   -1.141658
  H     -0.263896    1.972067    0.471313
  H      0.631736   -1.708278   -2.896182
  H      1.532841   -0.513247   -1.915611
  H      1.285478   -3.365758   -1.086361
  H      1.650357   -2.398616    1.394633
  H     -1.195590   -2.968661    1.588093
  H     -0.065650   -0.619740    2.143220
  H     -1.422817   -3.030525   -1.217536

 Total Charge           Charge          ....    0
 Multiplicity           Mult            ....    1
 Number of Electrons    NEL             ....   64
 Basis Dimension        Dim             ....  339

ORBITAL ENERGIES
----------------

  NO   OCC          E(Eh)            E(eV)
   0   2.0000     -11.242872      -305.9341
   1   2.0000     -11.241297      -305.8912
   2   2.0000     -11.240708      -305.8752
   3   2.0000     -11.239076      -305.8308
   4   2.0000     -11.235257      -305.7269
   5   2.0000     -11.234808      -305.7147
   6   2.0000     -11.224337      -305.4297
   7   2.0000     -11.220885      -305.3358
   8   2.0000     -11.212635      -305.1113
   9   2.0000      -1.237341       -33.6697
  10   2.0000      -1.070317       -29.1248
  11   2.0000      -1.044607       -28.4252
  12   2.0000      -0.927052       -25.2264
  13   2.0000      -0.905454       -24.6387
  14   2.0000      -0.839163       -22.8348
  15   2.0000      -0.787366       -21.4253
  16   2.0000      -0.732919       -19.9437
  17   2.0000      -0.694525       -18.8990
  18   2.0000      -0.671638       -18.2762
  19   2.0000      -0.609640       -16.5892
  20   2.0000      -0.597021       -16.2458
  21   2.0000      -0.588442       -16.0123
  22   2.0000      -0.563723       -15.3397
  23   2.0000      -0.541085       -14.7237
  24   2.0000      -0.531491       -14.4626
  25   2.0000      -0.486398       -13.2356
  26   2.0000      -0.465323       -12.6621
  27   2.0000      -0.455829       -12.4037
  28   2.0000      -0.444230       -12.0881
  29   2.0000      -0.408076       -11.1043
  30   2.0000      -0.375760       -10.2250
  31   2.0000      -0.282376        -7.6838
  32   0.0000       0.120625         3.2824
  33   0.0000       0.140190         3.8148
  34   0.0000       0.161541         4.3958
  35   0.0000       0.164469         4.4754
  36   0.0000       0.175835         4.7847

MULLIKEN ATOMIC CHARGES
-----------------------
   0 C :   -0.464957
   1 C :   -0.004880
   2 C :    0.053643
   3 C :   -0.271048
   4 C :   -0.058464
   5 C :   -0.207790
   6 C :   -0.153238
   7 C :   -0.152224
   8 C :   -0.074338
   9 H :    0.136070
  10 H :    0.142859
  11 H :    0.149272
  12 H :    0.115883
  13 H :    0.121172
  14 H :    0.120583
  15 H :    0.139163
  16 H :    0.144595
  17 H :    0.128756
  18 H :    0.134943
Sum of atomic charges:   -0.0000000

LOEWDIN ATOMIC CHARGES
----------------------
   0 C :   -0.276947
   1 C :   -0.150335
   2 C :   -0.113856
   3 C :   -0.173861
   4 C :   -0.140727
   5 C :   -0.121671
   6 C :   -0.133452
   7 C :   -0.134582
   8 C :   -0.121008
   9 H :    0.129502
  10 H :    0.131511
  11 H :    0.134627
  12 H :    0.134227
  13 H :    0.128753
  14 H :    0.144823
  15 H :    0.135885
  16 H :    0.138010
  17 H :    0.149710
  18 H :    0.139390

  Mayer bond orders larger than 0.1
B(  0-C ,  1-C ) :   0.8822 B(  0-C ,  9-H ) :   0.9202 B(  0-C , 10-H ) :   0.9431
B(  0-C , 11-H ) :   0.9333 B(  1-C ,  2-C ) :   1.5861 B(  1-C ,  7-C ) :   1.0203
B(  2-C ,  3-C ) :   0.9102 B(  2-C ,  8-C ) :   0.9316 B(  3-C ,  4-C ) :   0.9051
B(  3-C , 12-H ) :   0.9068 B(  3-C , 13-H ) :   0.9161 B(  4-C ,  5-C ) :   0.8996
B(  4-C ,  8-C ) :   0.9451 B(  4-C , 14-H ) :   0.9039 B(  5-C ,  6-C ) :   0.8418
B(  5-C ,  7-C ) :   0.8095 B(  5-C , 15-H ) :   0.9218 B(  6-C ,  7-C ) :   0.8612
B(  6-C ,  8-C ) :   0.9339 B(  6-C , 16-H ) :   0.9140 B(  7-C , 17-H ) :   0.9274
B(  8-C , 18-H ) :   0.9106

MP2 TOTAL ENERGY:     -348.010156518 Eh
FINAL SINGLE POINT ENERGY      -348.010156517852

DIPOLE MOMENT
-------------
                                X             Y             Z
Electronic contribution:     -2.62494      -2.67367       0.42611
Nuclear contribution   :      3.04153       2.43458      -0.14153
                        -----------------------------------------
Total Dipole Moment    :      0.41659      -0.23909       0.28458
                        -----------------------------------------
Magnitude (a.u.)       :      0.55830
Magnitude (Debye)      :      1.41908

                             ****ORCA TERMINATED NORMALLY****
TOTAL RUN TIME: 0 days 0 hours 23 minutes 33 seconds 417 msec
