                         Program Version 3.0.3 - RELEASE   -
|  1> ! RI-MP2 RIJK def2-TZVP def2-TZVP/C def2-TZVP/JK TIGHTSCF
|  2> % maxcore 2000
|  3> % mp2 density relaxed end
|  4> *xyz 0 1
|  5>  N        0.0766898662     1.3117432930     0.1347783721
|  6>  C       -0.0733224217    -0.0301650833     0.0487482051
|  7>  N       -1.1759945547    -0.7117871242     0.0280177691
|  8>  C       -0.7172328080    -2.0301057127     0.0044067568
|  9>  C       -1.0082001830    -3.3541995062    -0.0267022032
| 10>  O        0.1633264829    -4.0548446384    -0.0449479480
| 11>  N        1.2763174240    -3.1857902643    -0.0260309275
| 12>  C        0.6929482661    -2.0267725867     0.0034205391
| 13>  O        1.1302189790    -0.7374284822     0.0326413884
| 14>  H        0.9549630229     1.6958115754    -0.1745121931
| 15>  H       -0.7482843562     1.8535601898    -0.0665093173
| 16>  H       -1.9030888275    -3.9534091202    -0.0389645616
| 17> *
| 18>
| 19>                          ****END OF INPUT****

CARTESIAN COORDINATES (ANGSTROEM)
---------------------------------
  N      0.076690    1.311743    0.134778
  C     -0.073322   -0.030165    0.048748
  N     -1.175995   -0.711787    0.028018
  C     -0.717233   -2.030106    0.004407
  C     -1.008200   -3.354200   -0.026702
  O      0.163326   -4.054845   -0.044948
  N      1.276317   -3.185790   -0.026031
  C      0.692948   -2.026773    0.003421
  O      1.130219   -0.737428    0.032641
  H      0.954963    1.695812   -0.174512
  H     -0.748284    1.853560   -0.066509
  H     -1.903089   -3.953409   -0.038965

 Total Charge           Charge          ....    0
 Multiplicity           Mult            ....    1
 Number of Electrons    NEL             ....   64
 Basis Dimension        Dim             ....  297

ORBITAL ENERGIES
----------------

  NO   OCC          E(Eh)            E(eV)
   0   2.0000     -20.663306      -562.2771
   1   2.0000     -20.641691      -561.6890
   2   2.0000     -15.626991      -425.2321
   3   2.0000     -15.619528      -425.0290
   4   2.0000     -15.575334      -423.8264
   5   2.0000     -11.414678      -310.6092
   6   2.0000     -11.342803      -308.6534
   7   2.0000     -11.317026      -307.9519
   8   2.0000     -11.276108      -306.8385
   9   2.0000      -1.518151       -41.3110
  10   2.0000      -1.477244       -40.1978
  11   2.0000      -1.290125       -35.1061
  12   2.0000      -1.240856       -33.7654
  13   2.0000      -1.160759       -31.5859
  14   2.0000      -1.059013       -28.8172
  15   2.0000      -0.895172       -24.3589
  16   2.0000      -0.848825       -23.0977
  17   2.0000      -0.822731       -22.3877
  18   2.0000      -0.751599       -20.4520
  19   2.0000      -0.719675       -19.5834
  20   2.0000      -0.713232       -19.4080
  21   2.0000      -0.706066       -19.2130
  22   2.0000      -0.670251       -18.2385
  23   2.0000      -0.639942       -17.4137
  24   2.0000      -0.586653       -15.9636
  25   2.0000      -0.569185       -15.4883
  26   2.0000      -0.543079       -14.7779
  27   2.0000      -0.512127       -13.9357
  28   2.0000      -0.476137       -12.9563
  29   2.0000      -0.463308       -12.6073
  30   2.0000      -0.406974       -11.0743
  31   2.0000      -0.331782        -9.0282
  32   0.0000       0.110777         3.0144
  33   0.0000       0.116547         3.1714
  34   0.0000       0.164687         4.4814
  35   0.0000       0.169975         4.6252
  36   0.0000       0.178602         4.8600

MULLIKEN ATOMIC CHARGES
-----------------------
   0 N :   -0.495656
   1 C :    0.392848
   2 N :   -0.308300
   3 C :   -0.036675
   4 C :   -0.014642
   5 O :   -0.092807
   6 N :   -0.139213
   7 C :    0.214037
   8 O :   -0.251702
   9 H :    0.280302
  10 H :    0.283733
  11 H :    0.168073
Sum of atomic charges:    0.0000000

LOEWDIN ATOMIC CHARGES
----------------------
   0 N :   -0.012166
   1 C :   -0.408942
   2 N :    0.113124
   3 C :   -0.253118
   4 C :   -0.219341
   5 O :    0.262949
   6 N :    0.046704
   7 C :   -0.364513
   8 O :    0.321946
   9 H :    0.184919
  10 H :    0.189057
  11 H :    0.139382

  Mayer bond orders larger than 0.1
B(  0-N ,  1-C ) :   1.1537 B(  0-N ,  9-H ) :   0.8586 B(  0-N , 10-H ) :   0.8598
B(  1-C ,  2-N ) :   1.6601 B(  1-C ,  8-O ) :   1.0149 B(  2-N ,  3-C ) :   1.1522
B(  3-C ,  4-C ) :   1.4839 B(  3-C ,  7-C ) :   1.1482 B(  4-C ,  5-O ) :   1.1035
B(  4-C ,  6-N ) :   0.1230 B(  4-C , 11-H ) :   0.9148 B(  5-O ,  6-N ) :   0.8715
B(  6-N ,  7-C ) :   1.6078 B(  7-C ,  8-O ) :   1.0108

MP2 TOTAL ENERGY:     -468.038291262 Eh
FINAL SINGLE POINT ENERGY      -468.038291261533

DIPOLE MOMENT
-------------
                                X             Y             Z
Electronic contribution:      1.30977      -2.70404       0.02287
Nuclear contribution   :     -1.75856       4.17083      -0.30316
                        -----------------------------------------
Total Dipole Moment    :     -0.44880       1.46679      -0.28029
                        -----------------------------------------
Magnitude (a.u.)       :      1.55931
Magnitude (Debye)      :      3.96346

                             ****ORCA TERMINATED NORMALLY****
TOTAL RUN TIME: 0 days 0 hours 13 minutes 18 seconds 651 msec
