                         Program Version 3.0.3 - RELEASE   -
|  1> ! RI-MP2 RIJK def2-TZVP def2-TZVP/C def2-TZVP/JK TIGHTSCF
|  2> % maxcore 2000
|  3> % mp2 density relaxed end
|  4> *xyz 0 1
|  5>  N       -0.0785522459     1.2468707855    -0.3137370546
|  6>  C       -0.1608390268    -0.0240593470    -0.3593263148
|  7>  N       -1.3331764714    -0.6635104131    -0.0373396658
|  8>  C       -1.7257112190    -2.0687661578    -0.0362240016
|  9>  C       -3.1864060951    -1.6003539794     0.3034065638
| 10>  C       -2.6219700336    -0.1799243159     0.2695362145
| 11>  N       -3.1280972040     0.9565991139     0.4444677168
| 12>  C       -1.5628229708    -2.8066049554    -1.3458536964
| 13>  O       -1.0056053765    -2.3590999168    -2.3130058150
| 14>  H        0.8520728318     1.5529846516    -0.5881634178
| 15>  H        0.6373862577    -0.7171445365    -0.6423680461
| 16>  H       -1.2664489832    -2.6693848211     0.7616024597
| 17>  H       -3.9265628589    -1.8062507441    -0.4724737262
| 18>  H       -3.5666876130    -1.9292364439     1.2707892985
| 19>  H       -2.4145206912     1.6789653531     0.3282483605
| 20>  H       -2.0056072002    -3.8283891431    -1.3422247555
| 21> *
| 22>
| 23>                          ****END OF INPUT****

CARTESIAN COORDINATES (ANGSTROEM)
---------------------------------
  N     -0.078552    1.246871   -0.313737
  C     -0.160839   -0.024059   -0.359326
  N     -1.333176   -0.663510   -0.037340
  C     -1.725711   -2.068766   -0.036224
  C     -3.186406   -1.600354    0.303407
  C     -2.621970   -0.179924    0.269536
  N     -3.128097    0.956599    0.444468
  C     -1.562823   -2.806605   -1.345854
  O     -1.005605   -2.359100   -2.313006
  H      0.852073    1.552985   -0.588163
  H      0.637386   -0.717145   -0.642368
  H     -1.266449   -2.669385    0.761602
  H     -3.926563   -1.806251   -0.472474
  H     -3.566688   -1.929236    1.270789
  H     -2.414521    1.678965    0.328248
  H     -2.005607   -3.828389   -1.342225

 Total Charge           Charge          ....    0
 Multiplicity           Mult            ....    1
 Number of Electrons    NEL             ....   66
 Basis Dimension        Dim             ....  321

ORBITAL ENERGIES
----------------

  NO   OCC          E(Eh)            E(eV)
   0   2.0000     -20.584997      -560.1462
   1   2.0000     -15.608943      -424.7409
   2   2.0000     -15.544814      -422.9959
   3   2.0000     -15.533224      -422.6805
   4   2.0000     -11.357924      -309.0648
   5   2.0000     -11.330382      -308.3154
   6   2.0000     -11.326872      -308.2199
   7   2.0000     -11.315357      -307.9065
   8   2.0000     -11.270843      -306.6952
   9   2.0000      -1.425352       -38.7858
  10   2.0000      -1.336551       -36.3694
  11   2.0000      -1.213835       -33.0301
  12   2.0000      -1.180640       -32.1269
  13   2.0000      -1.055297       -28.7161
  14   2.0000      -0.969729       -26.3877
  15   2.0000      -0.875309       -23.8184
  16   2.0000      -0.821126       -22.3440
  17   2.0000      -0.737693       -20.0736
  18   2.0000      -0.722615       -19.6633
  19   2.0000      -0.708666       -19.2838
  20   2.0000      -0.687322       -18.7030
  21   2.0000      -0.672037       -18.2871
  22   2.0000      -0.630298       -17.1513
  23   2.0000      -0.588526       -16.0146
  24   2.0000      -0.575863       -15.6700
  25   2.0000      -0.557832       -15.1794
  26   2.0000      -0.555742       -15.1225
  27   2.0000      -0.514199       -13.9921
  28   2.0000      -0.463953       -12.6248
  29   2.0000      -0.453997       -12.3539
  30   2.0000      -0.445105       -12.1119
  31   2.0000      -0.413024       -11.2389
  32   2.0000      -0.358537        -9.7563
  33   0.0000       0.102648         2.7932
  34   0.0000       0.117371         3.1938
  35   0.0000       0.140989         3.8365
  36   0.0000       0.145306         3.9540
  37   0.0000       0.166066         4.5189

MULLIKEN ATOMIC CHARGES
-----------------------
   0 N :   -0.433482
   1 C :    0.051017
   2 N :   -0.054167
   3 C :    0.011858
   4 C :   -0.179643
   5 C :    0.048595
   6 N :   -0.358775
   7 C :    0.063449
   8 O :   -0.253283
   9 H :    0.223436
  10 H :    0.118169
  11 H :    0.130720
  12 H :    0.138169
  13 H :    0.142285
  14 H :    0.256263
  15 H :    0.095388
Sum of atomic charges:    0.0000000

LOEWDIN ATOMIC CHARGES
----------------------
   0 N :   -0.094804
   1 C :   -0.319986
   2 N :    0.239557
   3 C :   -0.222293
   4 C :   -0.150800
   5 C :   -0.322761
   6 N :   -0.035585
   7 C :   -0.278598
   8 O :    0.152594
   9 H :    0.165768
  10 H :    0.126191
  11 H :    0.154721
  12 H :    0.147266
  13 H :    0.143723
  14 H :    0.175876
  15 H :    0.119129

  Mayer bond orders larger than 0.1
B(  0-N ,  1-C ) :   1.8496 B(  0-N ,  9-H ) :   0.8615 B(  1-C ,  2-N ) :   1.0303
B(  1-C , 10-H ) :   0.9249 B(  2-N ,  3-C ) :   0.9210 B(  2-N ,  5-C ) :   0.9849
B(  3-C ,  4-C ) :   0.9232 B(  3-C ,  7-C ) :   0.8594 B(  3-C , 11-H ) :   0.8907
B(  4-C ,  5-C ) :   0.9270 B(  4-C , 12-H ) :   0.9040 B(  4-C , 13-H ) :   0.9126
B(  5-C ,  6-N ) :   2.0594 B(  6-N , 14-H ) :   0.8445 B(  7-C ,  8-O ) :   1.9978
B(  7-C , 15-H ) :   0.9348

MP2 TOTAL ENERGY:     -433.336570900 Eh
FINAL SINGLE POINT ENERGY      -433.336570900195

DIPOLE MOMENT
-------------
                                X             Y             Z
Electronic contribution:      0.95800       0.21732      -1.56383
Nuclear contribution   :     -0.32078      -1.77378       1.98295
                        -----------------------------------------
Total Dipole Moment    :      0.63721      -1.55646       0.41913
                        -----------------------------------------
Magnitude (a.u.)       :      1.73329
Magnitude (Debye)      :      4.40567

                             ****ORCA TERMINATED NORMALLY****
TOTAL RUN TIME: 0 days 0 hours 15 minutes 3 seconds 510 msec
