                         Program Version 3.0.3 - RELEASE   -
|  1> ! RI-MP2 RIJK def2-TZVP def2-TZVP/C def2-TZVP/JK TIGHTSCF
|  2> % maxcore 2000
|  3> % mp2 density relaxed end
|  4> *xyz 0 1
|  5>  N        0.0137769901     1.4645870367    -0.0548932101
|  6>  C       -0.0302239797     0.0620363478    -0.0634562496
|  7>  C       -1.0960584837    -0.8231888304    -0.0674899009
|  8>  C       -0.5857442515    -2.1639473700    -0.2212919347
|  9>  N       -1.3747243386    -3.3102921159    -0.4358242984
| 10>  C        0.7811354379    -2.0463292545    -0.1913392548
| 11>  C        2.1296263045    -2.3987850264    -0.8028461753
| 12>  C        2.3750295407    -0.8498615738    -0.8315261728
| 13>  N        1.1086011177    -0.6869054512    -0.0740655536
| 14>  H        0.6214374671     1.8293221376     0.6705744101
| 15>  H       -0.9094596346     1.8620488870     0.0627340253
| 16>  H       -2.1326873243    -0.5565215011     0.0883488857
| 17>  H       -2.2646373413    -3.2585041164     0.0441142444
| 18>  H       -0.9038286296    -4.1576502675    -0.1462419206
| 19>  H        2.8270808842    -2.9586772885    -0.1713431642
| 20>  H        2.0994039909    -2.8643768032    -1.7915285403
| 21>  H        3.2576839373    -0.4701700264    -0.3098467798
| 22>  H        2.3244686630    -0.4178202837    -1.8349651606
| 23> *
| 24>
| 25>                          ****END OF INPUT****

CARTESIAN COORDINATES (ANGSTROEM)
---------------------------------
  N      0.013777    1.464587   -0.054893
  C     -0.030224    0.062036   -0.063456
  C     -1.096058   -0.823189   -0.067490
  C     -0.585744   -2.163947   -0.221292
  N     -1.374724   -3.310292   -0.435824
  C      0.781135   -2.046329   -0.191339
  C      2.129626   -2.398785   -0.802846
  C      2.375030   -0.849862   -0.831526
  N      1.108601   -0.686905   -0.074066
  H      0.621437    1.829322    0.670574
  H     -0.909460    1.862049    0.062734
  H     -2.132687   -0.556522    0.088349
  H     -2.264637   -3.258504    0.044114
  H     -0.903829   -4.157650   -0.146242
  H      2.827081   -2.958677   -0.171343
  H      2.099404   -2.864377   -1.791529
  H      3.257684   -0.470170   -0.309847
  H      2.324469   -0.417820   -1.834965

 Total Charge           Charge          ....    0
 Multiplicity           Mult            ....    1
 Number of Electrons    NEL             ....   66
 Basis Dimension        Dim             ....  333

ORBITAL ENERGIES
----------------

  NO   OCC          E(Eh)            E(eV)
   0   2.0000     -15.567571      -423.6152
   1   2.0000     -15.564059      -423.5196
   2   2.0000     -15.546812      -423.0503
   3   2.0000     -11.288883      -307.1861
   4   2.0000     -11.273412      -306.7651
   5   2.0000     -11.246434      -306.0310
   6   2.0000     -11.238346      -305.8109
   7   2.0000     -11.219071      -305.2864
   8   2.0000     -11.194620      -304.6211
   9   2.0000      -1.306596       -35.5543
  10   2.0000      -1.198172       -32.6039
  11   2.0000      -1.186108       -32.2756
  12   2.0000      -1.062108       -28.9014
  13   2.0000      -0.981882       -26.7184
  14   2.0000      -0.905023       -24.6269
  15   2.0000      -0.851775       -23.1780
  16   2.0000      -0.772377       -21.0175
  17   2.0000      -0.724095       -19.7036
  18   2.0000      -0.693353       -18.8671
  19   2.0000      -0.659669       -17.9505
  20   2.0000      -0.652087       -17.7442
  21   2.0000      -0.643743       -17.5171
  22   2.0000      -0.589290       -16.0354
  23   2.0000      -0.569677       -15.5017
  24   2.0000      -0.543353       -14.7854
  25   2.0000      -0.534311       -14.5393
  26   2.0000      -0.519063       -14.1244
  27   2.0000      -0.495739       -13.4897
  28   2.0000      -0.476984       -12.9794
  29   2.0000      -0.470562       -12.8047
  30   2.0000      -0.423681       -11.5289
  31   2.0000      -0.310907        -8.4602
  32   2.0000      -0.251979        -6.8567
  33   0.0000       0.130525         3.5518
  34   0.0000       0.138686         3.7738
  35   0.0000       0.156474         4.2579
  36   0.0000       0.176326         4.7981
  37   0.0000       0.179805         4.8927

MULLIKEN ATOMIC CHARGES
-----------------------
   0 N :   -0.534628
   1 C :    0.128413
   2 C :   -0.249596
   3 C :    0.066801
   4 N :   -0.529396
   5 C :   -0.040851
   6 C :   -0.204058
   7 C :   -0.133083
   8 N :   -0.090067
   9 H :    0.250503
  10 H :    0.245489
  11 H :    0.113161
  12 H :    0.241074
  13 H :    0.240072
  14 H :    0.126312
  15 H :    0.130256
  16 H :    0.114886
  17 H :    0.124713
Sum of atomic charges:    0.0000000

LOEWDIN ATOMIC CHARGES
----------------------
   0 N :   -0.100786
   1 C :   -0.331463
   2 C :   -0.175113
   3 C :   -0.269120
   4 N :   -0.104622
   5 C :   -0.196316
   6 C :   -0.210942
   7 C :   -0.195116
   8 N :    0.267369
   9 H :    0.166496
  10 H :    0.169253
  11 H :    0.133751
  12 H :    0.164168
  13 H :    0.164077
  14 H :    0.130095
  15 H :    0.135005
  16 H :    0.121451
  17 H :    0.131813

  Mayer bond orders larger than 0.1
B(  0-N ,  1-C ) :   1.0220 B(  0-N ,  9-H ) :   0.8726 B(  0-N , 10-H ) :   0.8874
B(  1-C ,  2-C ) :   1.4714 B(  1-C ,  8-N ) :   1.1943 B(  2-C ,  3-C ) :   1.2448
B(  2-C , 11-H ) :   0.9111 B(  3-C ,  4-N ) :   0.9803 B(  3-C ,  5-C ) :   1.5227
B(  4-N , 12-H ) :   0.8877 B(  4-N , 13-H ) :   0.8869 B(  5-C ,  6-C ) :   0.9204
B(  5-C ,  8-N ) :   1.0108 B(  6-C ,  7-C ) :   0.9733 B(  6-C , 14-H ) :   0.9246
B(  6-C , 15-H ) :   0.9050 B(  7-C ,  8-N ) :   0.8819 B(  7-C , 16-H ) :   0.9160
B(  7-C , 17-H ) :   0.9122

MP2 TOTAL ENERGY:     -397.421647033 Eh
FINAL SINGLE POINT ENERGY      -397.421647033194

DIPOLE MOMENT
-------------
                                X             Y             Z
Electronic contribution:     -1.32436       0.50523       1.09810
Nuclear contribution   :      1.56751      -0.34665      -0.60682
                        -----------------------------------------
Total Dipole Moment    :      0.24315       0.15858       0.49128
                        -----------------------------------------
Magnitude (a.u.)       :      0.57064
Magnitude (Debye)      :      1.45045

                             ****ORCA TERMINATED NORMALLY****
TOTAL RUN TIME: 0 days 0 hours 19 minutes 0 seconds 905 msec
