                         Program Version 3.0.3 - RELEASE   -
|  1> ! RI-MP2 RIJK def2-TZVP def2-TZVP/C def2-TZVP/JK TIGHTSCF
|  2> % maxcore 2000
|  3> % mp2 density relaxed end
|  4> *xyz 0 1
|  5>  C       -0.0004102365     1.5269843762     0.3853180243
|  6>  O        0.0199275989     0.1183321033     0.4140742895
|  7>  C       -1.1523370292    -0.5503578731    -0.0394113734
|  8>  C       -2.3415911975    -0.2922432848     0.8990715161
|  9>  C       -1.5050640761    -0.2484950374    -1.5265059786
| 10>  C       -2.1224072569    -1.5525030954    -2.0852048844
| 11>  C       -1.4547335250    -2.6471191512    -1.2703227880
| 12>  N        0.0094708610    -2.4623021642    -1.1816508635
| 13>  C       -0.8520053328    -2.0430860682    -0.0587454793
| 14>  H        0.9966722562     1.8592198732     0.6863062653
| 15>  H       -0.2081096301     1.9232461460    -0.6188763349
| 16>  H       -0.7312096860     1.9589588407     1.0847330042
| 17>  H       -2.6462940743     0.7579996176     0.8847311988
| 18>  H       -3.2077704909    -0.8894090899     0.5976723539
| 19>  H       -2.0811658428    -0.5600674932     1.9279883568
| 20>  H       -2.1746432986     0.6081962474    -1.6378401601
| 21>  H       -0.5734434082    -0.0285510291    -2.0514492146
| 22>  H       -3.2054259543    -1.5829684936    -1.9170497630
| 23>  H       -1.9545575811    -1.6614656946    -3.1615112483
| 24>  H       -1.8612812576    -3.6536621988    -1.2667691796
| 25>  H        0.4470380554    -3.3486957175    -0.9433635986
| 26>  H       -0.7848247936    -2.5724306335     0.8866515375
| 27> *
| 28>
| 29>                          ****END OF INPUT****

CARTESIAN COORDINATES (ANGSTROEM)
---------------------------------
  C     -0.000410    1.526984    0.385318
  O      0.019928    0.118332    0.414074
  C     -1.152337   -0.550358   -0.039411
  C     -2.341591   -0.292243    0.899072
  C     -1.505064   -0.248495   -1.526506
  C     -2.122407   -1.552503   -2.085205
  C     -1.454734   -2.647119   -1.270323
  N      0.009471   -2.462302   -1.181651
  C     -0.852005   -2.043086   -0.058745
  H      0.996672    1.859220    0.686306
  H     -0.208110    1.923246   -0.618876
  H     -0.731210    1.958959    1.084733
  H     -2.646294    0.758000    0.884731
  H     -3.207770   -0.889409    0.597672
  H     -2.081166   -0.560067    1.927988
  H     -2.174643    0.608196   -1.637840
  H     -0.573443   -0.028551   -2.051449
  H     -3.205426   -1.582968   -1.917050
  H     -1.954558   -1.661466   -3.161511
  H     -1.861281   -3.653662   -1.266769
  H      0.447038   -3.348696   -0.943364
  H     -0.784825   -2.572431    0.886652

 Total Charge           Charge          ....    0
 Multiplicity           Mult            ....    1
 Number of Electrons    NEL             ....   70
 Basis Dimension        Dim             ....  357

ORBITAL ENERGIES
----------------

  NO   OCC          E(Eh)            E(eV)
   0   2.0000     -20.542734      -558.9962
   1   2.0000     -15.550710      -423.1563
   2   2.0000     -11.281979      -306.9983
   3   2.0000     -11.262261      -306.4617
   4   2.0000     -11.253759      -306.2303
   5   2.0000     -11.248677      -306.0920
   6   2.0000     -11.222440      -305.3781
   7   2.0000     -11.214847      -305.1715
   8   2.0000     -11.214072      -305.1504
   9   2.0000      -1.365094       -37.1461
  10   2.0000      -1.263707       -34.3872
  11   2.0000      -1.071973       -29.1699
  12   2.0000      -1.000583       -27.2272
  13   2.0000      -0.929313       -25.2879
  14   2.0000      -0.898078       -24.4380
  15   2.0000      -0.877173       -23.8691
  16   2.0000      -0.773649       -21.0521
  17   2.0000      -0.739414       -20.1205
  18   2.0000      -0.711235       -19.3537
  19   2.0000      -0.656191       -17.8559
  20   2.0000      -0.638859       -17.3842
  21   2.0000      -0.626407       -17.0454
  22   2.0000      -0.593316       -16.1449
  23   2.0000      -0.569839       -15.5061
  24   2.0000      -0.559291       -15.2191
  25   2.0000      -0.542030       -14.7494
  26   2.0000      -0.526867       -14.3368
  27   2.0000      -0.516942       -14.0667
  28   2.0000      -0.494430       -13.4541
  29   2.0000      -0.479838       -13.0570
  30   2.0000      -0.460280       -12.5249
  31   2.0000      -0.452856       -12.3228
  32   2.0000      -0.442406       -12.0385
  33   2.0000      -0.406681       -11.0664
  34   2.0000      -0.370633       -10.0854
  35   0.0000       0.132812         3.6140
  36   0.0000       0.150722         4.1014
  37   0.0000       0.166728         4.5369
  38   0.0000       0.172670         4.6986
  39   0.0000       0.188530         5.1302

MULLIKEN ATOMIC CHARGES
-----------------------
   0 C :   -0.231710
   1 O :   -0.304236
   2 C :    0.317270
   3 C :   -0.479601
   4 C :   -0.281145
   5 C :   -0.207756
   6 C :   -0.078920
   7 N :   -0.375402
   8 C :   -0.085061
   9 H :    0.142441
  10 H :    0.115216
  11 H :    0.109414
  12 H :    0.136524
  13 H :    0.138404
  14 H :    0.138122
  15 H :    0.125443
  16 H :    0.131744
  17 H :    0.110415
  18 H :    0.115586
  19 H :    0.122979
  20 H :    0.215709
  21 H :    0.124563
Sum of atomic charges:    0.0000000

LOEWDIN ATOMIC CHARGES
----------------------
   0 C :   -0.358634
   1 O :    0.180532
   2 C :   -0.356813
   3 C :   -0.268811
   4 C :   -0.212756
   5 C :   -0.234417
   6 C :   -0.249551
   7 N :    0.014525
   8 C :   -0.213249
   9 H :    0.114126
  10 H :    0.103228
  11 H :    0.099516
  12 H :    0.124314
  13 H :    0.131081
  14 H :    0.128662
  15 H :    0.133796
  16 H :    0.149689
  17 H :    0.137676
  18 H :    0.137622
  19 H :    0.132268
  20 H :    0.168521
  21 H :    0.138678

  Mayer bond orders larger than 0.1
B(  0-C ,  1-O ) :   0.9201 B(  0-C ,  9-H ) :   0.9430 B(  0-C , 10-H ) :   0.9336
B(  0-C , 11-H ) :   0.9309 B(  1-O ,  2-C ) :   0.9922 B(  2-C ,  3-C ) :   0.8891
B(  2-C ,  4-C ) :   0.8926 B(  2-C ,  8-C ) :   0.8518 B(  3-C , 12-H ) :   0.9311
B(  3-C , 13-H ) :   0.9297 B(  3-C , 14-H ) :   0.9423 B(  4-C ,  5-C ) :   0.9671
B(  4-C , 15-H ) :   0.9257 B(  4-C , 16-H ) :   0.9191 B(  5-C ,  6-C ) :   0.9557
B(  5-C , 17-H ) :   0.9294 B(  5-C , 18-H ) :   0.9104 B(  6-C ,  7-N ) :   0.9511
B(  6-C ,  8-C ) :   0.9276 B(  6-C , 19-H ) :   0.9262 B(  7-N ,  8-C ) :   0.9999
B(  7-N , 20-H ) :   0.8716 B(  8-C , 21-H ) :   0.9269

MP2 TOTAL ENERGY:     -403.642565355 Eh
FINAL SINGLE POINT ENERGY      -403.642565355142

DIPOLE MOMENT
-------------
                                X             Y             Z
Electronic contribution:      3.59988      -3.93250      -0.41780
Nuclear contribution   :     -4.29726       3.76933       0.56520
                        -----------------------------------------
Total Dipole Moment    :     -0.69738      -0.16317       0.14740
                        -----------------------------------------
Magnitude (a.u.)       :      0.73123
Magnitude (Debye)      :      1.85863

                             ****ORCA TERMINATED NORMALLY****
TOTAL RUN TIME: 0 days 0 hours 20 minutes 46 seconds 83 msec
