                         Program Version 3.0.3 - RELEASE   -
|  1> ! RI-MP2 RIJK def2-TZVP def2-TZVP/C def2-TZVP/JK TIGHTSCF
|  2> % maxcore 2000
|  3> % mp2 density relaxed end
|  4> *xyz 0 1
|  5>  O       -0.0648422530     1.4150146682    -0.0516621232
|  6>  C        0.0026542440    -0.0034001657     0.0308004592
|  7>  C       -1.4193150138    -0.5448682846     0.0128719907
|  8>  C       -2.1985301866    -0.2095254174    -1.2865435579
|  9>  C       -3.2281684833    -1.3510108418    -1.4667348219
| 10>  C       -2.5774483531    -2.5446759390    -0.7918742651
| 11>  N       -1.1599270581    -2.7316266537    -1.1789192005
| 12>  C       -1.4978769188    -2.0615447305     0.1011385560
| 13>  H        0.8318761446     1.7541111023    -0.1232084489
| 14>  H        0.5572780971    -0.4313446426    -0.8178149603
| 15>  H        0.5126000357    -0.3198165883     0.9562694047
| 16>  H       -1.9521591042    -0.1297985144     0.8792800492
| 17>  H       -2.6623227740     0.7772703010    -1.2440872839
| 18>  H       -1.5024118073    -0.2065748112    -2.1288622357
| 19>  H       -4.1675308116    -1.1222240806    -0.9484037342
| 20>  H       -3.4689435194    -1.5325179722    -2.5191516073
| 21>  H       -3.1672269971    -3.4225848764    -0.5465439796
| 22>  H       -0.8904632702    -3.6929557075    -0.9855826669
| 23>  H       -1.2560547009    -2.5644424557     1.0328457556
| 24> *
| 25>
| 26>                          ****END OF INPUT****

CARTESIAN COORDINATES (ANGSTROEM)
---------------------------------
  O     -0.064842    1.415015   -0.051662
  C      0.002654   -0.003400    0.030800
  C     -1.419315   -0.544868    0.012872
  C     -2.198530   -0.209525   -1.286544
  C     -3.228168   -1.351011   -1.466735
  C     -2.577448   -2.544676   -0.791874
  N     -1.159927   -2.731627   -1.178919
  C     -1.497877   -2.061545    0.101139
  H      0.831876    1.754111   -0.123208
  H      0.557278   -0.431345   -0.817815
  H      0.512600   -0.319817    0.956269
  H     -1.952159   -0.129799    0.879280
  H     -2.662323    0.777270   -1.244087
  H     -1.502412   -0.206575   -2.128862
  H     -4.167531   -1.122224   -0.948404
  H     -3.468944   -1.532518   -2.519152
  H     -3.167227   -3.422585   -0.546544
  H     -0.890463   -3.692956   -0.985583
  H     -1.256055   -2.564442    1.032846

 Total Charge           Charge          ....    0
 Multiplicity           Mult            ....    1
 Number of Electrons    NEL             ....   62
 Basis Dimension        Dim             ....  314

ORBITAL ENERGIES
----------------

  NO   OCC          E(Eh)            E(eV)
   0   2.0000     -20.549580      -559.1825
   1   2.0000     -15.552378      -423.2017
   2   2.0000     -11.267026      -306.5914
   3   2.0000     -11.252734      -306.2025
   4   2.0000     -11.251836      -306.1780
   5   2.0000     -11.221326      -305.3478
   6   2.0000     -11.216289      -305.2107
   7   2.0000     -11.207754      -304.9785
   8   2.0000      -1.353102       -36.8198
   9   2.0000      -1.264202       -34.4007
  10   2.0000      -1.068798       -29.0835
  11   2.0000      -0.994414       -27.0594
  12   2.0000      -0.889721       -24.2105
  13   2.0000      -0.876173       -23.8419
  14   2.0000      -0.768716       -20.9178
  15   2.0000      -0.750317       -20.4172
  16   2.0000      -0.715171       -19.4608
  17   2.0000      -0.683978       -18.6120
  18   2.0000      -0.636358       -17.3162
  19   2.0000      -0.614197       -16.7132
  20   2.0000      -0.586756       -15.9664
  21   2.0000      -0.562957       -15.3188
  22   2.0000      -0.525647       -14.3036
  23   2.0000      -0.511909       -13.9298
  24   2.0000      -0.496087       -13.4992
  25   2.0000      -0.472915       -12.8687
  26   2.0000      -0.464418       -12.6375
  27   2.0000      -0.450975       -12.2717
  28   2.0000      -0.447178       -12.1683
  29   2.0000      -0.431727       -11.7479
  30   2.0000      -0.370229       -10.0745
  31   0.0000       0.134277         3.6538
  32   0.0000       0.145098         3.9483
  33   0.0000       0.164570         4.4782
  34   0.0000       0.170531         4.6404
  35   0.0000       0.184561         5.0222

MULLIKEN ATOMIC CHARGES
-----------------------
   0 O :   -0.468337
   1 C :   -0.121966
   2 C :   -0.003001
   3 C :   -0.240722
   4 C :   -0.178798
   5 C :   -0.062345
   6 N :   -0.407184
   7 C :   -0.062301
   8 H :    0.313989
   9 H :    0.118448
  10 H :    0.090117
  11 H :    0.089252
  12 H :    0.133076
  13 H :    0.113624
  14 H :    0.103417
  15 H :    0.113439
  16 H :    0.125942
  17 H :    0.214264
  18 H :    0.129088
Sum of atomic charges:    0.0000000

LOEWDIN ATOMIC CHARGES
----------------------
   0 O :   -0.049213
   1 C :   -0.328399
   2 C :   -0.235974
   3 C :   -0.218565
   4 C :   -0.236803
   5 C :   -0.252525
   6 N :   -0.002333
   7 C :   -0.231010
   8 H :    0.171067
   9 H :    0.122261
  10 H :    0.115045
  11 H :    0.157949
  12 H :    0.136022
  13 H :    0.143667
  14 H :    0.139209
  15 H :    0.136617
  16 H :    0.132494
  17 H :    0.166277
  18 H :    0.134215

  Mayer bond orders larger than 0.1
B(  0-O ,  1-C ) :   1.0173 B(  0-O ,  8-H ) :   0.8494 B(  1-C ,  2-C ) :   0.9166
B(  1-C ,  9-H ) :   0.9267 B(  1-C , 10-H ) :   0.9336 B(  2-C ,  3-C ) :   0.9327
B(  2-C ,  7-C ) :   0.9002 B(  2-C , 11-H ) :   0.9230 B(  3-C ,  4-C ) :   0.9514
B(  3-C , 12-H ) :   0.9371 B(  3-C , 13-H ) :   0.9184 B(  4-C ,  5-C ) :   0.9393
B(  4-C , 14-H ) :   0.9271 B(  4-C , 15-H ) :   0.9183 B(  5-C ,  6-N ) :   0.9321
B(  5-C ,  7-C ) :   0.8985 B(  5-C , 16-H ) :   0.9245 B(  6-N ,  7-C ) :   0.9257
B(  6-N , 17-H ) :   0.8698 B(  7-C , 18-H ) :   0.9190

MP2 TOTAL ENERGY:     -364.436361412 Eh
FINAL SINGLE POINT ENERGY      -364.436361411779

DIPOLE MOMENT
-------------
                                X             Y             Z
Electronic contribution:      1.17912      -0.13511       0.58457
Nuclear contribution   :     -0.96741      -0.41100      -0.14396
                        -----------------------------------------
Total Dipole Moment    :      0.21171      -0.54611       0.44061
                        -----------------------------------------
Magnitude (a.u.)       :      0.73294
Magnitude (Debye)      :      1.86297

                             ****ORCA TERMINATED NORMALLY****
TOTAL RUN TIME: 0 days 0 hours 12 minutes 59 seconds 722 msec
