                         Program Version 3.0.3 - RELEASE   -
|  1> ! RI-MP2 RIJK def2-TZVP def2-TZVP/C def2-TZVP/JK TIGHTSCF
|  2> % maxcore 2000
|  3> % mp2 density relaxed end
|  4> *xyz 0 1
|  5>  O        0.0487202405     1.3866816607     0.2331098267
|  6>  C        0.0920725490     0.0057832238    -0.0838507039
|  7>  C       -1.2935099418    -0.5664444678    -0.2019492451
|  8>  O       -1.9547915197    -0.8769141949     1.0526811345
|  9>  C       -1.6992262048    -1.9387849153     0.1132753340
| 10>  C       -2.9093385519    -2.2436113276    -0.7753352184
| 11>  O       -3.4707038838    -3.3057264098    -0.8763491802
| 12>  C       -3.1967894666    -0.9779629614    -1.5146960186
| 13>  C       -2.2793991390    -0.0490208792    -1.2184149908
| 14>  H       -0.3680472067     1.4686095832     1.0983678679
| 15>  H        0.6139976636    -0.0698110518    -1.0434467501
| 16>  H        0.6576340293    -0.5721532521     0.6600208167
| 17>  H       -1.0395739267    -2.7347746669     0.4442407460
| 18>  H       -4.0502908394    -0.8745240471    -2.1719670715
| 19>  H       -2.2298042821     0.9629840861    -1.6003978471
| 20> *
| 21>
| 22>                          ****END OF INPUT****

CARTESIAN COORDINATES (ANGSTROEM)
---------------------------------
  O      0.048720    1.386682    0.233110
  C      0.092073    0.005783   -0.083851
  C     -1.293510   -0.566444   -0.201949
  O     -1.954792   -0.876914    1.052681
  C     -1.699226   -1.938785    0.113275
  C     -2.909339   -2.243611   -0.775335
  O     -3.470704   -3.305726   -0.876349
  C     -3.196789   -0.977963   -1.514696
  C     -2.279399   -0.049021   -1.218415
  H     -0.368047    1.468610    1.098368
  H      0.613998   -0.069811   -1.043447
  H      0.657634   -0.572153    0.660021
  H     -1.039574   -2.734775    0.444241
  H     -4.050291   -0.874524   -2.171967
  H     -2.229804    0.962984   -1.600398

 Total Charge           Charge          ....    0
 Multiplicity           Mult            ....    1
 Number of Electrons    NEL             ....   66
 Basis Dimension        Dim             ....  315

ORBITAL ENERGIES
----------------

  NO   OCC          E(Eh)            E(eV)
   0   2.0000     -20.599758      -560.5479
   1   2.0000     -20.580032      -560.0111
   2   2.0000     -20.566109      -559.6323
   3   2.0000     -11.350379      -308.8595
   4   2.0000     -11.322323      -308.0961
   5   2.0000     -11.313612      -307.8590
   6   2.0000     -11.307717      -307.6986
   7   2.0000     -11.279818      -306.9394
   8   2.0000     -11.260440      -306.4121
   9   2.0000      -1.444339       -39.3025
  10   2.0000      -1.403749       -38.1980
  11   2.0000      -1.383645       -37.6509
  12   2.0000      -1.134011       -30.8580
  13   2.0000      -1.013743       -27.5853
  14   2.0000      -0.965562       -26.2743
  15   2.0000      -0.890161       -24.2225
  16   2.0000      -0.802523       -21.8378
  17   2.0000      -0.780521       -21.2391
  18   2.0000      -0.729451       -19.8494
  19   2.0000      -0.697993       -18.9933
  20   2.0000      -0.663138       -18.0449
  21   2.0000      -0.644342       -17.5334
  22   2.0000      -0.632177       -17.2024
  23   2.0000      -0.623537       -16.9673
  24   2.0000      -0.593699       -16.1554
  25   2.0000      -0.583531       -15.8787
  26   2.0000      -0.556668       -15.1477
  27   2.0000      -0.534401       -14.5418
  28   2.0000      -0.508222       -13.8294
  29   2.0000      -0.482501       -13.1295
  30   2.0000      -0.465628       -12.6704
  31   2.0000      -0.418611       -11.3910
  32   2.0000      -0.394617       -10.7381
  33   0.0000       0.063877         1.7382
  34   0.0000       0.134716         3.6658
  35   0.0000       0.149612         4.0711
  36   0.0000       0.165590         4.5059
  37   0.0000       0.168763         4.5923

MULLIKEN ATOMIC CHARGES
-----------------------
   0 O :   -0.467255
   1 C :    0.003234
   2 C :    0.180627
   3 O :   -0.321181
   4 C :   -0.042104
   5 C :    0.204628
   6 O :   -0.256121
   7 C :   -0.148042
   8 C :   -0.197155
   9 H :    0.328120
  10 H :    0.123678
  11 H :    0.124899
  12 H :    0.148564
  13 H :    0.155092
  14 H :    0.163016
Sum of atomic charges:   -0.0000000

LOEWDIN ATOMIC CHARGES
----------------------
   0 O :   -0.035232
   1 C :   -0.302232
   2 C :   -0.289251
   3 O :    0.188895
   4 C :   -0.183168
   5 C :   -0.290291
   6 O :    0.170951
   7 C :   -0.097941
   8 C :   -0.061772
   9 H :    0.182569
  10 H :    0.141171
  11 H :    0.132194
  12 H :    0.145213
  13 H :    0.148262
  14 H :    0.150632

  Mayer bond orders larger than 0.1
B(  0-O ,  1-C ) :   0.8916 B(  0-O ,  9-H ) :   0.8376 B(  1-C ,  2-C ) :   0.9301
B(  1-C , 10-H ) :   0.9190 B(  1-C , 11-H ) :   0.9177 B(  2-C ,  3-O ) :   0.8712
B(  2-C ,  4-C ) :   0.8676 B(  2-C ,  8-C ) :   0.9161 B(  3-O ,  4-C ) :   0.8730
B(  4-C ,  5-C ) :   0.8935 B(  4-C , 12-H ) :   0.9173 B(  5-C ,  6-O ) :   1.9832
B(  5-C ,  7-C ) :   0.9741 B(  7-C ,  8-C ) :   1.6703 B(  7-C , 13-H ) :   0.9151
B(  8-C , 14-H ) :   0.9100

MP2 TOTAL ENERGY:     -457.013979776 Eh
FINAL SINGLE POINT ENERGY      -457.013979776433

DIPOLE MOMENT
-------------
                                X             Y             Z
Electronic contribution:     -3.55514      -2.96400       0.42928
Nuclear contribution   :      4.16042       3.46422      -0.63277
                        -----------------------------------------
Total Dipole Moment    :      0.60528       0.50022      -0.20349
                        -----------------------------------------
Magnitude (a.u.)       :      0.81117
Magnitude (Debye)      :      2.06184

                             ****ORCA TERMINATED NORMALLY****
TOTAL RUN TIME: 0 days 0 hours 15 minutes 6 seconds 647 msec
