                         Program Version 3.0.3 - RELEASE   -
|  1> ! RI-MP2 RIJK def2-TZVP def2-TZVP/C def2-TZVP/JK TIGHTSCF
|  2> % maxcore 2000
|  3> % mp2 density relaxed end
|  4> *xyz 0 1
|  5>  O        0.0251819486    -0.0220161866    -0.0044997936
|  6>  C        0.0161858288     1.2089860979     0.0067653917
|  7>  O        0.8756346892     2.1106027674     0.0137127395
|  8>  C       -1.4161058549     1.8161975841     0.0147838468
|  9>  C       -2.5462062329     1.9011410856    -1.0606665097
| 10>  C       -2.9362161656     2.9275445712     0.0275924389
| 11>  C       -2.5429039751     1.8808080474     1.0951039388
| 12>  N       -1.4780433692     3.3920728970     0.0297303940
| 13>  H       -1.0734406410     3.7999193192     0.8708662947
| 14>  H       -1.0759562181     3.8156609141    -0.8048074474
| 15>  H       -2.2683584461     2.2914509842    -2.0427328500
| 16>  H       -3.1796794254     1.0208767926    -1.1357658093
| 17>  H       -3.7266087372     3.6776231361     0.0358790737
| 18>  H       -3.1761735735     0.9992692928     1.1555307517
| 19>  H       -2.2620408475     2.2525349170     2.0835025503
| 20> *
| 21>
| 22>                          ****END OF INPUT****

CARTESIAN COORDINATES (ANGSTROEM)
---------------------------------
  O      0.025182   -0.022016   -0.004500
  C      0.016186    1.208986    0.006765
  O      0.875635    2.110603    0.013713
  C     -1.416106    1.816198    0.014784
  C     -2.546206    1.901141   -1.060667
  C     -2.936216    2.927545    0.027592
  C     -2.542904    1.880808    1.095104
  N     -1.478043    3.392073    0.029730
  H     -1.073441    3.799919    0.870866
  H     -1.075956    3.815661   -0.804807
  H     -2.268358    2.291451   -2.042733
  H     -3.179679    1.020877   -1.135766
  H     -3.726609    3.677623    0.035879
  H     -3.176174    0.999269    1.155531
  H     -2.262041    2.252535    2.083503

 Total Charge           Charge          ....    0
 Multiplicity           Mult            ....    1
 Number of Electrons    NEL             ....   60
 Basis Dimension        Dim             ....  290

ORBITAL ENERGIES
----------------

  NO   OCC          E(Eh)            E(eV)
   0   2.0000     -20.464847      -556.8768
   1   2.0000     -20.461082      -556.7744
   2   2.0000     -15.696972      -427.1363
   3   2.0000     -11.356879      -309.0364
   4   2.0000     -11.333000      -308.3866
   5   2.0000     -11.315214      -307.9026
   6   2.0000     -11.292407      -307.2820
   7   2.0000     -11.292396      -307.2817
   8   2.0000      -1.385255       -37.6947
   9   2.0000      -1.343823       -36.5673
  10   2.0000      -1.256574       -34.1931
  11   2.0000      -1.137145       -30.9433
  12   2.0000      -0.980390       -26.6778
  13   2.0000      -0.944195       -25.6929
  14   2.0000      -0.845283       -23.0013
  15   2.0000      -0.782534       -21.2938
  16   2.0000      -0.779214       -21.2035
  17   2.0000      -0.701989       -19.1021
  18   2.0000      -0.641810       -17.4645
  19   2.0000      -0.605398       -16.4737
  20   2.0000      -0.597754       -16.2657
  21   2.0000      -0.578568       -15.7436
  22   2.0000      -0.564986       -15.3741
  23   2.0000      -0.553838       -15.0707
  24   2.0000      -0.552843       -15.0436
  25   2.0000      -0.535590       -14.5742
  26   2.0000      -0.494142       -13.4463
  27   2.0000      -0.391681       -10.6582
  28   2.0000      -0.368171       -10.0184
  29   2.0000      -0.366240        -9.9659
  30   0.0000       0.094046         2.5591
  31   0.0000       0.130868         3.5611
  32   0.0000       0.131255         3.5716
  33   0.0000       0.140329         3.8186
  34   0.0000       0.172900         4.7048

MULLIKEN ATOMIC CHARGES
-----------------------
   0 O :   -0.427841
   1 C :    0.274457
   2 O :   -0.482094
   3 C :   -0.089351
   4 C :   -0.178291
   5 C :   -0.125234
   6 C :   -0.178268
   7 N :   -0.152160
   8 H :    0.285625
   9 H :    0.285635
  10 H :    0.147655
  11 H :    0.160628
  12 H :    0.170955
  13 H :    0.160629
  14 H :    0.147654
Sum of atomic charges:    0.0000000

LOEWDIN ATOMIC CHARGES
----------------------
   0 O :    0.010497
   1 C :   -0.693589
   2 O :   -0.035078
   3 C :   -0.129095
   4 C :   -0.164683
   5 C :   -0.187044
   6 C :   -0.164680
   7 N :    0.252847
   8 H :    0.201729
   9 H :    0.201732
  10 H :    0.137806
  11 H :    0.149660
  12 H :    0.132432
  13 H :    0.149660
  14 H :    0.137805

  Mayer bond orders larger than 0.1
B(  0-O ,  1-C ) :   1.8048 B(  1-C ,  2-O ) :   1.6878 B(  1-C ,  3-C ) :   0.8309
B(  3-C ,  4-C ) :   0.8386 B(  3-C ,  6-C ) :   0.8386 B(  3-C ,  7-N ) :   0.7044
B(  4-C ,  5-C ) :   0.9154 B(  4-C , 10-H ) :   0.9185 B(  4-C , 11-H ) :   0.9383
B(  5-C ,  6-C ) :   0.9154 B(  5-C ,  7-N ) :   0.8247 B(  5-C , 12-H ) :   0.9017
B(  6-C , 13-H ) :   0.9383 B(  6-C , 14-H ) :   0.9185 B(  7-N ,  8-H ) :   0.8421
B(  7-N ,  9-H ) :   0.8421

MP2 TOTAL ENERGY:     -399.092411218 Eh
FINAL SINGLE POINT ENERGY      -399.092411217604

DIPOLE MOMENT
-------------
                                X             Y             Z
Electronic contribution:      4.45563      -1.54313      -0.02146
Nuclear contribution   :     -7.75978       4.20415       0.05167
                        -----------------------------------------
Total Dipole Moment    :     -3.30415       2.66101       0.03021
                        -----------------------------------------
Magnitude (a.u.)       :      4.24256
Magnitude (Debye)      :     10.78374

                             ****ORCA TERMINATED NORMALLY****
TOTAL RUN TIME: 0 days 0 hours 11 minutes 11 seconds 35 msec
