                         Program Version 3.0.3 - RELEASE   -
|  1> ! RI-MP2 RIJK def2-TZVP def2-TZVP/C def2-TZVP/JK TIGHTSCF
|  2> % maxcore 2000
|  3> % mp2 density relaxed end
|  4> *xyz 0 1
|  5>  O        0.0279050272    -0.0817147319     0.0454674510
|  6>  C       -0.0335934526     1.1254351572     0.0493415908
|  7>  C       -1.3228275103     1.9314114797     0.0676376225
|  8>  C       -1.2040035806     3.2788620662     0.7968987788
|  9>  C        0.0582782346     4.0031087307     0.3707590570
| 10>  C        1.1371172338     3.2841082335     0.0030763585
| 11>  N        1.1176673641     1.9035300552    -0.0375746148
| 12>  C        0.1154003939     5.4194059763     0.4081860542
| 13>  N        0.1267484841     6.5785148800     0.4517194699
| 14>  H       -1.5871067574     2.1053683674    -0.9843118368
| 15>  H       -2.1032984723     1.3009567440     0.4961724767
| 16>  H       -2.0856075573     3.8914983177     0.5928758987
| 17>  H       -1.1812167044     3.1215627830     1.8839432327
| 18>  H        2.0776277179     3.7485619562    -0.2667049062
| 19>  H        1.9762742893     1.3913198547    -0.1773827331
| 20> *
| 21>
| 22>                          ****END OF INPUT****

CARTESIAN COORDINATES (ANGSTROEM)
---------------------------------
  O      0.027905   -0.081715    0.045467
  C     -0.033593    1.125435    0.049342
  C     -1.322828    1.931411    0.067638
  C     -1.204004    3.278862    0.796899
  C      0.058278    4.003109    0.370759
  C      1.137117    3.284108    0.003076
  N      1.117667    1.903530   -0.037575
  C      0.115400    5.419406    0.408186
  N      0.126748    6.578515    0.451719
  H     -1.587107    2.105368   -0.984312
  H     -2.103298    1.300957    0.496172
  H     -2.085608    3.891498    0.592876
  H     -1.181217    3.121563    1.883943
  H      2.077628    3.748562   -0.266705
  H      1.976274    1.391320   -0.177383

 Total Charge           Charge          ....    0
 Multiplicity           Mult            ....    1
 Number of Electrons    NEL             ....   64
 Basis Dimension        Dim             ....  315

ORBITAL ENERGIES
----------------

  NO   OCC          E(Eh)            E(eV)
   0   2.0000     -20.553813      -559.2977
   1   2.0000     -15.631819      -425.3634
   2   2.0000     -15.572015      -423.7361
   3   2.0000     -11.382951      -309.7458
   4   2.0000     -11.333686      -308.4053
   5   2.0000     -11.282823      -307.0212
   6   2.0000     -11.278910      -306.9147
   7   2.0000     -11.272202      -306.7322
   8   2.0000     -11.268005      -306.6180
   9   2.0000      -1.419727       -38.6327
  10   2.0000      -1.293859       -35.2077
  11   2.0000      -1.220413       -33.2091
  12   2.0000      -1.125042       -30.6139
  13   2.0000      -1.063102       -28.9285
  14   2.0000      -0.930176       -25.3114
  15   2.0000      -0.897933       -24.4340
  16   2.0000      -0.819175       -22.2909
  17   2.0000      -0.727870       -19.8064
  18   2.0000      -0.713109       -19.4047
  19   2.0000      -0.682624       -18.5751
  20   2.0000      -0.666891       -18.1470
  21   2.0000      -0.631509       -17.1842
  22   2.0000      -0.601913       -16.3789
  23   2.0000      -0.575911       -15.6713
  24   2.0000      -0.574237       -15.6258
  25   2.0000      -0.560467       -15.2511
  26   2.0000      -0.542458       -14.7610
  27   2.0000      -0.504340       -13.7238
  28   2.0000      -0.483255       -13.1500
  29   2.0000      -0.463971       -12.6253
  30   2.0000      -0.451268       -12.2796
  31   2.0000      -0.350039        -9.5251
  32   0.0000       0.082016         2.2318
  33   0.0000       0.107759         2.9323
  34   0.0000       0.131547         3.5796
  35   0.0000       0.153760         4.1840
  36   0.0000       0.162091         4.4107

MULLIKEN ATOMIC CHARGES
-----------------------
   0 O :   -0.302256
   1 C :    0.218461
   2 C :   -0.217614
   3 C :   -0.248046
   4 C :    0.118374
   5 C :   -0.052231
   6 N :   -0.271132
   7 C :   -0.216371
   8 N :   -0.059387
   9 H :    0.147515
  10 H :    0.157329
  11 H :    0.159682
  12 H :    0.145207
  13 H :    0.165748
  14 H :    0.254720
Sum of atomic charges:    0.0000000

LOEWDIN ATOMIC CHARGES
----------------------
   0 O :    0.120698
   1 C :   -0.415072
   2 C :   -0.209163
   3 C :   -0.197856
   4 C :   -0.189212
   5 C :   -0.149441
   6 N :    0.157124
   7 C :   -0.170290
   8 N :    0.065627
   9 H :    0.162953
  10 H :    0.156472
  11 H :    0.155232
  12 H :    0.154492
  13 H :    0.156054
  14 H :    0.202380

  Mayer bond orders larger than 0.1
B(  0-O ,  1-C ) :   2.0198 B(  1-C ,  2-C ) :   0.9345 B(  1-C ,  6-N ) :   1.0539
B(  2-C ,  3-C ) :   0.8934 B(  2-C ,  9-H ) :   0.9074 B(  2-C , 10-H ) :   0.9254
B(  3-C ,  4-C ) :   0.8932 B(  3-C , 11-H ) :   0.9215 B(  3-C , 12-H ) :   0.9214
B(  4-C ,  5-C ) :   1.6521 B(  4-C ,  7-C ) :   0.9237 B(  5-C ,  6-N ) :   1.0774
B(  5-C , 13-H ) :   0.9039 B(  6-N , 14-H ) :   0.8574 B(  7-C ,  8-N ) :   2.8494

MP2 TOTAL ENERGY:     -416.165376562 Eh
FINAL SINGLE POINT ENERGY      -416.165376561960

DIPOLE MOMENT
-------------
                                X             Y             Z
Electronic contribution:      2.91533       1.37952      -0.28117
Nuclear contribution   :     -2.71384      -2.11435       0.13451
                        -----------------------------------------
Total Dipole Moment    :      0.20148      -0.73483      -0.14666
                        -----------------------------------------
Magnitude (a.u.)       :      0.77594
Magnitude (Debye)      :      1.97228

                             ****ORCA TERMINATED NORMALLY****
TOTAL RUN TIME: 0 days 0 hours 15 minutes 51 seconds 419 msec
