                         Program Version 3.0.3 - RELEASE   -
|  1> ! RI-MP2 RIJK def2-TZVP def2-TZVP/C def2-TZVP/JK TIGHTSCF
|  2> % maxcore 2000
|  3> % mp2 density relaxed end
|  4> *xyz 0 1
|  5>  O        0.0177440806    -0.0504844423     0.1668471539
|  6>  C       -0.0032939761     1.1364272682     0.1260893739
|  7>  C       -1.0735391392     2.2500805418     0.0211524069
|  8>  C       -0.7281908862     3.0313866491     1.3078940621
|  9>  N        0.7743532709     2.9910266624     1.2634748329
| 10>  C        1.0195009063     2.2943958510    -0.0028539591
| 11>  C       -0.0630327973     2.9176099270    -0.9908893603
| 12>  C       -0.0792665641     2.3875308057    -2.3393821644
| 13>  N       -0.0736638930     1.9707720717    -3.4181887892
| 14>  H       -2.1162078218     2.0651124952    -0.2221232363
| 15>  H       -1.1179054576     4.0539996466     1.2896651772
| 16>  H       -1.1088079765     2.5312796754     2.2036420438
| 17>  H        1.1586524825     3.9290730182     1.2357455377
| 18>  H        2.0623286909     2.1631386353    -0.2776799211
| 19>  H       -0.0764116393     4.0104714145    -1.0023748679
| 20> *
| 21>
| 22>                          ****END OF INPUT****

CARTESIAN COORDINATES (ANGSTROEM)
---------------------------------
  O      0.017744   -0.050484    0.166847
  C     -0.003294    1.136427    0.126089
  C     -1.073539    2.250081    0.021152
  C     -0.728191    3.031387    1.307894
  N      0.774353    2.991027    1.263475
  C      1.019501    2.294396   -0.002854
  C     -0.063033    2.917610   -0.990889
  C     -0.079267    2.387531   -2.339382
  N     -0.073664    1.970772   -3.418189
  H     -2.116208    2.065112   -0.222123
  H     -1.117905    4.054000    1.289665
  H     -1.108808    2.531280    2.203642
  H      1.158652    3.929073    1.235746
  H      2.062329    2.163139   -0.277680
  H     -0.076412    4.010471   -1.002375

 Total Charge           Charge          ....    0
 Multiplicity           Mult            ....    1
 Number of Electrons    NEL             ....   64
 Basis Dimension        Dim             ....  315

ORBITAL ENERGIES
----------------

  NO   OCC          E(Eh)            E(eV)
   0   2.0000     -20.578495      -559.9693
   1   2.0000     -15.589857      -424.2216
   2   2.0000     -15.583415      -424.0463
   3   2.0000     -11.359879      -309.1180
   4   2.0000     -11.313829      -307.8649
   5   2.0000     -11.311075      -307.7900
   6   2.0000     -11.297628      -307.4241
   7   2.0000     -11.289460      -307.2018
   8   2.0000     -11.285251      -307.0873
   9   2.0000      -1.424930       -38.7743
  10   2.0000      -1.297619       -35.3100
  11   2.0000      -1.229286       -33.4506
  12   2.0000      -1.121340       -30.5132
  13   2.0000      -1.016848       -27.6698
  14   2.0000      -0.950013       -25.8512
  15   2.0000      -0.841479       -22.8978
  16   2.0000      -0.776997       -21.1432
  17   2.0000      -0.750054       -20.4100
  18   2.0000      -0.704636       -19.1741
  19   2.0000      -0.692062       -18.8320
  20   2.0000      -0.646376       -17.5888
  21   2.0000      -0.609293       -16.5797
  22   2.0000      -0.586896       -15.9702
  23   2.0000      -0.572210       -15.5706
  24   2.0000      -0.562211       -15.2985
  25   2.0000      -0.560806       -15.2603
  26   2.0000      -0.549878       -14.9629
  27   2.0000      -0.526604       -14.3296
  28   2.0000      -0.481000       -13.0887
  29   2.0000      -0.467390       -12.7183
  30   2.0000      -0.429998       -11.7008
  31   2.0000      -0.391820       -10.6620
  32   0.0000       0.105704         2.8763
  33   0.0000       0.118064         3.2127
  34   0.0000       0.138106         3.7581
  35   0.0000       0.151541         4.1236
  36   0.0000       0.155797         4.2395

MULLIKEN ATOMIC CHARGES
-----------------------
   0 O :   -0.209241
   1 C :    0.048539
   2 C :   -0.009686
   3 C :   -0.186335
   4 N :   -0.348215
   5 C :    0.062698
   6 C :   -0.078096
   7 C :   -0.233089
   8 N :   -0.039207
   9 H :    0.168207
  10 H :    0.143514
  11 H :    0.141347
  12 H :    0.220471
  13 H :    0.164305
  14 H :    0.154789
Sum of atomic charges:    0.0000000

LOEWDIN ATOMIC CHARGES
----------------------
   0 O :    0.201905
   1 C :   -0.269439
   2 C :   -0.142265
   3 C :   -0.235798
   4 N :    0.008895
   5 C :   -0.190096
   6 C :   -0.176419
   7 C :   -0.172930
   8 N :    0.076059
   9 H :    0.149781
  10 H :    0.129478
  11 H :    0.136684
  12 H :    0.168785
  13 H :    0.145069
  14 H :    0.170292

  Mayer bond orders larger than 0.1
B(  0-O ,  1-C ) :   2.0730 B(  1-C ,  2-C ) :   0.8314 B(  1-C ,  5-C ) :   0.7912
B(  2-C ,  3-C ) :   0.8886 B(  2-C ,  5-C ) :  -0.1064 B(  2-C ,  6-C ) :   0.8471
B(  2-C ,  9-H ) :   0.8939 B(  3-C ,  4-N ) :   0.9272 B(  3-C , 10-H ) :   0.9348
B(  3-C , 11-H ) :   0.9216 B(  4-N ,  5-C ) :   0.9635 B(  4-N , 12-H ) :   0.8747
B(  5-C ,  6-C ) :   0.8659 B(  5-C , 13-H ) :   0.9001 B(  6-C ,  7-C ) :   0.9563
B(  6-C , 14-H ) :   0.8924 B(  7-C ,  8-N ) :   2.8582

MP2 TOTAL ENERGY:     -416.092722500 Eh
FINAL SINGLE POINT ENERGY      -416.092722499815

DIPOLE MOMENT
-------------
                                X             Y             Z
Electronic contribution:      0.78246      -4.02083      -4.01940
Nuclear contribution   :     -1.01580       5.76858       5.18569
                        -----------------------------------------
Total Dipole Moment    :     -0.23333       1.74775       1.16629
                        -----------------------------------------
Magnitude (a.u.)       :      2.11408
Magnitude (Debye)      :      5.37356

                             ****ORCA TERMINATED NORMALLY****
TOTAL RUN TIME: 0 days 0 hours 16 minutes 31 seconds 377 msec
