                         Program Version 3.0.3 - RELEASE   -
|  1> ! RI-MP2 RIJK def2-TZVP def2-TZVP/C def2-TZVP/JK TIGHTSCF
|  2> % maxcore 2000
|  3> % mp2 density relaxed end
|  4> *xyz 0 1
|  5>  O        0.0697670099     1.3611362044    -0.1803907842
|  6>  C        0.0243753561     0.0413749610     0.3188306625
|  7>  C       -1.3600348347    -0.5546462772     0.0945205618
|  8>  O       -1.6805548360    -0.5616306286    -1.3315413858
|  9>  C       -1.8024098207    -2.0069003113    -1.3677477119
| 10>  C       -1.4988382615    -2.0563317277     0.1083796863
| 11>  N       -1.3806634713    -2.9136911608     1.0270012532
| 12>  O       -1.5891829407    -4.2102261202     0.5321483697
| 13>  H       -0.2173897395     1.3097641560    -1.1004441239
| 14>  H        0.7803546234    -0.6034882969    -0.1556852683
| 15>  H        0.2428969310     0.0863453735     1.3905944164
| 16>  H       -2.1144597505     0.0052911546     0.6608799863
| 17>  H       -2.8075739192    -2.3361520317    -1.6575483959
| 18>  H       -1.0637114769    -2.4810452994    -2.0254883522
| 19>  H       -1.4796472496    -4.7528428756     1.3208308459
| 20> *
| 21>
| 22>                          ****END OF INPUT****

CARTESIAN COORDINATES (ANGSTROEM)
---------------------------------
  O      0.069767    1.361136   -0.180391
  C      0.024375    0.041375    0.318831
  C     -1.360035   -0.554646    0.094521
  O     -1.680555   -0.561631   -1.331541
  C     -1.802410   -2.006900   -1.367748
  C     -1.498838   -2.056332    0.108380
  N     -1.380663   -2.913691    1.027001
  O     -1.589183   -4.210226    0.532148
  H     -0.217390    1.309764   -1.100444
  H      0.780355   -0.603488   -0.155685
  H      0.242897    0.086345    1.390594
  H     -2.114460    0.005291    0.660880
  H     -2.807574   -2.336152   -1.657548
  H     -1.063711   -2.481045   -2.025488
  H     -1.479647   -4.752843    1.320831

 Total Charge           Charge          ....    0
 Multiplicity           Mult            ....    1
 Number of Electrons    NEL             ....   62
 Basis Dimension        Dim             ....  290

ORBITAL ENERGIES
----------------

  NO   OCC          E(Eh)            E(eV)
   0   2.0000     -20.610111      -560.8296
   1   2.0000     -20.575241      -559.8808
   2   2.0000     -20.561157      -559.4975
   3   2.0000     -15.637253      -425.5113
   4   2.0000     -11.307393      -307.6898
   5   2.0000     -11.306166      -307.6564
   6   2.0000     -11.296408      -307.3909
   7   2.0000     -11.288009      -307.1623
   8   2.0000      -1.438500       -39.1436
   9   2.0000      -1.406982       -38.2859
  10   2.0000      -1.364804       -37.1382
  11   2.0000      -1.173793       -31.9405
  12   2.0000      -1.015724       -27.6393
  13   2.0000      -0.968488       -26.3539
  14   2.0000      -0.881391       -23.9839
  15   2.0000      -0.751531       -20.4502
  16   2.0000      -0.724935       -19.7265
  17   2.0000      -0.717917       -19.5355
  18   2.0000      -0.701066       -19.0770
  19   2.0000      -0.660536       -17.9741
  20   2.0000      -0.637943       -17.3593
  21   2.0000      -0.602864       -16.4048
  22   2.0000      -0.594000       -16.1636
  23   2.0000      -0.586634       -15.9631
  24   2.0000      -0.561744       -15.2858
  25   2.0000      -0.524627       -14.2758
  26   2.0000      -0.506868       -13.7926
  27   2.0000      -0.476342       -12.9619
  28   2.0000      -0.453498       -12.3403
  29   2.0000      -0.441026       -12.0009
  30   2.0000      -0.398268       -10.8374
  31   0.0000       0.131567         3.5801
  32   0.0000       0.136010         3.7010
  33   0.0000       0.147255         4.0070
  34   0.0000       0.167343         4.5536
  35   0.0000       0.174787         4.7562

MULLIKEN ATOMIC CHARGES
-----------------------
   0 O :   -0.472383
   1 C :   -0.028115
   2 C :    0.101698
   3 O :   -0.354662
   4 C :   -0.012724
   5 C :   -0.065325
   6 N :   -0.077278
   7 O :   -0.358413
   8 H :    0.330520
   9 H :    0.100586
  10 H :    0.119761
  11 H :    0.116741
  12 H :    0.129739
  13 H :    0.126372
  14 H :    0.343484
Sum of atomic charges:   -0.0000000

LOEWDIN ATOMIC CHARGES
----------------------
   0 O :   -0.037157
   1 C :   -0.326854
   2 C :   -0.247013
   3 O :    0.125603
   4 C :   -0.232519
   5 C :   -0.270723
   6 N :    0.030770
   7 O :   -0.067941
   8 H :    0.180715
   9 H :    0.122229
  10 H :    0.135681
  11 H :    0.147482
  12 H :    0.133626
  13 H :    0.132388
  14 H :    0.173713

  Mayer bond orders larger than 0.1
B(  0-O ,  1-C ) :   0.9244 B(  0-O ,  8-H ) :   0.8315 B(  1-C ,  2-C ) :   0.9349
B(  1-C ,  9-H ) :   0.9105 B(  1-C , 10-H ) :   0.9258 B(  2-C ,  3-O ) :   0.9029
B(  2-C ,  5-C ) :   0.9534 B(  2-C , 11-H ) :   0.8994 B(  3-O ,  4-C ) :   0.9348
B(  4-C ,  5-C ) :   0.9935 B(  4-C , 12-H ) :   0.9037 B(  4-C , 13-H ) :   0.9041
B(  5-C ,  6-N ) :   1.8647 B(  6-N ,  7-O ) :   0.8144 B(  7-O , 14-H ) :   0.8404

MP2 TOTAL ENERGY:     -436.177954855 Eh
FINAL SINGLE POINT ENERGY      -436.177954855013

DIPOLE MOMENT
-------------
                                X             Y             Z
Electronic contribution:     -1.34430      -1.61303       0.73335
Nuclear contribution   :      1.20931       0.69899      -0.74248
                        -----------------------------------------
Total Dipole Moment    :     -0.13499      -0.91403      -0.00913
                        -----------------------------------------
Magnitude (a.u.)       :      0.92399
Magnitude (Debye)      :      2.34860

                             ****ORCA TERMINATED NORMALLY****
TOTAL RUN TIME: 0 days 0 hours 9 minutes 12 seconds 340 msec
