                         Program Version 3.0.3 - RELEASE   -
|  1> ! RI-MP2 RIJK def2-TZVP def2-TZVP/C def2-TZVP/JK TIGHTSCF
|  2> % maxcore 2000
|  3> % mp2 density relaxed end
|  4> *xyz 0 1
|  5>  C       -0.2767484653     1.4252324559    -0.0845724676
|  6>  C        0.4108975846     0.0774530487    -0.1183573478
|  7>  C        1.8917506360    -0.0523570058     0.1446624831
|  8>  C        0.8886356403    -0.6405946952     1.1234763911
|  9>  C        0.7139360695    -0.0717213815     2.5166972869
| 10>  C        1.6418757302    -0.6367131931     3.5984912803
| 11>  N        2.8557218210    -1.0768326561     3.1592344644
| 12>  O        1.3223317882    -0.6579705079     4.7709959927
| 13>  H        0.1546317314     2.0908942132     0.6682562922
| 14>  H       -0.1845722955     1.9275321240    -1.0535857160
| 15>  H       -1.3450070753     1.3224610614     0.1360084264
| 16>  H        0.0250044473    -0.5837197936    -0.8903517823
| 17>  H        2.4803376366    -0.7182298729    -0.4781633256
| 18>  H        2.4177562450     0.8473629642     0.4523755445
| 19>  H        0.7858193838    -1.7225300212     1.0850167537
| 20>  H        0.8683975753     1.0136758425     2.5133050922
| 21>  H       -0.3034063545    -0.2331268370     2.8854872367
| 22>  H        3.1013303770    -1.0722124535     2.1851497599
| 23>  H        3.5054939044    -1.4386287720     3.8370964151
| 24> *
| 25>
| 26>                          ****END OF INPUT****

CARTESIAN COORDINATES (ANGSTROEM)
---------------------------------
  C     -0.276748    1.425232   -0.084572
  C      0.410898    0.077453   -0.118357
  C      1.891751   -0.052357    0.144662
  C      0.888636   -0.640595    1.123476
  C      0.713936   -0.071721    2.516697
  C      1.641876   -0.636713    3.598491
  N      2.855722   -1.076833    3.159234
  O      1.322332   -0.657971    4.770996
  H      0.154632    2.090894    0.668256
  H     -0.184572    1.927532   -1.053586
  H     -1.345007    1.322461    0.136008
  H      0.025004   -0.583720   -0.890352
  H      2.480338   -0.718230   -0.478163
  H      2.417756    0.847363    0.452376
  H      0.785819   -1.722530    1.085017
  H      0.868398    1.013676    2.513305
  H     -0.303406   -0.233127    2.885487
  H      3.101330   -1.072212    2.185150
  H      3.505494   -1.438629    3.837096

 Total Charge           Charge          ....    0
 Multiplicity           Mult            ....    1
 Number of Electrons    NEL             ....   62
 Basis Dimension        Dim             ....  314

ORBITAL ENERGIES
----------------

  NO   OCC          E(Eh)            E(eV)
   0   2.0000     -20.508644      -558.0686
   1   2.0000     -15.576246      -423.8512
   2   2.0000     -11.344717      -308.7054
   3   2.0000     -11.246424      -306.0308
   4   2.0000     -11.244329      -305.9737
   5   2.0000     -11.240290      -305.8638
   6   2.0000     -11.236668      -305.7653
   7   2.0000     -11.226828      -305.4975
   8   2.0000      -1.373974       -37.3877
   9   2.0000      -1.206348       -32.8264
  10   2.0000      -1.162078       -31.6217
  11   2.0000      -1.011760       -27.5314
  12   2.0000      -0.967342       -26.3227
  13   2.0000      -0.827936       -22.5293
  14   2.0000      -0.798506       -21.7284
  15   2.0000      -0.765092       -20.8192
  16   2.0000      -0.725647       -19.7459
  17   2.0000      -0.688153       -18.7256
  18   2.0000      -0.646257       -17.5856
  19   2.0000      -0.617275       -16.7969
  20   2.0000      -0.592530       -16.1236
  21   2.0000      -0.585207       -15.9243
  22   2.0000      -0.567775       -15.4499
  23   2.0000      -0.554910       -15.0999
  24   2.0000      -0.534886       -14.5550
  25   2.0000      -0.516793       -14.0626
  26   2.0000      -0.492480       -13.4011
  27   2.0000      -0.438348       -11.9281
  28   2.0000      -0.418683       -11.3929
  29   2.0000      -0.408573       -11.1178
  30   2.0000      -0.396955       -10.8017
  31   0.0000       0.126389         3.4392
  32   0.0000       0.147125         4.0035
  33   0.0000       0.150108         4.0846
  34   0.0000       0.167079         4.5464
  35   0.0000       0.176136         4.7929

MULLIKEN ATOMIC CHARGES
-----------------------
   0 C :   -0.397963
   1 C :   -0.040863
   2 C :   -0.347106
   3 C :   -0.163885
   4 C :   -0.194277
   5 C :    0.233233
   6 N :   -0.467966
   7 O :   -0.348725
   8 H :    0.121489
   9 H :    0.138411
  10 H :    0.135522
  11 H :    0.122561
  12 H :    0.140966
  13 H :    0.139695
  14 H :    0.136792
  15 H :    0.123465
  16 H :    0.143537
  17 H :    0.270653
  18 H :    0.254460
Sum of atomic charges:    0.0000000

LOEWDIN ATOMIC CHARGES
----------------------
   0 C :   -0.293308
   1 C :   -0.232854
   2 C :   -0.226915
   3 C :   -0.220715
   4 C :   -0.213223
   5 C :   -0.477623
   6 N :   -0.013529
   7 O :    0.075947
   8 H :    0.123688
   9 H :    0.127415
  10 H :    0.127227
  11 H :    0.149342
  12 H :    0.129823
  13 H :    0.135896
  14 H :    0.151928
  15 H :    0.155871
  16 H :    0.157483
  17 H :    0.171850
  18 H :    0.171697

  Mayer bond orders larger than 0.1
B(  0-C ,  1-C ) :   0.9183 B(  0-C ,  8-H ) :   0.9365 B(  0-C ,  9-H ) :   0.9374
B(  0-C , 10-H ) :   0.9383 B(  1-C ,  2-C ) :   0.8805 B(  1-C ,  3-C ) :   0.8522
B(  1-C , 11-H ) :   0.9298 B(  2-C ,  3-C ) :   0.8972 B(  2-C , 12-H ) :   0.9265
B(  2-C , 13-H ) :   0.9242 B(  3-C ,  4-C ) :   0.8713 B(  3-C , 14-H ) :   0.9295
B(  4-C ,  5-C ) :   0.9275 B(  4-C , 15-H ) :   0.9101 B(  4-C , 16-H ) :   0.9244
B(  5-C ,  6-N ) :   1.1592 B(  5-C ,  7-O ) :   2.0076 B(  6-N , 17-H ) :   0.8612
B(  6-N , 18-H ) :   0.8603

MP2 TOTAL ENERGY:     -364.469208101 Eh
FINAL SINGLE POINT ENERGY      -364.469208100596

DIPOLE MOMENT
-------------
                                X             Y             Z
Electronic contribution:      2.12701      -3.47557       7.74968
Nuclear contribution   :     -1.60267       3.42616      -9.21632
                        -----------------------------------------
Total Dipole Moment    :      0.52433      -0.04942      -1.46664
                        -----------------------------------------
Magnitude (a.u.)       :      1.55833
Magnitude (Debye)      :      3.96096

                             ****ORCA TERMINATED NORMALLY****
TOTAL RUN TIME: 0 days 0 hours 12 minutes 30 seconds 651 msec
