                         Program Version 3.0.3 - RELEASE   -
|  1> ! RI-MP2 RIJK def2-TZVP def2-TZVP/C def2-TZVP/JK TIGHTSCF
|  2> % maxcore 2000
|  3> % mp2 density relaxed end
|  4> *xyz 0 1
|  5>  O       -0.0340196396    -0.0117198127    -0.0842157916
|  6>  C       -0.0120477495     1.1939415637     0.0042630285
|  7>  C       -1.2757982961     2.0244349117    -0.0263907257
|  8>  N       -1.5697005922     2.8682373530     1.1671756175
|  9>  C       -1.0796165953     3.5019221305    -0.0607843384
| 10>  C        0.3778145379     3.9578617278    -0.0574481877
| 11>  C        1.1804653202     3.1929986171     1.0295472213
| 12>  C        1.2689208054     2.0129805910     0.0143792464
| 13>  C        1.1509255986     3.1058995819    -1.1074222781
| 14>  H       -2.1142676026     1.5545036742    -0.5308783495
| 15>  H       -2.5791221382     2.9713672152     1.2389431672
| 16>  H       -1.7738405847     4.0936061877    -0.6519288779
| 17>  H        0.4635484666     5.0458070682    -0.0974348464
| 18>  H        2.1666345825     3.6418554369     1.1707249660
| 19>  H        0.7024956143     3.0184734350     1.9918946903
| 20>  H        2.1340134830     1.3498361559     0.0243084677
| 21>  H        0.6391679463     2.8422570517    -2.0374174108
| 22>  H        2.1339620236     3.5241146411    -1.3372960988
| 23> *
| 24>
| 25>                          ****END OF INPUT****

CARTESIAN COORDINATES (ANGSTROEM)
---------------------------------
  O     -0.034020   -0.011720   -0.084216
  C     -0.012048    1.193942    0.004263
  C     -1.275798    2.024435   -0.026391
  N     -1.569701    2.868237    1.167176
  C     -1.079617    3.501922   -0.060784
  C      0.377815    3.957862   -0.057448
  C      1.180465    3.192999    1.029547
  C      1.268921    2.012981    0.014379
  C      1.150926    3.105900   -1.107422
  H     -2.114268    1.554504   -0.530878
  H     -2.579122    2.971367    1.238943
  H     -1.773841    4.093606   -0.651929
  H      0.463548    5.045807   -0.097435
  H      2.166635    3.641855    1.170725
  H      0.702496    3.018473    1.991895
  H      2.134013    1.349836    0.024308
  H      0.639168    2.842257   -2.037417
  H      2.133962    3.524115   -1.337296

 Total Charge           Charge          ....    0
 Multiplicity           Mult            ....    1
 Number of Electrons    NEL             ....   66
 Basis Dimension        Dim             ....  333

ORBITAL ENERGIES
----------------

  NO   OCC          E(Eh)            E(eV)
   0   2.0000     -20.542727      -558.9960
   1   2.0000     -15.578585      -423.9149
   2   2.0000     -11.327168      -308.2279
   3   2.0000     -11.278281      -306.8976
   4   2.0000     -11.271173      -306.7042
   5   2.0000     -11.246931      -306.0445
   6   2.0000     -11.243186      -305.9426
   7   2.0000     -11.242271      -305.9177
   8   2.0000     -11.232557      -305.6534
   9   2.0000      -1.385917       -37.7127
  10   2.0000      -1.284332       -34.9484
  11   2.0000      -1.155150       -31.4332
  12   2.0000      -0.972124       -26.4528
  13   2.0000      -0.943642       -25.6778
  14   2.0000      -0.908800       -24.7297
  15   2.0000      -0.846430       -23.0325
  16   2.0000      -0.786830       -21.4107
  17   2.0000      -0.730432       -19.8761
  18   2.0000      -0.700981       -19.0747
  19   2.0000      -0.669508       -18.2182
  20   2.0000      -0.641542       -17.4572
  21   2.0000      -0.623411       -16.9639
  22   2.0000      -0.590119       -16.0580
  23   2.0000      -0.570226       -15.5166
  24   2.0000      -0.556256       -15.1365
  25   2.0000      -0.518555       -14.1106
  26   2.0000      -0.501118       -13.6361
  27   2.0000      -0.492343       -13.3973
  28   2.0000      -0.470335       -12.7985
  29   2.0000      -0.451091       -12.2748
  30   2.0000      -0.445592       -12.1252
  31   2.0000      -0.412572       -11.2266
  32   2.0000      -0.386046       -10.5049
  33   0.0000       0.121684         3.3112
  34   0.0000       0.135039         3.6746
  35   0.0000       0.149355         4.0642
  36   0.0000       0.162992         4.4352
  37   0.0000       0.174664         4.7529

MULLIKEN ATOMIC CHARGES
-----------------------
   0 O :   -0.266291
   1 C :    0.071234
   2 C :   -0.044251
   3 N :   -0.374937
   4 C :   -0.176120
   5 C :    0.116331
   6 C :   -0.336313
   7 C :    0.081619
   8 C :   -0.353434
   9 H :    0.136504
  10 H :    0.222574
  11 H :    0.128784
  12 H :    0.127130
  13 H :    0.126956
  14 H :    0.155003
  15 H :    0.125844
  16 H :    0.129129
  17 H :    0.130236
Sum of atomic charges:   -0.0000000

LOEWDIN ATOMIC CHARGES
----------------------
   0 O :    0.157547
   1 C :   -0.291772
   2 C :   -0.202151
   3 N :    0.018592
   4 C :   -0.230555
   5 C :   -0.201025
   6 C :   -0.185554
   7 C :   -0.175181
   8 C :   -0.179248
   9 H :    0.144803
  10 H :    0.171916
  11 H :    0.140597
  12 H :    0.139415
  13 H :    0.140590
  14 H :    0.136425
  15 H :    0.144979
  16 H :    0.130689
  17 H :    0.139932

  Mayer bond orders larger than 0.1
B(  0-O ,  1-C ) :   2.0116 B(  1-C ,  2-C ) :   0.9369 B(  1-C ,  7-C ) :   0.8690
B(  2-C ,  3-N ) :   0.8519 B(  2-C ,  4-C ) :   0.9001 B(  2-C ,  7-C ) :  -0.1338
B(  2-C ,  9-H ) :   0.9258 B(  3-N ,  4-C ) :   1.0307 B(  3-N , 10-H ) :   0.8696
B(  4-C ,  5-C ) :   0.8141 B(  4-C , 11-H ) :   0.9272 B(  5-C ,  6-C ) :   0.9033
B(  5-C ,  8-C ) :   0.8736 B(  5-C , 12-H ) :   0.9198 B(  6-C ,  7-C ) :   0.9014
B(  6-C , 13-H ) :   0.9269 B(  6-C , 14-H ) :   0.9075 B(  7-C ,  8-C ) :   0.8521
B(  7-C , 15-H ) :   0.9213 B(  8-C , 16-H ) :   0.9217 B(  8-C , 17-H ) :   0.9200

MP2 TOTAL ENERGY:     -401.244556277 Eh
FINAL SINGLE POINT ENERGY      -401.244556277039

DIPOLE MOMENT
-------------
                                X             Y             Z
Electronic contribution:     -2.02550      -4.65221       0.63713
Nuclear contribution   :      1.74998       5.95746      -1.05656
                        -----------------------------------------
Total Dipole Moment    :     -0.27552       1.30524      -0.41943
                        -----------------------------------------
Magnitude (a.u.)       :      1.39839
Magnitude (Debye)      :      3.55443

                             ****ORCA TERMINATED NORMALLY****
TOTAL RUN TIME: 0 days 0 hours 18 minutes 56 seconds 103 msec
