                         Program Version 3.0.3 - RELEASE   -
|  1> ! RI-MP2 RIJK def2-TZVP def2-TZVP/C def2-TZVP/JK TIGHTSCF
|  2> % maxcore 2000
|  3> % mp2 density relaxed end
|  4> *xyz 0 1
|  5>  C       -0.1874600049     1.5684586461     0.0077269643
|  6>  C        0.0256629001     0.0531420440    -0.0076627276
|  7>  C        0.8360683151    -0.4746028700    -1.1891325493
|  8>  C        2.2745573528    -0.1379819546    -1.2914571953
|  9>  N        1.8463044299    -1.4262928638    -0.6922271264
| 10>  C        1.7995281985    -1.3317261658     0.7493144206
| 11>  O        2.5255625350    -1.9391196810     1.4964253040
| 12>  N        0.8045815372    -0.4517583377     1.1133325277
| 13>  C        0.4159027729    -0.2723478204     2.4932600972
| 14>  H        0.7676137089     2.1008164609     0.0278823784
| 15>  H       -0.7355819915     1.8754927237    -0.8884063294
| 16>  H       -0.7748487906     1.8785503995     0.8771983818
| 17>  H       -0.9638955112    -0.4326926949    -0.0193140146
| 18>  H        0.2915766690    -0.7772229280    -2.0774594143
| 19>  H        2.7821548009    -0.2335309858    -2.2459873073
| 20>  H        2.6899622528     0.6097879104    -0.6216401823
| 21>  H        1.1042364408    -0.8592591840     3.1037113266
| 22>  H        0.4748571968     0.7784040206     2.7977944184
| 23>  H       -0.6093825324    -0.6263008190     2.6663938475
| 24> *
| 25>
| 26>                          ****END OF INPUT****

CARTESIAN COORDINATES (ANGSTROEM)
---------------------------------
  C     -0.187460    1.568459    0.007727
  C      0.025663    0.053142   -0.007663
  C      0.836068   -0.474603   -1.189133
  C      2.274557   -0.137982   -1.291457
  N      1.846304   -1.426293   -0.692227
  C      1.799528   -1.331726    0.749314
  O      2.525563   -1.939120    1.496425
  N      0.804582   -0.451758    1.113333
  C      0.415903   -0.272348    2.493260
  H      0.767614    2.100816    0.027882
  H     -0.735582    1.875493   -0.888406
  H     -0.774849    1.878550    0.877198
  H     -0.963896   -0.432693   -0.019314
  H      0.291577   -0.777223   -2.077459
  H      2.782155   -0.233531   -2.245987
  H      2.689962    0.609788   -0.621640
  H      1.104236   -0.859259    3.103711
  H      0.474857    0.778404    2.797794
  H     -0.609383   -0.626301    2.666394

 Total Charge           Charge          ....    0
 Multiplicity           Mult            ....    1
 Number of Electrons    NEL             ....   68
 Basis Dimension        Dim             ....  339

ORBITAL ENERGIES
----------------

  NO   OCC          E(Eh)            E(eV)
   0   2.0000     -20.516516      -558.2828
   1   2.0000     -15.587214      -424.1497
   2   2.0000     -15.581973      -424.0071
   3   2.0000     -11.368957      -309.3650
   4   2.0000     -11.292194      -307.2762
   5   2.0000     -11.281539      -306.9863
   6   2.0000     -11.280691      -306.9632
   7   2.0000     -11.262489      -306.4679
   8   2.0000     -11.238174      -305.8063
   9   2.0000      -1.400747       -38.1163
  10   2.0000      -1.312600       -35.7177
  11   2.0000      -1.232478       -33.5374
  12   2.0000      -1.054924       -28.7059
  13   2.0000      -0.981471       -26.7072
  14   2.0000      -0.933539       -25.4029
  15   2.0000      -0.885348       -24.0915
  16   2.0000      -0.817373       -22.2418
  17   2.0000      -0.761233       -20.7142
  18   2.0000      -0.713232       -19.4080
  19   2.0000      -0.668059       -18.1788
  20   2.0000      -0.650308       -17.6958
  21   2.0000      -0.622561       -16.9407
  22   2.0000      -0.621238       -16.9047
  23   2.0000      -0.599286       -16.3074
  24   2.0000      -0.570207       -15.5161
  25   2.0000      -0.561172       -15.2703
  26   2.0000      -0.552061       -15.0223
  27   2.0000      -0.538078       -14.6418
  28   2.0000      -0.515769       -14.0348
  29   2.0000      -0.506872       -13.7927
  30   2.0000      -0.474672       -12.9165
  31   2.0000      -0.428321       -11.6552
  32   2.0000      -0.406544       -11.0626
  33   2.0000      -0.379038       -10.3142
  34   0.0000       0.122971         3.3462
  35   0.0000       0.145026         3.9464
  36   0.0000       0.155009         4.2180
  37   0.0000       0.171209         4.6588
  38   0.0000       0.180369         4.9081

MULLIKEN ATOMIC CHARGES
-----------------------
   0 C :   -0.406870
   1 C :    0.003780
   2 C :   -0.058618
   3 C :   -0.178780
   4 N :   -0.193213
   5 C :    0.243944
   6 O :   -0.333188
   7 N :   -0.122697
   8 C :   -0.343173
   9 H :    0.129284
  10 H :    0.138870
  11 H :    0.143116
  12 H :    0.100912
  13 H :    0.141336
  14 H :    0.140558
  15 H :    0.137806
  16 H :    0.183379
  17 H :    0.141026
  18 H :    0.132529
Sum of atomic charges:    0.0000000

LOEWDIN ATOMIC CHARGES
----------------------
   0 C :   -0.284012
   1 C :   -0.266871
   2 C :   -0.214525
   3 C :   -0.212976
   4 N :    0.156306
   5 C :   -0.487915
   6 O :    0.100316
   7 N :    0.184471
   8 C :   -0.288770
   9 H :    0.125831
  10 H :    0.131074
  11 H :    0.124969
  12 H :    0.149885
  13 H :    0.144699
  14 H :    0.131170
  15 H :    0.132627
  16 H :    0.138480
  17 H :    0.117404
  18 H :    0.117837

  Mayer bond orders larger than 0.1
B(  0-C ,  1-C ) :   0.9076 B(  0-C ,  9-H ) :   0.9310 B(  0-C , 10-H ) :   0.9336
B(  0-C , 11-H ) :   0.9365 B(  1-C ,  2-C ) :   0.9129 B(  1-C ,  7-N ) :   0.9382
B(  1-C , 12-H ) :   0.9189 B(  2-C ,  3-C ) :   0.9534 B(  2-C ,  4-N ) :   0.8981
B(  2-C , 13-H ) :   0.9104 B(  3-C ,  4-N ) :   0.8545 B(  3-C , 14-H ) :   0.9229
B(  3-C , 15-H ) :   0.9092 B(  4-N ,  5-C ) :   0.9924 B(  5-C ,  6-O ) :   1.9985
B(  5-C ,  7-N ) :   1.1372 B(  7-N ,  8-C ) :   0.8757 B(  8-C , 16-H ) :   0.9200
B(  8-C , 17-H ) :   0.9326 B(  8-C , 18-H ) :   0.9302

MP2 TOTAL ENERGY:     -418.522485918 Eh
FINAL SINGLE POINT ENERGY      -418.522485918290

DIPOLE MOMENT
-------------
                                X             Y             Z
Electronic contribution:      4.76788      -6.99760      -0.67947
Nuclear contribution   :     -6.01723       8.49205       0.24105
                        -----------------------------------------
Total Dipole Moment    :     -1.24935       1.49445      -0.43842
                        -----------------------------------------
Magnitude (a.u.)       :      1.99661
Magnitude (Debye)      :      5.07499

                             ****ORCA TERMINATED NORMALLY****
TOTAL RUN TIME: 0 days 0 hours 17 minutes 31 seconds 450 msec
