                         Program Version 3.0.3 - RELEASE   -
|  1> ! RI-MP2 RIJK def2-TZVP def2-TZVP/C def2-TZVP/JK TIGHTSCF
|  2> % maxcore 2000
|  3> % mp2 density relaxed end
|  4> *xyz 0 1
|  5>  C        0.6882660182     1.9702163271    -0.0729530743
|  6>  C        0.3893865119     0.4678397925     0.0734230804
|  7>  C        0.8263122796    -0.2959092818    -1.0833989068
|  8>  C        1.2092516734    -0.9161090558    -2.0483005377
|  9>  C        1.6378444162    -1.6198793445    -3.1364215232
| 10>  N        2.0021026548    -2.2216542779    -4.0611971539
| 11>  C        0.9691219690    -0.1082337266     1.4038362750
| 12>  C        0.9001726672    -1.6069339026     1.5899942570
| 13>  O        1.4109050847     0.6394588436     2.2371214817
| 14>  H        1.7624440835     2.1395323888    -0.1721306240
| 15>  H        0.1850787455     2.3737408681    -0.9540360168
| 16>  H        0.3434703208     2.4972002788     0.8177572994
| 17>  H       -0.7000801010     0.3269089387     0.1646174119
| 18>  H        1.6136481588    -2.0944940806     0.9172718781
| 19>  H        1.1444841248    -1.8581761856     2.6223280054
| 20>  H       -0.0917396172    -1.9909594823     1.3300484878
| 21> *
| 22>
| 23>                          ****END OF INPUT****

CARTESIAN COORDINATES (ANGSTROEM)
---------------------------------
  C      0.688266    1.970216   -0.072953
  C      0.389387    0.467840    0.073423
  C      0.826312   -0.295909   -1.083399
  C      1.209252   -0.916109   -2.048301
  C      1.637844   -1.619879   -3.136422
  N      2.002103   -2.221654   -4.061197
  C      0.969122   -0.108234    1.403836
  C      0.900173   -1.606934    1.589994
  O      1.410905    0.639459    2.237121
  H      1.762444    2.139532   -0.172131
  H      0.185079    2.373741   -0.954036
  H      0.343470    2.497200    0.817757
  H     -0.700080    0.326909    0.164617
  H      1.613648   -2.094494    0.917272
  H      1.144484   -1.858176    2.622328
  H     -0.091740   -1.990959    1.330048

 Total Charge           Charge          ....    0
 Multiplicity           Mult            ....    1
 Number of Electrons    NEL             ....   64
 Basis Dimension        Dim             ....  321

ORBITAL ENERGIES
----------------

  NO   OCC          E(Eh)            E(eV)
   0   2.0000     -20.573049      -559.8211
   1   2.0000     -15.600557      -424.5127
   2   2.0000     -11.361914      -309.1734
   3   2.0000     -11.307688      -307.6978
   4   2.0000     -11.304083      -307.5997
   5   2.0000     -11.302183      -307.5480
   6   2.0000     -11.287638      -307.1522
   7   2.0000     -11.253889      -306.2339
   8   2.0000     -11.247344      -306.0558
   9   2.0000      -1.420123       -38.6435
  10   2.0000      -1.240444       -33.7542
  11   2.0000      -1.142941       -31.1010
  12   2.0000      -1.065426       -28.9917
  13   2.0000      -1.027082       -27.9483
  14   2.0000      -0.928039       -25.2532
  15   2.0000      -0.881075       -23.9753
  16   2.0000      -0.778214       -21.1763
  17   2.0000      -0.707446       -19.2506
  18   2.0000      -0.689188       -18.7538
  19   2.0000      -0.653228       -17.7752
  20   2.0000      -0.610882       -16.6230
  21   2.0000      -0.598957       -16.2985
  22   2.0000      -0.584964       -15.9177
  23   2.0000      -0.574527       -15.6337
  24   2.0000      -0.551317       -15.0021
  25   2.0000      -0.548106       -14.9147
  26   2.0000      -0.540841       -14.7170
  27   2.0000      -0.533969       -14.5300
  28   2.0000      -0.520602       -14.1663
  29   2.0000      -0.455994       -12.4082
  30   2.0000      -0.411759       -11.2045
  31   2.0000      -0.401904       -10.9364
  32   0.0000       0.082648         2.2490
  33   0.0000       0.084932         2.3111
  34   0.0000       0.109940         2.9916
  35   0.0000       0.131210         3.5704
  36   0.0000       0.151541         4.1236

MULLIKEN ATOMIC CHARGES
-----------------------
   0 C :   -0.374473
   1 C :   -0.163834
   2 C :   -0.102315
   3 C :    0.278494
   4 C :   -0.214830
   5 N :   -0.034516
   6 C :    0.201488
   7 C :   -0.409071
   8 O :   -0.260407
   9 H :    0.142804
  10 H :    0.146320
  11 H :    0.158309
  12 H :    0.153691
  13 H :    0.164260
  14 H :    0.161647
  15 H :    0.152432
Sum of atomic charges:    0.0000000

LOEWDIN ATOMIC CHARGES
----------------------
   0 C :   -0.260399
   1 C :   -0.236356
   2 C :    0.020495
   3 C :   -0.053870
   4 C :   -0.177424
   5 N :    0.100296
   6 C :   -0.310376
   7 C :   -0.270416
   8 O :    0.176754
   9 H :    0.133824
  10 H :    0.129770
  11 H :    0.134671
  12 H :    0.188641
  13 H :    0.147006
  14 H :    0.137406
  15 H :    0.139980

  Mayer bond orders larger than 0.1
B(  0-C ,  1-C ) :   0.9370 B(  0-C ,  9-H ) :   0.9271 B(  0-C , 10-H ) :   0.9315
B(  0-C , 11-H ) :   0.9289 B(  1-C ,  2-C ) :   0.9572 B(  1-C ,  6-C ) :   0.8806
B(  1-C , 12-H ) :   0.9145 B(  2-C ,  3-C ) :   2.5614 B(  2-C ,  5-N ) :   0.1126
B(  3-C ,  4-C ) :   0.9647 B(  4-C ,  5-N ) :   2.7602 B(  6-C ,  7-C ) :   0.9301
B(  6-C ,  8-O ) :   2.0085 B(  7-C , 13-H ) :   0.9015 B(  7-C , 14-H ) :   0.9323
B(  7-C , 15-H ) :   0.9200

MP2 TOTAL ENERGY:     -400.051582495 Eh
FINAL SINGLE POINT ENERGY      -400.051582495157

DIPOLE MOMENT
-------------
                                X             Y             Z
Electronic contribution:      2.37451      -3.40453      -6.56402
Nuclear contribution   :     -3.28403       3.74181       7.47074
                        -----------------------------------------
Total Dipole Moment    :     -0.90952       0.33728       0.90672
                        -----------------------------------------
Magnitude (a.u.)       :      1.32783
Magnitude (Debye)      :      3.37508

                             ****ORCA TERMINATED NORMALLY****
TOTAL RUN TIME: 0 days 0 hours 15 minutes 54 seconds 255 msec
