                         Program Version 3.0.3 - RELEASE   -
|  1> ! RI-MP2 RIJK def2-TZVP def2-TZVP/C def2-TZVP/JK TIGHTSCF
|  2> % maxcore 2000
|  3> % mp2 density relaxed end
|  4> *xyz 0 1
|  5>  C       -0.0275242384     1.1362139369     1.0578104699
|  6>  C       -0.1352378719     0.3814417677    -0.2663979300
|  7>  O        0.8680127351    -0.6182356797    -0.3896218081
|  8>  C       -1.5432530507    -0.2314253142    -0.4722642924
|  9>  N       -1.8069640948    -0.5583749031    -1.8796401520
| 10>  C       -2.0779590707    -1.8031051620    -1.9101179001
| 11>  N       -2.0730515780    -2.4558736823    -0.6785136772
| 12>  C       -1.6922594405    -1.5524717456     0.3017768592
| 13>  O       -1.4873521987    -1.7976555694     1.4687709394
| 14>  H        0.9900173183     1.5162933511     1.1825067729
| 15>  H       -0.7198121080     1.9838240644     1.0857199981
| 16>  H       -0.2664643912     0.4748442053     1.8970196862
| 17>  H        0.0324402385     1.0615481710    -1.1070377200
| 18>  H        0.8807673416    -1.1127647476     0.4387699201
| 19>  H       -2.2989509808     0.4849649520    -0.1273143164
| 20>  H       -2.3178708811    -2.3597089645    -2.8100685512
| 21>  H       -2.1742714789    -3.4457947499    -0.5211275683
| 22> *
| 23>
| 24>                          ****END OF INPUT****

CARTESIAN COORDINATES (ANGSTROEM)
---------------------------------
  C     -0.027524    1.136214    1.057810
  C     -0.135238    0.381442   -0.266398
  O      0.868013   -0.618236   -0.389622
  C     -1.543253   -0.231425   -0.472264
  N     -1.806964   -0.558375   -1.879640
  C     -2.077959   -1.803105   -1.910118
  N     -2.073052   -2.455874   -0.678514
  C     -1.692259   -1.552472    0.301777
  O     -1.487352   -1.797656    1.468771
  H      0.990017    1.516293    1.182507
  H     -0.719812    1.983824    1.085720
  H     -0.266464    0.474844    1.897020
  H      0.032440    1.061548   -1.107038
  H      0.880767   -1.112765    0.438770
  H     -2.298951    0.484965   -0.127314
  H     -2.317871   -2.359709   -2.810069
  H     -2.174271   -3.445795   -0.521128

 Total Charge           Charge          ....    0
 Multiplicity           Mult            ....    1
 Number of Electrons    NEL             ....   68
 Basis Dimension        Dim             ....  327

ORBITAL ENERGIES
----------------

  NO   OCC          E(Eh)            E(eV)
   0   2.0000     -20.558600      -559.4279
   1   2.0000     -20.549355      -559.1764
   2   2.0000     -15.619639      -425.0320
   3   2.0000     -15.562289      -423.4714
   4   2.0000     -11.372910      -309.4726
   5   2.0000     -11.334923      -308.4389
   6   2.0000     -11.292503      -307.2846
   7   2.0000     -11.278351      -306.8995
   8   2.0000     -11.219558      -305.2997
   9   2.0000      -1.414996       -38.5040
  10   2.0000      -1.366849       -37.1938
  11   2.0000      -1.327675       -36.1279
  12   2.0000      -1.186884       -32.2968
  13   2.0000      -1.052138       -28.6301
  14   2.0000      -0.977923       -26.6106
  15   2.0000      -0.868790       -23.6410
  16   2.0000      -0.838088       -22.8055
  17   2.0000      -0.802877       -21.8474
  18   2.0000      -0.738026       -20.0827
  19   2.0000      -0.683854       -18.6086
  20   2.0000      -0.668312       -18.1857
  21   2.0000      -0.648901       -17.6575
  22   2.0000      -0.638580       -17.3766
  23   2.0000      -0.611502       -16.6398
  24   2.0000      -0.593470       -16.1491
  25   2.0000      -0.569037       -15.4843
  26   2.0000      -0.540182       -14.6991
  27   2.0000      -0.527589       -14.3564
  28   2.0000      -0.515474       -14.0268
  29   2.0000      -0.494571       -13.4580
  30   2.0000      -0.483174       -13.1478
  31   2.0000      -0.452818       -12.3218
  32   2.0000      -0.414601       -11.2819
  33   2.0000      -0.381298       -10.3756
  34   0.0000       0.119365         3.2481
  35   0.0000       0.127767         3.4767
  36   0.0000       0.150451         4.0940
  37   0.0000       0.170819         4.6482
  38   0.0000       0.181172         4.9299

MULLIKEN ATOMIC CHARGES
-----------------------
   0 C :   -0.440239
   1 C :    0.078014
   2 O :   -0.471785
   3 C :    0.124754
   4 N :   -0.275972
   5 C :    0.073978
   6 N :   -0.278416
   7 C :    0.097188
   8 O :   -0.321373
   9 H :    0.147408
  10 H :    0.127179
  11 H :    0.159844
  12 H :    0.115486
  13 H :    0.324584
  14 H :    0.132089
  15 H :    0.153023
  16 H :    0.254237
Sum of atomic charges:   -0.0000000

LOEWDIN ATOMIC CHARGES
----------------------
   0 C :   -0.300632
   1 C :   -0.342149
   2 O :   -0.009448
   3 C :   -0.228717
   4 N :    0.099496
   5 C :   -0.278016
   6 N :    0.146184
   7 C :   -0.400366
   8 O :    0.100623
   9 H :    0.128028
  10 H :    0.127531
  11 H :    0.130941
  12 H :    0.151592
  13 H :    0.178177
  14 H :    0.169820
  15 H :    0.135539
  16 H :    0.191396

  Mayer bond orders larger than 0.1
B(  0-C ,  1-C ) :   0.9328 B(  0-C ,  9-H ) :   0.9375 B(  0-C , 10-H ) :   0.9299
B(  0-C , 11-H ) :   0.9156 B(  1-C ,  2-O ) :   0.9600 B(  1-C ,  3-C ) :   0.8546
B(  1-C , 12-H ) :   0.9321 B(  2-O ,  3-C ) :  -0.1021 B(  2-O ,  7-C ) :   0.1158
B(  2-O , 13-H ) :   0.8348 B(  3-C ,  4-N ) :   0.9323 B(  3-C ,  7-C ) :   0.8382
B(  3-C , 14-H ) :   0.8806 B(  4-N ,  5-C ) :   1.8106 B(  5-C ,  6-N ) :   1.0153
B(  5-C , 15-H ) :   0.9165 B(  6-N ,  7-C ) :   1.1064 B(  6-N , 16-H ) :   0.8567
B(  7-C ,  8-O ) :   1.9847

MP2 TOTAL ENERGY:     -454.459597646 Eh
FINAL SINGLE POINT ENERGY      -454.459597645623

DIPOLE MOMENT
-------------
                                X             Y             Z
Electronic contribution:     -3.02360      -5.50153      -2.17284
Nuclear contribution   :      2.46512       4.94674       2.04106
                        -----------------------------------------
Total Dipole Moment    :     -0.55849      -0.55479      -0.13179
                        -----------------------------------------
Magnitude (a.u.)       :      0.79817
Magnitude (Debye)      :      2.02878

                             ****ORCA TERMINATED NORMALLY****
TOTAL RUN TIME: 0 days 0 hours 18 minutes 33 seconds 671 msec
