                         Program Version 3.0.3 - RELEASE   -
|  1> ! RI-MP2 RIJK def2-TZVP def2-TZVP/C def2-TZVP/JK TIGHTSCF
|  2> % maxcore 2000
|  3> % mp2 density relaxed end
|  4> *xyz 0 1
|  5>  O        0.0188839450    -0.0842034114     0.3461578810
|  6>  C        0.0096070295     1.1105536539     0.1068446283
|  7>  C       -1.3527543345     1.7749045098    -0.1618488290
|  8>  O       -1.4103141133     3.1753016142    -0.3629089396
|  9>  C       -0.7950281105     3.5778587489    -1.5495759263
| 10>  C       -0.1638481412     4.9325058988    -1.5412235426
| 11>  C        0.7072132738     3.6911795436    -1.5051722272
| 12>  C        1.3290893898     3.2727872895    -0.1876611026
| 13>  N        1.1588180217     1.8458253401     0.0757489765
| 14>  H       -1.7907507410     1.2333730897    -1.0133725202
| 15>  H       -1.9749227107     1.5604448568     0.7108443497
| 16>  H       -1.2801574456     3.2193943750    -2.4575683540
| 17>  H       -0.1961016963     5.5170151764    -2.4532538472
| 18>  H       -0.2536420553     5.5097058814    -0.6272962373
| 19>  H        1.2650569507     3.4289476275    -2.3987721822
| 20>  H        2.4045322815     3.4692447270    -0.1931460328
| 21>  H        0.9002086242     3.8651647268     0.6271117293
| 22>  H        1.9759799224     1.2959252318     0.2969623060
| 23> *
| 24>
| 25>                          ****END OF INPUT****

CARTESIAN COORDINATES (ANGSTROEM)
---------------------------------
  O      0.018884   -0.084203    0.346158
  C      0.009607    1.110554    0.106845
  C     -1.352754    1.774905   -0.161849
  O     -1.410314    3.175302   -0.362909
  C     -0.795028    3.577859   -1.549576
  C     -0.163848    4.932506   -1.541224
  C      0.707213    3.691180   -1.505172
  C      1.329089    3.272787   -0.187661
  N      1.158818    1.845825    0.075749
  H     -1.790751    1.233373   -1.013373
  H     -1.974923    1.560445    0.710844
  H     -1.280157    3.219394   -2.457568
  H     -0.196102    5.517015   -2.453254
  H     -0.253642    5.509706   -0.627296
  H      1.265057    3.428948   -2.398772
  H      2.404532    3.469245   -0.193146
  H      0.900209    3.865165    0.627112
  H      1.975980    1.295925    0.296962

 Total Charge           Charge          ....    0
 Multiplicity           Mult            ....    1
 Number of Electrons    NEL             ....   68
 Basis Dimension        Dim             ....  333

ORBITAL ENERGIES
----------------

  NO   OCC          E(Eh)            E(eV)
   0   2.0000     -20.579145      -559.9870
   1   2.0000     -20.512585      -558.1758
   2   2.0000     -15.583821      -424.0573
   3   2.0000     -11.350108      -308.8522
   4   2.0000     -11.295163      -307.3570
   5   2.0000     -11.295113      -307.3557
   6   2.0000     -11.282421      -307.0103
   7   2.0000     -11.246517      -306.0333
   8   2.0000     -11.241833      -305.9058
   9   2.0000      -1.407445       -38.2985
  10   2.0000      -1.376846       -37.4659
  11   2.0000      -1.231734       -33.5172
  12   2.0000      -1.153132       -31.3783
  13   2.0000      -0.979460       -26.6525
  14   2.0000      -0.974168       -26.5085
  15   2.0000      -0.841848       -22.9079
  16   2.0000      -0.804372       -21.8881
  17   2.0000      -0.793530       -21.5930
  18   2.0000      -0.703236       -19.1360
  19   2.0000      -0.691231       -18.8093
  20   2.0000      -0.676368       -18.4049
  21   2.0000      -0.664064       -18.0701
  22   2.0000      -0.629563       -17.1313
  23   2.0000      -0.600556       -16.3420
  24   2.0000      -0.586576       -15.9615
  25   2.0000      -0.584855       -15.9147
  26   2.0000      -0.548019       -14.9124
  27   2.0000      -0.544854       -14.8262
  28   2.0000      -0.518213       -14.1013
  29   2.0000      -0.482307       -13.1242
  30   2.0000      -0.431669       -11.7463
  31   2.0000      -0.424404       -11.5486
  32   2.0000      -0.402708       -10.9583
  33   2.0000      -0.390636       -10.6297
  34   0.0000       0.130340         3.5467
  35   0.0000       0.151458         4.1214
  36   0.0000       0.157186         4.2773
  37   0.0000       0.161192         4.3863
  38   0.0000       0.174222         4.7408

MULLIKEN ATOMIC CHARGES
-----------------------
   0 O :   -0.361907
   1 C :    0.205207
   2 C :   -0.049534
   3 O :   -0.297656
   4 C :    0.018223
   5 C :   -0.292847
   6 C :   -0.073492
   7 C :   -0.162778
   8 N :   -0.302731
   9 H :    0.117969
  10 H :    0.152068
  11 H :    0.116349
  12 H :    0.140197
  13 H :    0.145243
  14 H :    0.125169
  15 H :    0.141969
  16 H :    0.138348
  17 H :    0.240202
Sum of atomic charges:   -0.0000000

LOEWDIN ATOMIC CHARGES
----------------------
   0 O :    0.075365
   1 C :   -0.459330
   2 C :   -0.276638
   3 O :    0.193703
   4 C :   -0.296546
   5 C :   -0.198672
   6 C :   -0.214192
   7 C :   -0.259769
   8 N :    0.114130
   9 H :    0.138912
  10 H :    0.148099
  11 H :    0.135301
  12 H :    0.137045
  13 H :    0.142429
  14 H :    0.146423
  15 H :    0.141190
  16 H :    0.141387
  17 H :    0.191163

  Mayer bond orders larger than 0.1
B(  0-O ,  1-C ) :   1.9409 B(  1-C ,  2-C ) :   0.8764 B(  1-C ,  8-N ) :   1.1935
B(  2-C ,  3-O ) :   0.9038 B(  2-C ,  9-H ) :   0.9300 B(  2-C , 10-H ) :   0.9218
B(  3-O ,  4-C ) :   0.9914 B(  4-C ,  5-C ) :   0.8890 B(  4-C ,  6-C ) :   0.8871
B(  4-C , 11-H ) :   0.9389 B(  5-C ,  6-C ) :   0.8949 B(  5-C , 12-H ) :   0.9246
B(  5-C , 13-H ) :   0.9156 B(  6-C ,  7-C ) :   0.8999 B(  6-C , 14-H ) :   0.9132
B(  7-C ,  8-N ) :   0.9048 B(  7-C , 15-H ) :   0.9260 B(  7-C , 16-H ) :   0.9402
B(  8-N , 17-H ) :   0.8597

MP2 TOTAL ENERGY:     -438.374875338 Eh
FINAL SINGLE POINT ENERGY      -438.374875338229

DIPOLE MOMENT
-------------
                                X             Y             Z
Electronic contribution:     -0.89336      -4.46370       2.13410
Nuclear contribution   :      1.51543       5.67239      -2.71670
                        -----------------------------------------
Total Dipole Moment    :      0.62207       1.20869      -0.58260
                        -----------------------------------------
Magnitude (a.u.)       :      1.47896
Magnitude (Debye)      :      3.75922

                             ****ORCA TERMINATED NORMALLY****
TOTAL RUN TIME: 0 days 0 hours 16 minutes 44 seconds 81 msec
