                         Program Version 3.0.3 - RELEASE   -
|  1> ! RI-MP2 RIJK def2-TZVP def2-TZVP/C def2-TZVP/JK TIGHTSCF
|  2> % maxcore 2000
|  3> % mp2 density relaxed end
|  4> *xyz 0 1
|  5>  C       -0.0155722015     1.5441125498    -0.0117558096
|  6>  C       -0.0237650770     0.0337592448    -0.0364674099
|  7>  C        0.2895001027    -0.8004824040    -1.3082948690
|  8>  C       -0.3417650874    -1.9190140247    -0.4565629938
|  9>  O        0.6304119952    -2.0977972392     0.5871584418
| 10>  C        0.7136176800    -0.7394663733     1.0959466946
| 11>  C       -0.2236386483    -0.6899448934     2.3045879426
| 12>  C       -1.6045348811    -0.9966834937     1.6474014385
| 13>  C       -1.3111489956    -0.8524961273     0.1481439013
| 14>  H        0.9957884179     1.9356522876    -0.1731152322
| 15>  H       -0.6584740301     1.9535925893    -0.7978491184
| 16>  H       -0.3730047326     1.9381158364     0.9457414404
| 17>  H       -0.3269996922    -0.4921443039    -2.1566229472
| 18>  H        1.3304039283    -0.9391699235    -1.6114694442
| 19>  H       -0.6573243656    -2.8876007121    -0.8432359262
| 20>  H        1.7570555193    -0.4724298223     1.2809006339
| 21>  H        0.0676908571    -1.4293278059     3.0541570846
| 22>  H       -0.2084381218     0.2961768077     2.7825189283
| 23>  H       -1.9570732736    -2.0023261731     1.8941285691
| 24>  H       -2.3778608051    -0.2944981289     1.9720966039
| 25>  H       -2.1520667085    -0.5995983102    -0.4987827585
| 26> *
| 27>
| 28>                          ****END OF INPUT****

CARTESIAN COORDINATES (ANGSTROEM)
---------------------------------
  C     -0.015572    1.544113   -0.011756
  C     -0.023765    0.033759   -0.036467
  C      0.289500   -0.800482   -1.308295
  C     -0.341765   -1.919014   -0.456563
  O      0.630412   -2.097797    0.587158
  C      0.713618   -0.739466    1.095947
  C     -0.223639   -0.689945    2.304588
  C     -1.604535   -0.996683    1.647401
  C     -1.311149   -0.852496    0.148144
  H      0.995788    1.935652   -0.173115
  H     -0.658474    1.953593   -0.797849
  H     -0.373005    1.938116    0.945741
  H     -0.327000   -0.492144   -2.156623
  H      1.330404   -0.939170   -1.611469
  H     -0.657324   -2.887601   -0.843236
  H      1.757056   -0.472430    1.280901
  H      0.067691   -1.429328    3.054157
  H     -0.208438    0.296177    2.782519
  H     -1.957073   -2.002326    1.894129
  H     -2.377861   -0.294498    1.972097
  H     -2.152067   -0.599598   -0.498783

 Total Charge           Charge          ....    0
 Multiplicity           Mult            ....    1
 Number of Electrons    NEL             ....   68
 Basis Dimension        Dim             ....  351

ORBITAL ENERGIES
----------------

  NO   OCC          E(Eh)            E(eV)
   0   2.0000     -20.541435      -558.9609
   1   2.0000     -11.276923      -306.8607
   2   2.0000     -11.271088      -306.7019
   3   2.0000     -11.237467      -305.7870
   4   2.0000     -11.226396      -305.4858
   5   2.0000     -11.220211      -305.3175
   6   2.0000     -11.218680      -305.2758
   7   2.0000     -11.217973      -305.2566
   8   2.0000     -11.215898      -305.2001
   9   2.0000      -1.378128       -37.5008
  10   2.0000      -1.136072       -30.9141
  11   2.0000      -1.050995       -28.5990
  12   2.0000      -0.997604       -27.1462
  13   2.0000      -0.933045       -25.3895
  14   2.0000      -0.874760       -23.8034
  15   2.0000      -0.823662       -22.4130
  16   2.0000      -0.748514       -20.3681
  17   2.0000      -0.737322       -20.0636
  18   2.0000      -0.676881       -18.4189
  19   2.0000      -0.649566       -17.6756
  20   2.0000      -0.635436       -17.2911
  21   2.0000      -0.595397       -16.2016
  22   2.0000      -0.561946       -15.2913
  23   2.0000      -0.560958       -15.2644
  24   2.0000      -0.546469       -14.8702
  25   2.0000      -0.529227       -14.4010
  26   2.0000      -0.509022       -13.8512
  27   2.0000      -0.499892       -13.6027
  28   2.0000      -0.490969       -13.3599
  29   2.0000      -0.469533       -12.7767
  30   2.0000      -0.461442       -12.5565
  31   2.0000      -0.433408       -11.7936
  32   2.0000      -0.402941       -10.9646
  33   2.0000      -0.383809       -10.4440
  34   0.0000       0.132384         3.6024
  35   0.0000       0.162131         4.4118
  36   0.0000       0.162841         4.4311
  37   0.0000       0.177251         4.8233
  38   0.0000       0.185602         5.0505

MULLIKEN ATOMIC CHARGES
-----------------------
   0 C :   -0.409821
   1 C :    0.048685
   2 C :   -0.251166
   3 C :    0.038438
   4 O :   -0.339075
   5 C :    0.063804
   6 C :   -0.240887
   7 C :   -0.262688
   8 C :   -0.106709
   9 H :    0.136830
  10 H :    0.134023
  11 H :    0.135448
  12 H :    0.113856
  13 H :    0.117815
  14 H :    0.123579
  15 H :    0.113293
  16 H :    0.120540
  17 H :    0.111155
  18 H :    0.116174
  19 H :    0.117693
  20 H :    0.119011
Sum of atomic charges:    0.0000000

LOEWDIN ATOMIC CHARGES
----------------------
   0 C :   -0.272288
   1 C :   -0.229304
   2 C :   -0.184589
   3 C :   -0.247361
   4 O :    0.177331
   5 C :   -0.234002
   6 C :   -0.231725
   7 C :   -0.226717
   8 C :   -0.164365
   9 H :    0.130313
  10 H :    0.128719
  11 H :    0.128341
  12 H :    0.139510
  13 H :    0.129627
  14 H :    0.127938
  15 H :    0.136861
  16 H :    0.137451
  17 H :    0.133645
  18 H :    0.139236
  19 H :    0.134455
  20 H :    0.146922

  Mayer bond orders larger than 0.1
B(  0-C ,  1-C ) :   0.8562 B(  0-C ,  9-H ) :   0.9409 B(  0-C , 10-H ) :   0.9393
B(  0-C , 11-H ) :   0.9378 B(  1-C ,  2-C ) :   0.9181 B(  1-C ,  5-C ) :   0.9294
B(  1-C ,  8-C ) :   0.8652 B(  2-C ,  3-C ) :   0.9207 B(  2-C , 12-H ) :   0.9233
B(  2-C , 13-H ) :   0.9159 B(  3-C ,  4-O ) :   0.9293 B(  3-C ,  8-C ) :   0.9262
B(  3-C , 14-H ) :   0.9129 B(  4-O ,  5-C ) :   0.9349 B(  5-C ,  6-C ) :   0.9422
B(  5-C , 15-H ) :   0.9122 B(  6-C ,  7-C ) :   0.9876 B(  6-C , 16-H ) :   0.9185
B(  6-C , 17-H ) :   0.9142 B(  7-C ,  8-C ) :   0.9380 B(  7-C , 18-H ) :   0.9144
B(  7-C , 19-H ) :   0.9299 B(  8-C , 20-H ) :   0.9119

MP2 TOTAL ENERGY:     -386.421942818 Eh
FINAL SINGLE POINT ENERGY      -386.421942817525

DIPOLE MOMENT
-------------
                                X             Y             Z
Electronic contribution:      1.66789      -4.70214      -0.57402
Nuclear contribution   :     -2.02267       5.30055       0.41913
                        -----------------------------------------
Total Dipole Moment    :     -0.35478       0.59841      -0.15488
                        -----------------------------------------
Magnitude (a.u.)       :      0.71270
Magnitude (Debye)      :      1.81155

                             ****ORCA TERMINATED NORMALLY****
TOTAL RUN TIME: 0 days 0 hours 20 minutes 59 seconds 376 msec
