                         Program Version 3.0.3 - RELEASE   -
|  1> ! RI-MP2 RIJK def2-TZVP def2-TZVP/C def2-TZVP/JK TIGHTSCF
|  2> % maxcore 2000
|  3> % mp2 density relaxed end
|  4> *xyz 0 1
|  5>  C       -0.2638055052     1.5140831022     0.0638667512
|  6>  C       -0.2086955812     0.0030399932    -0.1736683978
|  7>  C        1.0169980570    -0.4290359302    -0.9897662204
|  8>  C        1.0721569903    -1.9264746253    -1.1976081162
|  9>  N        0.1901989700    -2.5220963039    -2.2239788431
| 10>  C        1.6531160428    -2.6100929090    -2.3845303964
| 11>  C        2.2016424117    -1.8995803355    -3.6250024431
| 12>  C        2.5400900039    -2.9125896522    -4.7246709336
| 13>  O        1.2829781891    -0.9328144874    -4.1031881160
| 14>  H        0.6180036420     1.8617609493     0.6139190603
| 15>  H       -0.2964597228     2.0613511117    -0.8845697679
| 16>  H       -1.1492031522     1.7960547173     0.6423633317
| 17>  H       -0.2092874997    -0.5208663243     0.7921774503
| 18>  H       -1.1141920285    -0.3238335454    -0.6995317164
| 19>  H        1.0212628767     0.0733613431    -1.9607138993
| 20>  H        1.9333489570    -0.1198624793    -0.4676707307
| 21>  H        1.1487470793    -2.4935614004    -0.2685617203
| 22>  H       -0.2133669916    -3.4012339414    -1.9179640300
| 23>  H        2.1169351193    -3.5767322822    -2.1941537234
| 24>  H        3.1177077697    -1.3592383256    -3.3488141002
| 25>  H        1.6543938520    -3.4999766772    -4.9911073649
| 26>  H        2.8824167997    -2.3865772776    -5.6194469462
| 27>  H        3.3289186357    -3.6023952130    -4.4034999220
| 28>  H        0.4104964953    -1.2634955167    -3.8335761155
| 29> *
| 30>
| 31>                          ****END OF INPUT****

CARTESIAN COORDINATES (ANGSTROEM)
---------------------------------
  C     -0.263806    1.514083    0.063867
  C     -0.208696    0.003040   -0.173668
  C      1.016998   -0.429036   -0.989766
  C      1.072157   -1.926475   -1.197608
  N      0.190199   -2.522096   -2.223979
  C      1.653116   -2.610093   -2.384530
  C      2.201642   -1.899580   -3.625002
  C      2.540090   -2.912590   -4.724671
  O      1.282978   -0.932814   -4.103188
  H      0.618004    1.861761    0.613919
  H     -0.296460    2.061351   -0.884570
  H     -1.149203    1.796055    0.642363
  H     -0.209287   -0.520866    0.792177
  H     -1.114192   -0.323834   -0.699532
  H      1.021263    0.073361   -1.960714
  H      1.933349   -0.119862   -0.467671
  H      1.148747   -2.493561   -0.268562
  H     -0.213367   -3.401234   -1.917964
  H      2.116935   -3.576732   -2.194154
  H      3.117708   -1.359238   -3.348814
  H      1.654394   -3.499977   -4.991107
  H      2.882417   -2.386577   -5.619447
  H      3.328919   -3.602395   -4.403500
  H      0.410496   -1.263496   -3.833576

 Total Charge           Charge          ....    0
 Multiplicity           Mult            ....    1
 Number of Electrons    NEL             ....   72
 Basis Dimension        Dim             ....  369

ORBITAL ENERGIES
----------------

  NO   OCC          E(Eh)            E(eV)
   0   2.0000     -20.535517      -558.7998
   1   2.0000     -15.565005      -423.5453
   2   2.0000     -11.277889      -306.8870
   3   2.0000     -11.264040      -306.5101
   4   2.0000     -11.263171      -306.4865
   5   2.0000     -11.216939      -305.2284
   6   2.0000     -11.215660      -305.1936
   7   2.0000     -11.211439      -305.0788
   8   2.0000     -11.209566      -305.0278
   9   2.0000      -1.351801       -36.7844
  10   2.0000      -1.263126       -34.3714
  11   2.0000      -1.060292       -28.8520
  12   2.0000      -1.018940       -27.7268
  13   2.0000      -0.958541       -26.0832
  14   2.0000      -0.899756       -24.4836
  15   2.0000      -0.837360       -22.7857
  16   2.0000      -0.797052       -21.6889
  17   2.0000      -0.774237       -21.0681
  18   2.0000      -0.718729       -19.5576
  19   2.0000      -0.669381       -18.2148
  20   2.0000      -0.636165       -17.3109
  21   2.0000      -0.617550       -16.8044
  22   2.0000      -0.587898       -15.9975
  23   2.0000      -0.572222       -15.5709
  24   2.0000      -0.562813       -15.3149
  25   2.0000      -0.542304       -14.7568
  26   2.0000      -0.536254       -14.5922
  27   2.0000      -0.522679       -14.2228
  28   2.0000      -0.499413       -13.5897
  29   2.0000      -0.487823       -13.2743
  30   2.0000      -0.481764       -13.1095
  31   2.0000      -0.469046       -12.7634
  32   2.0000      -0.458954       -12.4888
  33   2.0000      -0.452529       -12.3139
  34   2.0000      -0.430110       -11.7039
  35   2.0000      -0.390007       -10.6126
  36   0.0000       0.127113         3.4589
  37   0.0000       0.147346         4.0095
  38   0.0000       0.156796         4.2666
  39   0.0000       0.162651         4.4260
  40   0.0000       0.185145         5.0380

MULLIKEN ATOMIC CHARGES
-----------------------
   0 C :   -0.389293
   1 C :   -0.196255
   2 C :   -0.286430
   3 C :    0.052836
   4 N :   -0.453850
   5 C :   -0.114446
   6 C :    0.132825
   7 C :   -0.378007
   8 O :   -0.491284
   9 H :    0.118916
  10 H :    0.129380
  11 H :    0.131603
  12 H :    0.098000
  13 H :    0.117695
  14 H :    0.152905
  15 H :    0.104683
  16 H :    0.123785
  17 H :    0.220697
  18 H :    0.122987
  19 H :    0.089160
  20 H :    0.119028
  21 H :    0.142163
  22 H :    0.115887
  23 H :    0.337018
Sum of atomic charges:   -0.0000000

LOEWDIN ATOMIC CHARGES
----------------------
   0 C :   -0.321335
   1 C :   -0.293057
   2 C :   -0.254757
   3 C :   -0.252188
   4 N :   -0.006551
   5 C :   -0.246318
   6 C :   -0.362566
   7 C :   -0.300549
   8 O :   -0.020145
   9 H :    0.119437
  10 H :    0.122160
  11 H :    0.119909
  12 H :    0.131942
  13 H :    0.137166
  14 H :    0.149424
  15 H :    0.142067
  16 H :    0.140547
  17 H :    0.165081
  18 H :    0.142735
  19 H :    0.142979
  20 H :    0.123047
  21 H :    0.126288
  22 H :    0.120711
  23 H :    0.173971

  Mayer bond orders larger than 0.1
B(  0-C ,  1-C ) :   0.9223 B(  0-C ,  9-H ) :   0.9384 B(  0-C , 10-H ) :   0.9408
B(  0-C , 11-H ) :   0.9438 B(  1-C ,  2-C ) :   0.9286 B(  1-C , 12-H ) :   0.9323
B(  1-C , 13-H ) :   0.9335 B(  2-C ,  3-C ) :   0.8977 B(  2-C , 14-H ) :   0.9257
B(  2-C , 15-H ) :   0.9290 B(  3-C ,  4-N ) :   0.8330 B(  3-C ,  5-C ) :   0.9149
B(  3-C , 16-H ) :   0.9250 B(  4-N ,  5-C ) :   0.9103 B(  4-N , 17-H ) :   0.8699
B(  5-C ,  6-C ) :   0.9292 B(  5-C , 18-H ) :   0.9241 B(  6-C ,  7-C ) :   0.9059
B(  6-C ,  8-O ) :   0.9503 B(  6-C , 19-H ) :   0.9393 B(  7-C , 20-H ) :   0.9325
B(  7-C , 21-H ) :   0.9417 B(  7-C , 22-H ) :   0.9309 B(  8-O , 23-H ) :   0.7994

MP2 TOTAL ENERGY:     -404.846901124 Eh
FINAL SINGLE POINT ENERGY      -404.846901124114

DIPOLE MOMENT
-------------
                                X             Y             Z
Electronic contribution:      0.50772      -3.25557      -3.14972
Nuclear contribution   :     -0.37522       2.39872       3.91941
                        -----------------------------------------
Total Dipole Moment    :      0.13250      -0.85686       0.76969
                        -----------------------------------------
Magnitude (a.u.)       :      1.15939
Magnitude (Debye)      :      2.94694

                             ****ORCA TERMINATED NORMALLY****
TOTAL RUN TIME: 0 days 0 hours 17 minutes 54 seconds 980 msec
