                         Program Version 3.0.3 - RELEASE   -
|  1> ! RI-MP2 RIJK def2-TZVP def2-TZVP/C def2-TZVP/JK TIGHTSCF
|  2> % maxcore 2000
|  3> % mp2 density relaxed end
|  4> *xyz 0 1
|  5>  C       -0.0404770728     1.5694050116     0.0027254634
|  6>  C        0.0558358457     0.0419516490    -0.0012997134
|  7>  C        0.6911035665    -0.5096881259    -1.2885951959
|  8>  C        0.7976806040    -2.0345251616    -1.2292490214
|  9>  O        1.4978943116    -2.4690342567    -0.0732047472
| 10>  C        0.8606649875    -2.0660743731     1.1245504850
| 11>  C        0.7901565266    -0.5336508203     1.2463377600
| 12>  C        2.1848712145     0.0444817740     1.4157931123
| 13>  O        2.4303617355     1.0395293880     2.0520927960
| 14>  H        0.9454088810     2.0385725764    -0.0663247250
| 15>  H       -0.6384622191     1.9143306171    -0.8473142772
| 16>  H       -0.5113613830     1.9348250795     0.9206081025
| 17>  H       -0.9665218763    -0.3613112843     0.0545710495
| 18>  H        0.0914250905    -0.2174142984    -2.1588029564
| 19>  H        1.6906848453    -0.0806047978    -1.4322820946
| 20>  H       -0.2125107663    -2.4799496886    -1.2417948123
| 21>  H        1.3501998903    -2.4314422269    -2.0854165699
| 22>  H       -0.1596252293    -2.4822343308     1.1787228610
| 23>  H        1.4438241903    -2.5043266083     1.9408263242
| 24>  H        0.2224454984    -0.2532820037     2.1412829541
| 25>  H        2.9945223592    -0.5213699394     0.9052496252
| 26> *
| 27>
| 28>                          ****END OF INPUT****

CARTESIAN COORDINATES (ANGSTROEM)
---------------------------------
  C     -0.040477    1.569405    0.002725
  C      0.055836    0.041952   -0.001300
  C      0.691104   -0.509688   -1.288595
  C      0.797681   -2.034525   -1.229249
  O      1.497894   -2.469034   -0.073205
  C      0.860665   -2.066074    1.124550
  C      0.790157   -0.533651    1.246338
  C      2.184871    0.044482    1.415793
  O      2.430362    1.039529    2.052093
  H      0.945409    2.038573   -0.066325
  H     -0.638462    1.914331   -0.847314
  H     -0.511361    1.934825    0.920608
  H     -0.966522   -0.361311    0.054571
  H      0.091425   -0.217414   -2.158803
  H      1.690685   -0.080605   -1.432282
  H     -0.212511   -2.479950   -1.241795
  H      1.350200   -2.431442   -2.085417
  H     -0.159625   -2.482234    1.178723
  H      1.443824   -2.504327    1.940826
  H      0.222445   -0.253282    2.141283
  H      2.994522   -0.521370    0.905250

 Total Charge           Charge          ....    0
 Multiplicity           Mult            ....    1
 Number of Electrons    NEL             ....   70
 Basis Dimension        Dim             ....  351

ORBITAL ENERGIES
----------------

  NO   OCC          E(Eh)            E(eV)
   0   2.0000     -20.565336      -559.6112
   1   2.0000     -20.553858      -559.2989
   2   2.0000     -11.326132      -308.1997
   3   2.0000     -11.289113      -307.1924
   4   2.0000     -11.283339      -307.0353
   5   2.0000     -11.248684      -306.0923
   6   2.0000     -11.244521      -305.9790
   7   2.0000     -11.233124      -305.6688
   8   2.0000     -11.218843      -305.2802
   9   2.0000      -1.393013       -37.9058
  10   2.0000      -1.386990       -37.7419
  11   2.0000      -1.114216       -30.3194
  12   2.0000      -1.049457       -28.5572
  13   2.0000      -0.972073       -26.4514
  14   2.0000      -0.899545       -24.4779
  15   2.0000      -0.847900       -23.0725
  16   2.0000      -0.832701       -22.6589
  17   2.0000      -0.751854       -20.4590
  18   2.0000      -0.688830       -18.7440
  19   2.0000      -0.669726       -18.2242
  20   2.0000      -0.654666       -17.8144
  21   2.0000      -0.640244       -17.4219
  22   2.0000      -0.625374       -17.0173
  23   2.0000      -0.614098       -16.7105
  24   2.0000      -0.573365       -15.6021
  25   2.0000      -0.559110       -15.2142
  26   2.0000      -0.547382       -14.8950
  27   2.0000      -0.531871       -14.4730
  28   2.0000      -0.522853       -14.2276
  29   2.0000      -0.516300       -14.0492
  30   2.0000      -0.489381       -13.3167
  31   2.0000      -0.469106       -12.7650
  32   2.0000      -0.456600       -12.4247
  33   2.0000      -0.425309       -11.5732
  34   2.0000      -0.402722       -10.9586
  35   0.0000       0.121729         3.3124
  36   0.0000       0.132812         3.6140
  37   0.0000       0.150358         4.0915
  38   0.0000       0.158889         4.3236
  39   0.0000       0.170316         4.6345

MULLIKEN ATOMIC CHARGES
-----------------------
   0 C :   -0.378866
   1 C :   -0.093250
   2 C :   -0.257377
   3 C :   -0.068281
   4 O :   -0.313457
   5 C :   -0.105601
   6 C :    0.032736
   7 C :    0.003729
   8 O :   -0.258879
   9 H :    0.140007
  10 H :    0.130895
  11 H :    0.136958
  12 H :    0.093794
  13 H :    0.122736
  14 H :    0.120915
  15 H :    0.097002
  16 H :    0.131537
  17 H :    0.110889
  18 H :    0.136416
  19 H :    0.111727
  20 H :    0.106368
Sum of atomic charges:   -0.0000000

LOEWDIN ATOMIC CHARGES
----------------------
   0 C :   -0.286299
   1 C :   -0.257315
   2 C :   -0.246893
   3 C :   -0.314098
   4 O :    0.155197
   5 C :   -0.294815
   6 C :   -0.238719
   7 C :   -0.271227
   8 O :    0.133850
   9 H :    0.127734
  10 H :    0.124459
  11 H :    0.127966
  12 H :    0.156981
  13 H :    0.143428
  14 H :    0.142615
  15 H :    0.121765
  16 H :    0.130653
  17 H :    0.126454
  18 H :    0.134956
  19 H :    0.164843
  20 H :    0.118465

  Mayer bond orders larger than 0.1
B(  0-C ,  1-C ) :   0.9398 B(  0-C ,  9-H ) :   0.9239 B(  0-C , 10-H ) :   0.9354
B(  0-C , 11-H ) :   0.9368 B(  1-C ,  2-C ) :   0.9271 B(  1-C ,  6-C ) :   0.8752
B(  1-C , 12-H ) :   0.9256 B(  2-C ,  3-C ) :   0.9397 B(  2-C , 13-H ) :   0.9239
B(  2-C , 14-H ) :   0.9162 B(  3-C ,  4-O ) :   0.9258 B(  3-C , 15-H ) :   0.9390
B(  3-C , 16-H ) :   0.9324 B(  4-O ,  5-C ) :   0.9172 B(  5-C ,  6-C ) :   0.9018
B(  5-C , 17-H ) :   0.9287 B(  5-C , 18-H ) :   0.9329 B(  6-C ,  7-C ) :   0.8080
B(  6-C , 19-H ) :   0.9097 B(  7-C ,  8-O ) :   1.9749 B(  7-C , 20-H ) :   0.9389

MP2 TOTAL ENERGY:     -423.540792085 Eh
FINAL SINGLE POINT ENERGY      -423.540792084866

DIPOLE MOMENT
-------------
                                X             Y             Z
Electronic contribution:      4.94973      -1.49105       4.08787
Nuclear contribution   :     -5.81634       1.05832      -4.68929
                        -----------------------------------------
Total Dipole Moment    :     -0.86661      -0.43273      -0.60142
                        -----------------------------------------
Magnitude (a.u.)       :      1.14017
Magnitude (Debye)      :      2.89807

                             ****ORCA TERMINATED NORMALLY****
TOTAL RUN TIME: 0 days 0 hours 20 minutes 33 seconds 34 msec
