                         Program Version 3.0.3 - RELEASE   -
|  1> ! RI-MP2 RIJK def2-TZVP def2-TZVP/C def2-TZVP/JK TIGHTSCF
|  2> % maxcore 2000
|  3> % mp2 density relaxed end
|  4> *xyz 0 1
|  5>  C       -0.1234111727     1.7573812580     0.0638038604
|  6>  C       -0.1683800015     0.2276017599     0.0229276960
|  7>  C       -1.5979777126    -0.3235225560     0.0174275733
|  8>  C       -1.6401775063    -1.8504309587    -0.0233980908
|  9>  C       -3.0381428327    -2.4330516171    -0.0298515568
| 10>  N       -4.0761099275    -1.7081036486    -0.0030959320
| 11>  N       -3.0236246311    -3.8529171518    -0.0687072890
| 12>  C       -4.1072756659    -4.6933691780    -0.0841790882
| 13>  O       -5.2695348276    -4.3551851773    -0.0670238078
| 14>  H        0.9064968231     2.1276203247     0.0670732529
| 15>  H       -0.6315984495     2.1901905903    -0.8047983127
| 16>  H       -0.6201227928     2.1426686310     0.9609537638
| 17>  H        0.3662149650    -0.1306408994    -0.8675366396
| 18>  H        0.3776624228    -0.1778303033     0.8857824337
| 19>  H       -2.1406219495     0.0251679003     0.9026611341
| 20>  H       -2.1519935058     0.0721016998    -0.8406192907
| 21>  H       -1.1072997900    -2.2194837015    -0.9127587755
| 22>  H       -1.0958136706    -2.2665902708     0.8377657396
| 23>  H       -4.9208544975    -2.2800813098    -0.0130199981
| 24>  H       -2.1176731128    -4.2976794162    -0.0869678892
| 25>  H       -3.7938833344    -5.7552538155    -0.1152434134
| 26> *
| 27>
| 28>                          ****END OF INPUT****

CARTESIAN COORDINATES (ANGSTROEM)
---------------------------------
  C     -0.123411    1.757381    0.063804
  C     -0.168380    0.227602    0.022928
  C     -1.597978   -0.323523    0.017428
  C     -1.640178   -1.850431   -0.023398
  C     -3.038143   -2.433052   -0.029852
  N     -4.076110   -1.708104   -0.003096
  N     -3.023625   -3.852917   -0.068707
  C     -4.107276   -4.693369   -0.084179
  O     -5.269535   -4.355185   -0.067024
  H      0.906497    2.127620    0.067073
  H     -0.631598    2.190191   -0.804798
  H     -0.620123    2.142669    0.960954
  H      0.366215   -0.130641   -0.867537
  H      0.377662   -0.177830    0.885782
  H     -2.140622    0.025168    0.902661
  H     -2.151994    0.072102   -0.840619
  H     -1.107300   -2.219484   -0.912759
  H     -1.095814   -2.266590    0.837766
  H     -4.920854   -2.280081   -0.013020
  H     -2.117673   -4.297679   -0.086968
  H     -3.793883   -5.755254   -0.115243

 Total Charge           Charge          ....    0
 Multiplicity           Mult            ....    1
 Number of Electrons    NEL             ....   70
 Basis Dimension        Dim             ....  351

ORBITAL ENERGIES
----------------

  NO   OCC          E(Eh)            E(eV)
   0   2.0000     -20.550869      -559.2176
   1   2.0000     -15.619351      -425.0241
   2   2.0000     -15.531563      -422.6353
   3   2.0000     -11.374849      -309.5254
   4   2.0000     -11.325505      -308.1826
   5   2.0000     -11.245033      -305.9929
   6   2.0000     -11.222788      -305.3876
   7   2.0000     -11.219559      -305.2997
   8   2.0000     -11.213075      -305.1233
   9   2.0000      -1.410833       -38.3907
  10   2.0000      -1.286207       -34.9995
  11   2.0000      -1.180169       -32.1140
  12   2.0000      -1.080323       -29.3971
  13   2.0000      -1.009139       -27.4601
  14   2.0000      -0.923543       -25.1309
  15   2.0000      -0.858806       -23.3693
  16   2.0000      -0.796182       -21.6652
  17   2.0000      -0.776285       -21.1238
  18   2.0000      -0.751314       -20.4443
  19   2.0000      -0.688359       -18.7312
  20   2.0000      -0.655490       -17.8368
  21   2.0000      -0.635450       -17.2915
  22   2.0000      -0.614697       -16.7267
  23   2.0000      -0.592440       -16.1211
  24   2.0000      -0.585043       -15.9198
  25   2.0000      -0.581146       -15.8138
  26   2.0000      -0.527502       -14.3541
  27   2.0000      -0.514790       -14.0081
  28   2.0000      -0.482328       -13.1248
  29   2.0000      -0.479984       -13.0610
  30   2.0000      -0.477863       -13.0033
  31   2.0000      -0.469133       -12.7658
  32   2.0000      -0.466024       -12.6812
  33   2.0000      -0.414438       -11.2774
  34   2.0000      -0.391006       -10.6398
  35   0.0000       0.111829         3.0430
  36   0.0000       0.128791         3.5046
  37   0.0000       0.136091         3.7032
  38   0.0000       0.158119         4.3026
  39   0.0000       0.173085         4.7099

MULLIKEN ATOMIC CHARGES
-----------------------
   0 C :   -0.385904
   1 C :   -0.169692
   2 C :   -0.233757
   3 C :   -0.254372
   4 C :    0.174375
   5 N :   -0.363704
   6 N :   -0.309635
   7 C :    0.216148
   8 O :   -0.353039
   9 H :    0.132328
  10 H :    0.124949
  11 H :    0.124952
  12 H :    0.101021
  13 H :    0.101026
  14 H :    0.124526
  15 H :    0.124484
  16 H :    0.130304
  17 H :    0.130321
  18 H :    0.241435
  19 H :    0.247317
  20 H :    0.096917
Sum of atomic charges:   -0.0000000

LOEWDIN ATOMIC CHARGES
----------------------
   0 C :   -0.319918
   1 C :   -0.298434
   2 C :   -0.261490
   3 C :   -0.241238
   4 C :   -0.342316
   5 N :   -0.020952
   6 N :    0.115859
   7 C :   -0.403382
   8 O :    0.079465
   9 H :    0.119828
  10 H :    0.121403
  11 H :    0.121404
  12 H :    0.132716
  13 H :    0.132717
  14 H :    0.144981
  15 H :    0.144975
  16 H :    0.147694
  17 H :    0.147707
  18 H :    0.166869
  19 H :    0.197035
  20 H :    0.115078

  Mayer bond orders larger than 0.1
B(  0-C ,  1-C ) :   0.9295 B(  0-C ,  9-H ) :   0.9434 B(  0-C , 10-H ) :   0.9394
B(  0-C , 11-H ) :   0.9394 B(  1-C ,  2-C ) :   0.9178 B(  1-C , 12-H ) :   0.9297
B(  1-C , 13-H ) :   0.9297 B(  2-C ,  3-C ) :   0.9779 B(  2-C , 14-H ) :   0.9327
B(  2-C , 15-H ) :   0.9327 B(  3-C ,  4-C ) :   0.9365 B(  3-C , 16-H ) :   0.9114
B(  3-C , 17-H ) :   0.9113 B(  4-C ,  5-N ) :   2.0056 B(  4-C ,  6-N ) :   0.9455
B(  5-N , 18-H ) :   0.8468 B(  6-N ,  7-C ) :   1.1003 B(  6-N , 19-H ) :   0.8678
B(  7-C ,  8-O ) :   1.8628 B(  7-C , 20-H ) :   0.9282

MP2 TOTAL ENERGY:     -419.739187980 Eh
FINAL SINGLE POINT ENERGY      -419.739187979695

DIPOLE MOMENT
-------------
                                X             Y             Z
Electronic contribution:    -11.34250     -12.45355      -0.26088
Nuclear contribution   :     12.96725      11.65334       0.22803
                        -----------------------------------------
Total Dipole Moment    :      1.62475      -0.80021      -0.03286
                        -----------------------------------------
Magnitude (a.u.)       :      1.81141
Magnitude (Debye)      :      4.60425

                             ****ORCA TERMINATED NORMALLY****
TOTAL RUN TIME: 0 days 0 hours 15 minutes 21 seconds 497 msec
