                         Program Version 3.0.3 - RELEASE   -
|  1> ! RI-MP2 RIJK def2-TZVP def2-TZVP/C def2-TZVP/JK TIGHTSCF
|  2> % maxcore 2000
|  3> % mp2 density relaxed end
|  4> *xyz 0 1
|  5>  C       -0.0088870026     1.6003782753     0.0073439421
|  6>  C        0.0432823726     0.0686133526     0.0294910738
|  7>  C        0.7312916107    -0.5665862717    -1.2051072603
|  8>  C        1.3253214211    -1.9177178976    -0.7332591153
|  9>  C        2.5581573933    -2.3768589865    -1.5199107084
| 10>  C        1.5570523130    -1.7490397243     0.7688017859
| 11>  C        2.2726760211    -0.5282056116     1.2857084145
| 12>  O        3.1318139294     0.3071667858     0.5542786151
| 13>  C        0.7668388480    -0.5247107911     1.2389418799
| 14>  H        0.9992163534     2.0269500246     0.0222442488
| 15>  H       -0.5248175361     1.9681296999    -0.8864046195
| 16>  H       -0.5419007907     1.9878970215     0.8817725057
| 17>  H       -0.9883404769    -0.3068983089     0.0637597272
| 18>  H        0.0346329165    -0.6959971375    -2.0390487632
| 19>  H        1.5193457063     0.0928181476    -1.5977450075
| 20>  H        0.5441825415    -2.6813152706    -0.8480204364
| 21>  H        3.3860258199    -1.6710450909    -1.3977727339
| 22>  H        2.9060499053    -3.3541705505    -1.1695783401
| 23>  H        2.3373345815    -2.4663186195    -2.5892312000
| 24>  H        1.6134596056    -2.6570000194     1.3624460328
| 25>  H        2.6934360076    -0.6386767651     2.2806093591
| 26>  H        2.7858835087     0.4247934641    -0.3332438309
| 27>  H        0.2319679609    -0.5165635962     2.1843698308
| 28> *
| 29>
| 30>                          ****END OF INPUT****

CARTESIAN COORDINATES (ANGSTROEM)
---------------------------------
  C     -0.008887    1.600378    0.007344
  C      0.043282    0.068613    0.029491
  C      0.731292   -0.566586   -1.205107
  C      1.325321   -1.917718   -0.733259
  C      2.558157   -2.376859   -1.519911
  C      1.557052   -1.749040    0.768802
  C      2.272676   -0.528206    1.285708
  O      3.131814    0.307167    0.554279
  C      0.766839   -0.524711    1.238942
  H      0.999216    2.026950    0.022244
  H     -0.524818    1.968130   -0.886405
  H     -0.541901    1.987897    0.881773
  H     -0.988340   -0.306898    0.063760
  H      0.034633   -0.695997   -2.039049
  H      1.519346    0.092818   -1.597745
  H      0.544183   -2.681315   -0.848020
  H      3.386026   -1.671045   -1.397773
  H      2.906050   -3.354171   -1.169578
  H      2.337335   -2.466319   -2.589231
  H      1.613460   -2.657000    1.362446
  H      2.693436   -0.638677    2.280609
  H      2.785884    0.424793   -0.333244
  H      0.231968   -0.516564    2.184370

 Total Charge           Charge          ....    0
 Multiplicity           Mult            ....    1
 Number of Electrons    NEL             ....   70
 Basis Dimension        Dim             ....  363

ORBITAL ENERGIES
----------------

  NO   OCC          E(Eh)            E(eV)
   0   2.0000     -20.556184      -559.3622
   1   2.0000     -11.278486      -306.9032
   2   2.0000     -11.233307      -305.6738
   3   2.0000     -11.233297      -305.6736
   4   2.0000     -11.226591      -305.4911
   5   2.0000     -11.223749      -305.4137
   6   2.0000     -11.223141      -305.3972
   7   2.0000     -11.213496      -305.1347
   8   2.0000     -11.213494      -305.1347
   9   2.0000      -1.364710       -37.1356
  10   2.0000      -1.166056       -31.7300
  11   2.0000      -1.048839       -28.5404
  12   2.0000      -1.031375       -28.0651
  13   2.0000      -0.930483       -25.3197
  14   2.0000      -0.864574       -23.5263
  15   2.0000      -0.841431       -22.8965
  16   2.0000      -0.774437       -21.0735
  17   2.0000      -0.746715       -20.3192
  18   2.0000      -0.698305       -19.0018
  19   2.0000      -0.637966       -17.3599
  20   2.0000      -0.617091       -16.7919
  21   2.0000      -0.611462       -16.6387
  22   2.0000      -0.587379       -15.9834
  23   2.0000      -0.569943       -15.5089
  24   2.0000      -0.555398       -15.1132
  25   2.0000      -0.547151       -14.8887
  26   2.0000      -0.544893       -14.8273
  27   2.0000      -0.531873       -14.4730
  28   2.0000      -0.504670       -13.7328
  29   2.0000      -0.473699       -12.8900
  30   2.0000      -0.473356       -12.8807
  31   2.0000      -0.462289       -12.5795
  32   2.0000      -0.450688       -12.2638
  33   2.0000      -0.388837       -10.5808
  34   2.0000      -0.373672       -10.1681
  35   0.0000       0.128141         3.4869
  36   0.0000       0.149266         4.0617
  37   0.0000       0.153382         4.1737
  38   0.0000       0.168510         4.5854
  39   0.0000       0.188525         5.1300

MULLIKEN ATOMIC CHARGES
-----------------------
   0 C :   -0.391384
   1 C :   -0.023745
   2 C :   -0.389058
   3 C :   -0.023724
   4 C :   -0.391392
   5 C :   -0.112806
   6 C :   -0.002001
   7 O :   -0.441301
   8 C :   -0.112801
   9 H :    0.126462
  10 H :    0.130083
  11 H :    0.130814
  12 H :    0.093990
  13 H :    0.131339
  14 H :    0.117570
  15 H :    0.093989
  16 H :    0.126468
  17 H :    0.130813
  18 H :    0.130082
  19 H :    0.122025
  20 H :    0.116993
  21 H :    0.315558
  22 H :    0.122025
Sum of atomic charges:   -0.0000000

LOEWDIN ATOMIC CHARGES
----------------------
   0 C :   -0.292721
   1 C :   -0.250450
   2 C :   -0.210651
   3 C :   -0.250449
   4 C :   -0.292721
   5 C :   -0.167315
   6 C :   -0.285896
   7 O :    0.001090
   8 C :   -0.167315
   9 H :    0.123396
  10 H :    0.122429
  11 H :    0.124556
  12 H :    0.156178
  13 H :    0.137454
  14 H :    0.130958
  15 H :    0.156177
  16 H :    0.123397
  17 H :    0.124556
  18 H :    0.122429
  19 H :    0.143364
  20 H :    0.146210
  21 H :    0.161960
  22 H :    0.143364

  Mayer bond orders larger than 0.1
B(  0-C ,  1-C ) :   0.9118 B(  0-C ,  9-H ) :   0.9258 B(  0-C , 10-H ) :   0.9389
B(  0-C , 11-H ) :   0.9406 B(  1-C ,  2-C ) :   0.9052 B(  1-C ,  8-C ) :   0.9146
B(  1-C , 12-H ) :   0.9252 B(  2-C ,  3-C ) :   0.9052 B(  2-C , 13-H ) :   0.9223
B(  2-C , 14-H ) :   0.9403 B(  3-C ,  4-C ) :   0.9118 B(  3-C ,  5-C ) :   0.9146
B(  3-C , 15-H ) :   0.9252 B(  4-C , 16-H ) :   0.9258 B(  4-C , 17-H ) :   0.9406
B(  4-C , 18-H ) :   0.9389 B(  5-C ,  6-C ) :   0.8901 B(  5-C ,  8-C ) :   0.8173
B(  5-C , 19-H ) :   0.9156 B(  6-C ,  7-O ) :   0.9994 B(  6-C ,  8-C ) :   0.8901
B(  6-C , 20-H ) :   0.9532 B(  7-O , 21-H ) :   0.8309 B(  8-C , 22-H ) :   0.9156

MP2 TOTAL ENERGY:     -387.618551158 Eh
FINAL SINGLE POINT ENERGY      -387.618551158180

DIPOLE MOMENT
-------------
                                X             Y             Z
Electronic contribution:      1.92198      -0.24293       3.86300
Nuclear contribution   :     -2.58473      -0.07723      -4.14306
                        -----------------------------------------
Total Dipole Moment    :     -0.66275      -0.32015      -0.28007
                        -----------------------------------------
Magnitude (a.u.)       :      0.78751
Magnitude (Debye)      :      2.00168

                             ****ORCA TERMINATED NORMALLY****
TOTAL RUN TIME: 0 days 0 hours 21 minutes 53 seconds 90 msec
