                         Program Version 3.0.3 - RELEASE   -
|  1> ! RI-MP2 RIJK def2-TZVP def2-TZVP/C def2-TZVP/JK TIGHTSCF
|  2> % maxcore 2000
|  3> % mp2 density relaxed end
|  4> *xyz 0 1
|  5>  C        0.0186271924     1.4773224283     0.0757509603
|  6>  C       -0.0205651514    -0.0286934141    -0.0475718790
|  7>  C        0.6186806952    -0.6422742753    -1.3129248681
|  8>  C        0.0976916965    -2.1169071711    -1.2822730814
|  9>  O        1.0965303356    -3.1127786675    -1.3845885119
| 10>  C       -0.7407694558    -2.1455567204     0.0272263932
| 11>  C        0.2102639759    -1.9607380074     1.2144556580
| 12>  O        0.6698586996    -0.6043330279     1.0882178852
| 13>  C       -1.3843024297    -0.7470341340    -0.0052904688
| 14>  H        1.0523937719     1.8361795390     0.0852419971
| 15>  H       -0.4993488002     1.9463238159    -0.7663037044
| 16>  H       -0.4604607079     1.7986095640     1.0050881957
| 17>  H        0.3154424334    -0.1181653987    -2.2245019033
| 18>  H        1.7106475719    -0.6039900609    -1.2521336981
| 19>  H       -0.5670146568    -2.3069670943    -2.1304271378
| 20>  H        1.8253930351    -2.8715185197    -0.8038313196
| 21>  H       -1.4015901945    -3.0087406453     0.1125218154
| 22>  H       -0.3017001455    -2.0915383410     2.1771914426
| 23>  H        1.0621817773    -2.6520541416     1.1958384262
| 24>  H       -1.9617866744    -0.5033181096     0.8907252597
| 25>  H       -1.9957278587    -0.5662921784    -0.8940420309
| 26> *
| 27>
| 28>                          ****END OF INPUT****

CARTESIAN COORDINATES (ANGSTROEM)
---------------------------------
  C      0.018627    1.477322    0.075751
  C     -0.020565   -0.028693   -0.047572
  C      0.618681   -0.642274   -1.312925
  C      0.097692   -2.116907   -1.282273
  O      1.096530   -3.112779   -1.384589
  C     -0.740769   -2.145557    0.027226
  C      0.210264   -1.960738    1.214456
  O      0.669859   -0.604333    1.088218
  C     -1.384302   -0.747034   -0.005290
  H      1.052394    1.836180    0.085242
  H     -0.499349    1.946324   -0.766304
  H     -0.460461    1.798610    1.005088
  H      0.315442   -0.118165   -2.224502
  H      1.710648   -0.603990   -1.252134
  H     -0.567015   -2.306967   -2.130427
  H      1.825393   -2.871519   -0.803831
  H     -1.401590   -3.008741    0.112522
  H     -0.301700   -2.091538    2.177191
  H      1.062182   -2.652054    1.195838
  H     -1.961787   -0.503318    0.890725
  H     -1.995728   -0.566292   -0.894042

 Total Charge           Charge          ....    0
 Multiplicity           Mult            ....    1
 Number of Electrons    NEL             ....   70
 Basis Dimension        Dim             ....  351

ORBITAL ENERGIES
----------------

  NO   OCC          E(Eh)            E(eV)
   0   2.0000     -20.555732      -559.3499
   1   2.0000     -20.547788      -559.1337
   2   2.0000     -11.286279      -307.1153
   3   2.0000     -11.282380      -307.0092
   4   2.0000     -11.273851      -306.7771
   5   2.0000     -11.232028      -305.6390
   6   2.0000     -11.226915      -305.4999
   7   2.0000     -11.222647      -305.3837
   8   2.0000     -11.216983      -305.2296
   9   2.0000      -1.378106       -37.5002
  10   2.0000      -1.359798       -37.0020
  11   2.0000      -1.114079       -30.3156
  12   2.0000      -1.041073       -28.3290
  13   2.0000      -0.969976       -26.3944
  14   2.0000      -0.920482       -25.0476
  15   2.0000      -0.868540       -23.6342
  16   2.0000      -0.791123       -21.5276
  17   2.0000      -0.740749       -20.1568
  18   2.0000      -0.701424       -19.0867
  19   2.0000      -0.673271       -18.3206
  20   2.0000      -0.651723       -17.7343
  21   2.0000      -0.638596       -17.3771
  22   2.0000      -0.595451       -16.2030
  23   2.0000      -0.579561       -15.7707
  24   2.0000      -0.559306       -15.2195
  25   2.0000      -0.553910       -15.0726
  26   2.0000      -0.534686       -14.5495
  27   2.0000      -0.525623       -14.3029
  28   2.0000      -0.518023       -14.0961
  29   2.0000      -0.504696       -13.7335
  30   2.0000      -0.489106       -13.3093
  31   2.0000      -0.477284       -12.9876
  32   2.0000      -0.440405       -11.9840
  33   2.0000      -0.419766       -11.4224
  34   2.0000      -0.400054       -10.8860
  35   0.0000       0.129878         3.5342
  36   0.0000       0.151956         4.1349
  37   0.0000       0.157133         4.2758
  38   0.0000       0.169092         4.6012
  39   0.0000       0.195914         5.3311

MULLIKEN ATOMIC CHARGES
-----------------------
   0 C :   -0.411800
   1 C :    0.232308
   2 C :   -0.270814
   3 C :    0.001239
   4 O :   -0.458674
   5 C :    0.019898
   6 C :   -0.130378
   7 O :   -0.320458
   8 C :   -0.307857
   9 H :    0.140548
  10 H :    0.127545
  11 H :    0.134959
  12 H :    0.120260
  13 H :    0.120949
  14 H :    0.104575
  15 H :    0.318367
  16 H :    0.129799
  17 H :    0.102355
  18 H :    0.097514
  19 H :    0.121027
  20 H :    0.128639
Sum of atomic charges:    0.0000000

LOEWDIN ATOMIC CHARGES
----------------------
   0 C :   -0.267831
   1 C :   -0.355903
   2 C :   -0.196411
   3 C :   -0.305971
   4 O :   -0.013808
   5 C :   -0.229497
   6 C :   -0.274441
   7 O :    0.171094
   8 C :   -0.187290
   9 H :    0.131491
  10 H :    0.129352
  11 H :    0.130059
  12 H :    0.138763
  13 H :    0.140827
  14 H :    0.144146
  15 H :    0.171528
  16 H :    0.146965
  17 H :    0.123596
  18 H :    0.117902
  19 H :    0.141913
  20 H :    0.143517

  Mayer bond orders larger than 0.1
B(  0-C ,  1-C ) :   0.8559 B(  0-C ,  9-H ) :   0.9434 B(  0-C , 10-H ) :   0.9432
B(  0-C , 11-H ) :   0.9419 B(  1-C ,  2-C ) :   0.9110 B(  1-C ,  7-O ) :   0.9067
B(  1-C ,  8-C ) :   0.9340 B(  2-C ,  3-C ) :   0.9768 B(  2-C , 12-H ) :   0.9121
B(  2-C , 13-H ) :   0.9199 B(  3-C ,  4-O ) :   0.9532 B(  3-C ,  5-C ) :   0.8776
B(  3-C , 14-H ) :   0.9275 B(  4-O , 15-H ) :   0.8393 B(  5-C ,  6-C ) :   0.9169
B(  5-C ,  8-C ) :   0.8856 B(  5-C , 16-H ) :   0.9108 B(  6-C ,  7-O ) :   0.9512
B(  6-C , 17-H ) :   0.9255 B(  6-C , 18-H ) :   0.9239 B(  8-C , 19-H ) :   0.9041
B(  8-C , 20-H ) :   0.9225

MP2 TOTAL ENERGY:     -423.550451516 Eh
FINAL SINGLE POINT ENERGY      -423.550451515506

DIPOLE MOMENT
-------------
                                X             Y             Z
Electronic contribution:      1.79569      -3.62341       0.38306
Nuclear contribution   :     -2.23058       3.93762      -0.39168
                        -----------------------------------------
Total Dipole Moment    :     -0.43489       0.31421      -0.00862
                        -----------------------------------------
Magnitude (a.u.)       :      0.53660
Magnitude (Debye)      :      1.36392

                             ****ORCA TERMINATED NORMALLY****
TOTAL RUN TIME: 0 days 0 hours 19 minutes 58 seconds 353 msec
