                         Program Version 3.0.3 - RELEASE   -
|  1> ! RI-MP2 RIJK def2-TZVP def2-TZVP/C def2-TZVP/JK TIGHTSCF
|  2> % maxcore 2000
|  3> % mp2 density relaxed end
|  4> *xyz 0 1
|  5>  N       -0.4099277441     1.2761639926     0.3366056530
|  6>  C       -0.1342979363    -0.0801520181     0.0840500634
|  7>  C       -1.0398214347    -1.0393370915    -0.3045191027
|  8>  N       -0.4027539941    -2.2596391537    -0.3776040555
|  9>  C        0.9134183690    -2.0876405382    -0.0455492512
| 10>  C        1.1103697589    -0.7587387753     0.2543442806
| 11>  O       -2.3654143715    -0.9205492825    -0.6532000525
| 12>  C       -3.2638856782    -0.8513772017     0.3798471342
| 13>  O       -4.4306645674    -0.7206595866     0.1899734669
| 14>  H        0.4069593645     1.8578720794     0.2004965046
| 15>  H       -1.1578460655     1.6282331783    -0.2496566580
| 16>  H       -0.8324523464    -3.1049248608    -0.7095747417
| 17>  H        1.6005375574    -2.9174757217    -0.0468356941
| 18>  H        2.0403427164    -0.3103708233     0.5691841923
| 19>  H       -2.7620238980    -0.9255218368     1.3610649606
| 20> *
| 21>
| 22>                          ****END OF INPUT****

CARTESIAN COORDINATES (ANGSTROEM)
---------------------------------
  N     -0.409928    1.276164    0.336606
  C     -0.134298   -0.080152    0.084050
  C     -1.039821   -1.039337   -0.304519
  N     -0.402754   -2.259639   -0.377604
  C      0.913418   -2.087641   -0.045549
  C      1.110370   -0.758739    0.254344
  O     -2.365414   -0.920549   -0.653200
  C     -3.263886   -0.851377    0.379847
  O     -4.430665   -0.720660    0.189973
  H      0.406959    1.857872    0.200497
  H     -1.157846    1.628233   -0.249657
  H     -0.832452   -3.104925   -0.709575
  H      1.600538   -2.917476   -0.046836
  H      2.040343   -0.310371    0.569184
  H     -2.762024   -0.925522    1.361065

 Total Charge           Charge          ....    0
 Multiplicity           Mult            ....    1
 Number of Electrons    NEL             ....   66
 Basis Dimension        Dim             ....  315

ORBITAL ENERGIES
----------------

  NO   OCC          E(Eh)            E(eV)
   0   2.0000     -20.628484      -561.3296
   1   2.0000     -20.564242      -559.5815
   2   2.0000     -15.617420      -424.9716
   3   2.0000     -15.566776      -423.5935
   4   2.0000     -11.392161      -309.9965
   5   2.0000     -11.313328      -307.8513
   6   2.0000     -11.270937      -306.6978
   7   2.0000     -11.267374      -306.6008
   8   2.0000     -11.223547      -305.4082
   9   2.0000      -1.479987       -40.2725
  10   2.0000      -1.394404       -37.9437
  11   2.0000      -1.301518       -35.4161
  12   2.0000      -1.208733       -32.8913
  13   2.0000      -1.043568       -28.3969
  14   2.0000      -0.987721       -26.8772
  15   2.0000      -0.875703       -23.8291
  16   2.0000      -0.819324       -22.2949
  17   2.0000      -0.794861       -21.6293
  18   2.0000      -0.776654       -21.1338
  19   2.0000      -0.693377       -18.8678
  20   2.0000      -0.683547       -18.6003
  21   2.0000      -0.668293       -18.1852
  22   2.0000      -0.642519       -17.4838
  23   2.0000      -0.620155       -16.8753
  24   2.0000      -0.603709       -16.4278
  25   2.0000      -0.585546       -15.9335
  26   2.0000      -0.573128       -15.5956
  27   2.0000      -0.546160       -14.8618
  28   2.0000      -0.490431       -13.3453
  29   2.0000      -0.486194       -13.2300
  30   2.0000      -0.472338       -12.8530
  31   2.0000      -0.342317        -9.3149
  32   2.0000      -0.296346        -8.0640
  33   0.0000       0.128981         3.5098
  34   0.0000       0.132451         3.6042
  35   0.0000       0.147632         4.0173
  36   0.0000       0.161709         4.4003
  37   0.0000       0.168848         4.5946

MULLIKEN ATOMIC CHARGES
-----------------------
   0 N :   -0.531801
   1 C :    0.152794
   2 C :    0.102150
   3 N :   -0.251313
   4 C :   -0.074119
   5 C :   -0.259500
   6 O :   -0.230609
   7 C :    0.193912
   8 O :   -0.248718
   9 H :    0.247430
  10 H :    0.252321
  11 H :    0.254136
  12 H :    0.151263
  13 H :    0.130949
  14 H :    0.111105
Sum of atomic charges:   -0.0000000

LOEWDIN ATOMIC CHARGES
----------------------
   0 N :   -0.098500
   1 C :   -0.269094
   2 C :   -0.336915
   3 N :    0.190763
   4 C :   -0.237959
   5 C :   -0.180831
   6 O :    0.281909
   7 C :   -0.414318
   8 O :    0.139640
   9 H :    0.169352
  10 H :    0.169726
  11 H :    0.195683
  12 H :    0.134260
  13 H :    0.140703
  14 H :    0.115579

  Mayer bond orders larger than 0.1
B(  0-N ,  1-C ) :   1.0034 B(  0-N ,  9-H ) :   0.8811 B(  0-N , 10-H ) :   0.8736
B(  1-C ,  2-C ) :   1.4830 B(  1-C ,  5-C ) :   1.2458 B(  2-C ,  3-N ) :   1.1045
B(  2-C ,  6-O ) :   0.9931 B(  3-N ,  4-C ) :   1.1276 B(  3-N , 11-H ) :   0.8655
B(  4-C ,  5-C ) :   1.5017 B(  4-C , 12-H ) :   0.9172 B(  5-C , 13-H ) :   0.9265
B(  6-O ,  7-C ) :   0.9783 B(  7-C ,  8-O ) :   2.0513 B(  7-C , 14-H ) :   0.9090

MP2 TOTAL ENERGY:     -453.246227910 Eh
FINAL SINGLE POINT ENERGY      -453.246227910253

DIPOLE MOMENT
-------------
                                X             Y             Z
Electronic contribution:     -4.77539      -1.42047      -1.25972
Nuclear contribution   :      5.96947       1.00318       1.15730
                        -----------------------------------------
Total Dipole Moment    :      1.19408      -0.41729      -0.10242
                        -----------------------------------------
Magnitude (a.u.)       :      1.26904
Magnitude (Debye)      :      3.22564

                             ****ORCA TERMINATED NORMALLY****
TOTAL RUN TIME: 0 days 0 hours 13 minutes 24 seconds 350 msec
