                         Program Version 3.0.3 - RELEASE   -
|  1> ! RI-MP2 RIJK def2-TZVP def2-TZVP/C def2-TZVP/JK TIGHTSCF
|  2> % maxcore 2000
|  3> % mp2 density relaxed end
|  4> *xyz 0 1
|  5>  C       -0.2045860139     1.5999351171    -0.1741228843
|  6>  C        0.0788053087     0.0984340320     0.0294547527
|  7>  C        0.7687820134    -0.5311229204    -1.1455078954
|  8>  C        2.0465349037    -0.9575305160    -1.2477362984
|  9>  C        2.3387639709    -1.5715650755    -2.6008377163
| 10>  C        1.1259506970    -1.1340101047    -3.4548012031
| 11>  C        0.0149574582    -0.8056035586    -2.4306321430
| 12>  C        3.0679824419    -0.9032282400    -0.2046938518
| 13>  O        4.1970986830    -1.3287744700    -0.3445850298
| 14>  H        0.7281241905     2.1578733412    -0.2991561100
| 15>  H       -0.8232894921     1.7774093551    -1.0587150515
| 16>  H       -0.7335287784     2.0092113510     0.6914598037
| 17>  H        0.6628461669    -0.0357224974     0.9438744837
| 18>  H       -0.8752479034    -0.4216375150     0.1909256938
| 19>  H        3.2979403314    -1.2392078199    -3.0071579634
| 20>  H        2.4084950799    -2.6637257668    -2.5121332267
| 21>  H        1.3799911637    -0.2283630556    -4.0148906640
| 22>  H        0.8203093867    -1.8888296632    -4.1830912458
| 23>  H       -0.6639075497    -1.6573710840    -2.2715206913
| 24>  H       -0.6216224670     0.0311064643    -2.7390912796
| 25>  H        2.7605973085    -0.4347413738     0.7549744004
| 26> *
| 27>
| 28>                          ****END OF INPUT****

CARTESIAN COORDINATES (ANGSTROEM)
---------------------------------
  C     -0.204586    1.599935   -0.174123
  C      0.078805    0.098434    0.029455
  C      0.768782   -0.531123   -1.145508
  C      2.046535   -0.957531   -1.247736
  C      2.338764   -1.571565   -2.600838
  C      1.125951   -1.134010   -3.454801
  C      0.014957   -0.805604   -2.430632
  C      3.067982   -0.903228   -0.204694
  O      4.197099   -1.328774   -0.344585
  H      0.728124    2.157873   -0.299156
  H     -0.823289    1.777409   -1.058715
  H     -0.733529    2.009211    0.691460
  H      0.662846   -0.035722    0.943874
  H     -0.875248   -0.421638    0.190926
  H      3.297940   -1.239208   -3.007158
  H      2.408495   -2.663726   -2.512133
  H      1.379991   -0.228363   -4.014891
  H      0.820309   -1.888830   -4.183091
  H     -0.663908   -1.657371   -2.271521
  H     -0.621622    0.031106   -2.739091
  H      2.760597   -0.434741    0.754974

 Total Charge           Charge          ....    0
 Multiplicity           Mult            ....    1
 Number of Electrons    NEL             ....   68
 Basis Dimension        Dim             ....  351

ORBITAL ENERGIES
----------------

  NO   OCC          E(Eh)            E(eV)
   0   2.0000     -20.541362      -558.9589
   1   2.0000     -11.321231      -308.0664
   2   2.0000     -11.262198      -306.4600
   3   2.0000     -11.246242      -306.0258
   4   2.0000     -11.237497      -305.7878
   5   2.0000     -11.232349      -305.6478
   6   2.0000     -11.230151      -305.5880
   7   2.0000     -11.227804      -305.5241
   8   2.0000     -11.223435      -305.4052
   9   2.0000      -1.377094       -37.4726
  10   2.0000      -1.156922       -31.4814
  11   2.0000      -1.058031       -28.7905
  12   2.0000      -0.998553       -27.1720
  13   2.0000      -0.960196       -26.1282
  14   2.0000      -0.870659       -23.6918
  15   2.0000      -0.844543       -22.9812
  16   2.0000      -0.791804       -21.5461
  17   2.0000      -0.710517       -19.3341
  18   2.0000      -0.672820       -18.3084
  19   2.0000      -0.649955       -17.6862
  20   2.0000      -0.639303       -17.3963
  21   2.0000      -0.619268       -16.8511
  22   2.0000      -0.577965       -15.7272
  23   2.0000      -0.566598       -15.4179
  24   2.0000      -0.553085       -15.0502
  25   2.0000      -0.540641       -14.7116
  26   2.0000      -0.523496       -14.2451
  27   2.0000      -0.517020       -14.0688
  28   2.0000      -0.493644       -13.4327
  29   2.0000      -0.485848       -13.2206
  30   2.0000      -0.482941       -13.1415
  31   2.0000      -0.480542       -13.0762
  32   2.0000      -0.413890       -11.2625
  33   2.0000      -0.348271        -9.4769
  34   0.0000       0.090254         2.4559
  35   0.0000       0.126307         3.4370
  36   0.0000       0.145400         3.9565
  37   0.0000       0.161450         4.3933
  38   0.0000       0.166584         4.5330

MULLIKEN ATOMIC CHARGES
-----------------------
   0 C :   -0.388420
   1 C :   -0.220284
   2 C :    0.052434
   3 C :   -0.032959
   4 C :   -0.200489
   5 C :   -0.223811
   6 C :   -0.219007
   7 C :    0.052847
   8 O :   -0.289521
   9 H :    0.132967
  10 H :    0.127759
  11 H :    0.137612
  12 H :    0.122726
  13 H :    0.122054
  14 H :    0.138753
  15 H :    0.121837
  16 H :    0.114326
  17 H :    0.126645
  18 H :    0.125092
  19 H :    0.128966
  20 H :    0.070475
Sum of atomic charges:   -0.0000000

LOEWDIN ATOMIC CHARGES
----------------------
   0 C :   -0.303819
   1 C :   -0.249540
   2 C :   -0.102951
   3 C :   -0.152126
   4 C :   -0.204452
   5 C :   -0.235629
   6 C :   -0.209779
   7 C :   -0.276829
   8 O :    0.119516
   9 H :    0.123873
  10 H :    0.120684
  11 H :    0.123165
  12 H :    0.140683
  13 H :    0.148054
  14 H :    0.143559
  15 H :    0.145117
  16 H :    0.138412
  17 H :    0.132261
  18 H :    0.146649
  19 H :    0.138669
  20 H :    0.114484

  Mayer bond orders larger than 0.1
B(  0-C ,  1-C ) :   0.9095 B(  0-C ,  9-H ) :   0.9360 B(  0-C , 10-H ) :   0.9389
B(  0-C , 11-H ) :   0.9360 B(  1-C ,  2-C ) :   0.9012 B(  1-C , 12-H ) :   0.9490
B(  1-C , 13-H ) :   0.9204 B(  2-C ,  3-C ) :   1.5839 B(  2-C ,  6-C ) :   0.9319
B(  3-C ,  4-C ) :   0.9300 B(  3-C ,  7-C ) :   0.8902 B(  3-C ,  8-O ) :  -0.1078
B(  3-C , 20-H ) :  -0.1154 B(  4-C ,  5-C ) :   0.9397 B(  4-C , 14-H ) :   0.9295
B(  4-C , 15-H ) :   0.9084 B(  5-C ,  6-C ) :   0.9399 B(  5-C , 16-H ) :   0.9325
B(  5-C , 17-H ) :   0.9393 B(  6-C , 18-H ) :   0.9004 B(  6-C , 19-H ) :   0.9314
B(  7-C ,  8-O ) :   1.9836 B(  7-C , 20-H ) :   0.9953

MP2 TOTAL ENERGY:     -386.443396774 Eh
FINAL SINGLE POINT ENERGY      -386.443396774106

DIPOLE MOMENT
-------------
                                X             Y             Z
Electronic contribution:      7.64697      -3.90307       1.90294
Nuclear contribution   :     -9.04313       4.29835      -2.08222
                        -----------------------------------------
Total Dipole Moment    :     -1.39616       0.39528      -0.17928
                        -----------------------------------------
Magnitude (a.u.)       :      1.46207
Magnitude (Debye)      :      3.71628

                             ****ORCA TERMINATED NORMALLY****
TOTAL RUN TIME: 0 days 0 hours 20 minutes 33 seconds 978 msec
