                         Program Version 3.0.3 - RELEASE   -
|  1> ! RI-MP2 RIJK def2-TZVP def2-TZVP/C def2-TZVP/JK TIGHTSCF
|  2> % maxcore 2000
|  3> % mp2 density relaxed end
|  4> *xyz 0 1
|  5>  C        0.0549606059     1.2686423292    -0.2352335274
|  6>  O       -0.0326834994    -0.1410146395    -0.1278940782
|  7>  C       -1.3300495936    -0.6038455744     0.1589959014
|  8>  O       -2.2363337878    -0.3967452211    -0.9079084689
|  9>  C       -2.5363475473    -1.6405541545    -1.5413984065
| 10>  C       -1.9349857573    -2.6835223777    -0.6461874158
| 11>  C       -1.2632222933    -2.1021566722     0.3422823664
| 12>  C       -0.4687335512    -2.7337074384     1.4426641799
| 13>  O       -0.3181381602    -4.1350112528     1.3035617847
| 14>  H        1.1063148057     1.5129582164    -0.4021364500
| 15>  H       -0.5434234252     1.6443616453    -1.0735336393
| 16>  H       -0.2843060024     1.7622525321     0.6884978068
| 17>  H       -1.7179222282    -0.0477991342     1.0303121176
| 18>  H       -3.6273401904    -1.7308605363    -1.6331026590
| 19>  H       -2.1174373993    -1.6710036836    -2.5591767718
| 20>  H       -2.0402899949    -3.7481744688    -0.8080306603
| 21>  H        0.5023448184    -2.2200235379     1.5172590984
| 22>  H       -0.9735362019    -2.5816164136     2.4060002107
| 23>  H        0.1900151324    -4.2892159879     0.5001238513
| 24> *
| 25>
| 26>                          ****END OF INPUT****

CARTESIAN COORDINATES (ANGSTROEM)
---------------------------------
  C      0.054961    1.268642   -0.235234
  O     -0.032683   -0.141015   -0.127894
  C     -1.330050   -0.603846    0.158996
  O     -2.236334   -0.396745   -0.907908
  C     -2.536348   -1.640554   -1.541398
  C     -1.934986   -2.683522   -0.646187
  C     -1.263222   -2.102157    0.342282
  C     -0.468734   -2.733707    1.442664
  O     -0.318138   -4.135011    1.303562
  H      1.106315    1.512958   -0.402136
  H     -0.543423    1.644362   -1.073534
  H     -0.284306    1.762253    0.688498
  H     -1.717922   -0.047799    1.030312
  H     -3.627340   -1.730861   -1.633103
  H     -2.117437   -1.671004   -2.559177
  H     -2.040290   -3.748174   -0.808031
  H      0.502345   -2.220024    1.517259
  H     -0.973536   -2.581616    2.406000
  H      0.190015   -4.289216    0.500124

 Total Charge           Charge          ....    0
 Multiplicity           Mult            ....    1
 Number of Electrons    NEL             ....   70
 Basis Dimension        Dim             ....  339

ORBITAL ENERGIES
----------------

  NO   OCC          E(Eh)            E(eV)
   0   2.0000     -20.562172      -559.5251
   1   2.0000     -20.562009      -559.5207
   2   2.0000     -20.560176      -559.4708
   3   2.0000     -11.338471      -308.5355
   4   2.0000     -11.286577      -307.1234
   5   2.0000     -11.284120      -307.0565
   6   2.0000     -11.270786      -306.6937
   7   2.0000     -11.237959      -305.8004
   8   2.0000     -11.234545      -305.7075
   9   2.0000      -1.419606       -38.6294
  10   2.0000      -1.366985       -37.1976
  11   2.0000      -1.351996       -36.7897
  12   2.0000      -1.092641       -29.7323
  13   2.0000      -1.004331       -27.3292
  14   2.0000      -0.942632       -25.6503
  15   2.0000      -0.907261       -24.6878
  16   2.0000      -0.818690       -22.2777
  17   2.0000      -0.763654       -20.7801
  18   2.0000      -0.715319       -19.4648
  19   2.0000      -0.696725       -18.9589
  20   2.0000      -0.678089       -18.4518
  21   2.0000      -0.644731       -17.5440
  22   2.0000      -0.626057       -17.0359
  23   2.0000      -0.617413       -16.8007
  24   2.0000      -0.608723       -16.5642
  25   2.0000      -0.580189       -15.7878
  26   2.0000      -0.566461       -15.4142
  27   2.0000      -0.533517       -14.5177
  28   2.0000      -0.517570       -14.0838
  29   2.0000      -0.505078       -13.7439
  30   2.0000      -0.486575       -13.2404
  31   2.0000      -0.456877       -12.4323
  32   2.0000      -0.443105       -12.0575
  33   2.0000      -0.442163       -12.0319
  34   2.0000      -0.360489        -9.8094
  35   0.0000       0.139817         3.8046
  36   0.0000       0.146371         3.9830
  37   0.0000       0.156922         4.2701
  38   0.0000       0.165295         4.4979
  39   0.0000       0.174470         4.7476

MULLIKEN ATOMIC CHARGES
-----------------------
   0 C :   -0.227878
   1 O :   -0.296855
   2 C :    0.170043
   3 O :   -0.326268
   4 C :    0.030646
   5 C :   -0.244327
   6 C :   -0.010036
   7 C :   -0.038811
   8 O :   -0.472078
   9 H :    0.138218
  10 H :    0.138847
  11 H :    0.107763
  12 H :    0.075620
  13 H :    0.118651
  14 H :    0.106372
  15 H :    0.146193
  16 H :    0.139916
  17 H :    0.124088
  18 H :    0.319896
Sum of atomic charges:   -0.0000000

LOEWDIN ATOMIC CHARGES
----------------------
   0 C :   -0.351978
   1 O :    0.157053
   2 C :   -0.363515
   3 O :    0.178021
   4 C :   -0.278157
   5 C :   -0.135228
   6 C :   -0.164816
   7 C :   -0.308317
   8 O :   -0.037505
   9 H :    0.112783
  10 H :    0.107512
  11 H :    0.101903
  12 H :    0.129700
  13 H :    0.130190
  14 H :    0.128312
  15 H :    0.144314
  16 H :    0.132025
  17 H :    0.140479
  18 H :    0.177223

  Mayer bond orders larger than 0.1
B(  0-C ,  1-O ) :   0.8959 B(  0-C ,  9-H ) :   0.9376 B(  0-C , 10-H ) :   0.9393
B(  0-C , 11-H ) :   0.9338 B(  1-O ,  2-C ) :   1.0275 B(  2-C ,  3-O ) :   0.9880
B(  2-C ,  6-C ) :   0.9398 B(  2-C , 12-H ) :   0.9162 B(  3-O ,  4-C ) :   0.9205
B(  4-C ,  5-C ) :   0.9836 B(  4-C , 13-H ) :   0.9173 B(  4-C , 14-H ) :   0.9116
B(  5-C ,  6-C ) :   1.7564 B(  5-C , 15-H ) :   0.9082 B(  6-C ,  7-C ) :   0.8864
B(  7-C ,  8-O ) :   0.9463 B(  7-C , 16-H ) :   0.9607 B(  7-C , 17-H ) :   0.9076
B(  8-O , 18-H ) :   0.8426

MP2 TOTAL ENERGY:     -459.416431032 Eh
FINAL SINGLE POINT ENERGY      -459.416431032033

DIPOLE MOMENT
-------------
                                X             Y             Z
Electronic contribution:     -1.13994      -2.71886      -0.09756
Nuclear contribution   :      1.24157       2.89977      -0.17850
                        -----------------------------------------
Total Dipole Moment    :      0.10163       0.18092      -0.27606
                        -----------------------------------------
Magnitude (a.u.)       :      0.34535
Magnitude (Debye)      :      0.87782

                             ****ORCA TERMINATED NORMALLY****
TOTAL RUN TIME: 0 days 0 hours 15 minutes 48 seconds 361 msec
