                         Program Version 3.0.3 - RELEASE   -
|  1> ! RI-MP2 RIJK def2-TZVP def2-TZVP/C def2-TZVP/JK TIGHTSCF
|  2> % maxcore 2000
|  3> % mp2 density relaxed end
|  4> *xyz 0 1
|  5>  C       -0.1794728277     1.5428033598    -0.0014889657
|  6>  C        0.0081274954     0.0341707005    -0.0117411948
|  7>  C        1.1651554376    -0.5958854902    -0.8381570804
|  8>  C        2.1342012159    -0.2386167824     0.3121299621
|  9>  C        0.8634790148    -0.6130371482     1.1530599267
| 10>  C        0.7295181816    -2.1013163092     0.7628774361
| 11>  O        0.9543552081    -2.0057661776    -0.6586089169
| 12>  C        0.6949185082    -0.2498020817     2.5372992846
| 13>  N        0.5494363231     0.0574716852     3.6429010683
| 14>  H        0.7546543617     2.0975637871     0.1146731372
| 15>  H       -0.6433984272     1.8672461219    -0.9385820307
| 16>  H       -0.8429438852     1.8386626898     0.8173615088
| 17>  H       -0.9525328589    -0.4642601365    -0.1730381060
| 18>  H        1.3532992142    -0.3773010112    -1.8873263931
| 19>  H        3.0154904881    -0.8705928138     0.4335382592
| 20>  H        2.3969534309     0.8144828988     0.3819873494
| 21>  H        1.4881771512    -2.7368088141     1.2314996023
| 22>  H       -0.2657648819    -2.5073471881     0.9708362429
| 23> *
| 24>
| 25>                          ****END OF INPUT****

CARTESIAN COORDINATES (ANGSTROEM)
---------------------------------
  C     -0.179473    1.542803   -0.001489
  C      0.008127    0.034171   -0.011741
  C      1.165155   -0.595885   -0.838157
  C      2.134201   -0.238617    0.312130
  C      0.863479   -0.613037    1.153060
  C      0.729518   -2.101316    0.762877
  O      0.954355   -2.005766   -0.658609
  C      0.694919   -0.249802    2.537299
  N      0.549436    0.057472    3.642901
  H      0.754654    2.097564    0.114673
  H     -0.643398    1.867246   -0.938582
  H     -0.842944    1.838663    0.817362
  H     -0.952533   -0.464260   -0.173038
  H      1.353299   -0.377301   -1.887326
  H      3.015490   -0.870593    0.433538
  H      2.396953    0.814483    0.381987
  H      1.488177   -2.736809    1.231500
  H     -0.265765   -2.507347    0.970836

 Total Charge           Charge          ....    0
 Multiplicity           Mult            ....    1
 Number of Electrons    NEL             ....   66
 Basis Dimension        Dim             ....  333

ORBITAL ENERGIES
----------------

  NO   OCC          E(Eh)            E(eV)
   0   2.0000     -20.572017      -559.7930
   1   2.0000     -15.575984      -423.8441
   2   2.0000     -11.307156      -307.6834
   3   2.0000     -11.301936      -307.5413
   4   2.0000     -11.296454      -307.3921
   5   2.0000     -11.277449      -306.8750
   6   2.0000     -11.264618      -306.5258
   7   2.0000     -11.257042      -306.3197
   8   2.0000     -11.237857      -305.7976
   9   2.0000      -1.405787       -38.2534
  10   2.0000      -1.224816       -33.3289
  11   2.0000      -1.159108       -31.5409
  12   2.0000      -1.026344       -27.9282
  13   2.0000      -0.997156       -27.1340
  14   2.0000      -0.898351       -24.4454
  15   2.0000      -0.869848       -23.6698
  16   2.0000      -0.791571       -21.5397
  17   2.0000      -0.738587       -20.0980
  18   2.0000      -0.689698       -18.7676
  19   2.0000      -0.661870       -18.0104
  20   2.0000      -0.609779       -16.5929
  21   2.0000      -0.592576       -16.1248
  22   2.0000      -0.574178       -15.6242
  23   2.0000      -0.565272       -15.3818
  24   2.0000      -0.557071       -15.1587
  25   2.0000      -0.547234       -14.8910
  26   2.0000      -0.538825       -14.6622
  27   2.0000      -0.522869       -14.2280
  28   2.0000      -0.504374       -13.7247
  29   2.0000      -0.501082       -13.6351
  30   2.0000      -0.444443       -12.0939
  31   2.0000      -0.434910       -11.8345
  32   2.0000      -0.414644       -11.2830
  33   0.0000       0.125672         3.4197
  34   0.0000       0.143566         3.9066
  35   0.0000       0.146842         3.9958
  36   0.0000       0.165240         4.4964
  37   0.0000       0.174664         4.7529

MULLIKEN ATOMIC CHARGES
-----------------------
   0 C :   -0.419595
   1 C :   -0.116177
   2 C :    0.083302
   3 C :   -0.285833
   4 C :    0.164801
   5 C :   -0.057861
   6 O :   -0.327377
   7 C :   -0.228344
   8 N :   -0.034656
   9 H :    0.130255
  10 H :    0.145823
  11 H :    0.152988
  12 H :    0.122279
  13 H :    0.140869
  14 H :    0.135868
  15 H :    0.144834
  16 H :    0.125083
  17 H :    0.123739
Sum of atomic charges:    0.0000000

LOEWDIN ATOMIC CHARGES
----------------------
   0 C :   -0.282735
   1 C :   -0.172804
   2 C :   -0.245492
   3 C :   -0.154194
   4 C :   -0.225691
   5 C :   -0.222606
   6 O :    0.159943
   7 C :   -0.152199
   8 N :    0.072317
   9 H :    0.126371
  10 H :    0.131321
  11 H :    0.134378
  12 H :    0.154904
  13 H :    0.135505
  14 H :    0.137927
  15 H :    0.142321
  16 H :    0.130195
  17 H :    0.130542

  Mayer bond orders larger than 0.1
B(  0-C ,  1-C ) :   0.9282 B(  0-C ,  9-H ) :   0.9288 B(  0-C , 10-H ) :   0.9369
B(  0-C , 11-H ) :   0.9304 B(  1-C ,  2-C ) :   0.9100 B(  1-C ,  4-C ) :   0.8309
B(  1-C , 12-H ) :   0.9198 B(  2-C ,  3-C ) :   0.9180 B(  2-C ,  6-O ) :   0.9250
B(  2-C , 13-H ) :   0.9134 B(  3-C ,  4-C ) :   0.8805 B(  3-C , 14-H ) :   0.9166
B(  3-C , 15-H ) :   0.9244 B(  4-C ,  5-C ) :   0.9294 B(  4-C ,  7-C ) :   0.8580
B(  5-C ,  6-O ) :   0.9396 B(  5-C , 16-H ) :   0.9200 B(  5-C , 17-H ) :   0.9210
B(  7-C ,  8-N ) :   2.8940

MP2 TOTAL ENERGY:     -401.255447342 Eh
FINAL SINGLE POINT ENERGY      -401.255447341865

DIPOLE MOMENT
-------------
                                X             Y             Z
Electronic contribution:      0.68038      -3.42919       4.03206
Nuclear contribution   :     -0.55426       3.66066      -5.17687
                        -----------------------------------------
Total Dipole Moment    :      0.12612       0.23147      -1.14480
                        -----------------------------------------
Magnitude (a.u.)       :      1.17476
Magnitude (Debye)      :      2.98600

                             ****ORCA TERMINATED NORMALLY****
TOTAL RUN TIME: 0 days 0 hours 18 minutes 44 seconds 227 msec
