                         Program Version 3.0.3 - RELEASE   -
|  1> ! RI-MP2 RIJK def2-TZVP def2-TZVP/C def2-TZVP/JK TIGHTSCF
|  2> % maxcore 2000
|  3> % mp2 density relaxed end
|  4> *xyz 0 1
|  5>  C       -0.0052877443     1.5747847611    -0.1055918905
|  6>  C        0.1580400637     0.0666942349    -0.0365765422
|  7>  O        1.0494078313    -0.3587755292    -1.0691125138
|  8>  C        1.3656619648    -1.7161417961    -0.7833864889
|  9>  C        1.5107709337    -1.8090420432     0.7421526736
| 10>  C        2.8318664713    -1.2469105175     1.3358719474
| 11>  C        2.0975694997     0.0556455219     1.7563644097
| 12>  C        0.7484741893    -0.5340786499     1.2481521788
| 13>  H        0.9470830334     2.0871169223     0.0530511007
| 14>  H       -0.3872274351     1.8674677822    -1.0875461723
| 15>  H       -0.7150926003     1.9157225969     0.6545124527
| 16>  H       -0.8284496163    -0.4055094553    -0.2013809814
| 17>  H        0.5542433743    -2.3776602639    -1.1302586418
| 18>  H        2.2773578864    -1.9718763659    -1.3318839083
| 19>  H        1.1950961837    -2.7804270606     1.1273234222
| 20>  H        3.2151506704    -1.8303104504     2.1765405219
| 21>  H        3.6422231139    -1.1163560798     0.6127956855
| 22>  H        2.1216508562     0.2755621092     2.8260561401
| 23>  H        2.4298346737     0.9460572737     1.2185194451
| 24>  H       -0.0087520199    -0.6823367905     2.0203174413
| 25> *
| 26>
| 27>                          ****END OF INPUT****

CARTESIAN COORDINATES (ANGSTROEM)
---------------------------------
  C     -0.005288    1.574785   -0.105592
  C      0.158040    0.066694   -0.036577
  O      1.049408   -0.358776   -1.069113
  C      1.365662   -1.716142   -0.783386
  C      1.510771   -1.809042    0.742153
  C      2.831866   -1.246911    1.335872
  C      2.097569    0.055646    1.756364
  C      0.748474   -0.534079    1.248152
  H      0.947083    2.087117    0.053051
  H     -0.387227    1.867468   -1.087546
  H     -0.715093    1.915723    0.654512
  H     -0.828450   -0.405509   -0.201381
  H      0.554243   -2.377660   -1.130259
  H      2.277358   -1.971876   -1.331884
  H      1.195096   -2.780427    1.127323
  H      3.215151   -1.830310    2.176541
  H      3.642223   -1.116356    0.612796
  H      2.121651    0.275562    2.826056
  H      2.429835    0.946057    1.218519
  H     -0.008752   -0.682337    2.020317

 Total Charge           Charge          ....    0
 Multiplicity           Mult            ....    1
 Number of Electrons    NEL             ....   62
 Basis Dimension        Dim             ....  320

ORBITAL ENERGIES
----------------

  NO   OCC          E(Eh)            E(eV)
   0   2.0000     -20.545185      -559.0629
   1   2.0000     -11.272659      -306.7446
   2   2.0000     -11.266599      -306.5798
   3   2.0000     -11.224102      -305.4233
   4   2.0000     -11.223504      -305.4071
   5   2.0000     -11.217155      -305.2343
   6   2.0000     -11.216272      -305.2103
   7   2.0000     -11.211092      -305.0693
   8   2.0000      -1.372520       -37.3482
   9   2.0000      -1.123069       -30.5603
  10   2.0000      -1.031628       -28.0720
  11   2.0000      -0.947528       -25.7836
  12   2.0000      -0.912077       -24.8189
  13   2.0000      -0.854497       -23.2521
  14   2.0000      -0.779045       -21.1989
  15   2.0000      -0.731558       -19.9067
  16   2.0000      -0.692392       -18.8409
  17   2.0000      -0.643561       -17.5122
  18   2.0000      -0.625580       -17.0229
  19   2.0000      -0.611680       -16.6447
  20   2.0000      -0.581076       -15.8119
  21   2.0000      -0.571554       -15.5528
  22   2.0000      -0.531572       -14.4648
  23   2.0000      -0.516283       -14.0488
  24   2.0000      -0.503569       -13.7028
  25   2.0000      -0.492076       -13.3901
  26   2.0000      -0.465925       -12.6785
  27   2.0000      -0.454422       -12.3654
  28   2.0000      -0.425435       -11.5767
  29   2.0000      -0.421278       -11.4635
  30   2.0000      -0.404562       -11.0087
  31   0.0000       0.138936         3.7806
  32   0.0000       0.153750         4.1838
  33   0.0000       0.161564         4.3964
  34   0.0000       0.175180         4.7669
  35   0.0000       0.194593         5.2951

MULLIKEN ATOMIC CHARGES
-----------------------
   0 C :   -0.370410
   1 C :    0.012788
   2 O :   -0.323324
   3 C :   -0.062734
   4 C :   -0.108669
   5 C :   -0.220007
   6 C :   -0.284190
   7 C :    0.035230
   8 H :    0.122520
   9 H :    0.140354
  10 H :    0.124622
  11 H :    0.070196
  12 H :    0.085404
  13 H :    0.116549
  14 H :    0.109505
  15 H :    0.115362
  16 H :    0.103306
  17 H :    0.113532
  18 H :    0.107707
  19 H :    0.112259
Sum of atomic charges:    0.0000000

LOEWDIN ATOMIC CHARGES
----------------------
   0 C :   -0.289157
   1 C :   -0.325623
   2 O :    0.167861
   3 C :   -0.291207
   4 C :   -0.203956
   5 C :   -0.220551
   6 C :   -0.217049
   7 C :   -0.183030
   8 H :    0.123490
   9 H :    0.128358
  10 H :    0.127683
  11 H :    0.137960
  12 H :    0.119619
  13 H :    0.127603
  14 H :    0.139284
  15 H :    0.129106
  16 H :    0.129148
  17 H :    0.126863
  18 H :    0.131499
  19 H :    0.142100

  Mayer bond orders larger than 0.1
B(  0-C ,  1-C ) :   0.9135 B(  0-C ,  8-H ) :   0.9376 B(  0-C ,  9-H ) :   0.9368
B(  0-C , 10-H ) :   0.9341 B(  1-C ,  2-O ) :   0.9339 B(  1-C ,  7-C ) :   0.9178
B(  1-C , 11-H ) :   0.9271 B(  2-O ,  3-C ) :   0.9483 B(  3-C ,  4-C ) :   0.9537
B(  3-C , 12-H ) :   0.9281 B(  3-C , 13-H ) :   0.9173 B(  4-C ,  5-C ) :   0.9280
B(  4-C ,  7-C ) :   0.9269 B(  4-C , 14-H ) :   0.9100 B(  5-C ,  6-C ) :   0.9815
B(  5-C , 15-H ) :   0.9236 B(  5-C , 16-H ) :   0.9134 B(  6-C ,  7-C ) :   0.9246
B(  6-C , 17-H ) :   0.9239 B(  6-C , 18-H ) :   0.9071 B(  7-C , 19-H ) :   0.9040

MP2 TOTAL ENERGY:     -348.400283194 Eh
FINAL SINGLE POINT ENERGY      -348.400283193775

DIPOLE MOMENT
-------------
                                X             Y             Z
Electronic contribution:     -0.07209      -1.78565      -1.98287
Nuclear contribution   :     -0.09470       1.51969       2.49169
                        -----------------------------------------
Total Dipole Moment    :     -0.16678      -0.26596       0.50882
                        -----------------------------------------
Magnitude (a.u.)       :      0.59787
Magnitude (Debye)      :      1.51967

                             ****ORCA TERMINATED NORMALLY****
TOTAL RUN TIME: 0 days 0 hours 14 minutes 52 seconds 991 msec
