                         Program Version 3.0.3 - RELEASE   -
|  1> ! RI-MP2 RIJK def2-TZVP def2-TZVP/C def2-TZVP/JK TIGHTSCF
|  2> % maxcore 2000
|  3> % mp2 density relaxed end
|  4> *xyz 0 1
|  5>  C       -0.0923917007     1.5511976000     0.0030896081
|  6>  C        0.0694199911     0.0285465276    -0.0026217417
|  7>  C        0.7359348289    -0.5002659966    -1.2817476099
|  8>  C        1.0053102249    -2.0015643100    -1.1722228643
|  9>  C        1.9627148434    -2.2723939756    -0.0142869765
| 10>  N        1.5240897887    -1.5833955460     1.1921662539
| 11>  C        0.7743503726    -0.4407739487     1.2785751608
| 12>  O        0.6327624518     0.1371045612     2.3425162546
| 13>  H        0.8786335836     2.0480269702    -0.0981464371
| 14>  H       -0.7254222650     1.8730289334    -0.8297315918
| 15>  H       -0.5391442025     1.8812093196     0.9418197734
| 16>  H       -0.9338632779    -0.4202049841     0.0595008599
| 17>  H        0.0995291968    -0.2798307672    -2.1456665899
| 18>  H        1.6831107296     0.0314338543    -1.4493138297
| 19>  H        0.0618900938    -2.5348885208    -1.0020632866
| 20>  H        1.4396389722    -2.3973189642    -2.0956982084
| 21>  H        2.0201020728    -3.3463591449     0.1959933194
| 22>  H        2.9769091420    -1.9473242176    -0.2954310039
| 23>  H        1.9751891438    -1.8233372605     2.0638732198
| 24> *
| 25>
| 26>                          ****END OF INPUT****

CARTESIAN COORDINATES (ANGSTROEM)
---------------------------------
  C     -0.092392    1.551198    0.003090
  C      0.069420    0.028547   -0.002622
  C      0.735935   -0.500266   -1.281748
  C      1.005310   -2.001564   -1.172223
  C      1.962715   -2.272394   -0.014287
  N      1.524090   -1.583396    1.192166
  C      0.774350   -0.440774    1.278575
  O      0.632762    0.137105    2.342516
  H      0.878634    2.048027   -0.098146
  H     -0.725422    1.873029   -0.829732
  H     -0.539144    1.881209    0.941820
  H     -0.933863   -0.420205    0.059501
  H      0.099529   -0.279831   -2.145667
  H      1.683111    0.031434   -1.449314
  H      0.061890   -2.534889   -1.002063
  H      1.439639   -2.397319   -2.095698
  H      2.020102   -3.346359    0.195993
  H      2.976909   -1.947324   -0.295431
  H      1.975189   -1.823337    2.063873

 Total Charge           Charge          ....    0
 Multiplicity           Mult            ....    1
 Number of Electrons    NEL             ....   62
 Basis Dimension        Dim             ....  314

ORBITAL ENERGIES
----------------

  NO   OCC          E(Eh)            E(eV)
   0   2.0000     -20.505415      -557.9807
   1   2.0000     -15.576254      -423.8514
   2   2.0000     -11.339660      -308.5678
   3   2.0000     -11.275382      -306.8187
   4   2.0000     -11.241712      -305.9025
   5   2.0000     -11.237691      -305.7931
   6   2.0000     -11.234724      -305.7124
   7   2.0000     -11.212415      -305.1053
   8   2.0000      -1.372135       -37.3377
   9   2.0000      -1.229462       -33.4554
  10   2.0000      -1.094502       -29.7829
  11   2.0000      -1.032658       -28.1000
  12   2.0000      -0.939492       -25.5649
  13   2.0000      -0.860136       -23.4055
  14   2.0000      -0.836983       -22.7755
  15   2.0000      -0.744776       -20.2664
  16   2.0000      -0.686933       -18.6924
  17   2.0000      -0.660160       -17.9639
  18   2.0000      -0.637965       -17.3599
  19   2.0000      -0.617573       -16.8050
  20   2.0000      -0.594208       -16.1692
  21   2.0000      -0.584057       -15.8930
  22   2.0000      -0.569265       -15.4905
  23   2.0000      -0.539753       -14.6874
  24   2.0000      -0.521788       -14.1986
  25   2.0000      -0.500176       -13.6105
  26   2.0000      -0.491991       -13.3878
  27   2.0000      -0.475763       -12.9462
  28   2.0000      -0.466199       -12.6859
  29   2.0000      -0.406738       -11.0679
  30   2.0000      -0.384322       -10.4579
  31   0.0000       0.120597         3.2816
  32   0.0000       0.145959         3.9717
  33   0.0000       0.156022         4.2456
  34   0.0000       0.163534         4.4500
  35   0.0000       0.184294         5.0149

MULLIKEN ATOMIC CHARGES
-----------------------
   0 C :   -0.397811
   1 C :   -0.047095
   2 C :   -0.236105
   3 C :   -0.207096
   4 C :   -0.123830
   5 N :   -0.295552
   6 C :    0.180918
   7 O :   -0.359212
   8 H :    0.120935
   9 H :    0.127279
  10 H :    0.162957
  11 H :    0.107312
  12 H :    0.127310
  13 H :    0.113671
  14 H :    0.114211
  15 H :    0.131192
  16 H :    0.130336
  17 H :    0.114983
  18 H :    0.235599
Sum of atomic charges:   -0.0000000

LOEWDIN ATOMIC CHARGES
----------------------
   0 C :   -0.284547
   1 C :   -0.246710
   2 C :   -0.241321
   3 C :   -0.263649
   4 C :   -0.282603
   5 N :    0.110660
   6 C :   -0.431543
   7 O :    0.075880
   8 H :    0.124658
   9 H :    0.121787
  10 H :    0.133244
  11 H :    0.167671
  12 H :    0.140270
  13 H :    0.142817
  14 H :    0.141632
  15 H :    0.141102
  16 H :    0.133119
  17 H :    0.128978
  18 H :    0.188554

  Mayer bond orders larger than 0.1
B(  0-C ,  1-C ) :   0.9270 B(  0-C ,  8-H ) :   0.9318 B(  0-C ,  9-H ) :   0.9388
B(  0-C , 10-H ) :   0.9320 B(  1-C ,  2-C ) :   0.9083 B(  1-C ,  6-C ) :   0.9045
B(  1-C , 11-H ) :   0.9057 B(  2-C ,  3-C ) :   0.9159 B(  2-C , 12-H ) :   0.9267
B(  2-C , 13-H ) :   0.9265 B(  3-C ,  4-C ) :   0.9502 B(  3-C , 14-H ) :   0.9297
B(  3-C , 15-H ) :   0.9307 B(  4-C ,  5-N ) :   0.8762 B(  4-C , 16-H ) :   0.9286
B(  4-C , 17-H ) :   0.9311 B(  5-N ,  6-C ) :   1.1889 B(  5-N , 18-H ) :   0.8591
B(  6-C ,  7-O ) :   1.9651

MP2 TOTAL ENERGY:     -364.501606936 Eh
FINAL SINGLE POINT ENERGY      -364.501606935522

DIPOLE MOMENT
-------------
                                X             Y             Z
Electronic contribution:      0.59384      -0.84565       6.35504
Nuclear contribution   :     -0.18694      -0.04175      -7.54243
                        -----------------------------------------
Total Dipole Moment    :      0.40690      -0.88740      -1.18738
                        -----------------------------------------
Magnitude (a.u.)       :      1.53718
Magnitude (Debye)      :      3.90719

                             ****ORCA TERMINATED NORMALLY****
TOTAL RUN TIME: 0 days 0 hours 13 minutes 51 seconds 25 msec
