                         Program Version 3.0.3 - RELEASE   -
|  1> ! RI-MP2 RIJK def2-TZVP def2-TZVP/C def2-TZVP/JK TIGHTSCF
|  2> % maxcore 2000
|  3> % mp2 density relaxed end
|  4> *xyz 0 1
|  5>  N       -0.1863146687     1.1938734376    -0.1089783624
|  6>  C       -0.5250605505     0.0044365872    -0.3550088829
|  7>  O       -0.2879871239    -0.9469101793     0.5920507231
|  8>  C       -0.6626120690    -2.2485524087     0.3138587263
|  9>  C       -0.4492169697    -3.4009589530     1.2942650703
| 10>  C       -1.1205090236    -4.0609741391     0.0699967648
| 11>  C       -2.0299405819    -2.8186889357    -0.2145042738
| 12>  N       -1.6146786422    -2.6608215588    -1.6498190868
| 13>  C       -0.3734310860    -3.1381556406    -0.9505720213
| 14>  H       -0.4247378024     1.7857029353    -0.9029097168
| 15>  H       -1.0017062571    -0.3883023641    -1.2575993563
| 16>  H        0.5879676885    -3.6800220937     1.4965711519
| 17>  H       -1.0337316350    -3.3672676037     2.2171752342
| 18>  H       -1.3934058276    -5.1013112298    -0.0926337007
| 19>  H       -3.0368192570    -2.6153178246     0.1511767519
| 20>  H       -2.0115679377    -3.4164226268    -2.2150674370
| 21>  H        0.5774934939    -3.3123616721    -1.4548367744
| 22> *
| 23>
| 24>                          ****END OF INPUT****

CARTESIAN COORDINATES (ANGSTROEM)
---------------------------------
  N     -0.186315    1.193873   -0.108978
  C     -0.525061    0.004437   -0.355009
  O     -0.287987   -0.946910    0.592051
  C     -0.662612   -2.248552    0.313859
  C     -0.449217   -3.400959    1.294265
  C     -1.120509   -4.060974    0.069997
  C     -2.029941   -2.818689   -0.214504
  N     -1.614679   -2.660822   -1.649819
  C     -0.373431   -3.138156   -0.950572
  H     -0.424738    1.785703   -0.902910
  H     -1.001706   -0.388302   -1.257599
  H      0.587968   -3.680022    1.496571
  H     -1.033732   -3.367268    2.217175
  H     -1.393406   -5.101311   -0.092634
  H     -3.036819   -2.615318    0.151177
  H     -2.011568   -3.416423   -2.215067
  H      0.577493   -3.312362   -1.454837

 Total Charge           Charge          ....    0
 Multiplicity           Mult            ....    1
 Number of Electrons    NEL             ....   66
 Basis Dimension        Dim             ....  327

ORBITAL ENERGIES
----------------

  NO   OCC          E(Eh)            E(eV)
   0   2.0000     -20.595005      -560.4186
   1   2.0000     -15.564917      -423.5429
   2   2.0000     -15.536171      -422.7607
   3   2.0000     -11.329570      -308.2933
   4   2.0000     -11.319825      -308.0281
   5   2.0000     -11.287626      -307.1519
   6   2.0000     -11.287576      -307.1506
   7   2.0000     -11.261244      -306.4340
   8   2.0000     -11.242759      -305.9310
   9   2.0000      -1.434054       -39.0226
  10   2.0000      -1.309581       -35.6355
  11   2.0000      -1.194297       -32.4985
  12   2.0000      -1.114626       -30.3305
  13   2.0000      -0.903187       -24.5770
  14   2.0000      -0.896556       -24.3965
  15   2.0000      -0.895225       -24.3603
  16   2.0000      -0.824386       -22.4327
  17   2.0000      -0.750679       -20.4270
  18   2.0000      -0.718371       -19.5479
  19   2.0000      -0.679582       -18.4924
  20   2.0000      -0.653038       -17.7701
  21   2.0000      -0.643547       -17.5118
  22   2.0000      -0.611175       -16.6309
  23   2.0000      -0.600918       -16.3518
  24   2.0000      -0.574575       -15.6350
  25   2.0000      -0.510848       -13.9009
  26   2.0000      -0.495636       -13.4869
  27   2.0000      -0.467492       -12.7211
  28   2.0000      -0.457903       -12.4602
  29   2.0000      -0.447970       -12.1899
  30   2.0000      -0.433759       -11.8032
  31   2.0000      -0.390831       -10.6350
  32   2.0000      -0.386567       -10.5190
  33   0.0000       0.136043         3.7019
  34   0.0000       0.145666         3.9638
  35   0.0000       0.158396         4.3102
  36   0.0000       0.162156         4.4125
  37   0.0000       0.175470         4.7748

MULLIKEN ATOMIC CHARGES
-----------------------
   0 N :   -0.320472
   1 C :    0.025993
   2 O :   -0.224967
   3 C :    0.102438
   4 C :   -0.183470
   5 C :   -0.137696
   6 C :   -0.064580
   7 N :   -0.361919
   8 C :   -0.064601
   9 H :    0.228018
  10 H :    0.139506
  11 H :    0.123581
  12 H :    0.123584
  13 H :    0.145632
  14 H :    0.135255
  15 H :    0.198446
  16 H :    0.135251
Sum of atomic charges:    0.0000000

LOEWDIN ATOMIC CHARGES
----------------------
   0 N :   -0.075464
   1 C :   -0.372013
   2 O :    0.288153
   3 C :   -0.274067
   4 C :   -0.171360
   5 C :   -0.149096
   6 C :   -0.169317
   7 N :   -0.019067
   8 C :   -0.169324
   9 H :    0.168897
  10 H :    0.125013
  11 H :    0.134640
  12 H :    0.134640
  13 H :    0.132136
  14 H :    0.128996
  15 H :    0.158237
  16 H :    0.128996

  Mayer bond orders larger than 0.1
B(  0-N ,  1-C ) :   1.9765 B(  0-N ,  9-H ) :   0.8506 B(  1-C ,  2-O ) :   0.9904
B(  1-C , 10-H ) :   0.9141 B(  2-O ,  3-C ) :   0.9441 B(  3-C ,  4-C ) :   0.9233
B(  3-C ,  6-C ) :   0.8598 B(  3-C ,  8-C ) :   0.8598 B(  4-C ,  5-C ) :   0.8926
B(  4-C , 11-H ) :   0.9216 B(  4-C , 12-H ) :   0.9216 B(  5-C ,  6-C ) :   0.8560
B(  5-C ,  8-C ) :   0.8560 B(  5-C , 13-H ) :   0.8958 B(  6-C ,  7-N ) :   0.8864
B(  6-C , 14-H ) :   0.9032 B(  7-N ,  8-C ) :   0.8864 B(  7-N , 15-H ) :   0.8681
B(  8-C , 16-H ) :   0.9032

MP2 TOTAL ENERGY:     -417.195119621 Eh
FINAL SINGLE POINT ENERGY      -417.195119620524

DIPOLE MOMENT
-------------
                                X             Y             Z
Electronic contribution:      0.66153       2.63067       0.34755
Nuclear contribution   :     -1.22897      -4.06774      -1.00122
                        -----------------------------------------
Total Dipole Moment    :     -0.56744      -1.43707      -0.65368
                        -----------------------------------------
Magnitude (a.u.)       :      1.67763
Magnitude (Debye)      :      4.26420

                             ****ORCA TERMINATED NORMALLY****
TOTAL RUN TIME: 0 days 0 hours 15 minutes 50 seconds 56 msec
