                         Program Version 3.0.3 - RELEASE   -
|  1> ! RI-MP2 RIJK def2-TZVP def2-TZVP/C def2-TZVP/JK TIGHTSCF
|  2> % maxcore 2000
|  3> % mp2 density relaxed end
|  4> *xyz 0 1
|  5>  N       -0.0271733452     1.1562773717    -0.4491233614
|  6>  C       -0.0078654595    -0.0338887522    -0.0445258110
|  7>  C       -1.2552748544    -0.9426973320     0.0653848324
|  8>  C       -0.5560378238    -2.2704983704     0.1315896585
|  9>  C       -0.4503554577    -3.7320181415     0.6473019394
| 10>  C        0.9483474852    -3.3213987130     0.0354006587
| 11>  N        0.2509802727    -2.6563197626    -1.1178354412
| 12>  C        0.7756716503    -1.9876937805     0.8201777463
| 13>  O        1.1406188214    -0.6973294001     0.3719057921
| 14>  H        0.9103494177     1.5608071959    -0.4293352155
| 15>  H       -1.8060962145    -0.7089290730     0.9827062914
| 16>  H       -1.9099185780    -0.7846154620    -0.7914197580
| 17>  H       -0.5290170806    -3.9052463285     1.7259653022
| 18>  H       -0.9875066155    -4.4926221062     0.0761041011
| 19>  H        1.8305085904    -3.9494643807    -0.0950773157
| 20>  H       -0.2781083849    -3.3590096706    -1.6424149459
| 21>  H        0.8390573064    -2.0519624742     1.9086237064
| 22> *
| 23>
| 24>                          ****END OF INPUT****

CARTESIAN COORDINATES (ANGSTROEM)
---------------------------------
  N     -0.027173    1.156277   -0.449123
  C     -0.007865   -0.033889   -0.044526
  C     -1.255275   -0.942697    0.065385
  C     -0.556038   -2.270498    0.131590
  C     -0.450355   -3.732018    0.647302
  C      0.948347   -3.321399    0.035401
  N      0.250980   -2.656320   -1.117835
  C      0.775672   -1.987694    0.820178
  O      1.140619   -0.697329    0.371906
  H      0.910349    1.560807   -0.429335
  H     -1.806096   -0.708929    0.982706
  H     -1.909919   -0.784615   -0.791420
  H     -0.529017   -3.905246    1.725965
  H     -0.987507   -4.492622    0.076104
  H      1.830509   -3.949464   -0.095077
  H     -0.278108   -3.359010   -1.642415
  H      0.839057   -2.051962    1.908624

 Total Charge           Charge          ....    0
 Multiplicity           Mult            ....    1
 Number of Electrons    NEL             ....   66
 Basis Dimension        Dim             ....  327

ORBITAL ENERGIES
----------------

  NO   OCC          E(Eh)            E(eV)
   0   2.0000     -20.590398      -560.2932
   1   2.0000     -15.562575      -423.4792
   2   2.0000     -15.527792      -422.5327
   3   2.0000     -11.337153      -308.4996
   4   2.0000     -11.298791      -307.4557
   5   2.0000     -11.297141      -307.4108
   6   2.0000     -11.292311      -307.2794
   7   2.0000     -11.266177      -306.5683
   8   2.0000     -11.253752      -306.2302
   9   2.0000      -1.429437       -38.8970
  10   2.0000      -1.294956       -35.2375
  11   2.0000      -1.192388       -32.4465
  12   2.0000      -1.046051       -28.4645
  13   2.0000      -1.023910       -27.8620
  14   2.0000      -0.923200       -25.1215
  15   2.0000      -0.850307       -23.1380
  16   2.0000      -0.803671       -21.8690
  17   2.0000      -0.750860       -20.4319
  18   2.0000      -0.703080       -19.1318
  19   2.0000      -0.690504       -18.7896
  20   2.0000      -0.646153       -17.5827
  21   2.0000      -0.643739       -17.5170
  22   2.0000      -0.608638       -16.5619
  23   2.0000      -0.577679       -15.7194
  24   2.0000      -0.565282       -15.3821
  25   2.0000      -0.533666       -14.5218
  26   2.0000      -0.504885       -13.7386
  27   2.0000      -0.485237       -13.2040
  28   2.0000      -0.477063       -12.9815
  29   2.0000      -0.442423       -12.0389
  30   2.0000      -0.424714       -11.5570
  31   2.0000      -0.400433       -10.8963
  32   2.0000      -0.394585       -10.7372
  33   0.0000       0.129800         3.5320
  34   0.0000       0.153264         4.1705
  35   0.0000       0.160066         4.3556
  36   0.0000       0.169640         4.6161
  37   0.0000       0.172760         4.7010

MULLIKEN ATOMIC CHARGES
-----------------------
   0 N :   -0.357352
   1 C :    0.118074
   2 C :   -0.159440
   3 C :   -0.068575
   4 C :   -0.154578
   5 C :   -0.082198
   6 N :   -0.311499
   7 C :    0.075229
   8 O :   -0.263253
   9 H :    0.227719
  10 H :    0.138499
  11 H :    0.135658
  12 H :    0.116897
  13 H :    0.128798
  14 H :    0.147912
  15 H :    0.196229
  16 H :    0.111880
Sum of atomic charges:   -0.0000000

LOEWDIN ATOMIC CHARGES
----------------------
   0 N :   -0.051214
   1 C :   -0.362907
   2 C :   -0.182131
   3 C :   -0.252054
   4 C :   -0.179822
   5 C :   -0.203951
   6 N :    0.038506
   7 C :   -0.226429
   8 O :    0.253059
   9 H :    0.171420
  10 H :    0.156575
  11 H :    0.155211
  12 H :    0.130080
  13 H :    0.130457
  14 H :    0.123872
  15 H :    0.159374
  16 H :    0.139953

  Mayer bond orders larger than 0.1
B(  0-N ,  1-C ) :   2.0896 B(  0-N ,  9-H ) :   0.8536 B(  1-C ,  2-C ) :   0.9201
B(  1-C ,  8-O ) :   1.0470 B(  2-C ,  3-C ) :   0.9709 B(  2-C , 10-H ) :   0.9183
B(  2-C , 11-H ) :   0.8949 B(  3-C ,  4-C ) :   0.8711 B(  3-C ,  6-N ) :   0.9182
B(  3-C ,  7-C ) :   0.8559 B(  4-C ,  5-C ) :   0.9261 B(  4-C , 12-H ) :   0.9139
B(  4-C , 13-H ) :   0.9156 B(  5-C ,  6-N ) :   0.9119 B(  5-C ,  7-C ) :   0.8415
B(  5-C , 14-H ) :   0.8917 B(  6-N , 15-H ) :   0.8699 B(  7-C ,  8-O ) :   0.9388
B(  7-C , 16-H ) :   0.9625

MP2 TOTAL ENERGY:     -417.227820826 Eh
FINAL SINGLE POINT ENERGY      -417.227820826429

DIPOLE MOMENT
-------------
                                X             Y             Z
Electronic contribution:      2.28227       3.15660      -0.57390
Nuclear contribution   :     -2.57496      -4.62874       1.28303
                        -----------------------------------------
Total Dipole Moment    :     -0.29269      -1.47215       0.70913
                        -----------------------------------------
Magnitude (a.u.)       :      1.66004
Magnitude (Debye)      :      4.21949

                             ****ORCA TERMINATED NORMALLY****
TOTAL RUN TIME: 0 days 0 hours 17 minutes 36 seconds 163 msec
