                         Program Version 3.0.3 - RELEASE   -
|  1> ! RI-MP2 RIJK def2-TZVP def2-TZVP/C def2-TZVP/JK TIGHTSCF
|  2> % maxcore 2000
|  3> % mp2 density relaxed end
|  4> *xyz 0 1
|  5>  N       -0.0135611544     1.3030510140     0.3067436754
|  6>  C        0.0369405284    -0.0019429743    -0.1004879760
|  7>  O        1.0652959585    -0.5492156011    -0.4523780156
|  8>  C       -1.2515882844    -0.6714987177    -0.0936494960
|  9>  C       -2.2903513999    -1.2876067695    -0.1091050048
| 10>  C       -3.5128000471    -2.0272325998    -0.1322895238
| 11>  C       -3.7424647797    -3.0726191767    -1.2180624509
| 12>  C       -3.5004309964    -3.5176184363     0.1889684780
| 13>  H        0.8581011447     1.7961509565     0.4118267233
| 14>  H       -0.8509410223     1.6936198056     0.7020463745
| 15>  H       -4.3923513226    -1.4794673274     0.1920659995
| 16>  H       -4.7457949634    -3.1422304288    -1.6223181003
| 17>  H       -2.9478402547    -3.2086680628    -1.9413369674
| 18>  H       -2.5402678210    -3.9581477784     0.4279473044
| 19>  H       -4.3347807859    -3.8980017435     0.7670085797
| 20> *
| 21>
| 22>                          ****END OF INPUT****

CARTESIAN COORDINATES (ANGSTROEM)
---------------------------------
  N     -0.013561    1.303051    0.306744
  C      0.036941   -0.001943   -0.100488
  O      1.065296   -0.549216   -0.452378
  C     -1.251588   -0.671499   -0.093649
  C     -2.290351   -1.287607   -0.109105
  C     -3.512800   -2.027233   -0.132290
  C     -3.742465   -3.072619   -1.218062
  C     -3.500431   -3.517618    0.188968
  H      0.858101    1.796151    0.411827
  H     -0.850941    1.693620    0.702046
  H     -4.392351   -1.479467    0.192066
  H     -4.745795   -3.142230   -1.622318
  H     -2.947840   -3.208668   -1.941337
  H     -2.540268   -3.958148    0.427947
  H     -4.334781   -3.898002    0.767009

 Total Charge           Charge          ....    0
 Multiplicity           Mult            ....    1
 Number of Electrons    NEL             ....   58
 Basis Dimension        Dim             ....  290

ORBITAL ENERGIES
----------------

  NO   OCC          E(Eh)            E(eV)
   0   2.0000     -20.522173      -558.4367
   1   2.0000     -15.586295      -424.1246
   2   2.0000     -11.373613      -309.4918
   3   2.0000     -11.270214      -306.6781
   4   2.0000     -11.258280      -306.3534
   5   2.0000     -11.251297      -306.1634
   6   2.0000     -11.250590      -306.1441
   7   2.0000     -11.234682      -305.7112
   8   2.0000      -1.385931       -37.7131
   9   2.0000      -1.215272       -33.0692
  10   2.0000      -1.171479       -31.8776
  11   2.0000      -1.047828       -28.5128
  12   2.0000      -0.910817       -24.7846
  13   2.0000      -0.847187       -23.0531
  14   2.0000      -0.842641       -22.9294
  15   2.0000      -0.753583       -20.5060
  16   2.0000      -0.713052       -19.4031
  17   2.0000      -0.689072       -18.7506
  18   2.0000      -0.663422       -18.0526
  19   2.0000      -0.617016       -16.7899
  20   2.0000      -0.585028       -15.9194
  21   2.0000      -0.572734       -15.5849
  22   2.0000      -0.537034       -14.6135
  23   2.0000      -0.487014       -13.2523
  24   2.0000      -0.473156       -12.8752
  25   2.0000      -0.449158       -12.2222
  26   2.0000      -0.418471       -11.3872
  27   2.0000      -0.392685       -10.6855
  28   2.0000      -0.371215       -10.1013
  29   0.0000       0.117688         3.2025
  30   0.0000       0.129044         3.5115
  31   0.0000       0.145621         3.9625
  32   0.0000       0.164842         4.4856
  33   0.0000       0.175328         4.7709

MULLIKEN ATOMIC CHARGES
-----------------------
   0 N :   -0.468830
   1 C :    0.219860
   2 O :   -0.323624
   3 C :    0.038836
   4 C :   -0.014858
   5 C :   -0.233693
   6 C :   -0.231885
   7 C :   -0.231840
   8 H :    0.260952
   9 H :    0.263213
  10 H :    0.141994
  11 H :    0.138243
  12 H :    0.151870
  13 H :    0.151631
  14 H :    0.138132
Sum of atomic charges:    0.0000000

LOEWDIN ATOMIC CHARGES
----------------------
   0 N :   -0.010223
   1 C :   -0.482411
   2 O :    0.101473
   3 C :   -0.029873
   4 C :   -0.031594
   5 C :   -0.210470
   6 C :   -0.199872
   7 C :   -0.200137
   8 H :    0.174567
   9 H :    0.174469
  10 H :    0.162638
  11 H :    0.134560
  12 H :    0.141243
  13 H :    0.141131
  14 H :    0.134499

  Mayer bond orders larger than 0.1
B(  0-N ,  1-C ) :   1.2289 B(  0-N ,  3-C ) :  -0.1160 B(  0-N ,  8-H ) :   0.8602
B(  0-N ,  9-H ) :   0.8676 B(  1-C ,  2-O ) :   2.0454 B(  1-C ,  3-C ) :   0.8755
B(  3-C ,  4-C ) :   2.6764 B(  3-C ,  5-C ) :  -0.1427 B(  4-C ,  5-C ) :   1.1244
B(  5-C ,  6-C ) :   0.8532 B(  5-C ,  7-C ) :   0.8539 B(  5-C , 10-H ) :   0.9280
B(  6-C ,  7-C ) :   0.9025 B(  6-C , 11-H ) :   0.9291 B(  6-C , 12-H ) :   0.9316
B(  7-C , 13-H ) :   0.9317 B(  7-C , 14-H ) :   0.9292

MP2 TOTAL ENERGY:     -362.021563576 Eh
FINAL SINGLE POINT ENERGY      -362.021563575758

DIPOLE MOMENT
-------------
                                X             Y             Z
Electronic contribution:      5.90843       4.09870       0.22779
Nuclear contribution   :     -7.29081      -3.60294       0.30207
                        -----------------------------------------
Total Dipole Moment    :     -1.38237       0.49576       0.52986
                        -----------------------------------------
Magnitude (a.u.)       :      1.56125
Magnitude (Debye)      :      3.96837

                             ****ORCA TERMINATED NORMALLY****
TOTAL RUN TIME: 0 days 0 hours 9 minutes 6 seconds 891 msec
