                         Program Version 3.0.3 - RELEASE   -
|  1> ! RI-MP2 RIJK def2-TZVP def2-TZVP/C def2-TZVP/JK TIGHTSCF
|  2> % maxcore 2000
|  3> % mp2 density relaxed end
|  4> *xyz 0 1
|  5>  C        0.0707814673     1.5157385592    -0.2999432577
|  6>  C        0.0976030423     0.0230738033    -0.1011372601
|  7>  O        1.3943395950    -0.5947447152     0.0067070460
|  8>  C        0.5481256798    -0.6072547128     1.1439762926
|  9>  C        0.9706900610    -0.0003170705     2.4934775553
| 10>  C        0.4005228554    -1.2607901259     3.1872147657
| 11>  O       -1.0048668719    -1.1490996863     3.4959631671
| 12>  C       -1.3790565092    -1.8688414449     2.2975201020
| 13>  C        0.0779251156    -1.9108544313     1.8067660934
| 14>  H        0.7675100338     2.0126138889     0.3798002601
| 15>  H        0.3513344420     1.7730530795    -1.3266166088
| 16>  H       -0.9356629800     1.9080298344    -0.1178935464
| 17>  H       -0.5986582458    -0.5430698774    -0.7239102685
| 18>  H        2.0595211004     0.0762285634     2.5735919905
| 19>  H        0.5118829224     0.9445998841     2.7939900870
| 20>  H        0.9729171104    -1.7236295462     3.9940591932
| 21>  H       -1.8013785301    -2.8517646666     2.5420337344
| 22>  H       -2.0958740044    -1.3133686688     1.6803212200
| 23>  H        0.4942494361    -2.8424746568     1.4270815542
| 24> *
| 25>
| 26>                          ****END OF INPUT****

CARTESIAN COORDINATES (ANGSTROEM)
---------------------------------
  C      0.070781    1.515739   -0.299943
  C      0.097603    0.023074   -0.101137
  O      1.394340   -0.594745    0.006707
  C      0.548126   -0.607255    1.143976
  C      0.970690   -0.000317    2.493478
  C      0.400523   -1.260790    3.187215
  O     -1.004867   -1.149100    3.495963
  C     -1.379057   -1.868841    2.297520
  C      0.077925   -1.910854    1.806766
  H      0.767510    2.012614    0.379800
  H      0.351334    1.773053   -1.326617
  H     -0.935663    1.908030   -0.117894
  H     -0.598658   -0.543070   -0.723910
  H      2.059521    0.076229    2.573592
  H      0.511883    0.944600    2.793990
  H      0.972917   -1.723630    3.994059
  H     -1.801379   -2.851765    2.542034
  H     -2.095874   -1.313369    1.680321
  H      0.494249   -2.842475    1.427082

 Total Charge           Charge          ....    0
 Multiplicity           Mult            ....    1
 Number of Electrons    NEL             ....   68
 Basis Dimension        Dim             ....  339

ORBITAL ENERGIES
----------------

  NO   OCC          E(Eh)            E(eV)
   0   2.0000     -20.565351      -559.6116
   1   2.0000     -20.552844      -559.2713
   2   2.0000     -11.293019      -307.2987
   3   2.0000     -11.289353      -307.1989
   4   2.0000     -11.288111      -307.1651
   5   2.0000     -11.286233      -307.1140
   6   2.0000     -11.240189      -305.8611
   7   2.0000     -11.231396      -305.6218
   8   2.0000     -11.227531      -305.5166
   9   2.0000      -1.413476       -38.4626
  10   2.0000      -1.384346       -37.6700
  11   2.0000      -1.106025       -30.0965
  12   2.0000      -1.013659       -27.5831
  13   2.0000      -0.981764       -26.7151
  14   2.0000      -0.882069       -24.0023
  15   2.0000      -0.864134       -23.5143
  16   2.0000      -0.807997       -21.9867
  17   2.0000      -0.723016       -19.6743
  18   2.0000      -0.703578       -19.1453
  19   2.0000      -0.683340       -18.5946
  20   2.0000      -0.649550       -17.6752
  21   2.0000      -0.627890       -17.0857
  22   2.0000      -0.603084       -16.4108
  23   2.0000      -0.588715       -16.0198
  24   2.0000      -0.570341       -15.5198
  25   2.0000      -0.550533       -14.9808
  26   2.0000      -0.539721       -14.6866
  27   2.0000      -0.522088       -14.2067
  28   2.0000      -0.491559       -13.3760
  29   2.0000      -0.477564       -12.9952
  30   2.0000      -0.448861       -12.2141
  31   2.0000      -0.430467       -11.7136
  32   2.0000      -0.409418       -11.1408
  33   2.0000      -0.406758       -11.0685
  34   0.0000       0.137836         3.7507
  35   0.0000       0.152187         4.1412
  36   0.0000       0.157337         4.2814
  37   0.0000       0.174884         4.7588
  38   0.0000       0.188192         5.1210

MULLIKEN ATOMIC CHARGES
-----------------------
   0 C :   -0.397197
   1 C :    0.051891
   2 O :   -0.333136
   3 C :    0.065932
   4 C :   -0.216538
   5 C :    0.066260
   6 O :   -0.335712
   7 C :   -0.045220
   8 C :   -0.096097
   9 H :    0.142379
  10 H :    0.141888
  11 H :    0.130472
  12 H :    0.114541
  13 H :    0.125100
  14 H :    0.129754
  15 H :    0.113448
  16 H :    0.103852
  17 H :    0.100807
  18 H :    0.137576
Sum of atomic charges:   -0.0000000

LOEWDIN ATOMIC CHARGES
----------------------
   0 C :   -0.291500
   1 C :   -0.268134
   2 O :    0.185230
   3 C :   -0.276274
   4 C :   -0.179673
   5 C :   -0.225401
   6 O :    0.132528
   7 C :   -0.246364
   8 C :   -0.152898
   9 H :    0.131081
  10 H :    0.130072
  11 H :    0.131105
  12 H :    0.138189
  13 H :    0.145732
  14 H :    0.139059
  15 H :    0.125970
  16 H :    0.119690
  17 H :    0.118213
  18 H :    0.143374

  Mayer bond orders larger than 0.1
B(  0-C ,  1-C ) :   0.8829 B(  0-C ,  9-H ) :   0.9424 B(  0-C , 10-H ) :   0.9353
B(  0-C , 11-H ) :   0.9240 B(  1-C ,  2-O ) :   0.8791 B(  1-C ,  3-C ) :   0.9344
B(  1-C , 12-H ) :   0.9175 B(  2-O ,  3-C ) :   0.9229 B(  3-C ,  4-C ) :   0.9419
B(  3-C ,  8-C ) :   0.8663 B(  4-C ,  5-C ) :   0.9123 B(  4-C , 13-H ) :   0.9007
B(  4-C , 14-H ) :   0.9015 B(  5-C ,  6-O ) :   0.9618 B(  5-C ,  8-C ) :   0.9346
B(  5-C , 15-H ) :   0.9356 B(  6-O ,  7-C ) :   0.9380 B(  7-C ,  8-C ) :   0.9575
B(  7-C , 16-H ) :   0.9199 B(  7-C , 17-H ) :   0.9078 B(  8-C , 18-H ) :   0.9010

MP2 TOTAL ENERGY:     -422.260018203 Eh
FINAL SINGLE POINT ENERGY      -422.260018202863

DIPOLE MOMENT
-------------
                                X             Y             Z
Electronic contribution:      1.16306      -3.54674       1.91953
Nuclear contribution   :     -1.40050       3.52857      -2.15148
                        -----------------------------------------
Total Dipole Moment    :     -0.23745      -0.01817      -0.23195
                        -----------------------------------------
Magnitude (a.u.)       :      0.33243
Magnitude (Debye)      :      0.84498

                             ****ORCA TERMINATED NORMALLY****
TOTAL RUN TIME: 0 days 0 hours 17 minutes 35 seconds 261 msec
