                         Program Version 3.0.3 - RELEASE   -
|  1> ! RI-MP2 RIJK def2-TZVP def2-TZVP/C def2-TZVP/JK TIGHTSCF
|  2> % maxcore 2000
|  3> % mp2 density relaxed end
|  4> *xyz 0 1
|  5>  C       -0.0582472249     1.5835712301     0.0550217852
|  6>  C       -0.0074842749     0.0541966392     0.0088154499
|  7>  C        0.7090956098    -0.4828645837    -1.2349830774
|  8>  C        0.7604387647    -2.0132657207    -1.2801407528
|  9>  C        1.4891437023    -2.5821845406    -2.5152015500
| 10>  C        1.6172109268    -4.1248928967    -2.4597355732
| 11>  O        2.3252412171    -4.6576519354    -3.5537206278
| 12>  C        0.8139077372    -2.2138847106    -3.7637085275
| 13>  N        0.2741537422    -1.9792959977    -4.7594756214
| 14>  H        0.9494521419     2.0135164734     0.0602375362
| 15>  H       -0.5851625480     1.9880481623    -0.8160547672
| 16>  H       -0.5758283583     1.9377417546     0.9516775198
| 17>  H        0.4943797298    -0.3247019703     0.9091067659
| 18>  H       -1.0286279699    -0.3480164947     0.0386972705
| 19>  H        0.2064785362    -0.1082588619    -2.1358110919
| 20>  H        1.7323358769    -0.0838993778    -1.2671469777
| 21>  H        1.2780685720    -2.3925683841    -0.3901943199
| 22>  H       -0.2575183610    -2.4207040672    -1.2476606280
| 23>  H        2.5050005226    -2.1700883056    -2.5629629885
| 24>  H        2.1875710282    -4.3876945275    -1.5637128141
| 25>  H        0.6136118775    -4.5654872657    -2.3609285089
| 26>  H        1.8034779719    -4.5088941594    -4.3507824214
| 27> *
| 28>
| 29>                          ****END OF INPUT****

CARTESIAN COORDINATES (ANGSTROEM)
---------------------------------
  C     -0.058247    1.583571    0.055022
  C     -0.007484    0.054197    0.008815
  C      0.709096   -0.482865   -1.234983
  C      0.760439   -2.013266   -1.280141
  C      1.489144   -2.582185   -2.515202
  C      1.617211   -4.124893   -2.459736
  O      2.325241   -4.657652   -3.553721
  C      0.813908   -2.213885   -3.763709
  N      0.274154   -1.979296   -4.759476
  H      0.949452    2.013516    0.060238
  H     -0.585163    1.988048   -0.816055
  H     -0.575828    1.937742    0.951678
  H      0.494380   -0.324702    0.909107
  H     -1.028628   -0.348016    0.038697
  H      0.206479   -0.108259   -2.135811
  H      1.732336   -0.083899   -1.267147
  H      1.278069   -2.392568   -0.390194
  H     -0.257518   -2.420704   -1.247661
  H      2.505001   -2.170088   -2.562963
  H      2.187571   -4.387695   -1.563713
  H      0.613612   -4.565487   -2.360929
  H      1.803478   -4.508894   -4.350782

 Total Charge           Charge          ....    0
 Multiplicity           Mult            ....    1
 Number of Electrons    NEL             ....   70
 Basis Dimension        Dim             ....  357

ORBITAL ENERGIES
----------------

  NO   OCC          E(Eh)            E(eV)
   0   2.0000     -20.572407      -559.8036
   1   2.0000     -15.574803      -423.8119
   2   2.0000     -11.303432      -307.5820
   3   2.0000     -11.286278      -307.1152
   4   2.0000     -11.276924      -306.8607
   5   2.0000     -11.252816      -306.2047
   6   2.0000     -11.234962      -305.7188
   7   2.0000     -11.231112      -305.6141
   8   2.0000     -11.220248      -305.3185
   9   2.0000      -1.381158       -37.5832
  10   2.0000      -1.225327       -33.3428
  11   2.0000      -1.120689       -30.4955
  12   2.0000      -1.063862       -28.9492
  13   2.0000      -0.979569       -26.6554
  14   2.0000      -0.900871       -24.5140
  15   2.0000      -0.863934       -23.5088
  16   2.0000      -0.807720       -21.9792
  17   2.0000      -0.729303       -19.8453
  18   2.0000      -0.702529       -19.1168
  19   2.0000      -0.650550       -17.7024
  20   2.0000      -0.640937       -17.4408
  21   2.0000      -0.615669       -16.7532
  22   2.0000      -0.595716       -16.2102
  23   2.0000      -0.588017       -16.0008
  24   2.0000      -0.573144       -15.5960
  25   2.0000      -0.557977       -15.1833
  26   2.0000      -0.532287       -14.4843
  27   2.0000      -0.521437       -14.1890
  28   2.0000      -0.510116       -13.8810
  29   2.0000      -0.492908       -13.4127
  30   2.0000      -0.487756       -13.2725
  31   2.0000      -0.481859       -13.1121
  32   2.0000      -0.476535       -12.9672
  33   2.0000      -0.458370       -12.4729
  34   2.0000      -0.441127       -12.0037
  35   0.0000       0.118201         3.2164
  36   0.0000       0.137947         3.7537
  37   0.0000       0.146605         3.9893
  38   0.0000       0.149906         4.0792
  39   0.0000       0.165794         4.5115

MULLIKEN ATOMIC CHARGES
-----------------------
   0 C :   -0.386722
   1 C :   -0.185988
   2 C :   -0.259574
   3 C :   -0.254009
   4 C :    0.089274
   5 C :   -0.021447
   6 O :   -0.467686
   7 C :   -0.267343
   8 N :   -0.054250
   9 H :    0.123345
  10 H :    0.128157
  11 H :    0.135881
  12 H :    0.106595
  13 H :    0.110177
  14 H :    0.137684
  15 H :    0.111459
  16 H :    0.127160
  17 H :    0.127574
  18 H :    0.128413
  19 H :    0.124962
  20 H :    0.114834
  21 H :    0.331506
Sum of atomic charges:   -0.0000000

LOEWDIN ATOMIC CHARGES
----------------------
   0 C :   -0.319240
   1 C :   -0.295640
   2 C :   -0.266453
   3 C :   -0.228193
   4 C :   -0.253950
   5 C :   -0.313957
   6 O :   -0.027324
   7 C :   -0.184933
   8 N :    0.058051
   9 H :    0.120834
  10 H :    0.122212
  11 H :    0.121559
  12 H :    0.134528
  13 H :    0.135995
  14 H :    0.145392
  15 H :    0.139213
  16 H :    0.145474
  17 H :    0.146331
  18 H :    0.178246
  19 H :    0.134913
  20 H :    0.125001
  21 H :    0.181940

  Mayer bond orders larger than 0.1
B(  0-C ,  1-C ) :   0.9245 B(  0-C ,  9-H ) :   0.9391 B(  0-C , 10-H ) :   0.9390
B(  0-C , 11-H ) :   0.9427 B(  1-C ,  2-C ) :   0.9293 B(  1-C , 12-H ) :   0.9331
B(  1-C , 13-H ) :   0.9327 B(  2-C ,  3-C ) :   0.9365 B(  2-C , 14-H ) :   0.9290
B(  2-C , 15-H ) :   0.9284 B(  3-C ,  4-C ) :   0.8968 B(  3-C , 16-H ) :   0.9313
B(  3-C , 17-H ) :   0.9123 B(  4-C ,  5-C ) :   0.8916 B(  4-C ,  7-C ) :   0.8883
B(  4-C , 18-H ) :   0.9014 B(  5-C ,  6-O ) :   0.9546 B(  5-C , 19-H ) :   0.9271
B(  5-C , 20-H ) :   0.9246 B(  6-O , 21-H ) :   0.8355 B(  7-C ,  8-N ) :   2.8707

MP2 TOTAL ENERGY:     -403.683958375 Eh
FINAL SINGLE POINT ENERGY      -403.683958374744

DIPOLE MOMENT
-------------
                                X             Y             Z
Electronic contribution:      2.25661      -8.01823     -10.95302
Nuclear contribution   :     -2.20436       8.09052      12.29759
                        -----------------------------------------
Total Dipole Moment    :      0.05226       0.07229       1.34457
                        -----------------------------------------
Magnitude (a.u.)       :      1.34753
Magnitude (Debye)      :      3.42515

                             ****ORCA TERMINATED NORMALLY****
TOTAL RUN TIME: 0 days 0 hours 16 minutes 20 seconds 82 msec
