                         Program Version 3.0.3 - RELEASE   -
|  1> ! RI-MP2 RIJK def2-TZVP def2-TZVP/C def2-TZVP/JK TIGHTSCF
|  2> % maxcore 2000
|  3> % mp2 density relaxed end
|  4> *xyz 0 1
|  5>  C       -0.0739062859     1.3785124229    -0.0539675189
|  6>  O        0.0131315755    -0.0362327349     0.0217965415
|  7>  C        0.6872053307    -0.5669553131     1.1547424027
|  8>  C        0.2042881273     0.0059728389     2.4813103734
|  9>  C        0.6895885171    -2.0964781003     1.1263621361
| 10>  C        1.3088896741    -2.6077252256    -0.1377695481
| 11>  C        2.2178565192    -2.1223445710     0.9571219487
| 12>  C        2.2661796694    -0.5936168160     0.9938113041
| 13>  O        2.8189002590     0.1060311911    -0.0931753494
| 14>  H        0.9058116552     1.8564160935     0.0654408019
| 15>  H       -0.4625151651     1.6103495719    -1.0492907070
| 16>  H       -0.7676449971     1.7902114181     0.6907785924
| 17>  H       -0.8798530543    -0.1134243788     2.5822042212
| 18>  H        0.6830056690    -0.5267587683     3.3081159804
| 19>  H        0.4491303498     1.0670795610     2.5837221594
| 20>  H        0.0686684286    -2.7155533856     1.7627329647
| 21>  H        1.2823400321    -3.6854337218    -0.2615770245
| 22>  H        1.1874857739    -2.0581343184    -1.0658685006
| 23>  H        2.9360430109    -2.7804069280     1.4309859996
| 24>  H        2.7697175765    -0.2184096097     1.8886463047
| 25>  H        2.2451239839    -0.0589657460    -0.8504028522
| 26> *
| 27>
| 28>                          ****END OF INPUT****

CARTESIAN COORDINATES (ANGSTROEM)
---------------------------------
  C     -0.073906    1.378512   -0.053968
  O      0.013132   -0.036233    0.021797
  C      0.687205   -0.566955    1.154742
  C      0.204288    0.005973    2.481310
  C      0.689589   -2.096478    1.126362
  C      1.308890   -2.607725   -0.137770
  C      2.217857   -2.122345    0.957122
  C      2.266180   -0.593617    0.993811
  O      2.818900    0.106031   -0.093175
  H      0.905812    1.856416    0.065441
  H     -0.462515    1.610350   -1.049291
  H     -0.767645    1.790211    0.690779
  H     -0.879853   -0.113424    2.582204
  H      0.683006   -0.526759    3.308116
  H      0.449130    1.067080    2.583722
  H      0.068668   -2.715553    1.762733
  H      1.282340   -3.685434   -0.261577
  H      1.187486   -2.058134   -1.065869
  H      2.936043   -2.780407    1.430986
  H      2.769718   -0.218410    1.888646
  H      2.245124   -0.058966   -0.850403

 Total Charge           Charge          ....    0
 Multiplicity           Mult            ....    1
 Number of Electrons    NEL             ....   70
 Basis Dimension        Dim             ....  351

ORBITAL ENERGIES
----------------

  NO   OCC          E(Eh)            E(eV)
   0   2.0000     -20.556447      -559.3694
   1   2.0000     -20.551250      -559.2279
   2   2.0000     -11.290019      -307.2170
   3   2.0000     -11.279556      -306.9323
   4   2.0000     -11.268794      -306.6395
   5   2.0000     -11.233110      -305.6685
   6   2.0000     -11.232387      -305.6488
   7   2.0000     -11.230250      -305.5906
   8   2.0000     -11.222408      -305.3772
   9   2.0000      -1.382872       -37.6299
  10   2.0000      -1.353092       -36.8195
  11   2.0000      -1.182652       -32.1816
  12   2.0000      -1.024387       -27.8750
  13   2.0000      -0.937883       -25.5211
  14   2.0000      -0.930099       -25.3093
  15   2.0000      -0.845029       -22.9944
  16   2.0000      -0.792793       -21.5730
  17   2.0000      -0.752652       -20.4807
  18   2.0000      -0.703255       -19.1366
  19   2.0000      -0.665978       -18.1222
  20   2.0000      -0.656664       -17.8687
  21   2.0000      -0.631149       -17.1744
  22   2.0000      -0.611412       -16.6374
  23   2.0000      -0.594058       -16.1651
  24   2.0000      -0.582611       -15.8537
  25   2.0000      -0.555030       -15.1031
  26   2.0000      -0.547966       -14.9109
  27   2.0000      -0.539787       -14.6883
  28   2.0000      -0.523636       -14.2489
  29   2.0000      -0.493990       -13.4421
  30   2.0000      -0.459160       -12.4944
  31   2.0000      -0.457218       -12.4415
  32   2.0000      -0.414806       -11.2874
  33   2.0000      -0.397261       -10.8100
  34   2.0000      -0.385541       -10.4911
  35   0.0000       0.137104         3.7308
  36   0.0000       0.153739         4.1835
  37   0.0000       0.160117         4.3570
  38   0.0000       0.178605         4.8601
  39   0.0000       0.190045         5.1714

MULLIKEN ATOMIC CHARGES
-----------------------
   0 C :   -0.270198
   1 O :   -0.317174
   2 C :    0.262293
   3 C :   -0.482444
   4 C :   -0.137929
   5 C :   -0.296556
   6 C :   -0.070980
   7 C :   -0.040825
   8 O :   -0.454095
   9 H :    0.145619
  10 H :    0.142670
  11 H :    0.123990
  12 H :    0.144272
  13 H :    0.145266
  14 H :    0.148426
  15 H :    0.131881
  16 H :    0.133074
  17 H :    0.131969
  18 H :    0.132380
  19 H :    0.101462
  20 H :    0.326900
Sum of atomic charges:   -0.0000000

LOEWDIN ATOMIC CHARGES
----------------------
   0 C :   -0.357183
   1 O :    0.169232
   2 C :   -0.332000
   3 C :   -0.273074
   4 C :   -0.143517
   5 C :   -0.203165
   6 C :   -0.162958
   7 C :   -0.278563
   8 O :   -0.004422
   9 H :    0.108040
  10 H :    0.113422
  11 H :    0.103475
  12 H :    0.130811
  13 H :    0.135252
  14 H :    0.128284
  15 H :    0.138041
  16 H :    0.141907
  17 H :    0.130147
  18 H :    0.134896
  19 H :    0.144590
  20 H :    0.176786

  Mayer bond orders larger than 0.1
B(  0-C ,  1-O ) :   0.8850 B(  0-C ,  9-H ) :   0.9280 B(  0-C , 10-H ) :   0.9415
B(  0-C , 11-H ) :   0.9319 B(  1-O ,  2-C ) :   1.0463 B(  2-C ,  3-C ) :   0.8550
B(  2-C ,  4-C ) :   0.9332 B(  2-C ,  7-C ) :   0.9581 B(  3-C , 12-H ) :   0.9410
B(  3-C , 13-H ) :   0.9282 B(  3-C , 14-H ) :   0.9374 B(  4-C ,  5-C ) :   0.8899
B(  4-C ,  6-C ) :   0.8116 B(  4-C , 15-H ) :   0.9221 B(  5-C ,  6-C ) :   0.8483
B(  5-C , 16-H ) :   0.9333 B(  5-C , 17-H ) :   0.9222 B(  6-C ,  7-C ) :   0.9039
B(  6-C , 18-H ) :   0.9329 B(  7-C ,  8-O ) :   0.9945 B(  7-C , 19-H ) :   0.9424
B(  8-O , 20-H ) :   0.8275

MP2 TOTAL ENERGY:     -423.485380600 Eh
FINAL SINGLE POINT ENERGY      -423.485380600057

DIPOLE MOMENT
-------------
                                X             Y             Z
Electronic contribution:      2.42289      -2.00657      -2.24158
Nuclear contribution   :     -2.82180       1.93221       2.61716
                        -----------------------------------------
Total Dipole Moment    :     -0.39891      -0.07436       0.37558
                        -----------------------------------------
Magnitude (a.u.)       :      0.55292
Magnitude (Debye)      :      1.40540

                             ****ORCA TERMINATED NORMALLY****
TOTAL RUN TIME: 0 days 0 hours 18 minutes 47 seconds 92 msec
