                         Program Version 3.0.3 - RELEASE   -
|  1> ! RI-MP2 RIJK def2-TZVP def2-TZVP/C def2-TZVP/JK TIGHTSCF
|  2> % maxcore 2000
|  3> % mp2 density relaxed end
|  4> *xyz 0 1
|  5>  C       -0.0897127914     1.5020527052     0.0311239296
|  6>  C       -0.0606430383    -0.0050624715     0.0240638420
|  7>  C        1.1224418551    -0.7794715880    -0.6480341351
|  8>  O        2.0332920125    -0.4030264539     0.4410262173
|  9>  C        0.7716219218    -0.7869538307     1.0976356063
| 10>  C        0.6175144192    -2.0113823409     0.1540203174
| 11>  C       -0.8534901124    -2.2465609076    -0.1544296023
| 12>  C       -1.3553700812    -0.7715276007    -0.2217869592
| 13>  O       -2.2709853722    -0.4273107925     0.8099222961
| 14>  H        0.9038812589     1.8941463968     0.2624970015
| 15>  H       -0.4000542553     1.8947520767    -0.9441433513
| 16>  H       -0.8015188082     1.8667876932     0.7770665892
| 17>  H        1.4995136563    -0.7172782598    -1.6705857368
| 18>  H        0.7246850639    -0.7295750465     2.1851617696
| 19>  H        1.3014763877    -2.8483548737     0.2871335772
| 20>  H       -1.0023887260    -2.7906102593    -1.0929037337
| 21>  H       -1.3710200838    -2.7900304306     0.6422113889
| 22>  H       -1.7821347978    -0.5289652695    -1.2066953842
| 23>  H       -3.0984847989    -0.8894798668     0.6447679074
| 24> *
| 25>
| 26>                          ****END OF INPUT****

CARTESIAN COORDINATES (ANGSTROEM)
---------------------------------
  C     -0.089713    1.502053    0.031124
  C     -0.060643   -0.005062    0.024064
  C      1.122442   -0.779472   -0.648034
  O      2.033292   -0.403026    0.441026
  C      0.771622   -0.786954    1.097636
  C      0.617514   -2.011382    0.154020
  C     -0.853490   -2.246561   -0.154430
  C     -1.355370   -0.771528   -0.221787
  O     -2.270985   -0.427311    0.809922
  H      0.903881    1.894146    0.262497
  H     -0.400054    1.894752   -0.944143
  H     -0.801519    1.866788    0.777067
  H      1.499514   -0.717278   -1.670586
  H      0.724685   -0.729575    2.185162
  H      1.301476   -2.848355    0.287134
  H     -1.002389   -2.790610   -1.092904
  H     -1.371020   -2.790030    0.642211
  H     -1.782135   -0.528965   -1.206695
  H     -3.098485   -0.889480    0.644768

 Total Charge           Charge          ....    0
 Multiplicity           Mult            ....    1
 Number of Electrons    NEL             ....   68
 Basis Dimension        Dim             ....  339

ORBITAL ENERGIES
----------------

  NO   OCC          E(Eh)            E(eV)
   0   2.0000     -20.562808      -559.5424
   1   2.0000     -20.543202      -559.0089
   2   2.0000     -11.294005      -307.3255
   3   2.0000     -11.291645      -307.2613
   4   2.0000     -11.286830      -307.1303
   5   2.0000     -11.242758      -305.9310
   6   2.0000     -11.240867      -305.8795
   7   2.0000     -11.230508      -305.5976
   8   2.0000     -11.209143      -305.0163
   9   2.0000      -1.395135       -37.9636
  10   2.0000      -1.367881       -37.2219
  11   2.0000      -1.139124       -30.9971
  12   2.0000      -1.011803       -27.5326
  13   2.0000      -0.958057       -26.0701
  14   2.0000      -0.894720       -24.3466
  15   2.0000      -0.882666       -24.0186
  16   2.0000      -0.793385       -21.5891
  17   2.0000      -0.713151       -19.4058
  18   2.0000      -0.703525       -19.1439
  19   2.0000      -0.681245       -18.5376
  20   2.0000      -0.647995       -17.6328
  21   2.0000      -0.615370       -16.7451
  22   2.0000      -0.594629       -16.1807
  23   2.0000      -0.568238       -15.4625
  24   2.0000      -0.560717       -15.2579
  25   2.0000      -0.537917       -14.6375
  26   2.0000      -0.525619       -14.3028
  27   2.0000      -0.521538       -14.1918
  28   2.0000      -0.485324       -13.2063
  29   2.0000      -0.463965       -12.6251
  30   2.0000      -0.443315       -12.0632
  31   2.0000      -0.435989       -11.8639
  32   2.0000      -0.424968       -11.5640
  33   2.0000      -0.393204       -10.6996
  34   0.0000       0.128511         3.4969
  35   0.0000       0.153344         4.1727
  36   0.0000       0.158476         4.3123
  37   0.0000       0.176975         4.8157
  38   0.0000       0.187104         5.0914

MULLIKEN ATOMIC CHARGES
-----------------------
   0 C :   -0.476721
   1 C :    0.187569
   2 C :   -0.052289
   3 O :   -0.330753
   4 C :   -0.044788
   5 C :   -0.053191
   6 C :   -0.222535
   7 C :    0.011524
   8 O :   -0.467603
   9 H :    0.159109
  10 H :    0.124267
  11 H :    0.151071
  12 H :    0.125777
  13 H :    0.131959
  14 H :    0.128120
  15 H :    0.114988
  16 H :    0.108282
  17 H :    0.089262
  18 H :    0.315951
Sum of atomic charges:    0.0000000

LOEWDIN ATOMIC CHARGES
----------------------
   0 C :   -0.268914
   1 C :   -0.209377
   2 C :   -0.171302
   3 O :    0.129772
   4 C :   -0.161390
   5 C :   -0.170808
   6 C :   -0.218063
   7 C :   -0.289093
   8 O :   -0.015575
   9 H :    0.136137
  10 H :    0.127604
  11 H :    0.133854
  12 H :    0.125472
  13 H :    0.128473
  14 H :    0.141823
  15 H :    0.135631
  16 H :    0.139044
  17 H :    0.132471
  18 H :    0.174241

  Mayer bond orders larger than 0.1
B(  0-C ,  1-C ) :   0.8778 B(  0-C ,  9-H ) :   0.9405 B(  0-C , 10-H ) :   0.9338
B(  0-C , 11-H ) :   0.9389 B(  1-C ,  2-C ) :   0.9031 B(  1-C ,  4-C ) :   0.9010
B(  1-C ,  5-C ) :  -0.1191 B(  1-C ,  7-C ) :   0.8655 B(  1-C ,  8-O ) :  -0.1355
B(  2-C ,  3-O ) :   0.9180 B(  2-C ,  5-C ) :   0.8928 B(  2-C , 12-H ) :   0.8870
B(  3-O ,  4-C ) :   0.9087 B(  4-C ,  5-C ) :   0.9128 B(  4-C , 13-H ) :   0.8776
B(  5-C ,  6-C ) :   0.8977 B(  5-C , 14-H ) :   0.9268 B(  6-C ,  7-C ) :   0.9269
B(  6-C , 15-H ) :   0.9083 B(  6-C , 16-H ) :   0.9049 B(  7-C ,  8-O ) :   1.0911
B(  7-C , 17-H ) :   0.9439 B(  8-O , 18-H ) :   0.8453

MP2 TOTAL ENERGY:     -422.272977479 Eh
FINAL SINGLE POINT ENERGY      -422.272977479116

DIPOLE MOMENT
-------------
                                X             Y             Z
Electronic contribution:      2.38024      -1.28875       1.27160
Nuclear contribution   :     -3.33073       0.68158      -1.82745
                        -----------------------------------------
Total Dipole Moment    :     -0.95048      -0.60716      -0.55584
                        -----------------------------------------
Magnitude (a.u.)       :      1.25739
Magnitude (Debye)      :      3.19603

                             ****ORCA TERMINATED NORMALLY****
TOTAL RUN TIME: 0 days 0 hours 17 minutes 50 seconds 455 msec
