                         Program Version 3.0.3 - RELEASE   -
|  1> ! RI-MP2 RIJK def2-TZVP def2-TZVP/C def2-TZVP/JK TIGHTSCF
|  2> % maxcore 2000
|  3> % mp2 density relaxed end
|  4> *xyz 0 1
|  5>  C        0.1677858151     1.5611980494     0.1101728414
|  6>  C       -0.0384542542     0.0431114846     0.0496055622
|  7>  C        0.5529122656    -0.5458677762    -1.2138591124
|  8>  O        1.9924423987    -0.4201258397    -1.2948169570
|  9>  C        2.1417675951    -1.7717351793    -1.7532490437
| 10>  C        0.6584085972    -2.1037002252    -1.3832378906
| 11>  N        0.4010594009    -2.8559154204    -0.1652598781
| 12>  C       -0.1385010308    -2.6655175690    -2.4720302994
| 13>  N       -0.7458179353    -3.1044897403    -3.3517341697
| 14>  H        1.2321793449     1.8085613081     0.0672472275
| 15>  H       -0.3283160891     2.0623390097    -0.7278609461
| 16>  H       -0.2416982432     1.9724407827     1.0370080333
| 17>  H        0.4153471803    -0.4278889306     0.9276007884
| 18>  H       -1.1059638605    -0.2046925027     0.0748536551
| 19>  H        0.0827439815    -0.0899476500    -2.0967762441
| 20>  H        2.3700945731    -1.8286422442    -2.8248090120
| 21>  H        2.8939829566    -2.3294553940    -1.1835683915
| 22>  H        0.5548286137    -3.8470693015    -0.3244608580
| 23>  H        1.0469889705    -2.5633291513     0.5613275847
| 24> *
| 25>
| 26>                          ****END OF INPUT****

CARTESIAN COORDINATES (ANGSTROEM)
---------------------------------
  C      0.167786    1.561198    0.110173
  C     -0.038454    0.043111    0.049606
  C      0.552912   -0.545868   -1.213859
  O      1.992442   -0.420126   -1.294817
  C      2.141768   -1.771735   -1.753249
  C      0.658409   -2.103700   -1.383238
  N      0.401059   -2.855915   -0.165260
  C     -0.138501   -2.665518   -2.472030
  N     -0.745818   -3.104490   -3.351734
  H      1.232179    1.808561    0.067247
  H     -0.328316    2.062339   -0.727861
  H     -0.241698    1.972441    1.037008
  H      0.415347   -0.427889    0.927601
  H     -1.105964   -0.204693    0.074854
  H      0.082744   -0.089948   -2.096776
  H      2.370095   -1.828642   -2.824809
  H      2.893983   -2.329455   -1.183568
  H      0.554829   -3.847069   -0.324461
  H      1.046989   -2.563329    0.561328

 Total Charge           Charge          ....    0
 Multiplicity           Mult            ....    1
 Number of Electrons    NEL             ....   68
 Basis Dimension        Dim             ....  339

ORBITAL ENERGIES
----------------

  NO   OCC          E(Eh)            E(eV)
   0   2.0000     -20.571848      -559.7884
   1   2.0000     -15.580333      -423.9624
   2   2.0000     -15.580180      -423.9583
   3   2.0000     -11.326575      -308.2118
   4   2.0000     -11.308944      -307.7320
   5   2.0000     -11.306754      -307.6724
   6   2.0000     -11.279175      -306.9220
   7   2.0000     -11.237125      -305.7777
   8   2.0000     -11.222957      -305.3922
   9   2.0000      -1.407915       -38.3113
  10   2.0000      -1.241860       -33.7927
  11   2.0000      -1.209765       -32.9194
  12   2.0000      -1.069164       -29.0934
  13   2.0000      -1.019386       -27.7389
  14   2.0000      -0.946019       -25.7425
  15   2.0000      -0.871412       -23.7123
  16   2.0000      -0.807078       -21.9617
  17   2.0000      -0.753943       -20.5158
  18   2.0000      -0.686323       -18.6758
  19   2.0000      -0.672163       -18.2905
  20   2.0000      -0.654669       -17.8144
  21   2.0000      -0.627880       -17.0855
  22   2.0000      -0.608997       -16.5716
  23   2.0000      -0.581524       -15.8241
  24   2.0000      -0.570312       -15.5190
  25   2.0000      -0.564051       -15.3486
  26   2.0000      -0.532779       -14.4977
  27   2.0000      -0.512542       -13.9470
  28   2.0000      -0.505884       -13.7658
  29   2.0000      -0.496079       -13.4990
  30   2.0000      -0.473061       -12.8726
  31   2.0000      -0.459006       -12.4902
  32   2.0000      -0.439734       -11.9658
  33   2.0000      -0.413524       -11.2526
  34   0.0000       0.115791         3.1508
  35   0.0000       0.139526         3.7967
  36   0.0000       0.150071         4.0836
  37   0.0000       0.157633         4.2894
  38   0.0000       0.171610         4.6697

MULLIKEN ATOMIC CHARGES
-----------------------
   0 C :   -0.398915
   1 C :   -0.154106
   2 C :   -0.013417
   3 O :   -0.312587
   4 C :   -0.032865
   5 C :    0.283780
   6 N :   -0.528004
   7 C :   -0.241076
   8 N :   -0.043541
   9 H :    0.148647
  10 H :    0.125378
  11 H :    0.139002
  12 H :    0.084973
  13 H :    0.129967
  14 H :    0.105203
  15 H :    0.115505
  16 H :    0.104170
  17 H :    0.245744
  18 H :    0.242143
Sum of atomic charges:   -0.0000000

LOEWDIN ATOMIC CHARGES
----------------------
   0 C :   -0.310165
   1 C :   -0.270263
   2 C :   -0.233669
   3 O :    0.144319
   4 C :   -0.228129
   5 C :   -0.313671
   6 N :   -0.096407
   7 C :   -0.154585
   8 N :    0.074793
   9 H :    0.127726
  10 H :    0.123026
  11 H :    0.123117
  12 H :    0.137212
  13 H :    0.149586
  14 H :    0.148956
  15 H :    0.127431
  16 H :    0.119831
  17 H :    0.166758
  18 H :    0.164132

  Mayer bond orders larger than 0.1
B(  0-C ,  1-C ) :   0.9198 B(  0-C ,  9-H ) :   0.9361 B(  0-C , 10-H ) :   0.9350
B(  0-C , 11-H ) :   0.9412 B(  1-C ,  2-C ) :   0.9517 B(  1-C , 12-H ) :   0.9098
B(  1-C , 13-H ) :   0.9236 B(  2-C ,  3-O ) :   0.9619 B(  2-C ,  5-C ) :   0.8596
B(  2-C , 14-H ) :   0.9049 B(  3-O ,  4-C ) :   0.9598 B(  4-C ,  5-C ) :   0.9713
B(  4-C , 15-H ) :   0.9024 B(  4-C , 16-H ) :   0.9048 B(  5-C ,  6-N ) :   0.9184
B(  5-C ,  7-C ) :   0.9182 B(  6-N , 17-H ) :   0.8708 B(  6-N , 18-H ) :   0.8760
B(  7-C ,  8-N ) :   2.8637

MP2 TOTAL ENERGY:     -418.492425098 Eh
FINAL SINGLE POINT ENERGY      -418.492425097913

DIPOLE MOMENT
-------------
                                X             Y             Z
Electronic contribution:     -0.21923      -6.82038      -6.26091
Nuclear contribution   :      0.98783       6.89677       7.27263
                        -----------------------------------------
Total Dipole Moment    :      0.76860       0.07639       1.01171
                        -----------------------------------------
Magnitude (a.u.)       :      1.27285
Magnitude (Debye)      :      3.23533

                             ****ORCA TERMINATED NORMALLY****
TOTAL RUN TIME: 0 days 0 hours 29 minutes 5 seconds 805 msec
