                         Program Version 3.0.3 - RELEASE   -
|  1> ! RI-MP2 RIJK def2-TZVP def2-TZVP/C def2-TZVP/JK TIGHTSCF
|  2> % maxcore 2000
|  3> % mp2 density relaxed end
|  4> *xyz 0 1
|  5>  C        0.0151043612     1.5348365290     0.0625107607
|  6>  C       -0.0244596140     0.0387344780    -0.0156955725
|  7>  C       -0.8721772523    -0.8092362406     0.8507548047
|  8>  N        0.5888513556    -0.8892089559     1.0278813977
|  9>  C        1.0535780946    -1.7890848905    -0.0746526331
| 10>  C        0.5234464096    -0.8016521337    -1.1900694707
| 11>  N       -0.4454293552    -1.1719399511    -2.2073963264
| 12>  C        1.6523876102    -0.1429871808    -1.8554431046
| 13>  N        2.5556950934     0.3571309384    -2.3744532443
| 14>  H        1.0010527936     1.9218460703    -0.2104804356
| 15>  H       -0.7227153034     1.9698265466    -0.6205953644
| 16>  H       -0.2175857738     1.8681358071     1.0774262805
| 17>  H       -1.3778313221    -0.3054622003     1.6688870966
| 18>  H       -1.4046744111    -1.6789271907     0.4695801687
| 19>  H        2.1383324451    -1.8984119737    -0.0575961801
| 20>  H        0.5812897414    -2.7776865700    -0.0754595284
| 21>  H       -0.0190180910    -1.7496675446    -2.9252330260
| 22>  H       -1.2046280320    -1.7017293374    -1.7941615928
| 23> *
| 24>
| 25>                          ****END OF INPUT****

CARTESIAN COORDINATES (ANGSTROEM)
---------------------------------
  C      0.015104    1.534837    0.062511
  C     -0.024460    0.038734   -0.015696
  C     -0.872177   -0.809236    0.850755
  N      0.588851   -0.889209    1.027881
  C      1.053578   -1.789085   -0.074653
  C      0.523446   -0.801652   -1.190069
  N     -0.445429   -1.171940   -2.207396
  C      1.652388   -0.142987   -1.855443
  N      2.555695    0.357131   -2.374453
  H      1.001053    1.921846   -0.210480
  H     -0.722715    1.969827   -0.620595
  H     -0.217586    1.868136    1.077426
  H     -1.377831   -0.305462    1.668887
  H     -1.404674   -1.678927    0.469580
  H      2.138332   -1.898412   -0.057596
  H      0.581290   -2.777687   -0.075460
  H     -0.019018   -1.749668   -2.925233
  H     -1.204628   -1.701729   -1.794162

 Total Charge           Charge          ....    0
 Multiplicity           Mult            ....    1
 Number of Electrons    NEL             ....   66
 Basis Dimension        Dim             ....  333

ORBITAL ENERGIES
----------------

  NO   OCC          E(Eh)            E(eV)
   0   2.0000     -15.580465      -423.9660
   1   2.0000     -15.577338      -423.8809
   2   2.0000     -15.575564      -423.8327
   3   2.0000     -11.327936      -308.2488
   4   2.0000     -11.293963      -307.3244
   5   2.0000     -11.281614      -306.9883
   6   2.0000     -11.277039      -306.8638
   7   2.0000     -11.275426      -306.8199
   8   2.0000     -11.232562      -305.6535
   9   2.0000      -1.322792       -35.9950
  10   2.0000      -1.232197       -33.5298
  11   2.0000      -1.203460       -32.7478
  12   2.0000      -1.029314       -28.0091
  13   2.0000      -1.019538       -27.7430
  14   2.0000      -0.923668       -25.1343
  15   2.0000      -0.849770       -23.1234
  16   2.0000      -0.804430       -21.8896
  17   2.0000      -0.715653       -19.4739
  18   2.0000      -0.677619       -18.4390
  19   2.0000      -0.661672       -18.0050
  20   2.0000      -0.645686       -17.5700
  21   2.0000      -0.617443       -16.8015
  22   2.0000      -0.592132       -16.1127
  23   2.0000      -0.572627       -15.5820
  24   2.0000      -0.566136       -15.4054
  25   2.0000      -0.557123       -15.1601
  26   2.0000      -0.538228       -14.6459
  27   2.0000      -0.488671       -13.2974
  28   2.0000      -0.470059       -12.7909
  29   2.0000      -0.461918       -12.5694
  30   2.0000      -0.443688       -12.0734
  31   2.0000      -0.428394       -11.6572
  32   2.0000      -0.384795       -10.4708
  33   0.0000       0.115365         3.1393
  34   0.0000       0.149193         4.0597
  35   0.0000       0.155533         4.2323
  36   0.0000       0.159019         4.3271
  37   0.0000       0.173857         4.7309

MULLIKEN ATOMIC CHARGES
-----------------------
   0 C :   -0.434200
   1 C :    0.055407
   2 C :   -0.165209
   3 N :   -0.228513
   4 C :   -0.143583
   5 C :    0.314226
   6 N :   -0.520110
   7 C :   -0.283575
   8 N :   -0.041191
   9 H :    0.158519
  10 H :    0.150447
  11 H :    0.142959
  12 H :    0.137959
  13 H :    0.116447
  14 H :    0.148313
  15 H :    0.117810
  16 H :    0.245226
  17 H :    0.229068
Sum of atomic charges:   -0.0000000

LOEWDIN ATOMIC CHARGES
----------------------
   0 C :   -0.259052
   1 C :   -0.228930
   2 C :   -0.224959
   3 N :    0.120207
   4 C :   -0.195800
   5 C :   -0.303595
   6 N :   -0.096019
   7 C :   -0.146821
   8 N :    0.074664
   9 H :    0.137917
  10 H :    0.138815
  11 H :    0.136690
  12 H :    0.138962
  13 H :    0.123298
  14 H :    0.138027
  15 H :    0.123948
  16 H :    0.165261
  17 H :    0.157388

  Mayer bond orders larger than 0.1
B(  0-C ,  1-C ) :   0.8936 B(  0-C ,  9-H ) :   0.9268 B(  0-C , 10-H ) :   0.9351
B(  0-C , 11-H ) :   0.9336 B(  1-C ,  2-C ) :   0.9330 B(  1-C ,  3-N ) :   0.8822
B(  1-C ,  5-C ) :   0.8102 B(  2-C ,  3-N ) :   0.8948 B(  2-C , 12-H ) :   0.9219
B(  2-C , 13-H ) :   0.9043 B(  3-N ,  4-C ) :   0.9508 B(  4-C ,  5-C ) :   0.9190
B(  4-C , 14-H ) :   0.9073 B(  4-C , 15-H ) :   0.9281 B(  5-C ,  6-N ) :   0.9373
B(  5-C ,  7-C ) :   0.9003 B(  6-N , 16-H ) :   0.8753 B(  6-N , 17-H ) :   0.8762
B(  7-C ,  8-N ) :   2.8737

MP2 TOTAL ENERGY:     -397.405868507 Eh
FINAL SINGLE POINT ENERGY      -397.405868507034

DIPOLE MOMENT
-------------
                                X             Y             Z
Electronic contribution:      4.24635      -0.46490      -2.74183
Nuclear contribution   :     -5.58444      -0.52661       3.08955
                        -----------------------------------------
Total Dipole Moment    :     -1.33810      -0.99151       0.34772
                        -----------------------------------------
Magnitude (a.u.)       :      1.70132
Magnitude (Debye)      :      4.32442

                             ****ORCA TERMINATED NORMALLY****
TOTAL RUN TIME: 0 days 0 hours 19 minutes 1 seconds 351 msec
