                         Program Version 3.0.3 - RELEASE   -
|  1> ! RI-MP2 RIJK def2-TZVP def2-TZVP/C def2-TZVP/JK TIGHTSCF
|  2> % maxcore 2000
|  3> % mp2 density relaxed end
|  4> *xyz 0 1
|  5>  C        0.1367025668     1.4518877342    -0.3267791167
|  6>  C        1.4757587412     1.9354360747     0.2866232457
|  7>  N        2.0985498308     0.6716581510     0.6345123810
|  8>  N        3.3522279202     0.4049970365     1.0265796721
|  9>  C        3.3149139703    -0.9049343484     1.2936772255
| 10>  C        2.0337422648    -1.4670059981     1.0823609391
| 11>  C        1.2697210136    -0.3979982572     0.6547472498
| 12>  C       -0.1123286920     0.0281094167     0.2630007936
| 13>  H       -0.6827463067     2.1423119606    -0.1187161798
| 14>  H        0.2427540936     1.3808945977    -1.4126809919
| 15>  H        2.0962322182     2.4978135103    -0.4149576514
| 16>  H        1.3297590042     2.5499086905     1.1833392669
| 17>  H        4.2144388697    -1.4051578553     1.6230625713
| 18>  H        1.7284658887    -2.4917788706     1.2162631932
| 19>  H       -0.7738503922     0.0691457976     1.1372413470
| 20>  H       -0.5851600812    -0.6383346403    -0.4631928853
| 21> *
| 22>
| 23>                          ****END OF INPUT****

CARTESIAN COORDINATES (ANGSTROEM)
---------------------------------
  C      0.136703    1.451888   -0.326779
  C      1.475759    1.935436    0.286623
  N      2.098550    0.671658    0.634512
  N      3.352228    0.404997    1.026580
  C      3.314914   -0.904934    1.293677
  C      2.033742   -1.467006    1.082361
  C      1.269721   -0.397998    0.654747
  C     -0.112329    0.028109    0.263001
  H     -0.682746    2.142312   -0.118716
  H      0.242754    1.380895   -1.412681
  H      2.096232    2.497814   -0.414958
  H      1.329759    2.549909    1.183339
  H      4.214439   -1.405158    1.623063
  H      1.728466   -2.491779    1.216263
  H     -0.773850    0.069146    1.137241
  H     -0.585160   -0.638335   -0.463193

 Total Charge           Charge          ....    0
 Multiplicity           Mult            ....    1
 Number of Electrons    NEL             ....   58
 Basis Dimension        Dim             ....  296

ORBITAL ENERGIES
----------------

  NO   OCC          E(Eh)            E(eV)
   0   2.0000     -15.624206      -425.1563
   1   2.0000     -15.572358      -423.7454
   2   2.0000     -11.276825      -306.8580
   3   2.0000     -11.267053      -306.5921
   4   2.0000     -11.250731      -306.1480
   5   2.0000     -11.247275      -306.0539
   6   2.0000     -11.244134      -305.9685
   7   2.0000     -11.209887      -305.0365
   8   2.0000      -1.375267       -37.4229
   9   2.0000      -1.158492       -31.5242
  10   2.0000      -1.062310       -28.9069
  11   2.0000      -1.011440       -27.5227
  12   2.0000      -0.950344       -25.8602
  13   2.0000      -0.834878       -22.7182
  14   2.0000      -0.801660       -21.8143
  15   2.0000      -0.742987       -20.2177
  16   2.0000      -0.688231       -18.7277
  17   2.0000      -0.667430       -18.1617
  18   2.0000      -0.602375       -16.3915
  19   2.0000      -0.596251       -16.2248
  20   2.0000      -0.575489       -15.6599
  21   2.0000      -0.572783       -15.5862
  22   2.0000      -0.557161       -15.1611
  23   2.0000      -0.510811       -13.8999
  24   2.0000      -0.505536       -13.7563
  25   2.0000      -0.492400       -13.3989
  26   2.0000      -0.445253       -12.1159
  27   2.0000      -0.341861        -9.3025
  28   2.0000      -0.329643        -8.9701
  29   0.0000       0.129435         3.5221
  30   0.0000       0.159957         4.3526
  31   0.0000       0.160842         4.3767
  32   0.0000       0.170536         4.6405
  33   0.0000       0.180822         4.9204

MULLIKEN ATOMIC CHARGES
-----------------------
   0 C :   -0.243252
   1 C :   -0.160870
   2 N :    0.160179
   3 N :   -0.292418
   4 C :   -0.085010
   5 C :   -0.218507
   6 C :   -0.029696
   7 C :   -0.192987
   8 H :    0.135060
   9 H :    0.125433
  10 H :    0.143225
  11 H :    0.127606
  12 H :    0.131036
  13 H :    0.135997
  14 H :    0.126380
  15 H :    0.137824
Sum of atomic charges:    0.0000000

LOEWDIN ATOMIC CHARGES
----------------------
   0 C :   -0.230453
   1 C :   -0.223286
   2 N :    0.214574
   3 N :    0.032400
   4 C :   -0.274010
   5 C :   -0.190611
   6 C :   -0.219397
   7 C :   -0.215661
   8 H :    0.135271
   9 H :    0.140518
  10 H :    0.137464
  11 H :    0.135037
  12 H :    0.130795
  13 H :    0.139630
  14 H :    0.144586
  15 H :    0.143143

  Mayer bond orders larger than 0.1
B(  0-C ,  1-C ) :   0.9428 B(  0-C ,  7-C ) :   0.9346 B(  0-C ,  8-H ) :   0.9365
B(  0-C ,  9-H ) :   0.9256 B(  1-C ,  2-N ) :   0.8622 B(  1-C , 10-H ) :   0.9284
B(  1-C , 11-H ) :   0.9211 B(  2-N ,  3-N ) :   1.0156 B(  2-N ,  6-C ) :   1.2020
B(  3-N ,  4-C ) :   1.4791 B(  3-N ,  6-C ) :   0.1019 B(  4-C ,  5-C ) :   1.3163
B(  4-C , 12-H ) :   0.9361 B(  5-C ,  6-C ) :   1.4172 B(  5-C , 13-H ) :   0.9253
B(  6-C ,  7-C ) :   0.9147 B(  7-C , 14-H ) :   0.9051 B(  7-C , 15-H ) :   0.9340

MP2 TOTAL ENERGY:     -342.213358965 Eh
FINAL SINGLE POINT ENERGY      -342.213358965220

DIPOLE MOMENT
-------------
                                X             Y             Z
Electronic contribution:      4.31303      -1.75331       1.59630
Nuclear contribution   :     -5.48241       1.98234      -1.93653
                        -----------------------------------------
Total Dipole Moment    :     -1.16938       0.22903      -0.34023
                        -----------------------------------------
Magnitude (a.u.)       :      1.23922
Magnitude (Debye)      :      3.14983

                             ****ORCA TERMINATED NORMALLY****
TOTAL RUN TIME: 0 days 0 hours 12 minutes 37 seconds 875 msec
