                         Program Version 3.0.3 - RELEASE   -
|  1> ! RI-MP2 RIJK def2-TZVP def2-TZVP/C def2-TZVP/JK TIGHTSCF
|  2> % maxcore 2000
|  3> % mp2 density relaxed end
|  4> *xyz 0 1
|  5>  C       -0.0892722889     1.4891202081     0.0364320827
|  6>  N       -0.0533590146     0.0355351855    -0.0094368925
|  7>  C       -1.1480116720    -0.7463931442     0.0004044939
|  8>  C       -1.1322328468    -2.1353629385     0.0244855330
|  9>  C       -2.3788421998    -2.7574922926     0.0199140957
| 10>  N       -3.5560678987    -2.1579894797    -0.0124485610
| 11>  C       -3.6096145120    -0.8126145955    -0.0461215579
| 12>  O       -4.5402679536    -0.0709709004    -0.0877053574
| 13>  O       -2.2900725892    -0.0927849843    -0.0245011737
| 14>  H        0.8807672925     1.8703316362    -0.2869294156
| 15>  H       -0.8616136167     1.8632092165    -0.6369568029
| 16>  H       -0.3007875939     1.8636981824     1.0446633233
| 17>  H        0.8345511079    -0.4288419342     0.0820331607
| 18>  H       -0.2063094598    -2.6917567530     0.0468785631
| 19>  H       -2.4157404844    -3.8464506163     0.0451221388
| 20> *
| 21>
| 22>                          ****END OF INPUT****

CARTESIAN COORDINATES (ANGSTROEM)
---------------------------------
  C     -0.089272    1.489120    0.036432
  N     -0.053359    0.035535   -0.009437
  C     -1.148012   -0.746393    0.000404
  C     -1.132233   -2.135363    0.024486
  C     -2.378842   -2.757492    0.019914
  N     -3.556068   -2.157989   -0.012449
  C     -3.609615   -0.812615   -0.046122
  O     -4.540268   -0.070971   -0.087705
  O     -2.290073   -0.092785   -0.024501
  H      0.880767    1.870332   -0.286929
  H     -0.861614    1.863209   -0.636957
  H     -0.300788    1.863698    1.044663
  H      0.834551   -0.428842    0.082033
  H     -0.206309   -2.691757    0.046879
  H     -2.415740   -3.846451    0.045122

 Total Charge           Charge          ....    0
 Multiplicity           Mult            ....    1
 Number of Electrons    NEL             ....   66
 Basis Dimension        Dim             ....  315

ORBITAL ENERGIES
----------------

  NO   OCC          E(Eh)            E(eV)
   0   2.0000     -20.630447      -561.3830
   1   2.0000     -20.531438      -558.6888
   2   2.0000     -15.624551      -425.1657
   3   2.0000     -15.549724      -423.1295
   4   2.0000     -11.403286      -310.2992
   5   2.0000     -11.399494      -310.1960
   6   2.0000     -11.318401      -307.9893
   7   2.0000     -11.289104      -307.1921
   8   2.0000     -11.232059      -305.6399
   9   2.0000      -1.482294       -40.3353
  10   2.0000      -1.388418       -37.7808
  11   2.0000      -1.279841       -34.8263
  12   2.0000      -1.241872       -33.7931
  13   2.0000      -1.075432       -29.2640
  14   2.0000      -0.981024       -26.6950
  15   2.0000      -0.898583       -24.4517
  16   2.0000      -0.890562       -24.2334
  17   2.0000      -0.762039       -20.7361
  18   2.0000      -0.747794       -20.3485
  19   2.0000      -0.696051       -18.9405
  20   2.0000      -0.683704       -18.6045
  21   2.0000      -0.667662       -18.1680
  22   2.0000      -0.639155       -17.3923
  23   2.0000      -0.624734       -16.9999
  24   2.0000      -0.617280       -16.7970
  25   2.0000      -0.580921       -15.8077
  26   2.0000      -0.563975       -15.3465
  27   2.0000      -0.548851       -14.9350
  28   2.0000      -0.489189       -13.3115
  29   2.0000      -0.466887       -12.7046
  30   2.0000      -0.451141       -12.2762
  31   2.0000      -0.428944       -11.6721
  32   2.0000      -0.330585        -8.9957
  33   0.0000       0.085632         2.3302
  34   0.0000       0.109169         2.9706
  35   0.0000       0.144529         3.9328
  36   0.0000       0.160424         4.3654
  37   0.0000       0.173038         4.7086

MULLIKEN ATOMIC CHARGES
-----------------------
   0 C :   -0.274363
   1 N :   -0.314650
   2 C :    0.407924
   3 C :   -0.314351
   4 C :    0.005448
   5 N :   -0.285661
   6 C :    0.273300
   7 O :   -0.266302
   8 O :   -0.222145
   9 H :    0.144892
  10 H :    0.172190
  11 H :    0.151023
  12 H :    0.253725
  13 H :    0.134513
  14 H :    0.134456
Sum of atomic charges:    0.0000000

LOEWDIN ATOMIC CHARGES
----------------------
   0 C :   -0.299673
   1 N :    0.113348
   2 C :   -0.331975
   3 C :   -0.212373
   4 C :   -0.197769
   5 N :    0.098037
   6 C :   -0.488978
   7 O :    0.145274
   8 O :    0.307333
   9 H :    0.122735
  10 H :    0.131206
  11 H :    0.121169
  12 H :    0.196494
  13 H :    0.149219
  14 H :    0.145952

  Mayer bond orders larger than 0.1
B(  0-C ,  1-N ) :   0.8514 B(  0-C ,  9-H ) :   0.9295 B(  0-C , 10-H ) :   0.9294
B(  0-C , 11-H ) :   0.9339 B(  1-N ,  2-C ) :   1.2408 B(  1-N , 12-H ) :   0.8731
B(  2-C ,  3-C ) :   1.2916 B(  2-C ,  8-O ) :   1.1929 B(  3-C ,  4-C ) :   1.3125
B(  3-C , 13-H ) :   0.9178 B(  4-C ,  5-N ) :   1.4673 B(  4-C , 14-H ) :   0.9438
B(  5-N ,  6-C ) :   1.2634 B(  6-C ,  7-O ) :   2.0538 B(  6-C ,  8-O ) :   0.8103

MP2 TOTAL ENERGY:     -453.253076408 Eh
FINAL SINGLE POINT ENERGY      -453.253076408215

DIPOLE MOMENT
-------------
                                X             Y             Z
Electronic contribution:     -6.71333      -2.74512      -0.23024
Nuclear contribution   :      9.73032       2.89686       0.33697
                        -----------------------------------------
Total Dipole Moment    :      3.01698       0.15174       0.10673
                        -----------------------------------------
Magnitude (a.u.)       :      3.02268
Magnitude (Debye)      :      7.68305

                             ****ORCA TERMINATED NORMALLY****
TOTAL RUN TIME: 0 days 0 hours 13 minutes 42 seconds 286 msec
