                         Program Version 3.0.3 - RELEASE   -
|  1> ! RI-MP2 RIJK def2-TZVP def2-TZVP/C def2-TZVP/JK TIGHTSCF
|  2> % maxcore 2000
|  3> % mp2 density relaxed end
|  4> *xyz 0 1
|  5>  C       -0.1058665596     1.5384853001    -0.0629300810
|  6>  C        0.0146691033     0.0324388125     0.0253837962
|  7>  C        1.3316425801    -0.6654888969    -0.2281651611
|  8>  C        0.7268938856    -0.6885771020     1.1514287061
|  9>  C        1.3730214554     0.0801002675     2.2751723406
| 10>  O        0.4320147229     0.3162840817     3.3395573277
| 11>  C       -0.4451794009    -0.6907102616     3.5742508934
| 12>  N       -0.6450291007    -1.7568126117     2.9250996804
| 13>  C        0.1230785560    -1.9697117404     1.6982949697
| 14>  H        0.8183641888     2.0452362986     0.2304795239
| 15>  H       -0.3265339114     1.8447148925    -1.0912365384
| 16>  H       -0.9102639613     1.9140352198     0.5785166075
| 17>  H       -0.8631385671    -0.4938367343    -0.3433905053
| 18>  H        1.3401720736    -1.5901487100    -0.7971774200
| 19>  H        2.2064293063    -0.0413840081    -0.3900427741
| 20>  H        2.2204626804    -0.4835767033     2.6887223371
| 21>  H        1.7331224311     1.0648536282     1.9741136280
| 22>  H       -1.0249881956    -0.4679791632     4.4686371134
| 23>  H       -0.5406353535    -2.4313302750     0.9580609254
| 24>  H        0.9091956067    -2.7106247645     1.9055718404
| 25> *
| 26>
| 27>                          ****END OF INPUT****

CARTESIAN COORDINATES (ANGSTROEM)
---------------------------------
  C     -0.105867    1.538485   -0.062930
  C      0.014669    0.032439    0.025384
  C      1.331643   -0.665489   -0.228165
  C      0.726894   -0.688577    1.151429
  C      1.373021    0.080100    2.275172
  O      0.432015    0.316284    3.339557
  C     -0.445179   -0.690710    3.574251
  N     -0.645029   -1.756813    2.925100
  C      0.123079   -1.969712    1.698295
  H      0.818364    2.045236    0.230480
  H     -0.326534    1.844715   -1.091237
  H     -0.910264    1.914035    0.578517
  H     -0.863139   -0.493837   -0.343391
  H      1.340172   -1.590149   -0.797177
  H      2.206429   -0.041384   -0.390043
  H      2.220463   -0.483577    2.688722
  H      1.733122    1.064854    1.974114
  H     -1.024988   -0.467979    4.468637
  H     -0.540635   -2.431330    0.958061
  H      0.909196   -2.710625    1.905572

 Total Charge           Charge          ....    0
 Multiplicity           Mult            ....    1
 Number of Electrons    NEL             ....   68
 Basis Dimension        Dim             ....  345

ORBITAL ENERGIES
----------------

  NO   OCC          E(Eh)            E(eV)
   0   2.0000     -20.591018      -560.3101
   1   2.0000     -15.540077      -422.8670
   2   2.0000     -11.325999      -308.1961
   3   2.0000     -11.292458      -307.2834
   4   2.0000     -11.254807      -306.2589
   5   2.0000     -11.242252      -305.9172
   6   2.0000     -11.238833      -305.8242
   7   2.0000     -11.233234      -305.6718
   8   2.0000     -11.223090      -305.3958
   9   2.0000      -1.422485       -38.7078
  10   2.0000      -1.213160       -33.0118
  11   2.0000      -1.164872       -31.6978
  12   2.0000      -1.014816       -27.6146
  13   2.0000      -0.961431       -26.1619
  14   2.0000      -0.928183       -25.2571
  15   2.0000      -0.829965       -22.5845
  16   2.0000      -0.802166       -21.8280
  17   2.0000      -0.730665       -19.8824
  18   2.0000      -0.700528       -19.0623
  19   2.0000      -0.682864       -18.5817
  20   2.0000      -0.648022       -17.6336
  21   2.0000      -0.616252       -16.7691
  22   2.0000      -0.600243       -16.3335
  23   2.0000      -0.581093       -15.8123
  24   2.0000      -0.570838       -15.5333
  25   2.0000      -0.557542       -15.1715
  26   2.0000      -0.552029       -15.0215
  27   2.0000      -0.524339       -14.2680
  28   2.0000      -0.506991       -13.7959
  29   2.0000      -0.497573       -13.5396
  30   2.0000      -0.430989       -11.7278
  31   2.0000      -0.400448       -10.8968
  32   2.0000      -0.392736       -10.6869
  33   2.0000      -0.382000       -10.3947
  34   0.0000       0.135670         3.6918
  35   0.0000       0.150788         4.1031
  36   0.0000       0.161491         4.3944
  37   0.0000       0.170226         4.6321
  38   0.0000       0.185545         5.0489

MULLIKEN ATOMIC CHARGES
-----------------------
   0 C :   -0.405183
   1 C :   -0.091722
   2 C :   -0.313490
   3 C :    0.008757
   4 C :   -0.016594
   5 O :   -0.273456
   6 C :    0.087417
   7 N :   -0.271681
   8 C :   -0.123488
   9 H :    0.114503
  10 H :    0.139514
  11 H :    0.141786
  12 H :    0.122571
  13 H :    0.135293
  14 H :    0.129029
  15 H :    0.121090
  16 H :    0.119158
  17 H :    0.134631
  18 H :    0.119655
  19 H :    0.122210
Sum of atomic charges:    0.0000000

LOEWDIN ATOMIC CHARGES
----------------------
   0 C :   -0.291407
   1 C :   -0.208807
   2 C :   -0.183318
   3 C :   -0.249066
   4 C :   -0.231977
   5 O :    0.219151
   6 C :   -0.363831
   7 N :    0.068465
   8 C :   -0.249424
   9 H :    0.122824
  10 H :    0.127872
  11 H :    0.128967
  12 H :    0.152234
  13 H :    0.136573
  14 H :    0.137757
  15 H :    0.135523
  16 H :    0.135263
  17 H :    0.132713
  18 H :    0.140881
  19 H :    0.139607

  Mayer bond orders larger than 0.1
B(  0-C ,  1-C ) :   0.9159 B(  0-C ,  9-H ) :   0.9349 B(  0-C , 10-H ) :   0.9362
B(  0-C , 11-H ) :   0.9386 B(  1-C ,  2-C ) :   0.9140 B(  1-C ,  3-C ) :   0.8300
B(  1-C , 12-H ) :   0.9254 B(  2-C ,  3-C ) :   0.8655 B(  2-C , 13-H ) :   0.9206
B(  2-C , 14-H ) :   0.9189 B(  3-C ,  4-C ) :   0.9470 B(  3-C ,  8-C ) :   0.9231
B(  4-C ,  5-O ) :   0.8602 B(  4-C , 15-H ) :   0.9375 B(  4-C , 16-H ) :   0.9169
B(  5-O ,  6-C ) :   1.0660 B(  6-C ,  7-N ) :   1.8442 B(  6-C , 17-H ) :   0.9259
B(  7-N ,  8-C ) :   0.9441 B(  8-C , 18-H ) :   0.9113 B(  8-C , 19-H ) :   0.9327

MP2 TOTAL ENERGY:     -402.455186267 Eh
FINAL SINGLE POINT ENERGY      -402.455186266628

DIPOLE MOMENT
-------------
                                X             Y             Z
Electronic contribution:     -1.34515      -2.45449       6.76314
Nuclear contribution   :      1.93861       2.80070      -7.39581
                        -----------------------------------------
Total Dipole Moment    :      0.59346       0.34622      -0.63267
                        -----------------------------------------
Magnitude (a.u.)       :      0.93399
Magnitude (Debye)      :      2.37401

                             ****ORCA TERMINATED NORMALLY****
TOTAL RUN TIME: 0 days 0 hours 19 minutes 6 seconds 629 msec
