                         Program Version 3.0.3 - RELEASE   -
|  1> ! RI-MP2 RIJK def2-TZVP def2-TZVP/C def2-TZVP/JK TIGHTSCF
|  2> % maxcore 2000
|  3> % mp2 density relaxed end
|  4> *xyz 0 1
|  5>  C       -0.0402276027     1.6479049976     0.0015086557
|  6>  C        0.0149949575     0.1117852226    -0.0125580685
|  7>  C        0.5037842447    -0.7320107282    -1.2380389589
|  8>  C        2.0242396661    -0.5752073126    -1.2622216772
|  9>  C        2.7185304828     0.5168177404    -0.5338836953
| 10>  N        2.3927085626    -0.7115642743     0.2059100217
| 11>  C        1.0268199749    -0.7980633786     0.7851386308
| 12>  C        0.4740177525    -1.8921538987    -0.1843965911
| 13>  O        0.1126355800    -3.0226723513    -0.1320660692
| 14>  H        0.4078597847     2.0940338938    -0.8894473526
| 15>  H       -1.0818549444     1.9794915199     0.0358593658
| 16>  H        0.4599777789     2.0694730830     0.8790473115
| 17>  H       -0.9811046260    -0.2562407882     0.2559234548
| 18>  H       -0.0368847145    -0.7747638824    -2.1806064147
| 19>  H        2.5795795348    -1.1943817523    -1.9602145511
| 20>  H        3.7873814193     0.6079514994    -0.7088702776
| 21>  H        2.2342830211     1.4504444996    -0.2958912617
| 22>  H        1.0126524177    -0.8857007098     1.8689838774
| 23> *
| 24>
| 25>                          ****END OF INPUT****

CARTESIAN COORDINATES (ANGSTROEM)
---------------------------------
  C     -0.040228    1.647905    0.001509
  C      0.014995    0.111785   -0.012558
  C      0.503784   -0.732011   -1.238039
  C      2.024240   -0.575207   -1.262222
  C      2.718530    0.516818   -0.533884
  N      2.392709   -0.711564    0.205910
  C      1.026820   -0.798063    0.785139
  C      0.474018   -1.892154   -0.184397
  O      0.112636   -3.022672   -0.132066
  H      0.407860    2.094034   -0.889447
  H     -1.081855    1.979492    0.035859
  H      0.459978    2.069473    0.879047
  H     -0.981105   -0.256241    0.255923
  H     -0.036885   -0.774764   -2.180606
  H      2.579580   -1.194382   -1.960215
  H      3.787381    0.607951   -0.708870
  H      2.234283    1.450444   -0.295891
  H      1.012652   -0.885701    1.868984

 Total Charge           Charge          ....    0
 Multiplicity           Mult            ....    1
 Number of Electrons    NEL             ....   66
 Basis Dimension        Dim             ....  333

ORBITAL ENERGIES
----------------

  NO   OCC          E(Eh)            E(eV)
   0   2.0000     -20.557589      -559.4004
   1   2.0000     -15.576447      -423.8567
   2   2.0000     -11.340824      -308.5995
   3   2.0000     -11.281931      -306.9969
   4   2.0000     -11.278098      -306.8927
   5   2.0000     -11.268972      -306.6443
   6   2.0000     -11.262909      -306.4793
   7   2.0000     -11.262316      -306.4632
   8   2.0000     -11.237920      -305.7994
   9   2.0000      -1.405698       -38.2510
  10   2.0000      -1.307298       -35.5734
  11   2.0000      -1.131297       -30.7842
  12   2.0000      -1.005934       -27.3728
  13   2.0000      -0.989182       -26.9170
  14   2.0000      -0.872151       -23.7324
  15   2.0000      -0.798851       -21.7378
  16   2.0000      -0.786510       -21.4020
  17   2.0000      -0.754581       -20.5332
  18   2.0000      -0.715957       -19.4822
  19   2.0000      -0.662014       -18.0143
  20   2.0000      -0.632010       -17.1979
  21   2.0000      -0.623068       -16.9545
  22   2.0000      -0.592614       -16.1259
  23   2.0000      -0.582106       -15.8399
  24   2.0000      -0.570416       -15.5218
  25   2.0000      -0.538903       -14.6643
  26   2.0000      -0.515560       -14.0291
  27   2.0000      -0.504245       -13.7212
  28   2.0000      -0.495370       -13.4797
  29   2.0000      -0.476505       -12.9664
  30   2.0000      -0.436958       -11.8902
  31   2.0000      -0.406283       -11.0555
  32   2.0000      -0.365497        -9.9457
  33   0.0000       0.128764         3.5038
  34   0.0000       0.153342         4.1726
  35   0.0000       0.159344         4.3360
  36   0.0000       0.165586         4.5058
  37   0.0000       0.178068         4.8455

MULLIKEN ATOMIC CHARGES
-----------------------
   0 C :   -0.462233
   1 C :   -0.169164
   2 C :    0.009158
   3 C :   -0.154383
   4 C :   -0.151594
   5 N :   -0.260170
   6 C :    0.094317
   7 C :    0.043280
   8 O :   -0.227699
   9 H :    0.151329
  10 H :    0.147708
  11 H :    0.154602
  12 H :    0.128654
  13 H :    0.145721
  14 H :    0.140089
  15 H :    0.130028
  16 H :    0.139981
  17 H :    0.140377
Sum of atomic charges:   -0.0000000

LOEWDIN ATOMIC CHARGES
----------------------
   0 C :   -0.304573
   1 C :   -0.207410
   2 C :   -0.153809
   3 C :   -0.198440
   4 C :   -0.239764
   5 N :    0.132007
   6 C :   -0.190991
   7 C :   -0.260351
   8 O :    0.181978
   9 H :    0.126448
  10 H :    0.126673
  11 H :    0.127761
  12 H :    0.171011
  13 H :    0.143153
  14 H :    0.144607
  15 H :    0.134982
  16 H :    0.129025
  17 H :    0.137694

  Mayer bond orders larger than 0.1
B(  0-C ,  1-C ) :   0.8326 B(  0-C ,  9-H ) :   0.9455 B(  0-C , 10-H ) :   0.9352
B(  0-C , 11-H ) :   0.9455 B(  1-C ,  2-C ) :   0.9047 B(  1-C ,  6-C ) :   0.8810
B(  1-C , 12-H ) :   0.9181 B(  2-C ,  3-C ) :   0.9062 B(  2-C ,  7-C ) :   0.8169
B(  2-C , 13-H ) :   0.8926 B(  3-C ,  4-C ) :   0.9540 B(  3-C ,  5-N ) :   0.8692
B(  3-C , 14-H ) :   0.9100 B(  4-C ,  5-N ) :   0.8779 B(  4-C , 15-H ) :   0.9313
B(  4-C , 16-H ) :   0.9036 B(  5-N ,  6-C ) :   0.8613 B(  6-C ,  7-C ) :   0.7827
B(  6-C , 17-H ) :   0.9064 B(  7-C ,  8-O ) :   2.0744

MP2 TOTAL ENERGY:     -401.202566293 Eh
FINAL SINGLE POINT ENERGY      -401.202566292557

DIPOLE MOMENT
-------------
                                X             Y             Z
Electronic contribution:      0.48216      -8.40369       0.33719
Nuclear contribution   :     -0.67817       9.80343      -0.63857
                        -----------------------------------------
Total Dipole Moment    :     -0.19600       1.39975      -0.30138
                        -----------------------------------------
Magnitude (a.u.)       :      1.44518
Magnitude (Debye)      :      3.67335

                             ****ORCA TERMINATED NORMALLY****
TOTAL RUN TIME: 0 days 0 hours 18 minutes 45 seconds 730 msec
