                         Program Version 3.0.3 - RELEASE   -
|  1> ! RI-MP2 RIJK def2-TZVP def2-TZVP/C def2-TZVP/JK TIGHTSCF
|  2> % maxcore 2000
|  3> % mp2 density relaxed end
|  4> *xyz 0 1
|  5>  C       -0.1645787966     1.3860007026    -0.1464674762
|  6>  O        1.0757737978     0.6788744573    -0.1383286138
|  7>  C       -0.1406688690    -0.0783840006    -0.0418253107
|  8>  C       -0.3835335288    -0.7704381119     1.2567554836
|  9>  C       -1.5258894544    -1.7531710314     1.3929049343
| 10>  C       -0.1070046004    -2.2520552286     1.4281788954
| 11>  C        0.4343086960    -3.0842651492     0.3064344188
| 12>  C       -0.2311176429    -4.3184849393    -0.1360548600
| 13>  O       -0.3153506774    -3.1201825548    -0.9117587482
| 14>  H       -0.3686945642     1.9832505122     0.7421884222
| 15>  H       -0.4310173913     1.8597784268    -1.0907069059
| 16>  H       -0.3736982663    -0.6575699513    -0.9336079494
| 17>  H       -0.1668764357    -0.1514000596     2.1229184457
| 18>  H       -2.1059634367    -1.7496669362     2.3084689095
| 19>  H       -2.0898925116    -1.9742770783     0.4928977998
| 20>  H        0.2937887747    -2.5381748649     2.3974939474
| 21>  H        1.5117264937    -3.0113502113     0.1510921825
| 22>  H        0.3515916996    -5.1211093065    -0.5848840909
| 23>  H       -1.1577376964    -4.6224075249     0.3479984960
| 24> *
| 25>
| 26>                          ****END OF INPUT****

CARTESIAN COORDINATES (ANGSTROEM)
---------------------------------
  C     -0.164579    1.386001   -0.146467
  O      1.075774    0.678874   -0.138329
  C     -0.140669   -0.078384   -0.041825
  C     -0.383534   -0.770438    1.256755
  C     -1.525889   -1.753171    1.392905
  C     -0.107005   -2.252055    1.428179
  C      0.434309   -3.084265    0.306434
  C     -0.231118   -4.318485   -0.136055
  O     -0.315351   -3.120183   -0.911759
  H     -0.368695    1.983251    0.742188
  H     -0.431017    1.859778   -1.090707
  H     -0.373698   -0.657570   -0.933608
  H     -0.166876   -0.151400    2.122918
  H     -2.105963   -1.749667    2.308469
  H     -2.089893   -1.974277    0.492898
  H      0.293789   -2.538175    2.397494
  H      1.511726   -3.011350    0.151092
  H      0.351592   -5.121109   -0.584884
  H     -1.157738   -4.622408    0.347998

 Total Charge           Charge          ....    0
 Multiplicity           Mult            ....    1
 Number of Electrons    NEL             ....   68
 Basis Dimension        Dim             ....  339

ORBITAL ENERGIES
----------------

  NO   OCC          E(Eh)            E(eV)
   0   2.0000     -20.572230      -559.7988
   1   2.0000     -20.558945      -559.4373
   2   2.0000     -11.293009      -307.2984
   3   2.0000     -11.285102      -307.0832
   4   2.0000     -11.281408      -306.9827
   5   2.0000     -11.275679      -306.8268
   6   2.0000     -11.243938      -305.9631
   7   2.0000     -11.240742      -305.8761
   8   2.0000     -11.233507      -305.6793
   9   2.0000      -1.415602       -38.5205
  10   2.0000      -1.401460       -38.1357
  11   2.0000      -1.157365       -31.4935
  12   2.0000      -0.964412       -26.2430
  13   2.0000      -0.930666       -25.3247
  14   2.0000      -0.888035       -24.1647
  15   2.0000      -0.878613       -23.9083
  16   2.0000      -0.801750       -21.8167
  17   2.0000      -0.772095       -21.0098
  18   2.0000      -0.709230       -19.2991
  19   2.0000      -0.692795       -18.8519
  20   2.0000      -0.673026       -18.3140
  21   2.0000      -0.641299       -17.4506
  22   2.0000      -0.622155       -16.9297
  23   2.0000      -0.575251       -15.6534
  24   2.0000      -0.549913       -14.9639
  25   2.0000      -0.546474       -14.8703
  26   2.0000      -0.519699       -14.1417
  27   2.0000      -0.509851       -13.8737
  28   2.0000      -0.492344       -13.3974
  29   2.0000      -0.457465       -12.4483
  30   2.0000      -0.454015       -12.3544
  31   2.0000      -0.445074       -12.1111
  32   2.0000      -0.420230       -11.4350
  33   2.0000      -0.384053       -10.4506
  34   0.0000       0.146771         3.9938
  35   0.0000       0.160546         4.3687
  36   0.0000       0.164836         4.4854
  37   0.0000       0.176929         4.8145
  38   0.0000       0.186835         5.0840

MULLIKEN ATOMIC CHARGES
-----------------------
   0 C :   -0.075547
   1 O :   -0.338392
   2 C :    0.013005
   3 C :   -0.096347
   4 C :   -0.307953
   5 C :   -0.113856
   6 C :    0.038186
   7 C :   -0.080050
   8 O :   -0.345881
   9 H :    0.109367
  10 H :    0.114260
  11 H :    0.160462
  12 H :    0.125105
  13 H :    0.136961
  14 H :    0.154697
  15 H :    0.125943
  16 H :    0.137241
  17 H :    0.120572
  18 H :    0.122228
Sum of atomic charges:    0.0000000

LOEWDIN ATOMIC CHARGES
----------------------
   0 C :   -0.267093
   1 O :    0.138981
   2 C :   -0.270974
   3 C :   -0.185876
   4 C :   -0.192071
   5 C :   -0.195345
   6 C :   -0.272965
   7 C :   -0.258447
   8 O :    0.142206
   9 H :    0.118781
  10 H :    0.118248
  11 H :    0.149086
  12 H :    0.155528
  13 H :    0.132481
  14 H :    0.143954
  15 H :    0.156462
  16 H :    0.144357
  17 H :    0.120241
  18 H :    0.122444

  Mayer bond orders larger than 0.1
B(  0-C ,  1-O ) :   0.9196 B(  0-C ,  2-C ) :   0.9842 B(  0-C ,  9-H ) :   0.9088
B(  0-C , 10-H ) :   0.9169 B(  1-O ,  2-C ) :   0.8577 B(  2-C ,  3-C ) :   0.9404
B(  2-C , 11-H ) :   0.9035 B(  3-C ,  4-C ) :   0.8602 B(  3-C ,  5-C ) :   0.8728
B(  3-C , 12-H ) :   0.9233 B(  4-C ,  5-C ) :   0.8996 B(  4-C , 13-H ) :   0.9251
B(  4-C , 14-H ) :   0.9174 B(  5-C ,  6-C ) :   0.9550 B(  5-C , 15-H ) :   0.9213
B(  6-C ,  7-C ) :   0.9658 B(  6-C ,  8-O ) :   0.8577 B(  6-C , 16-H ) :   0.9173
B(  7-C ,  8-O ) :   0.9085 B(  7-C , 17-H ) :   0.9240 B(  7-C , 18-H ) :   0.9078

MP2 TOTAL ENERGY:     -422.250124531 Eh
FINAL SINGLE POINT ENERGY      -422.250124530521

DIPOLE MOMENT
-------------
                                X             Y             Z
Electronic contribution:      2.37512       0.71988      -2.06175
Nuclear contribution   :     -2.91325      -1.17456       2.73800
                        -----------------------------------------
Total Dipole Moment    :     -0.53813      -0.45468       0.67626
                        -----------------------------------------
Magnitude (a.u.)       :      0.97655
Magnitude (Debye)      :      2.48219

                             ****ORCA TERMINATED NORMALLY****
TOTAL RUN TIME: 0 days 0 hours 15 minutes 12 seconds 184 msec
