                         Program Version 3.0.3 - RELEASE   -
|  1> ! RI-MP2 RIJK def2-TZVP def2-TZVP/C def2-TZVP/JK TIGHTSCF
|  2> % maxcore 2000
|  3> % mp2 density relaxed end
|  4> *xyz 0 1
|  5>  C        0.0115537199     1.5243941130    -0.0257874434
|  6>  C       -0.0021645046     0.0200942550    -0.0015252170
|  7>  C       -0.0220670953    -0.7335965852    -1.1707411325
|  8>  N       -0.0357082060    -2.0642136850    -1.2084649509
|  9>  C       -0.0329541341    -2.6678055918    -0.0118398249
| 10>  N       -0.1028286273    -4.0348687916    -0.0057981930
| 11>  N        0.0005509064    -2.0613140128     1.1859044321
| 12>  C        0.0141349285    -0.7280297880     1.1893698343
| 13>  C        0.0514751800    -0.0571852720     2.5360418885
| 14>  H        0.9028585088     1.9369786872     0.4622658646
| 15>  H       -0.0009791445     1.8937578449    -1.0553839427
| 16>  H       -0.8568761845     1.9526979821     0.4890965581
| 17>  H       -0.0242763610    -0.2301674186    -2.1375173656
| 18>  H        0.1303452643    -4.4958326262    -0.8694324240
| 19>  H        0.1610591004    -4.4915537890     0.8510803822
| 20>  H        0.9389404089     0.5784662124     2.6365308547
| 21>  H       -0.8191193699     0.5941403187     2.6758497588
| 22>  H        0.0617758099    -0.8109015132     3.3239004606
| 23> *
| 24>
| 25>                          ****END OF INPUT****

CARTESIAN COORDINATES (ANGSTROEM)
---------------------------------
  C      0.011554    1.524394   -0.025787
  C     -0.002165    0.020094   -0.001525
  C     -0.022067   -0.733597   -1.170741
  N     -0.035708   -2.064214   -1.208465
  C     -0.032954   -2.667806   -0.011840
  N     -0.102829   -4.034869   -0.005798
  N      0.000551   -2.061314    1.185904
  C      0.014135   -0.728030    1.189370
  C      0.051475   -0.057185    2.536042
  H      0.902859    1.936979    0.462266
  H     -0.000979    1.893758   -1.055384
  H     -0.856876    1.952698    0.489097
  H     -0.024276   -0.230167   -2.137517
  H      0.130345   -4.495833   -0.869432
  H      0.161059   -4.491554    0.851080
  H      0.938940    0.578466    2.636531
  H     -0.819119    0.594140    2.675850
  H      0.061776   -0.810902    3.323900

 Total Charge           Charge          ....    0
 Multiplicity           Mult            ....    1
 Number of Electrons    NEL             ....   66
 Basis Dimension        Dim             ....  333

ORBITAL ENERGIES
----------------

  NO   OCC          E(Eh)            E(eV)
   0   2.0000     -15.563778      -423.5119
   1   2.0000     -15.547576      -423.0710
   2   2.0000     -15.546025      -423.0288
   3   2.0000     -11.338615      -308.5394
   4   2.0000     -11.293655      -307.3160
   5   2.0000     -11.281635      -306.9889
   6   2.0000     -11.229982      -305.5833
   7   2.0000     -11.228658      -305.5473
   8   2.0000     -11.225547      -305.4627
   9   2.0000      -1.317980       -35.8641
  10   2.0000      -1.197735       -32.5920
  11   2.0000      -1.184648       -32.2359
  12   2.0000      -1.075415       -29.2635
  13   2.0000      -0.992527       -27.0080
  14   2.0000      -0.933769       -25.4091
  15   2.0000      -0.857195       -23.3255
  16   2.0000      -0.828633       -22.5483
  17   2.0000      -0.732707       -19.9380
  18   2.0000      -0.701768       -19.0961
  19   2.0000      -0.652766       -17.7627
  20   2.0000      -0.615182       -16.7399
  21   2.0000      -0.608185       -16.5495
  22   2.0000      -0.583255       -15.8712
  23   2.0000      -0.565270       -15.3818
  24   2.0000      -0.559356       -15.2209
  25   2.0000      -0.558420       -15.1954
  26   2.0000      -0.542273       -14.7560
  27   2.0000      -0.537281       -14.6202
  28   2.0000      -0.470433       -12.8011
  29   2.0000      -0.449618       -12.2347
  30   2.0000      -0.409443       -11.1415
  31   2.0000      -0.395438       -10.7604
  32   2.0000      -0.313002        -8.5172
  33   0.0000       0.110171         2.9979
  34   0.0000       0.130924         3.5626
  35   0.0000       0.146362         3.9827
  36   0.0000       0.155950         4.2436
  37   0.0000       0.168071         4.5734

MULLIKEN ATOMIC CHARGES
-----------------------
   0 C :   -0.403378
   1 C :    0.042612
   2 C :   -0.095424
   3 N :   -0.283105
   4 C :    0.336212
   5 N :   -0.486558
   6 N :   -0.282815
   7 C :    0.097691
   8 C :   -0.427359
   9 H :    0.143638
  10 H :    0.139998
  11 H :    0.144662
  12 H :    0.122224
  13 H :    0.260145
  14 H :    0.259379
  15 H :    0.138583
  16 H :    0.139379
  17 H :    0.154117
Sum of atomic charges:   -0.0000000

LOEWDIN ATOMIC CHARGES
----------------------
   0 C :   -0.264453
   1 C :   -0.172104
   2 C :   -0.190914
   3 N :    0.123892
   4 C :   -0.413133
   5 N :   -0.035811
   6 N :    0.152482
   7 C :   -0.217369
   8 C :   -0.261945
   9 H :    0.131389
  10 H :    0.131989
  11 H :    0.131695
  12 H :    0.141111
  13 H :    0.171762
  14 H :    0.171123
  15 H :    0.132977
  16 H :    0.133498
  17 H :    0.133808

  Mayer bond orders larger than 0.1
B(  0-C ,  1-C ) :   0.8748 B(  0-C ,  9-H ) :   0.9338 B(  0-C , 10-H ) :   0.9398
B(  0-C , 11-H ) :   0.9342 B(  1-C ,  2-C ) :   1.3374 B(  1-C ,  7-C ) :   1.2720
B(  2-C ,  3-N ) :   1.4458 B(  2-C , 12-H ) :   0.9543 B(  3-N ,  4-C ) :   1.3648
B(  4-C ,  5-N ) :   1.1335 B(  4-C ,  6-N ) :   1.3490 B(  5-N , 13-H ) :   0.8663
B(  5-N , 14-H ) :   0.8663 B(  6-N ,  7-C ) :   1.4805 B(  7-C ,  8-C ) :   0.8906
B(  8-C , 15-H ) :   0.9337 B(  8-C , 16-H ) :   0.9323 B(  8-C , 17-H ) :   0.9458

MP2 TOTAL ENERGY:     -397.511870248 Eh
FINAL SINGLE POINT ENERGY      -397.511870248338

DIPOLE MOMENT
-------------
                                X             Y             Z
Electronic contribution:     -0.24812      -6.90588      -3.28358
Nuclear contribution   :      0.54454       7.31701       3.49232
                        -----------------------------------------
Total Dipole Moment    :      0.29642       0.41113       0.20875
                        -----------------------------------------
Magnitude (a.u.)       :      0.54815
Magnitude (Debye)      :      1.39328

                             ****ORCA TERMINATED NORMALLY****
TOTAL RUN TIME: 0 days 0 hours 17 minutes 13 seconds 399 msec
