                         Program Version 3.0.3 - RELEASE   -
|  1> ! RI-MP2 RIJK def2-TZVP def2-TZVP/C def2-TZVP/JK TIGHTSCF
|  2> % maxcore 2000
|  3> % mp2 density relaxed end
|  4> *xyz 0 1
|  5>  C        0.1078593416     1.2196418098    -0.4878167529
|  6>  C        0.0609707814    -0.1717610756     0.1757524075
|  7>  C        0.6560251494    -0.1269416176     1.5894282371
|  8>  C       -1.3365381002    -0.7327975516     0.1594353919
|  9>  C       -2.1898774917    -0.9263601239     1.2026046226
| 10>  O       -3.3793910522    -1.4238079959     0.7882286562
| 11>  C       -3.2926166898    -1.5700431123    -0.5693233792
| 12>  C       -2.0706563739    -1.1613129561    -1.0100937266
| 13>  N       -1.5988543510    -1.0731927057    -2.3313286896
| 14>  H        1.1379977249     1.5876232770    -0.5456726901
| 15>  H       -0.3070881115     1.1883580913    -1.4986364347
| 16>  H       -0.4791465460     1.9381060287     0.0942191460
| 17>  H        0.6974614507    -0.8405918684    -0.4253469002
| 18>  H        0.0859841438     0.5533012503     2.2324196510
| 19>  H        0.6538162091    -1.1161027675     2.0572493131
| 20>  H        1.6880518702     0.2359919201     1.5614239559
| 21>  H       -2.0955505559    -0.7676764195     2.2639204617
| 22>  H       -4.1671937412    -1.9599793735    -1.0623102652
| 23>  H       -2.1525015126    -1.6192829672    -2.9793342987
| 24>  H       -0.6291074851    -1.3544585424    -2.4137514760
| 25> *
| 26>
| 27>                          ****END OF INPUT****

CARTESIAN COORDINATES (ANGSTROEM)
---------------------------------
  C      0.107859    1.219642   -0.487817
  C      0.060971   -0.171761    0.175752
  C      0.656025   -0.126942    1.589428
  C     -1.336538   -0.732798    0.159435
  C     -2.189877   -0.926360    1.202605
  O     -3.379391   -1.423808    0.788229
  C     -3.292617   -1.570043   -0.569323
  C     -2.070656   -1.161313   -1.010094
  N     -1.598854   -1.073193   -2.331329
  H      1.137998    1.587623   -0.545673
  H     -0.307088    1.188358   -1.498636
  H     -0.479147    1.938106    0.094219
  H      0.697461   -0.840592   -0.425347
  H      0.085984    0.553301    2.232420
  H      0.653816   -1.116103    2.057249
  H      1.688052    0.235992    1.561424
  H     -2.095551   -0.767676    2.263920
  H     -4.167194   -1.959979   -1.062310
  H     -2.152502   -1.619283   -2.979334
  H     -0.629107   -1.354459   -2.413751

 Total Charge           Charge          ....    0
 Multiplicity           Mult            ....    1
 Number of Electrons    NEL             ....   68
 Basis Dimension        Dim             ....  345

ORBITAL ENERGIES
----------------

  NO   OCC          E(Eh)            E(eV)
   0   2.0000     -20.604987      -560.6902
   1   2.0000     -15.564192      -423.5232
   2   2.0000     -11.276242      -306.8421
   3   2.0000     -11.262059      -306.4562
   4   2.0000     -11.260344      -306.4095
   5   2.0000     -11.240157      -305.8602
   6   2.0000     -11.223517      -305.4074
   7   2.0000     -11.216683      -305.2215
   8   2.0000     -11.210900      -305.0641
   9   2.0000      -1.441990       -39.2385
  10   2.0000      -1.211494       -32.9664
  11   2.0000      -1.099352       -29.9149
  12   2.0000      -1.023881       -27.8612
  13   2.0000      -0.981157       -26.6987
  14   2.0000      -0.930163       -25.3110
  15   2.0000      -0.838720       -22.8227
  16   2.0000      -0.780140       -21.2287
  17   2.0000      -0.756357       -20.5815
  18   2.0000      -0.708368       -19.2757
  19   2.0000      -0.667439       -18.1619
  20   2.0000      -0.627477       -17.0745
  21   2.0000      -0.613257       -16.6876
  22   2.0000      -0.608863       -16.5680
  23   2.0000      -0.590302       -16.0629
  24   2.0000      -0.582748       -15.8574
  25   2.0000      -0.563090       -15.3225
  26   2.0000      -0.534823       -14.5533
  27   2.0000      -0.521624       -14.1941
  28   2.0000      -0.498287       -13.5591
  29   2.0000      -0.482631       -13.1331
  30   2.0000      -0.481641       -13.1061
  31   2.0000      -0.466017       -12.6810
  32   2.0000      -0.347006        -9.4425
  33   2.0000      -0.295946        -8.0531
  34   0.0000       0.126078         3.4308
  35   0.0000       0.146245         3.9795
  36   0.0000       0.153498         4.1769
  37   0.0000       0.166726         4.5368
  38   0.0000       0.179786         4.8922

MULLIKEN ATOMIC CHARGES
-----------------------
   0 C :   -0.380910
   1 C :   -0.059340
   2 C :   -0.417323
   3 C :    0.005191
   4 C :   -0.053006
   5 O :   -0.213069
   6 C :   -0.079269
   7 C :    0.073706
   8 N :   -0.528465
   9 H :    0.122816
  10 H :    0.150051
  11 H :    0.122695
  12 H :    0.082621
  13 H :    0.126103
  14 H :    0.141427
  15 H :    0.135585
  16 H :    0.146712
  17 H :    0.135645
  18 H :    0.237993
  19 H :    0.250836
Sum of atomic charges:    0.0000000

LOEWDIN ATOMIC CHARGES
----------------------
   0 C :   -0.283786
   1 C :   -0.270847
   2 C :   -0.286329
   3 C :   -0.150451
   4 C :   -0.231736
   5 O :    0.329707
   6 C :   -0.251467
   7 C :   -0.260122
   8 N :   -0.091922
   9 H :    0.120291
  10 H :    0.126814
  11 H :    0.125199
  12 H :    0.153545
  13 H :    0.124713
  14 H :    0.125465
  15 H :    0.123888
  16 H :    0.134229
  17 H :    0.128866
  18 H :    0.166930
  19 H :    0.167014

  Mayer bond orders larger than 0.1
B(  0-C ,  1-C ) :   0.9006 B(  0-C ,  9-H ) :   0.9350 B(  0-C , 10-H ) :   0.9310
B(  0-C , 11-H ) :   0.9300 B(  1-C ,  2-C ) :   0.9279 B(  1-C ,  3-C ) :   0.9029
B(  1-C , 12-H ) :   0.9269 B(  2-C , 13-H ) :   0.9322 B(  2-C , 14-H ) :   0.9394
B(  2-C , 15-H ) :   0.9400 B(  3-C ,  4-C ) :   1.5011 B(  3-C ,  7-C ) :   1.1552
B(  4-C ,  5-O ) :   1.0754 B(  4-C , 16-H ) :   0.9372 B(  5-O ,  6-C ) :   1.0052
B(  6-C ,  7-C ) :   1.5401 B(  6-C , 17-H ) :   0.9498 B(  7-C ,  8-N ) :   0.9531
B(  8-N , 18-H ) :   0.8845 B(  8-N , 19-H ) :   0.8716

MP2 TOTAL ENERGY:     -402.481240695 Eh
FINAL SINGLE POINT ENERGY      -402.481240695179

DIPOLE MOMENT
-------------
                                X             Y             Z
Electronic contribution:     -9.01416      -5.03261      -0.37737
Nuclear contribution   :      9.50021       4.69710      -0.00906
                        -----------------------------------------
Total Dipole Moment    :      0.48605      -0.33550      -0.38643
                        -----------------------------------------
Magnitude (a.u.)       :      0.70579
Magnitude (Debye)      :      1.79397

                             ****ORCA TERMINATED NORMALLY****
TOTAL RUN TIME: 0 days 0 hours 20 minutes 0 seconds 145 msec
