                         Program Version 3.0.3 - RELEASE   -
|  1> ! RI-MP2 RIJK def2-TZVP def2-TZVP/C def2-TZVP/JK TIGHTSCF
|  2> % maxcore 2000
|  3> % mp2 density relaxed end
|  4> *xyz 0 1
|  5>  N       -0.1634706310     1.1634740571    -0.4425036227
|  6>  C       -0.3047788525    -0.0818174617    -0.5514780278
|  7>  O       -0.9896390793    -0.7582711672     0.4080244393
|  8>  C       -1.0746756660    -2.1570234795     0.2686913984
|  9>  C       -1.7383119598    -2.8192416895     1.4855610175
| 10>  O       -2.8213773977    -3.3333661938     0.6772434050
| 11>  C       -2.3005088268    -2.7250725401    -0.5143217026
| 12>  C       -3.2316693612    -1.6920922111    -1.1209408915
| 13>  O       -2.9534645946    -1.0752604100    -2.1160297951
| 14>  H        0.3657199650     1.5264286246    -1.2324800496
| 15>  H        0.0713546929    -0.7242445712    -1.3568546567
| 16>  H       -0.1136241600    -2.5793591626    -0.0383509722
| 17>  H       -1.1689451984    -3.6197222360     1.9684445796
| 18>  H       -2.0822598279    -2.0980865726     2.2341980398
| 19>  H       -2.0411532764    -3.4646509047    -1.2831612720
| 20>  H       -4.1840435264    -1.5523738017    -0.5652252495
| 21> *
| 22>
| 23>                          ****END OF INPUT****

CARTESIAN COORDINATES (ANGSTROEM)
---------------------------------
  N     -0.163471    1.163474   -0.442504
  C     -0.304779   -0.081817   -0.551478
  O     -0.989639   -0.758271    0.408024
  C     -1.074676   -2.157023    0.268691
  C     -1.738312   -2.819242    1.485561
  O     -2.821377   -3.333366    0.677243
  C     -2.300509   -2.725073   -0.514322
  C     -3.231669   -1.692092   -1.120941
  O     -2.953465   -1.075260   -2.116030
  H      0.365720    1.526429   -1.232480
  H      0.071355   -0.724245   -1.356855
  H     -0.113624   -2.579359   -0.038351
  H     -1.168945   -3.619722    1.968445
  H     -2.082260   -2.098087    2.234198
  H     -2.041153   -3.464651   -1.283161
  H     -4.184044   -1.552374   -0.565225

 Total Charge           Charge          ....    0
 Multiplicity           Mult            ....    1
 Number of Electrons    NEL             ....   68
 Basis Dimension        Dim             ....  321

ORBITAL ENERGIES
----------------

  NO   OCC          E(Eh)            E(eV)
   0   2.0000     -20.610616      -560.8434
   1   2.0000     -20.582057      -560.0662
   2   2.0000     -20.574218      -559.8529
   3   2.0000     -15.548144      -423.0865
   4   2.0000     -11.346929      -308.7656
   5   2.0000     -11.346811      -308.7624
   6   2.0000     -11.329688      -308.2965
   7   2.0000     -11.316861      -307.9475
   8   2.0000     -11.306639      -307.6693
   9   2.0000      -1.452432       -39.5227
  10   2.0000      -1.416677       -38.5498
  11   2.0000      -1.405705       -38.2512
  12   2.0000      -1.209279       -32.9062
  13   2.0000      -1.040425       -28.3114
  14   2.0000      -1.002106       -27.2687
  15   2.0000      -0.864318       -23.5193
  16   2.0000      -0.852726       -23.2039
  17   2.0000      -0.793260       -21.5857
  18   2.0000      -0.738161       -20.0864
  19   2.0000      -0.732647       -19.9363
  20   2.0000      -0.685255       -18.6467
  21   2.0000      -0.676546       -18.4097
  22   2.0000      -0.657963       -17.9041
  23   2.0000      -0.639154       -17.3923
  24   2.0000      -0.613768       -16.7015
  25   2.0000      -0.602349       -16.3907
  26   2.0000      -0.566335       -15.4108
  27   2.0000      -0.546716       -14.8769
  28   2.0000      -0.504524       -13.7288
  29   2.0000      -0.497044       -13.5253
  30   2.0000      -0.469432       -12.7739
  31   2.0000      -0.445169       -12.1137
  32   2.0000      -0.426709       -11.6113
  33   2.0000      -0.409671       -11.1477
  34   0.0000       0.100099         2.7238
  35   0.0000       0.133022         3.6197
  36   0.0000       0.148242         4.0339
  37   0.0000       0.161460         4.3936
  38   0.0000       0.164644         4.4802

MULLIKEN ATOMIC CHARGES
-----------------------
   0 N :   -0.323989
   1 C :    0.063869
   2 O :   -0.221083
   3 C :   -0.017369
   4 C :   -0.022231
   5 O :   -0.325326
   6 C :    0.123126
   7 C :    0.072823
   8 O :   -0.262375
   9 H :    0.230957
  10 H :    0.093836
  11 H :    0.125257
  12 H :    0.111492
  13 H :    0.126178
  14 H :    0.118796
  15 H :    0.106040
Sum of atomic charges:    0.0000000

LOEWDIN ATOMIC CHARGES
----------------------
   0 N :   -0.065855
   1 C :   -0.385892
   2 O :    0.263501
   3 C :   -0.276009
   4 C :   -0.235062
   5 O :    0.142994
   6 C :   -0.269240
   7 C :   -0.266224
   8 O :    0.148440
   9 H :    0.171987
  10 H :    0.111631
  11 H :    0.136870
  12 H :    0.123130
  13 H :    0.131008
  14 H :    0.149449
  15 H :    0.119270

  Mayer bond orders larger than 0.1
B(  0-N ,  1-C ) :   1.9804 B(  0-N ,  9-H ) :   0.8487 B(  1-C ,  2-O ) :   1.0021
B(  1-C , 10-H ) :   0.9237 B(  2-O ,  3-C ) :   0.9536 B(  3-C ,  4-C ) :   0.9667
B(  3-C ,  6-C ) :   0.9263 B(  3-C , 11-H ) :   0.9361 B(  4-C ,  5-O ) :   0.9390
B(  4-C , 12-H ) :   0.9171 B(  4-C , 13-H ) :   0.9069 B(  5-O ,  6-C ) :   0.9596
B(  6-C ,  7-C ) :   0.8453 B(  6-C , 14-H ) :   0.8931 B(  7-C ,  8-O ) :   1.9516
B(  7-C , 15-H ) :   0.9188

MP2 TOTAL ENERGY:     -474.232954210 Eh
FINAL SINGLE POINT ENERGY      -474.232954210372

DIPOLE MOMENT
-------------
                                X             Y             Z
Electronic contribution:     -1.95413       0.81675      -1.25785
Nuclear contribution   :      2.77323      -1.92816       1.16896
                        -----------------------------------------
Total Dipole Moment    :      0.81910      -1.11141      -0.08889
                        -----------------------------------------
Magnitude (a.u.)       :      1.38349
Magnitude (Debye)      :      3.51655

                             ****ORCA TERMINATED NORMALLY****
TOTAL RUN TIME: 0 days 0 hours 13 minutes 8 seconds 534 msec
