                         Program Version 3.0.3 - RELEASE   -
|  1> ! RI-MP2 RIJK def2-TZVP def2-TZVP/C def2-TZVP/JK TIGHTSCF
|  2> % maxcore 2000
|  3> % mp2 density relaxed end
|  4> *xyz 0 1
|  5>  C       -0.0124895252     1.5360851999     0.1309157068
|  6>  C        1.3040496854     0.8105782654     0.0167785238
|  7>  C       -0.0075478825     0.0320208710     0.0287898200
|  8>  C       -0.0629898245    -0.6077319765    -1.3484313667
|  9>  C       -0.2047766362     0.3004876778    -2.5709775933
| 10>  C        1.1275941618     1.0913931891    -2.5831706822
| 11>  C        1.0385731755    -0.2853567199    -3.1609777725
| 12>  N        1.3897214251    -0.8556956130    -1.7846463898
| 13>  C        1.8735263228     0.5417835695    -1.3661651496
| 14>  H       -0.2542784472     1.9583870316     1.1009308850
| 15>  H       -0.3658091342     2.1182987139    -0.7122406138
| 16>  H        1.9718975889     0.7959437944     0.8702627884
| 17>  H       -0.3029202613    -0.5543787212     0.8910896151
| 18>  H       -0.6485790623    -1.5270120171    -1.3993981044
| 19>  H       -1.0902153979     0.6779597728    -3.0678657666
| 20>  H        1.2134500182     2.0454382021    -3.0889496634
| 21>  H        1.2865988829    -0.7179578413    -4.1187881967
| 22>  H        2.9601777607     0.6151517815    -1.4324520701
| 23> *
| 24>
| 25>                          ****END OF INPUT****

CARTESIAN COORDINATES (ANGSTROEM)
---------------------------------
  C     -0.012490    1.536085    0.130916
  C      1.304050    0.810578    0.016779
  C     -0.007548    0.032021    0.028790
  C     -0.062990   -0.607732   -1.348431
  C     -0.204777    0.300488   -2.570978
  C      1.127594    1.091393   -2.583171
  C      1.038573   -0.285357   -3.160978
  N      1.389721   -0.855696   -1.784646
  C      1.873526    0.541784   -1.366165
  H     -0.254278    1.958387    1.100931
  H     -0.365809    2.118299   -0.712241
  H      1.971898    0.795944    0.870263
  H     -0.302920   -0.554379    0.891090
  H     -0.648579   -1.527012   -1.399398
  H     -1.090215    0.677960   -3.067866
  H      1.213450    2.045438   -3.088950
  H      1.286599   -0.717958   -4.118788
  H      2.960178    0.615152   -1.432452

 Total Charge           Charge          ....    0
 Multiplicity           Mult            ....    1
 Number of Electrons    NEL             ....   64
 Basis Dimension        Dim             ....  333

ORBITAL ENERGIES
----------------

  NO   OCC          E(Eh)            E(eV)
   0   2.0000     -15.549096      -423.1124
   1   2.0000     -11.259022      -306.3736
   2   2.0000     -11.259005      -306.3731
   3   2.0000     -11.255913      -306.2890
   4   2.0000     -11.236976      -305.7737
   5   2.0000     -11.236416      -305.7584
   6   2.0000     -11.230050      -305.5852
   7   2.0000     -11.227836      -305.5250
   8   2.0000     -11.227302      -305.5104
   9   2.0000      -1.306692       -35.5569
  10   2.0000      -1.145459       -31.1695
  11   2.0000      -1.027955       -27.9721
  12   2.0000      -0.993685       -27.0395
  13   2.0000      -0.895128       -24.3577
  14   2.0000      -0.818720       -22.2785
  15   2.0000      -0.807373       -21.9697
  16   2.0000      -0.734266       -19.9804
  17   2.0000      -0.715488       -19.4694
  18   2.0000      -0.696200       -18.9446
  19   2.0000      -0.675481       -18.3808
  20   2.0000      -0.620856       -16.8943
  21   2.0000      -0.566057       -15.4032
  22   2.0000      -0.564627       -15.3643
  23   2.0000      -0.557635       -15.1740
  24   2.0000      -0.545095       -14.8328
  25   2.0000      -0.470136       -12.7930
  26   2.0000      -0.462776       -12.5928
  27   2.0000      -0.445255       -12.1160
  28   2.0000      -0.416239       -11.3264
  29   2.0000      -0.388804       -10.5799
  30   2.0000      -0.376372       -10.2416
  31   2.0000      -0.357238        -9.7209
  32   0.0000       0.152067         4.1380
  33   0.0000       0.157473         4.2851
  34   0.0000       0.168482         4.5846
  35   0.0000       0.177077         4.8185
  36   0.0000       0.191585         5.2133

MULLIKEN ATOMIC CHARGES
-----------------------
   0 C :   -0.255250
   1 C :   -0.181038
   2 C :   -0.181034
   3 C :    0.066731
   4 C :   -0.214716
   5 C :   -0.214717
   6 C :   -0.073770
   7 N :   -0.190763
   8 C :    0.066735
   9 H :    0.127654
  10 H :    0.140140
  11 H :    0.129468
  12 H :    0.129468
  13 H :    0.123565
  14 H :    0.127214
  15 H :    0.127213
  16 H :    0.149532
  17 H :    0.123566
Sum of atomic charges:    0.0000000

LOEWDIN ATOMIC CHARGES
----------------------
   0 C :   -0.191867
   1 C :   -0.172140
   2 C :   -0.172139
   3 C :   -0.193344
   4 C :   -0.158870
   5 C :   -0.158871
   6 C :   -0.171632
   7 N :    0.150015
   8 C :   -0.193344
   9 H :    0.135011
  10 H :    0.138873
  11 H :    0.143781
  12 H :    0.143781
  13 H :    0.147504
  14 H :    0.137383
  15 H :    0.137383
  16 H :    0.130971
  17 H :    0.147504

  Mayer bond orders larger than 0.1
B(  0-C ,  1-C ) :   0.9031 B(  0-C ,  2-C ) :   0.9031 B(  0-C ,  9-H ) :   0.9295
B(  0-C , 10-H ) :   0.9080 B(  1-C ,  2-C ) :   0.8639 B(  1-C ,  8-C ) :   0.9756
B(  1-C , 11-H ) :   0.9274 B(  2-C ,  3-C ) :   0.9756 B(  2-C , 12-H ) :   0.9274
B(  3-C ,  4-C ) :   0.9191 B(  3-C ,  7-N ) :   0.9672 B(  3-C , 13-H ) :   0.9004
B(  4-C ,  5-C ) :   0.8526 B(  4-C ,  6-C ) :   0.8874 B(  4-C , 14-H ) :   0.9318
B(  5-C ,  6-C ) :   0.8874 B(  5-C ,  8-C ) :   0.9191 B(  5-C , 15-H ) :   0.9318
B(  6-C ,  7-N ) :   0.9532 B(  6-C , 16-H ) :   0.8983 B(  7-N ,  8-C ) :   0.9672
B(  8-C , 17-H ) :   0.9004

MP2 TOTAL ENERGY:     -364.069921254 Eh
FINAL SINGLE POINT ENERGY      -364.069921253766

DIPOLE MOMENT
-------------
                                X             Y             Z
Electronic contribution:      1.19749      -2.04143      -1.56133
Nuclear contribution   :     -1.54364       2.62374       1.50822
                        -----------------------------------------
Total Dipole Moment    :     -0.34615       0.58232      -0.05310
                        -----------------------------------------
Magnitude (a.u.)       :      0.67951
Magnitude (Debye)      :      1.72717

                             ****ORCA TERMINATED NORMALLY****
TOTAL RUN TIME: 0 days 0 hours 20 minutes 3 seconds 843 msec
