                         Program Version 3.0.3 - RELEASE   -
|  1> ! RI-MP2 RIJK def2-TZVP def2-TZVP/C def2-TZVP/JK TIGHTSCF
|  2> % maxcore 2000
|  3> % mp2 density relaxed end
|  4> *xyz 0 1
|  5>  C       -0.0150048756     1.5070190687    -0.1729731775
|  6>  C        1.3662231828     2.1783259445     0.0469094821
|  7>  C        2.3280324029     1.3646486242     0.9346597057
|  8>  C        1.8112132492     1.1484188907     2.3622803183
|  9>  O        0.5405878171     0.5105443595     2.4146674731
| 10>  C        0.2844243050    -0.4736453476     1.4476007646
| 11>  C       -0.0389213305    -0.0023691330     0.0474075680
| 12>  C        1.2458710519    -0.7699056219     0.3249962594
| 13>  C        2.5580452647    -0.0150081177     0.2993864767
| 14>  H       -0.7475408678     1.9537271373     0.5089039916
| 15>  H       -0.3619312016     1.7294879152    -1.1870109373
| 16>  H        1.8612760655     2.3181214320    -0.9213429586
| 17>  H        1.2237630525     3.1806355896     0.4654579282
| 18>  H        3.2808668764     1.9021975614     1.0104450857
| 19>  H        2.5540564991     0.5580463817     2.9240395476
| 20>  H        1.6797574337     2.1018305754     2.8851154950
| 21>  H       -0.2878418556    -1.2895318663     1.8785072960
| 22>  H       -0.8247484885    -0.5345103572    -0.4808509318
| 23>  H        1.2817950987    -1.8010301392    -0.0152536558
| 24>  H        2.9250569594     0.0892388855    -0.7292463576
| 25>  H        3.3219170807    -0.5675791528     0.8606940467
| 26> *
| 27>
| 28>                          ****END OF INPUT****

CARTESIAN COORDINATES (ANGSTROEM)
---------------------------------
  C     -0.015005    1.507019   -0.172973
  C      1.366223    2.178326    0.046909
  C      2.328032    1.364649    0.934660
  C      1.811213    1.148419    2.362280
  O      0.540588    0.510544    2.414667
  C      0.284424   -0.473645    1.447601
  C     -0.038921   -0.002369    0.047408
  C      1.245871   -0.769906    0.324996
  C      2.558045   -0.015008    0.299386
  H     -0.747541    1.953727    0.508904
  H     -0.361931    1.729488   -1.187011
  H      1.861276    2.318121   -0.921343
  H      1.223763    3.180636    0.465458
  H      3.280867    1.902198    1.010445
  H      2.554056    0.558046    2.924040
  H      1.679757    2.101831    2.885115
  H     -0.287842   -1.289532    1.878507
  H     -0.824748   -0.534510   -0.480851
  H      1.281795   -1.801030   -0.015254
  H      2.925057    0.089239   -0.729246
  H      3.321917   -0.567579    0.860694

 Total Charge           Charge          ....    0
 Multiplicity           Mult            ....    1
 Number of Electrons    NEL             ....   68
 Basis Dimension        Dim             ....  351

ORBITAL ENERGIES
----------------

  NO   OCC          E(Eh)            E(eV)
   0   2.0000     -20.548749      -559.1599
   1   2.0000     -11.270073      -306.6743
   2   2.0000     -11.269364      -306.6550
   3   2.0000     -11.227587      -305.5182
   4   2.0000     -11.227152      -305.5063
   5   2.0000     -11.222839      -305.3890
   6   2.0000     -11.219976      -305.3111
   7   2.0000     -11.219049      -305.2858
   8   2.0000     -11.218077      -305.2594
   9   2.0000      -1.372118       -37.3372
  10   2.0000      -1.148001       -31.2387
  11   2.0000      -1.077064       -29.3084
  12   2.0000      -1.008676       -27.4475
  13   2.0000      -0.917632       -24.9700
  14   2.0000      -0.883521       -24.0418
  15   2.0000      -0.821676       -22.3589
  16   2.0000      -0.759024       -20.6541
  17   2.0000      -0.715003       -19.4562
  18   2.0000      -0.683710       -18.6047
  19   2.0000      -0.649447       -17.6723
  20   2.0000      -0.619777       -16.8650
  21   2.0000      -0.615781       -16.7562
  22   2.0000      -0.599480       -16.3127
  23   2.0000      -0.570196       -15.5158
  24   2.0000      -0.553667       -15.0660
  25   2.0000      -0.536621       -14.6022
  26   2.0000      -0.530083       -14.4243
  27   2.0000      -0.516873       -14.0648
  28   2.0000      -0.478533       -13.0215
  29   2.0000      -0.452732       -12.3195
  30   2.0000      -0.439579       -11.9616
  31   2.0000      -0.429304       -11.6819
  32   2.0000      -0.384874       -10.4729
  33   2.0000      -0.364656        -9.9228
  34   0.0000       0.127952         3.4817
  35   0.0000       0.158262         4.3065
  36   0.0000       0.167155         4.5485
  37   0.0000       0.177692         4.8352
  38   0.0000       0.184437         5.0188

MULLIKEN ATOMIC CHARGES
-----------------------
   0 C :   -0.190873
   1 C :   -0.306459
   2 C :    0.042043
   3 C :   -0.086596
   4 O :   -0.321301
   5 C :    0.034842
   6 C :   -0.163177
   7 C :   -0.122914
   8 C :   -0.256491
   9 H :    0.116880
  10 H :    0.118922
  11 H :    0.117731
  12 H :    0.120117
  13 H :    0.104975
  14 H :    0.092369
  15 H :    0.115126
  16 H :    0.116117
  17 H :    0.118033
  18 H :    0.119199
  19 H :    0.113668
  20 H :    0.117787
Sum of atomic charges:   -0.0000000

LOEWDIN ATOMIC CHARGES
----------------------
   0 C :   -0.235839
   1 C :   -0.231426
   2 C :   -0.257999
   3 C :   -0.280929
   4 O :    0.185856
   5 C :   -0.260826
   6 C :   -0.189980
   7 C :   -0.189301
   8 C :   -0.221087
   9 H :    0.144513
  10 H :    0.138891
  11 H :    0.139567
  12 H :    0.138048
  13 H :    0.155002
  14 H :    0.124104
  15 H :    0.130100
  16 H :    0.136740
  17 H :    0.144781
  18 H :    0.147379
  19 H :    0.141149
  20 H :    0.141258

  Mayer bond orders larger than 0.1
B(  0-C ,  1-C ) :   0.9592 B(  0-C ,  6-C ) :   0.9277 B(  0-C ,  9-H ) :   0.9215
B(  0-C , 10-H ) :   0.9311 B(  1-C ,  2-C ) :   0.8934 B(  1-C , 11-H ) :   0.9299
B(  1-C , 12-H ) :   0.9340 B(  2-C ,  3-C ) :   0.9150 B(  2-C ,  8-C ) :   0.8973
B(  2-C , 13-H ) :   0.9237 B(  3-C ,  4-O ) :   0.9317 B(  3-C , 14-H ) :   0.9263
B(  3-C , 15-H ) :   0.9308 B(  4-O ,  5-C ) :   0.9693 B(  5-C ,  6-C ) :   0.8505
B(  5-C ,  7-C ) :   0.8798 B(  5-C , 16-H ) :   0.9512 B(  6-C ,  7-C ) :   0.8638
B(  6-C , 17-H ) :   0.9215 B(  7-C ,  8-C ) :   0.9480 B(  7-C , 18-H ) :   0.9283
B(  8-C , 19-H ) :   0.9291 B(  8-C , 20-H ) :   0.9280

MP2 TOTAL ENERGY:     -386.420871984 Eh
FINAL SINGLE POINT ENERGY      -386.420871983849

DIPOLE MOMENT
-------------
                                X             Y             Z
Electronic contribution:     -1.88756      -2.06012       2.72715
Nuclear contribution   :      2.28893       2.04512      -3.14367
                        -----------------------------------------
Total Dipole Moment    :      0.40138      -0.01500      -0.41652
                        -----------------------------------------
Magnitude (a.u.)       :      0.57863
Magnitude (Debye)      :      1.47077

                             ****ORCA TERMINATED NORMALLY****
TOTAL RUN TIME: 0 days 0 hours 21 minutes 42 seconds 989 msec
