                         Program Version 3.0.3 - RELEASE   -
|  1> ! RI-MP2 RIJK def2-TZVP def2-TZVP/C def2-TZVP/JK TIGHTSCF
|  2> % maxcore 2000
|  3> % mp2 density relaxed end
|  4> *xyz 0 1
|  5>  C       -0.2848685110    -3.8806305018    -0.4000469339
|  6>  C       -0.1800920729    -2.6852846194    -0.2603076730
|  7>  C       -0.0622738778    -1.3394059549    -0.1036458191
|  8>  C        0.0436678513    -0.1404181679     0.0373245237
|  9>  C        0.1846750491     1.2840150978     0.2220872851
| 10>  C       -0.0196465595     1.8948587900     1.6501644677
| 11>  C        1.1514109086     2.8684766658     1.3567347277
| 12>  C        1.6173419549     1.9178566998     0.2233173503
| 13>  H       -0.3778131836    -4.9308822504    -0.5226357266
| 14>  H       -0.4493523772     1.8157278018    -0.4967451306
| 15>  H       -1.0032418671     2.3138289166     1.8709913766
| 16>  H        0.2384580532     1.1656416740     2.4216321782
| 17>  H        0.7944568496     3.8242050273     0.9626135362
| 18>  H        1.8549343888     3.0675956835     2.1670915730
| 19>  H        2.3579246271     1.1954085987     0.5742338914
| 20>  H        1.9635562566     2.3555143291    -0.7149526268
| 21> *
| 22>
| 23>                          ****END OF INPUT****

CARTESIAN COORDINATES (ANGSTROEM)
---------------------------------
  C     -0.284869   -3.880631   -0.400047
  C     -0.180092   -2.685285   -0.260308
  C     -0.062274   -1.339406   -0.103646
  C      0.043668   -0.140418    0.037325
  C      0.184675    1.284015    0.222087
  C     -0.019647    1.894859    1.650164
  C      1.151411    2.868477    1.356735
  C      1.617342    1.917857    0.223317
  H     -0.377813   -4.930882   -0.522636
  H     -0.449352    1.815728   -0.496745
  H     -1.003242    2.313829    1.870991
  H      0.238458    1.165642    2.421632
  H      0.794457    3.824205    0.962614
  H      1.854934    3.067596    2.167092
  H      2.357925    1.195409    0.574234
  H      1.963556    2.355514   -0.714953

 Total Charge           Charge          ....    0
 Multiplicity           Mult            ....    1
 Number of Electrons    NEL             ....   56
 Basis Dimension        Dim             ....  296

ORBITAL ENERGIES
----------------

  NO   OCC          E(Eh)            E(eV)
   0   2.0000     -11.260862      -306.4236
   1   2.0000     -11.254128      -306.2404
   2   2.0000     -11.249628      -306.1180
   3   2.0000     -11.242387      -305.9209
   4   2.0000     -11.242034      -305.9113
   5   2.0000     -11.236481      -305.7602
   6   2.0000     -11.236456      -305.7595
   7   2.0000     -11.231600      -305.6274
   8   2.0000      -1.149787       -31.2873
   9   2.0000      -1.079093       -29.3636
  10   2.0000      -1.016298       -27.6549
  11   2.0000      -0.930202       -25.3121
  12   2.0000      -0.909773       -24.7562
  13   2.0000      -0.825703       -22.4685
  14   2.0000      -0.775433       -21.1006
  15   2.0000      -0.708309       -19.2741
  16   2.0000      -0.686488       -18.6803
  17   2.0000      -0.662351       -18.0235
  18   2.0000      -0.577001       -15.7010
  19   2.0000      -0.553116       -15.0511
  20   2.0000      -0.530336       -14.4312
  21   2.0000      -0.493606       -13.4317
  22   2.0000      -0.479460       -13.0468
  23   2.0000      -0.473368       -12.8810
  24   2.0000      -0.456895       -12.4328
  25   2.0000      -0.452440       -12.3115
  26   2.0000      -0.345325        -9.3968
  27   2.0000      -0.344098        -9.3634
  28   0.0000       0.114069         3.1040
  29   0.0000       0.116445         3.1686
  30   0.0000       0.139800         3.8041
  31   0.0000       0.156057         4.2465
  32   0.0000       0.159796         4.3483

MULLIKEN ATOMIC CHARGES
-----------------------
   0 C :   -0.154782
   1 C :   -0.003437
   2 C :    0.053831
   3 C :   -0.128690
   4 C :   -0.167732
   5 C :   -0.225372
   6 C :   -0.203882
   7 C :   -0.225379
   8 H :    0.191564
   9 H :    0.127975
  10 H :    0.122722
  11 H :    0.126511
  12 H :    0.115213
  13 H :    0.122225
  14 H :    0.126511
  15 H :    0.122723
Sum of atomic charges:    0.0000000

LOEWDIN ATOMIC CHARGES
----------------------
   0 C :   -0.054478
   1 C :   -0.101389
   2 C :   -0.060058
   3 C :   -0.008193
   4 C :   -0.219140
   5 C :   -0.200811
   6 C :   -0.243609
   7 C :   -0.200809
   8 H :    0.129122
   9 H :    0.169754
  10 H :    0.125528
  11 H :    0.139918
  12 H :    0.134212
  13 H :    0.124504
  14 H :    0.139919
  15 H :    0.125528

  Mayer bond orders larger than 0.1
B(  0-C ,  1-C ) :   2.5344 B(  0-C ,  3-C ) :   0.1214 B(  0-C ,  8-H ) :   0.8904
B(  1-C ,  2-C ) :   1.2803 B(  2-C ,  3-C ) :   2.5433 B(  2-C ,  4-C ) :  -0.1506
B(  3-C ,  4-C ) :   1.0740 B(  4-C ,  5-C ) :   0.9087 B(  4-C ,  7-C ) :   0.9087
B(  4-C ,  9-H ) :   0.9068 B(  5-C ,  6-C ) :   0.9364 B(  5-C , 10-H ) :   0.9279
B(  5-C , 11-H ) :   0.9280 B(  6-C ,  7-C ) :   0.9364 B(  6-C , 12-H ) :   0.9267
B(  6-C , 13-H ) :   0.9248 B(  7-C , 14-H ) :   0.9280 B(  7-C , 15-H ) :   0.9279

MP2 TOTAL ENERGY:     -308.805062807 Eh
FINAL SINGLE POINT ENERGY      -308.805062806589

DIPOLE MOMENT
-------------
                                X             Y             Z
Electronic contribution:     -2.43101      -8.94073      -2.93368
Nuclear contribution   :      2.53491       9.42361       3.06106
                        -----------------------------------------
Total Dipole Moment    :      0.10389       0.48288       0.12738
                        -----------------------------------------
Magnitude (a.u.)       :      0.51009
Magnitude (Debye)      :      1.29654

                             ****ORCA TERMINATED NORMALLY****
TOTAL RUN TIME: 0 days 0 hours 10 minutes 36 seconds 622 msec
