                         Program Version 3.0.3 - RELEASE   -
|  1> ! RI-MP2 RIJK def2-TZVP def2-TZVP/C def2-TZVP/JK TIGHTSCF
|  2> % maxcore 2000
|  3> % mp2 density relaxed end
|  4> *xyz 0 1
|  5>  C        0.7922244306    -0.2503240583     1.3597535043
|  6>  C        0.1004527493    -0.0952862944     0.0047873801
|  7>  C       -1.3405474541    -0.6520695393    -0.0171511777
|  8>  C       -2.0611023725    -0.3300112463    -1.3611317123
|  9>  C       -2.2348605067     1.0978868728    -1.5957653200
| 10>  C       -2.3805310814     2.2791067197    -1.7670079098
| 11>  C       -1.3738755949    -2.0942487250     0.2239710080
| 12>  C       -1.3980579324    -3.2872917879     0.3905944396
| 13>  C       -1.4322290053    -4.7273749248     0.6061408550
| 14>  H        1.8100455323     0.1500931929     1.3266253498
| 15>  H        0.2487150278     0.2877025520     2.1446244002
| 16>  H        0.8502986036    -1.3023323168     1.6545702017
| 17>  H        0.0547569160     0.9629220483    -0.2738485567
| 18>  H        0.6823405663    -0.6054662820    -0.7727805533
| 19>  H       -1.9070444249    -0.1502978063     0.7797038170
| 20>  H       -1.4898495592    -0.7789258599    -2.1830607091
| 21>  H       -3.0393203245    -0.8234630555    -1.3620712606
| 22>  H       -2.5130500110     3.3196686355    -1.9311897389
| 23>  H       -2.3388581932    -5.1721227390     0.1810588911
| 24>  H       -0.5722873018    -5.2214798365     0.1405293370
| 25>  H       -1.4149386839    -4.9705247990     1.6743529547
| 26> *
| 27>
| 28>                          ****END OF INPUT****

CARTESIAN COORDINATES (ANGSTROEM)
---------------------------------
  C      0.792224   -0.250324    1.359754
  C      0.100453   -0.095286    0.004787
  C     -1.340547   -0.652070   -0.017151
  C     -2.061102   -0.330011   -1.361132
  C     -2.234861    1.097887   -1.595765
  C     -2.380531    2.279107   -1.767008
  C     -1.373876   -2.094249    0.223971
  C     -1.398058   -3.287292    0.390594
  C     -1.432229   -4.727375    0.606141
  H      1.810046    0.150093    1.326625
  H      0.248715    0.287703    2.144624
  H      0.850299   -1.302332    1.654570
  H      0.054757    0.962922   -0.273849
  H      0.682341   -0.605466   -0.772781
  H     -1.907044   -0.150298    0.779704
  H     -1.489850   -0.778926   -2.183061
  H     -3.039320   -0.823463   -1.362071
  H     -2.513050    3.319669   -1.931190
  H     -2.338858   -5.172123    0.181059
  H     -0.572287   -5.221480    0.140529
  H     -1.414939   -4.970525    1.674353

 Total Charge           Charge          ....    0
 Multiplicity           Mult            ....    1
 Number of Electrons    NEL             ....   66
 Basis Dimension        Dim             ....  351

ORBITAL ENERGIES
----------------

  NO   OCC          E(Eh)            E(eV)
   0   2.0000     -11.258485      -306.3589
   1   2.0000     -11.254667      -306.2551
   2   2.0000     -11.246474      -306.0321
   3   2.0000     -11.233708      -305.6847
   4   2.0000     -11.223657      -305.4112
   5   2.0000     -11.222534      -305.3807
   6   2.0000     -11.220282      -305.3194
   7   2.0000     -11.215682      -305.1942
   8   2.0000     -11.210493      -305.0530
   9   2.0000      -1.119416       -30.4609
  10   2.0000      -1.052472       -28.6392
  11   2.0000      -1.035012       -28.1641
  12   2.0000      -0.987237       -26.8641
  13   2.0000      -0.948966       -25.8227
  14   2.0000      -0.887103       -24.1393
  15   2.0000      -0.815652       -22.1950
  16   2.0000      -0.720581       -19.6080
  17   2.0000      -0.682043       -18.5593
  18   2.0000      -0.632745       -17.2179
  19   2.0000      -0.622837       -16.9483
  20   2.0000      -0.609966       -16.5980
  21   2.0000      -0.591760       -16.1026
  22   2.0000      -0.585574       -15.9343
  23   2.0000      -0.583882       -15.8882
  24   2.0000      -0.567499       -15.4424
  25   2.0000      -0.535302       -14.5663
  26   2.0000      -0.491255       -13.3677
  27   2.0000      -0.488159       -13.2835
  28   2.0000      -0.479385       -13.0447
  29   2.0000      -0.393362       -10.7039
  30   2.0000      -0.384900       -10.4737
  31   2.0000      -0.366470        -9.9722
  32   2.0000      -0.363259        -9.8848
  33   0.0000       0.128411         3.4942
  34   0.0000       0.150636         4.0990
  35   0.0000       0.156888         4.2691
  36   0.0000       0.168408         4.5826
  37   0.0000       0.171470         4.6659

MULLIKEN ATOMIC CHARGES
-----------------------
   0 C :   -0.402004
   1 C :   -0.199526
   2 C :   -0.144479
   3 C :   -0.319612
   4 C :   -0.023817
   5 C :   -0.151762
   6 C :   -0.063688
   7 C :    0.069190
   8 C :   -0.488980
   9 H :    0.133317
  10 H :    0.121783
  11 H :    0.139523
  12 H :    0.133337
  13 H :    0.106689
  14 H :    0.115353
  15 H :    0.144146
  16 H :    0.153742
  17 H :    0.189264
  18 H :    0.162380
  19 H :    0.162126
  20 H :    0.163017
Sum of atomic charges:    0.0000000

LOEWDIN ATOMIC CHARGES
----------------------
   0 C :   -0.313960
   1 C :   -0.253608
   2 C :   -0.232091
   3 C :   -0.211450
   4 C :   -0.112663
   5 C :   -0.108176
   6 C :   -0.066164
   7 C :   -0.103016
   8 C :   -0.296140
   9 H :    0.121517
  10 H :    0.121587
  11 H :    0.125389
  12 H :    0.144755
  13 H :    0.140384
  14 H :    0.172164
  15 H :    0.161122
  16 H :    0.162589
  17 H :    0.125997
  18 H :    0.140659
  19 H :    0.140275
  20 H :    0.140832

  Mayer bond orders larger than 0.1
B(  0-C ,  1-C ) :   0.9240 B(  0-C ,  9-H ) :   0.9403 B(  0-C , 10-H ) :   0.9372
B(  0-C , 11-H ) :   0.9364 B(  1-C ,  2-C ) :   0.9085 B(  1-C , 12-H ) :   0.9321
B(  1-C , 13-H ) :   0.9205 B(  2-C ,  3-C ) :   0.9248 B(  2-C ,  6-C ) :   1.0721
B(  2-C ,  7-C ) :  -0.1016 B(  2-C , 14-H ) :   0.9312 B(  3-C ,  4-C ) :   1.0727
B(  3-C , 15-H ) :   0.9173 B(  3-C , 16-H ) :   0.9315 B(  4-C ,  5-C ) :   2.6271
B(  5-C , 17-H ) :   0.8958 B(  6-C ,  7-C ) :   2.6788 B(  7-C ,  8-C ) :   0.8317
B(  8-C , 18-H ) :   0.9500 B(  8-C , 19-H ) :   0.9478 B(  8-C , 20-H ) :   0.9516

MP2 TOTAL ENERGY:     -349.240816272 Eh
FINAL SINGLE POINT ENERGY      -349.240816272260

DIPOLE MOMENT
-------------
                                X             Y             Z
Electronic contribution:     -4.53970       2.68430      -3.50511
Nuclear contribution   :      4.62003      -3.00217       3.58846
                        -----------------------------------------
Total Dipole Moment    :      0.08033      -0.31786       0.08334
                        -----------------------------------------
Magnitude (a.u.)       :      0.33828
Magnitude (Debye)      :      0.85985

                             ****ORCA TERMINATED NORMALLY****
TOTAL RUN TIME: 0 days 0 hours 17 minutes 23 seconds 47 msec
