                         Program Version 3.0.3 - RELEASE   -
|  1> ! RI-MP2 RIJK def2-TZVP def2-TZVP/C def2-TZVP/JK TIGHTSCF
|  2> % maxcore 2000
|  3> % mp2 density relaxed end
|  4> *xyz 0 1
|  5>  C        0.0008902031     1.4867159415     0.1127122460
|  6>  N        0.0148268658     0.0351769519     0.0699584804
|  7>  C       -1.0618493885    -0.6094362535    -0.0774782204
|  8>  O       -2.2837959541     0.0188815147    -0.1253379546
|  9>  C       -3.2852546157    -0.4936841694    -1.0140058749
| 10>  C       -3.4617007820    -2.0001175069    -0.8933432152
| 11>  C       -2.1054305998    -2.6805706270    -1.0824764081
| 12>  C       -1.0854665434    -2.1309314352    -0.0678015867
| 13>  C        0.3045830248    -2.7405795853    -0.2486385153
| 14>  H        0.8669786076     1.8633966374    -0.4412736348
| 15>  H       -0.9125953798     1.9398151961    -0.2875508964
| 16>  H        0.1193003923     1.8211172933     1.1511648127
| 17>  H       -4.1995156259     0.0484455325    -0.7588645079
| 18>  H       -3.0115477759    -0.2282113970    -2.0459206129
| 19>  H       -3.8703852992    -2.2436208551     0.0950738722
| 20>  H       -4.1891978266    -2.3377849329    -1.6399453279
| 21>  H       -2.1888371403    -3.7661269459    -0.9648992813
| 22>  H       -1.7400009441    -2.5008197830    -2.1031942234
| 23>  H       -1.4591194426    -2.4046125034     0.9319748845
| 24>  H        0.7166330630    -2.4864729427    -1.2301041731
| 25>  H        0.9984647543    -2.3639149327     0.5036166771
| 26>  H        0.2494602570    -3.8315521976    -0.1703759399
| 27> *
| 28>
| 29>                          ****END OF INPUT****

CARTESIAN COORDINATES (ANGSTROEM)
---------------------------------
  C      0.000890    1.486716    0.112712
  N      0.014827    0.035177    0.069958
  C     -1.061849   -0.609436   -0.077478
  O     -2.283796    0.018882   -0.125338
  C     -3.285255   -0.493684   -1.014006
  C     -3.461701   -2.000118   -0.893343
  C     -2.105431   -2.680571   -1.082476
  C     -1.085467   -2.130931   -0.067802
  C      0.304583   -2.740580   -0.248639
  H      0.866979    1.863397   -0.441274
  H     -0.912595    1.939815   -0.287551
  H      0.119300    1.821117    1.151165
  H     -4.199516    0.048446   -0.758865
  H     -3.011548   -0.228211   -2.045921
  H     -3.870385   -2.243621    0.095074
  H     -4.189198   -2.337785   -1.639945
  H     -2.188837   -3.766127   -0.964899
  H     -1.740001   -2.500820   -2.103194
  H     -1.459119   -2.404613    0.931975
  H      0.716633   -2.486473   -1.230104
  H      0.998465   -2.363915    0.503617
  H      0.249460   -3.831552   -0.170376

 Total Charge           Charge          ....    0
 Multiplicity           Mult            ....    1
 Number of Electrons    NEL             ....   70
 Basis Dimension        Dim             ....  357

ORBITAL ENERGIES
----------------

  NO   OCC          E(Eh)            E(eV)
   0   2.0000     -20.576122      -559.9048
   1   2.0000     -15.529006      -422.5657
   2   2.0000     -11.318966      -308.0047
   3   2.0000     -11.289608      -307.2059
   4   2.0000     -11.238835      -305.8242
   5   2.0000     -11.233535      -305.6800
   6   2.0000     -11.231949      -305.6369
   7   2.0000     -11.229135      -305.5603
   8   2.0000     -11.207550      -304.9729
   9   2.0000      -1.407997       -38.3135
  10   2.0000      -1.203948       -32.7611
  11   2.0000      -1.099903       -29.9299
  12   2.0000      -1.033351       -28.1189
  13   2.0000      -0.939852       -25.5747
  14   2.0000      -0.924508       -25.1571
  15   2.0000      -0.845226       -22.9998
  16   2.0000      -0.823983       -22.4217
  17   2.0000      -0.732527       -19.9331
  18   2.0000      -0.679013       -18.4769
  19   2.0000      -0.658122       -17.9084
  20   2.0000      -0.633618       -17.2416
  21   2.0000      -0.616439       -16.7742
  22   2.0000      -0.605994       -16.4899
  23   2.0000      -0.586639       -15.9633
  24   2.0000      -0.561522       -15.2798
  25   2.0000      -0.558411       -15.1951
  26   2.0000      -0.536484       -14.5985
  27   2.0000      -0.524367       -14.2687
  28   2.0000      -0.520028       -14.1507
  29   2.0000      -0.486174       -13.2295
  30   2.0000      -0.477931       -13.0052
  31   2.0000      -0.463878       -12.6228
  32   2.0000      -0.441605       -12.0167
  33   2.0000      -0.395187       -10.7536
  34   2.0000      -0.374374       -10.1872
  35   0.0000       0.125801         3.4232
  36   0.0000       0.154052         4.1920
  37   0.0000       0.158019         4.2999
  38   0.0000       0.167826         4.5668
  39   0.0000       0.181400         4.9361

MULLIKEN ATOMIC CHARGES
-----------------------
   0 C :   -0.288896
   1 N :   -0.248647
   2 C :    0.113086
   3 O :   -0.289923
   4 C :   -0.065448
   5 C :   -0.209533
   6 C :   -0.234352
   7 C :   -0.005604
   8 C :   -0.369857
   9 H :    0.133938
  10 H :    0.122998
  11 H :    0.132983
  12 H :    0.134266
  13 H :    0.101935
  14 H :    0.112205
  15 H :    0.126736
  16 H :    0.127072
  17 H :    0.113859
  18 H :    0.099599
  19 H :    0.120065
  20 H :    0.150459
  21 H :    0.123059
Sum of atomic charges:    0.0000000

LOEWDIN ATOMIC CHARGES
----------------------
   0 C :   -0.336297
   1 N :    0.085764
   2 C :   -0.348039
   3 O :    0.225555
   4 C :   -0.290356
   5 C :   -0.271954
   6 C :   -0.240153
   7 C :   -0.246032
   8 C :   -0.285483
   9 H :    0.115053
  10 H :    0.108035
  11 H :    0.119403
  12 H :    0.131034
  13 H :    0.125709
  14 H :    0.141063
  15 H :    0.142198
  16 H :    0.139962
  17 H :    0.142051
  18 H :    0.166088
  19 H :    0.125821
  20 H :    0.129719
  21 H :    0.120858

  Mayer bond orders larger than 0.1
B(  0-C ,  1-N ) :   0.8777 B(  0-C ,  9-H ) :   0.9393 B(  0-C , 10-H ) :   0.9289
B(  0-C , 11-H ) :   0.9308 B(  1-N ,  2-C ) :   1.9301 B(  2-C ,  3-O ) :   1.0400
B(  2-C ,  7-C ) :   0.9163 B(  3-O ,  4-C ) :   0.8713 B(  4-C ,  5-C ) :   0.9519
B(  4-C , 12-H ) :   0.9326 B(  4-C , 13-H ) :   0.9289 B(  5-C ,  6-C ) :   0.9159
B(  5-C , 14-H ) :   0.9243 B(  5-C , 15-H ) :   0.9232 B(  6-C ,  7-C ) :   0.9140
B(  6-C , 16-H ) :   0.9309 B(  6-C , 17-H ) :   0.9271 B(  7-C ,  8-C ) :   0.9220
B(  7-C , 18-H ) :   0.9155 B(  8-C , 19-H ) :   0.9306 B(  8-C , 20-H ) :   0.9361
B(  8-C , 21-H ) :   0.9339

MP2 TOTAL ENERGY:     -403.676611048 Eh
FINAL SINGLE POINT ENERGY      -403.676611048484

DIPOLE MOMENT
-------------
                                X             Y             Z
Electronic contribution:     -0.95560       3.00659       1.60312
Nuclear contribution   :      0.12735      -3.37245      -1.98533
                        -----------------------------------------
Total Dipole Moment    :     -0.82825      -0.36586      -0.38221
                        -----------------------------------------
Magnitude (a.u.)       :      0.98282
Magnitude (Debye)      :      2.49813

                             ****ORCA TERMINATED NORMALLY****
TOTAL RUN TIME: 0 days 0 hours 20 minutes 9 seconds 752 msec
