                         Program Version 3.0.3 - RELEASE   -
|  1> ! RI-MP2 RIJK def2-TZVP def2-TZVP/C def2-TZVP/JK TIGHTSCF
|  2> % maxcore 2000
|  3> % mp2 density relaxed end
|  4> *xyz 0 1
|  5>  C       -0.0705055303     1.6538808886     0.0264453387
|  6>  C        0.0240773314     0.1459698654    -0.0113904064
|  7>  O       -1.2694945112    -0.3672746600    -0.2778139430
|  8>  C        1.1014691359    -0.5641324317    -0.8709141280
|  9>  C        2.4942494689    -0.2221606365    -0.3426634846
| 10>  C        2.2030943247    -0.2785814804     1.1796259532
| 11>  C        2.5635307722    -1.5142164604     0.4127341415
| 12>  N        1.0863208318    -1.7573584658     0.1211673425
| 13>  C        0.7184927517    -0.6384040841     1.1315607232
| 14>  H        0.9046458323     2.1033929027     0.2297015988
| 15>  H       -0.4403369439     2.0330599113    -0.9311216843
| 16>  H       -0.7724618938     1.9686668621     0.8046821776
| 17>  H       -1.1951543936    -1.3301136678    -0.2993308961
| 18>  H        0.9442466663    -0.7693748727    -1.9303076056
| 19>  H        3.2851317580     0.3824082673    -0.7653541975
| 20>  H        2.7741947491     0.2834055186     1.9060425869
| 21>  H        3.3254300266    -2.2734490738     0.5303186732
| 22>  H        0.1847568239    -0.9166687527     2.0408751401
| 23> *
| 24>
| 25>                          ****END OF INPUT****

CARTESIAN COORDINATES (ANGSTROEM)
---------------------------------
  C     -0.070506    1.653881    0.026445
  C      0.024077    0.145970   -0.011390
  O     -1.269495   -0.367275   -0.277814
  C      1.101469   -0.564132   -0.870914
  C      2.494249   -0.222161   -0.342663
  C      2.203094   -0.278581    1.179626
  C      2.563531   -1.514216    0.412734
  N      1.086321   -1.757358    0.121167
  C      0.718493   -0.638404    1.131561
  H      0.904646    2.103393    0.229702
  H     -0.440337    2.033060   -0.931122
  H     -0.772462    1.968667    0.804682
  H     -1.195154   -1.330114   -0.299331
  H      0.944247   -0.769375   -1.930308
  H      3.285132    0.382408   -0.765354
  H      2.774195    0.283406    1.906043
  H      3.325430   -2.273449    0.530319
  H      0.184757   -0.916669    2.040875

 Total Charge           Charge          ....    0
 Multiplicity           Mult            ....    1
 Number of Electrons    NEL             ....   66
 Basis Dimension        Dim             ....  333

ORBITAL ENERGIES
----------------

  NO   OCC          E(Eh)            E(eV)
   0   2.0000     -20.552508      -559.2622
   1   2.0000     -15.560916      -423.4341
   2   2.0000     -11.288439      -307.1741
   3   2.0000     -11.269315      -306.6536
   4   2.0000     -11.265257      -306.5432
   5   2.0000     -11.265248      -306.5430
   6   2.0000     -11.247274      -306.0539
   7   2.0000     -11.246713      -306.0386
   8   2.0000     -11.215733      -305.1956
   9   2.0000      -1.371968       -37.3332
  10   2.0000      -1.313297       -35.7366
  11   2.0000      -1.059743       -28.8371
  12   2.0000      -1.020034       -27.7565
  13   2.0000      -0.962219       -26.1833
  14   2.0000      -0.923900       -25.1406
  15   2.0000      -0.789902       -21.4943
  16   2.0000      -0.761890       -20.7321
  17   2.0000      -0.726190       -19.7606
  18   2.0000      -0.707319       -19.2471
  19   2.0000      -0.692670       -18.8485
  20   2.0000      -0.625635       -17.0244
  21   2.0000      -0.624537       -16.9945
  22   2.0000      -0.570251       -15.5173
  23   2.0000      -0.562207       -15.2984
  24   2.0000      -0.543045       -14.7770
  25   2.0000      -0.537418       -14.6239
  26   2.0000      -0.520025       -14.1506
  27   2.0000      -0.495753       -13.4901
  28   2.0000      -0.460013       -12.5176
  29   2.0000      -0.443170       -12.0593
  30   2.0000      -0.422474       -11.4961
  31   2.0000      -0.375922       -10.2294
  32   2.0000      -0.361493        -9.8367
  33   0.0000       0.139864         3.8059
  34   0.0000       0.161545         4.3959
  35   0.0000       0.167314         4.5529
  36   0.0000       0.170248         4.6327
  37   0.0000       0.186049         5.0627

MULLIKEN ATOMIC CHARGES
-----------------------
   0 C :   -0.417926
   1 C :    0.197619
   2 O :   -0.461852
   3 C :   -0.015905
   4 C :   -0.213740
   5 C :   -0.213747
   6 C :   -0.057148
   7 N :   -0.233513
   8 C :   -0.015903
   9 H :    0.138973
  10 H :    0.137786
  11 H :    0.137788
  12 H :    0.329456
  13 H :    0.133922
  14 H :    0.137251
  15 H :    0.137252
  16 H :    0.145764
  17 H :    0.133923
Sum of atomic charges:    0.0000000

LOEWDIN ATOMIC CHARGES
----------------------
   0 C :   -0.265146
   1 C :   -0.358311
   2 O :    0.018408
   3 C :   -0.155630
   4 C :   -0.152093
   5 C :   -0.152093
   6 C :   -0.169146
   7 N :    0.129964
   8 C :   -0.155630
   9 H :    0.131443
  10 H :    0.132465
  11 H :    0.132466
  12 H :    0.185098
  13 H :    0.136268
  14 H :    0.137948
  15 H :    0.137948
  16 H :    0.129771
  17 H :    0.136269

  Mayer bond orders larger than 0.1
B(  0-C ,  1-C ) :   0.8930 B(  0-C ,  9-H ) :   0.9467 B(  0-C , 10-H ) :   0.9318
B(  0-C , 11-H ) :   0.9318 B(  1-C ,  2-O ) :   0.9736 B(  1-C ,  3-C ) :   0.9405
B(  1-C ,  8-C ) :   0.9405 B(  2-O , 12-H ) :   0.8247 B(  3-C ,  4-C ) :   0.8918
B(  3-C ,  7-N ) :   0.9185 B(  3-C , 13-H ) :   0.9025 B(  4-C ,  5-C ) :   0.8469
B(  4-C ,  6-C ) :   0.9061 B(  4-C , 14-H ) :   0.9224 B(  5-C ,  6-C ) :   0.9061
B(  5-C ,  8-C ) :   0.8918 B(  5-C , 15-H ) :   0.9224 B(  6-C ,  7-N ) :   0.9521
B(  6-C , 16-H ) :   0.9035 B(  7-N ,  8-C ) :   0.9185 B(  8-C , 17-H ) :   0.9025

MP2 TOTAL ENERGY:     -401.170110997 Eh
FINAL SINGLE POINT ENERGY      -401.170110997047

DIPOLE MOMENT
-------------
                                X             Y             Z
Electronic contribution:      0.15729      -4.17312      -0.12468
Nuclear contribution   :      0.70897       4.53776       0.30388
                        -----------------------------------------
Total Dipole Moment    :      0.86626       0.36464       0.17919
                        -----------------------------------------
Magnitude (a.u.)       :      0.95680
Magnitude (Debye)      :      2.43200

                             ****ORCA TERMINATED NORMALLY****
TOTAL RUN TIME: 0 days 0 hours 21 minutes 42 seconds 335 msec
