                         Program Version 3.0.3 - RELEASE   -
|  1> ! RI-MP2 RIJK def2-TZVP def2-TZVP/C def2-TZVP/JK TIGHTSCF
|  2> % maxcore 2000
|  3> % mp2 density relaxed end
|  4> *xyz 0 1
|  5>  C        0.0546004938     1.5134816492    -0.2296537160
|  6>  C        0.0203271315     0.0644695367    -0.0943631875
|  7>  C       -0.0110819572    -1.1356684929     0.0170425488
|  8>  C       -0.0331164152    -2.5595319275     0.1567954590
|  9>  C       -0.4569197135    -3.4463574893    -1.0215826060
| 10>  C       -1.3140090073    -3.3778029376     0.2084555347
| 11>  O       -1.2130209222    -4.3852989218     1.1714080271
| 12>  C        0.1716242594    -4.5750344190     1.4696004099
| 13>  C        0.8752474515    -3.2296480761     1.1902491198
| 14>  H        0.8683374783     1.9463584552     0.3631149925
| 15>  H        0.2111456731     1.8150535886    -1.2715990073
| 16>  H       -0.8805609508     1.9724856908     0.1110428036
| 17>  H       -0.8157062465    -2.9253660275    -1.9015246557
| 18>  H        0.1130214124    -4.3461007533    -1.2277600132
| 19>  H       -2.2988834108    -2.9284134975     0.1804316006
| 20>  H        0.2468794503    -4.8972217619     2.5113131831
| 21>  H        0.5872687403    -5.3731161526     0.8393872786
| 22>  H        1.9014228507    -3.3711074375     0.8395924232
| 23>  H        0.9059152923    -2.6035883461     2.0866165548
| 24> *
| 25>
| 26>                          ****END OF INPUT****

CARTESIAN COORDINATES (ANGSTROEM)
---------------------------------
  C      0.054600    1.513482   -0.229654
  C      0.020327    0.064470   -0.094363
  C     -0.011082   -1.135668    0.017043
  C     -0.033116   -2.559532    0.156795
  C     -0.456920   -3.446357   -1.021583
  C     -1.314009   -3.377803    0.208456
  O     -1.213021   -4.385299    1.171408
  C      0.171624   -4.575034    1.469600
  C      0.875247   -3.229648    1.190249
  H      0.868337    1.946358    0.363115
  H      0.211146    1.815054   -1.271599
  H     -0.880561    1.972486    0.111043
  H     -0.815706   -2.925366   -1.901525
  H      0.113021   -4.346101   -1.227760
  H     -2.298883   -2.928413    0.180432
  H      0.246879   -4.897222    2.511313
  H      0.587269   -5.373116    0.839387
  H      1.901423   -3.371107    0.839592
  H      0.905915   -2.603588    2.086617

 Total Charge           Charge          ....    0
 Multiplicity           Mult            ....    1
 Number of Electrons    NEL             ....   66
 Basis Dimension        Dim             ....  339

ORBITAL ENERGIES
----------------

  NO   OCC          E(Eh)            E(eV)
   0   2.0000     -20.560406      -559.4771
   1   2.0000     -11.287732      -307.1548
   2   2.0000     -11.278946      -306.9157
   3   2.0000     -11.256957      -306.3174
   4   2.0000     -11.245218      -305.9979
   5   2.0000     -11.234608      -305.7092
   6   2.0000     -11.233978      -305.6921
   7   2.0000     -11.221935      -305.3644
   8   2.0000     -11.217314      -305.2386
   9   2.0000      -1.390874       -37.8476
  10   2.0000      -1.150865       -31.3166
  11   2.0000      -1.049910       -28.5695
  12   2.0000      -1.025698       -27.9107
  13   2.0000      -0.958570       -26.0840
  14   2.0000      -0.885660       -24.1000
  15   2.0000      -0.816996       -22.2316
  16   2.0000      -0.790276       -21.5045
  17   2.0000      -0.725965       -19.7545
  18   2.0000      -0.670888       -18.2558
  19   2.0000      -0.634246       -17.2587
  20   2.0000      -0.620134       -16.8747
  21   2.0000      -0.587931       -15.9984
  22   2.0000      -0.585814       -15.9408
  23   2.0000      -0.583480       -15.8773
  24   2.0000      -0.577013       -15.7013
  25   2.0000      -0.567026       -15.4295
  26   2.0000      -0.524601       -14.2751
  27   2.0000      -0.492014       -13.3884
  28   2.0000      -0.485354       -13.2072
  29   2.0000      -0.447084       -12.1658
  30   2.0000      -0.408984       -11.1290
  31   2.0000      -0.359136        -9.7726
  32   2.0000      -0.336587        -9.1590
  33   0.0000       0.134778         3.6675
  34   0.0000       0.148705         4.0465
  35   0.0000       0.170080         4.6281
  36   0.0000       0.175547         4.7769
  37   0.0000       0.183827         5.0022

MULLIKEN ATOMIC CHARGES
-----------------------
   0 C :   -0.483482
   1 C :    0.100410
   2 C :   -0.021311
   3 C :   -0.143709
   4 C :   -0.281985
   5 C :    0.061322
   6 O :   -0.311267
   7 C :   -0.059902
   8 C :   -0.224997
   9 H :    0.161687
  10 H :    0.161422
  11 H :    0.161927
  12 H :    0.137252
  13 H :    0.134032
  14 H :    0.135094
  15 H :    0.121592
  16 H :    0.101777
  17 H :    0.126509
  18 H :    0.123630
Sum of atomic charges:    0.0000000

LOEWDIN ATOMIC CHARGES
----------------------
   0 C :   -0.297322
   1 C :   -0.095875
   2 C :   -0.051690
   3 C :   -0.219877
   4 C :   -0.168409
   5 C :   -0.248849
   6 O :    0.184208
   7 C :   -0.285367
   8 C :   -0.197666
   9 H :    0.141027
  10 H :    0.140060
  11 H :    0.139834
  12 H :    0.142960
  13 H :    0.138472
  14 H :    0.143363
  15 H :    0.127397
  16 H :    0.118914
  17 H :    0.142074
  18 H :    0.146744

  Mayer bond orders larger than 0.1
B(  0-C ,  1-C ) :   0.8302 B(  0-C ,  9-H ) :   0.9488 B(  0-C , 10-H ) :   0.9500
B(  0-C , 11-H ) :   0.9474 B(  1-C ,  2-C ) :   2.6319 B(  1-C ,  3-C ) :  -0.2148
B(  2-C ,  3-C ) :   1.1911 B(  3-C ,  4-C ) :   0.8227 B(  3-C ,  5-C ) :   0.8251
B(  3-C ,  8-C ) :   0.9700 B(  4-C ,  5-C ) :   0.8888 B(  4-C , 12-H ) :   0.9138
B(  4-C , 13-H ) :   0.9010 B(  5-C ,  6-O ) :   0.9834 B(  5-C , 14-H ) :   0.9322
B(  6-O ,  7-C ) :   0.9199 B(  7-C ,  8-C ) :   0.9521 B(  7-C , 15-H ) :   0.9217
B(  7-C , 16-H ) :   0.9360 B(  8-C , 17-H ) :   0.9223 B(  8-C , 18-H ) :   0.9189

MP2 TOTAL ENERGY:     -385.167160875 Eh
FINAL SINGLE POINT ENERGY      -385.167160874874

DIPOLE MOMENT
-------------
                                X             Y             Z
Electronic contribution:     -2.38403      -2.64175       0.65841
Nuclear contribution   :      2.83724       2.97734      -0.81354
                        -----------------------------------------
Total Dipole Moment    :      0.45321       0.33559      -0.15513
                        -----------------------------------------
Magnitude (a.u.)       :      0.58488
Magnitude (Debye)      :      1.48664

                             ****ORCA TERMINATED NORMALLY****
TOTAL RUN TIME: 0 days 0 hours 17 minutes 27 seconds 103 msec
