                         Program Version 3.0.3 - RELEASE   -
|  1> ! RI-MP2 RIJK def2-TZVP def2-TZVP/C def2-TZVP/JK TIGHTSCF
|  2> % maxcore 2000
|  3> % mp2 density relaxed end
|  4> *xyz 0 1
|  5>  C        0.0959834838     1.4039963096    -0.3595363466
|  6>  C        0.0885399216    -0.0451057659     0.0503344061
|  7>  O        1.3418637454    -0.7469944275     0.1365695425
|  8>  C        0.5729401978    -0.5773042756     1.3340645270
|  9>  C        1.1943816236     0.2189290796     2.4632547571
| 10>  C        2.1245875329    -0.6300019279     3.3976491364
| 11>  C        3.3866749643     0.0660469502     2.8078464078
| 12>  C        2.4551264616     1.0589269877     2.1130640667
| 13>  O        2.6186527930     2.1312779746     1.6087920247
| 14>  H        0.8348980460     1.9885603116     0.1894825673
| 15>  H        0.3101386872     1.4868199233    -1.4304147632
| 16>  H       -0.8968230073     1.8356381920    -0.1882883797
| 17>  H       -0.6866924011    -0.6424908330    -0.4358598380
| 18>  H        0.1050152691    -1.5013366616     1.6850264145
| 19>  H        0.4207043683     0.7962674044     2.9813170916
| 20>  H        1.9719188754    -0.4146743417     4.4566324245
| 21>  H        2.0686196625    -1.7087784712     3.2434123694
| 22>  H        4.1211159772     0.4944329061     3.4937920977
| 23>  H        3.9091111089    -0.5516332747     2.0700052142
| 24> *
| 25>
| 26>                          ****END OF INPUT****

CARTESIAN COORDINATES (ANGSTROEM)
---------------------------------
  C      0.095983    1.403996   -0.359536
  C      0.088540   -0.045106    0.050334
  O      1.341864   -0.746994    0.136570
  C      0.572940   -0.577304    1.334065
  C      1.194382    0.218929    2.463255
  C      2.124588   -0.630002    3.397649
  C      3.386675    0.066047    2.807846
  C      2.455126    1.058927    2.113064
  O      2.618653    2.131278    1.608792
  H      0.834898    1.988560    0.189483
  H      0.310139    1.486820   -1.430415
  H     -0.896823    1.835638   -0.188288
  H     -0.686692   -0.642491   -0.435860
  H      0.105015   -1.501337    1.685026
  H      0.420704    0.796267    2.981317
  H      1.971919   -0.414674    4.456632
  H      2.068620   -1.708778    3.243412
  H      4.121116    0.494433    3.493792
  H      3.909111   -0.551633    2.070005

 Total Charge           Charge          ....    0
 Multiplicity           Mult            ....    1
 Number of Electrons    NEL             ....   68
 Basis Dimension        Dim             ....  339

ORBITAL ENERGIES
----------------

  NO   OCC          E(Eh)            E(eV)
   0   2.0000     -20.568152      -559.6879
   1   2.0000     -20.554335      -559.3119
   2   2.0000     -11.335838      -308.4638
   3   2.0000     -11.296526      -307.3941
   4   2.0000     -11.290196      -307.2218
   5   2.0000     -11.254453      -306.2492
   6   2.0000     -11.245093      -305.9945
   7   2.0000     -11.241071      -305.8851
   8   2.0000     -11.216287      -305.2107
   9   2.0000      -1.412286       -38.4303
  10   2.0000      -1.397961       -38.0405
  11   2.0000      -1.142055       -31.0769
  12   2.0000      -1.010640       -27.5009
  13   2.0000      -0.977017       -26.5860
  14   2.0000      -0.880725       -23.9658
  15   2.0000      -0.867779       -23.6135
  16   2.0000      -0.805221       -21.9112
  17   2.0000      -0.716904       -19.5079
  18   2.0000      -0.701275       -19.0827
  19   2.0000      -0.674245       -18.3471
  20   2.0000      -0.664741       -18.0885
  21   2.0000      -0.628077       -17.0909
  22   2.0000      -0.597647       -16.2628
  23   2.0000      -0.582281       -15.8447
  24   2.0000      -0.565458       -15.3869
  25   2.0000      -0.547672       -14.9029
  26   2.0000      -0.528927       -14.3928
  27   2.0000      -0.514317       -13.9953
  28   2.0000      -0.508599       -13.8397
  29   2.0000      -0.496805       -13.5187
  30   2.0000      -0.480693       -13.0803
  31   2.0000      -0.450164       -12.2496
  32   2.0000      -0.419994       -11.4286
  33   2.0000      -0.398874       -10.8539
  34   0.0000       0.125541         3.4161
  35   0.0000       0.138929         3.7804
  36   0.0000       0.150422         4.0932
  37   0.0000       0.160833         4.3765
  38   0.0000       0.174100         4.7375

MULLIKEN ATOMIC CHARGES
-----------------------
   0 C :   -0.402439
   1 C :    0.077910
   2 O :   -0.346280
   3 C :   -0.078825
   4 C :    0.012318
   5 C :   -0.257926
   6 C :   -0.226809
   7 C :    0.151280
   8 O :   -0.262399
   9 H :    0.173744
  10 H :    0.135991
  11 H :    0.123915
  12 H :    0.106400
  13 H :    0.122269
  14 H :    0.128456
  15 H :    0.130878
  16 H :    0.129386
  17 H :    0.138059
  18 H :    0.144070
Sum of atomic charges:   -0.0000000

LOEWDIN ATOMIC CHARGES
----------------------
   0 C :   -0.293665
   1 C :   -0.284461
   2 O :    0.156394
   3 C :   -0.257010
   4 C :   -0.181003
   5 C :   -0.206295
   6 C :   -0.205676
   7 C :   -0.291293
   8 O :    0.166777
   9 H :    0.135457
  10 H :    0.130991
  11 H :    0.130599
  12 H :    0.137339
  13 H :    0.141970
  14 H :    0.160557
  15 H :    0.133747
  16 H :    0.132583
  17 H :    0.138492
  18 H :    0.154496

  Mayer bond orders larger than 0.1
B(  0-C ,  1-C ) :   0.8845 B(  0-C ,  9-H ) :   0.9248 B(  0-C , 10-H ) :   0.9332
B(  0-C , 11-H ) :   0.9254 B(  1-C ,  2-O ) :   0.8750 B(  1-C ,  3-C ) :   0.9849
B(  1-C , 12-H ) :   0.9210 B(  2-O ,  3-C ) :   0.9063 B(  3-C ,  4-C ) :   0.9251
B(  3-C , 13-H ) :   0.9128 B(  4-C ,  5-C ) :   0.8829 B(  4-C ,  7-C ) :   0.8015
B(  4-C , 14-H ) :   0.8984 B(  5-C ,  6-C ) :   0.9601 B(  5-C , 15-H ) :   0.9276
B(  5-C , 16-H ) :   0.9302 B(  6-C ,  7-C ) :   0.9316 B(  6-C , 17-H ) :   0.9081
B(  6-C , 18-H ) :   0.8968 B(  7-C ,  8-O ) :   1.9704

MP2 TOTAL ENERGY:     -422.299099602 Eh
FINAL SINGLE POINT ENERGY      -422.299099601565

DIPOLE MOMENT
-------------
                                X             Y             Z
Electronic contribution:      2.41922       0.88232      -0.47714
Nuclear contribution   :     -3.06351      -1.43323       1.22725
                        -----------------------------------------
Total Dipole Moment    :     -0.64429      -0.55091       0.75010
                        -----------------------------------------
Magnitude (a.u.)       :      1.13193
Magnitude (Debye)      :      2.87714

                             ****ORCA TERMINATED NORMALLY****
TOTAL RUN TIME: 0 days 0 hours 20 minutes 20 seconds 939 msec
