                         Program Version 3.0.3 - RELEASE   -
|  1> ! RI-MP2 RIJK def2-TZVP def2-TZVP/C def2-TZVP/JK TIGHTSCF
|  2> % maxcore 2000
|  3> % mp2 density relaxed end
|  4> *xyz 0 1
|  5>  N       -0.0696277954     1.3096893938    -0.2454646972
|  6>  C       -0.0240480337     0.0597867727    -0.0078570734
|  7>  N       -1.1593301534    -0.7025180118     0.1268310920
|  8>  C       -1.1913492963    -1.9553926001     0.8521796882
|  9>  C        0.0886154313    -2.7645610682     0.7267298278
| 10>  O        0.1455184369    -3.9412443795     0.9851059740
| 11>  N        1.2151748289    -2.0448617625     0.3496480168
| 12>  C        1.2941884021    -0.6928330174     0.0499062806
| 13>  O        2.3511983967    -0.1514358704    -0.1693738785
| 14>  H        0.8833194630     1.6473859715    -0.3906664914
| 15>  H       -2.0086558816    -0.1546715616     0.1345894595
| 16>  H       -1.3625819930    -1.8202336503     1.9333598456
| 17>  H       -2.0023458401    -2.5856880063     0.4791274592
| 18>  H        2.0884100247    -2.5605800599     0.3331950370
| 19> *
| 20>
| 21>                          ****END OF INPUT****

CARTESIAN COORDINATES (ANGSTROEM)
---------------------------------
  N     -0.069628    1.309689   -0.245465
  C     -0.024048    0.059787   -0.007857
  N     -1.159330   -0.702518    0.126831
  C     -1.191349   -1.955393    0.852180
  C      0.088615   -2.764561    0.726730
  O      0.145518   -3.941244    0.985106
  N      1.215175   -2.044862    0.349648
  C      1.294188   -0.692833    0.049906
  O      2.351198   -0.151436   -0.169374
  H      0.883319    1.647386   -0.390666
  H     -2.008656   -0.154672    0.134589
  H     -1.362582   -1.820234    1.933360
  H     -2.002346   -2.585688    0.479127
  H      2.088410   -2.560580    0.333195

 Total Charge           Charge          ....    0
 Multiplicity           Mult            ....    1
 Number of Electrons    NEL             ....   66
 Basis Dimension        Dim             ....  309

ORBITAL ENERGIES
----------------

  NO   OCC          E(Eh)            E(eV)
   0   2.0000     -20.575869      -559.8979
   1   2.0000     -20.568442      -559.6958
   2   2.0000     -15.643691      -425.6865
   3   2.0000     -15.609671      -424.7607
   4   2.0000     -15.558861      -423.3781
   5   2.0000     -11.405237      -310.3523
   6   2.0000     -11.401390      -310.2476
   7   2.0000     -11.348300      -308.8029
   8   2.0000     -11.316080      -307.9262
   9   2.0000      -1.448672       -39.4204
  10   2.0000      -1.428328       -38.8668
  11   2.0000      -1.315538       -35.7976
  12   2.0000      -1.271330       -34.5946
  13   2.0000      -1.194599       -32.5067
  14   2.0000      -1.023984       -27.8640
  15   2.0000      -0.946846       -25.7650
  16   2.0000      -0.885011       -24.0824
  17   2.0000      -0.773072       -21.0364
  18   2.0000      -0.760532       -20.6951
  19   2.0000      -0.727342       -19.7920
  20   2.0000      -0.701320       -19.0839
  21   2.0000      -0.684667       -18.6307
  22   2.0000      -0.665417       -18.1069
  23   2.0000      -0.639532       -17.4026
  24   2.0000      -0.627975       -17.0881
  25   2.0000      -0.608743       -16.5647
  26   2.0000      -0.581709       -15.8291
  27   2.0000      -0.514608       -14.0032
  28   2.0000      -0.500733       -13.6256
  29   2.0000      -0.471408       -12.8277
  30   2.0000      -0.453775       -12.3478
  31   2.0000      -0.452278       -12.3071
  32   2.0000      -0.384921       -10.4742
  33   0.0000       0.071087         1.9344
  34   0.0000       0.117344         3.1931
  35   0.0000       0.137620         3.7448
  36   0.0000       0.146415         3.9842
  37   0.0000       0.165854         4.5131

MULLIKEN ATOMIC CHARGES
-----------------------
   0 N :   -0.356299
   1 C :    0.087687
   2 N :   -0.322272
   3 C :   -0.103842
   4 C :    0.225722
   5 O :   -0.294512
   6 N :   -0.249983
   7 C :    0.255150
   8 O :   -0.301766
   9 H :    0.244683
  10 H :    0.249325
  11 H :    0.146200
  12 H :    0.158714
  13 H :    0.261193
Sum of atomic charges:    0.0000000

LOEWDIN ATOMIC CHARGES
----------------------
   0 N :   -0.039568
   1 C :   -0.370635
   2 N :    0.100879
   3 C :   -0.241991
   4 C :   -0.414167
   5 O :    0.136596
   6 N :    0.182666
   7 C :   -0.384486
   8 O :    0.142075
   9 H :    0.176834
  10 H :    0.195872
  11 H :    0.149886
  12 H :    0.155190
  13 H :    0.210850

  Mayer bond orders larger than 0.1
B(  0-N ,  1-C ) :   1.9316 B(  0-N ,  9-H ) :   0.8507 B(  1-C ,  2-N ) :   1.1167
B(  1-C ,  7-C ) :   0.9172 B(  2-N ,  3-C ) :   0.8795 B(  2-N , 10-H ) :   0.8570
B(  3-C ,  4-C ) :   0.9281 B(  3-C , 11-H ) :   0.8992 B(  3-C , 12-H ) :   0.9186
B(  4-C ,  5-O ) :   2.0109 B(  4-C ,  6-N ) :   1.0604 B(  6-N ,  7-C ) :   1.0691
B(  6-N , 13-H ) :   0.8356 B(  7-C ,  8-O ) :   1.9541

MP2 TOTAL ENERGY:     -469.326744741 Eh
FINAL SINGLE POINT ENERGY      -469.326744741131

DIPOLE MOMENT
-------------
                                X             Y             Z
Electronic contribution:      3.04313      -0.95752      -0.57807
Nuclear contribution   :     -3.68273       0.58883       0.92291
                        -----------------------------------------
Total Dipole Moment    :     -0.63960      -0.36868       0.34484
                        -----------------------------------------
Magnitude (a.u.)       :      0.81482
Magnitude (Debye)      :      2.07111

                             ****ORCA TERMINATED NORMALLY****
TOTAL RUN TIME: 0 days 0 hours 13 minutes 39 seconds 798 msec
