                         Program Version 3.0.3 - RELEASE   -
|  1> ! RI-MP2 RIJK def2-TZVP def2-TZVP/C def2-TZVP/JK TIGHTSCF
|  2> % maxcore 2000
|  3> % mp2 density relaxed end
|  4> *xyz 0 1
|  5>  C       -0.1089772355     1.5438062692     0.0633291876
|  6>  C       -0.0052474998     0.0240792267    -0.0151819173
|  7>  C       -1.2939981760    -0.7845565641     0.3385055756
|  8>  C       -0.4452127863    -1.7414711077     1.2222831951
|  9>  O       -0.2676257520    -3.0503167794     0.7243996011
| 10>  C        0.7791696152    -0.7633993953     1.0958429432
| 11>  C        2.0537532128    -1.3425686394     0.4612826168
| 12>  C        1.7858470508    -1.1783042585    -1.0201188049
| 13>  C        0.6871830665    -0.4618302902    -1.2691434360
| 14>  H        0.8754528831     2.0154159981    -0.0277507487
| 15>  H       -0.7419569646     1.9388800513    -0.7403422171
| 16>  H       -0.5497978074     1.8577842963     1.0158701636
| 17>  H       -2.0161257482    -0.1989570630     0.9161540364
| 18>  H       -1.8235003844    -1.2638694516    -0.4909909970
| 19>  H       -0.8105569355    -1.8715880224     2.2438040055
| 20>  H       -0.0243793027    -2.9795691122    -0.2059223555
| 21>  H        0.9606240683    -0.2071181664     2.0181304915
| 22>  H        2.9609405710    -0.8036818703     0.7645992458
| 23>  H        2.1995984802    -2.3916056981     0.7437656934
| 24>  H        2.4399815685    -1.5936020838    -1.7803853987
| 25>  H        0.3170685260    -0.2126068394    -2.2597653406
| 26> *
| 27>
| 28>                          ****END OF INPUT****

CARTESIAN COORDINATES (ANGSTROEM)
---------------------------------
  C     -0.108977    1.543806    0.063329
  C     -0.005247    0.024079   -0.015182
  C     -1.293998   -0.784557    0.338506
  C     -0.445213   -1.741471    1.222283
  O     -0.267626   -3.050317    0.724400
  C      0.779170   -0.763399    1.095843
  C      2.053753   -1.342569    0.461283
  C      1.785847   -1.178304   -1.020119
  C      0.687183   -0.461830   -1.269143
  H      0.875453    2.015416   -0.027751
  H     -0.741957    1.938880   -0.740342
  H     -0.549798    1.857784    1.015870
  H     -2.016126   -0.198957    0.916154
  H     -1.823500   -1.263869   -0.490991
  H     -0.810557   -1.871588    2.243804
  H     -0.024379   -2.979569   -0.205922
  H      0.960624   -0.207118    2.018130
  H      2.960941   -0.803682    0.764599
  H      2.199598   -2.391606    0.743766
  H      2.439982   -1.593602   -1.780385
  H      0.317069   -0.212607   -2.259765

 Total Charge           Charge          ....    0
 Multiplicity           Mult            ....    1
 Number of Electrons    NEL             ....   68
 Basis Dimension        Dim             ....  351

ORBITAL ENERGIES
----------------

  NO   OCC          E(Eh)            E(eV)
   0   2.0000     -20.548745      -559.1598
   1   2.0000     -11.274179      -306.7860
   2   2.0000     -11.236653      -305.7649
   3   2.0000     -11.230804      -305.6057
   4   2.0000     -11.226829      -305.4975
   5   2.0000     -11.224035      -305.4215
   6   2.0000     -11.222129      -305.3697
   7   2.0000     -11.218113      -305.2604
   8   2.0000     -11.216960      -305.2290
   9   2.0000      -1.357347       -36.9353
  10   2.0000      -1.162499       -31.6332
  11   2.0000      -1.049078       -28.5469
  12   2.0000      -0.994803       -27.0700
  13   2.0000      -0.945721       -25.7344
  14   2.0000      -0.864617       -23.5274
  15   2.0000      -0.842955       -22.9380
  16   2.0000      -0.754514       -20.5314
  17   2.0000      -0.711795       -19.3689
  18   2.0000      -0.677058       -18.4237
  19   2.0000      -0.664470       -18.0811
  20   2.0000      -0.617634       -16.8067
  21   2.0000      -0.608458       -16.5570
  22   2.0000      -0.584385       -15.9019
  23   2.0000      -0.562392       -15.3035
  24   2.0000      -0.555518       -15.1164
  25   2.0000      -0.538333       -14.6488
  26   2.0000      -0.527390       -14.3510
  27   2.0000      -0.521733       -14.1971
  28   2.0000      -0.482177       -13.1207
  29   2.0000      -0.471552       -12.8316
  30   2.0000      -0.445220       -12.1151
  31   2.0000      -0.415472       -11.3056
  32   2.0000      -0.406602       -11.0642
  33   2.0000      -0.349149        -9.5008
  34   0.0000       0.133027         3.6198
  35   0.0000       0.150608         4.0983
  36   0.0000       0.158226         4.3055
  37   0.0000       0.163968         4.4618
  38   0.0000       0.180120         4.9013

MULLIKEN ATOMIC CHARGES
-----------------------
   0 C :   -0.423599
   1 C :    0.174796
   2 C :   -0.237333
   3 C :    0.004917
   4 O :   -0.453401
   5 C :   -0.052749
   6 C :   -0.214050
   7 C :   -0.240118
   8 C :   -0.241672
   9 H :    0.134491
  10 H :    0.131455
  11 H :    0.128382
  12 H :    0.112499
  13 H :    0.113350
  14 H :    0.109372
  15 H :    0.322855
  16 H :    0.111106
  17 H :    0.120661
  18 H :    0.150852
  19 H :    0.123941
  20 H :    0.124244
Sum of atomic charges:   -0.0000000

LOEWDIN ATOMIC CHARGES
----------------------
   0 C :   -0.271853
   1 C :   -0.242550
   2 C :   -0.184190
   3 C :   -0.291596
   4 O :   -0.009344
   5 C :   -0.149623
   6 C :   -0.231302
   7 C :   -0.158291
   8 C :   -0.126564
   9 H :    0.127689
  10 H :    0.127150
  11 H :    0.125193
  12 H :    0.136257
  13 H :    0.131160
  14 H :    0.133141
  15 H :    0.175831
  16 H :    0.145308
  17 H :    0.140317
  18 H :    0.146043
  19 H :    0.136414
  20 H :    0.140809

  Mayer bond orders larger than 0.1
B(  0-C ,  1-C ) :   0.8602 B(  0-C ,  9-H ) :   0.9376 B(  0-C , 10-H ) :   0.9379
B(  0-C , 11-H ) :   0.9348 B(  1-C ,  2-C ) :   0.9101 B(  1-C ,  5-C ) :   0.9095
B(  1-C ,  8-C ) :   0.9359 B(  2-C ,  3-C ) :   0.9454 B(  2-C , 12-H ) :   0.9025
B(  2-C , 13-H ) :   0.9157 B(  3-C ,  4-O ) :   0.9687 B(  3-C ,  5-C ) :   0.9163
B(  3-C , 14-H ) :   0.9361 B(  4-O , 15-H ) :   0.8347 B(  5-C ,  6-C ) :   0.9301
B(  5-C , 16-H ) :   0.8991 B(  6-C ,  7-C ) :   0.9467 B(  6-C , 17-H ) :   0.9121
B(  6-C , 18-H ) :   0.9127 B(  7-C ,  8-C ) :   1.7692 B(  7-C , 19-H ) :   0.9393
B(  8-C , 20-H ) :   0.9275

MP2 TOTAL ENERGY:     -386.418553377 Eh
FINAL SINGLE POINT ENERGY      -386.418553377022

DIPOLE MOMENT
-------------
                                X             Y             Z
Electronic contribution:      0.31666      -4.08907      -0.14109
Nuclear contribution   :     -0.17297       4.67914      -0.13706
                        -----------------------------------------
Total Dipole Moment    :      0.14370       0.59007      -0.27815
                        -----------------------------------------
Magnitude (a.u.)       :      0.66799
Magnitude (Debye)      :      1.69788

                             ****ORCA TERMINATED NORMALLY****
TOTAL RUN TIME: 0 days 0 hours 20 minutes 3 seconds 810 msec
