                         Program Version 3.0.3 - RELEASE   -
|  1> ! RI-MP2 RIJK def2-TZVP def2-TZVP/C def2-TZVP/JK TIGHTSCF
|  2> % maxcore 2000
|  3> % mp2 density relaxed end
|  4> *xyz 0 1
|  5>  C        0.2603861666     1.6288262022    -0.1783769613
|  6>  C       -0.0803710756     0.1709081544     0.0484085309
|  7>  C        0.9521126956    -0.9172142467    -0.1398338665
|  8>  C        0.4134644628    -0.6188855584     1.2396495066
|  9>  C        1.2831796835    -0.0538484064     2.3302724208
| 10>  C        2.2064424590    -1.0380542493     3.0808222771
| 11>  C        3.3280702499    -0.1734229006     2.5119109747
| 12>  O        4.5139804252    -0.1210615666     2.5477205169
| 13>  O        2.4735004847     0.6717625173     1.8451364975
| 14>  H        1.2807417637     1.8591078709     0.1340247411
| 15>  H        0.1657606053     1.8814902285    -1.2400450541
| 16>  H       -0.4191359546     2.2848623273     0.3775883777
| 17>  H       -1.0871220396    -0.0958353392    -0.2646479048
| 18>  H        0.6641287105    -1.8450093918    -0.6214840766
| 19>  H        1.9660374870    -0.5947548937    -0.3508518814
| 20>  H       -0.2943426312    -1.3382076434     1.6470779137
| 21>  H        0.7204043132     0.6111248681     2.9925094693
| 22>  H        2.1452388645    -1.0427204569     4.1700718541
| 23>  H        2.2047562096    -2.0620318256     2.7025063745
| 24> *
| 25>
| 26>                          ****END OF INPUT****

CARTESIAN COORDINATES (ANGSTROEM)
---------------------------------
  C      0.260386    1.628826   -0.178377
  C     -0.080371    0.170908    0.048409
  C      0.952113   -0.917214   -0.139834
  C      0.413464   -0.618886    1.239650
  C      1.283180   -0.053848    2.330272
  C      2.206442   -1.038054    3.080822
  C      3.328070   -0.173423    2.511911
  O      4.513980   -0.121062    2.547721
  O      2.473500    0.671763    1.845136
  H      1.280742    1.859108    0.134025
  H      0.165761    1.881490   -1.240045
  H     -0.419136    2.284862    0.377588
  H     -1.087122   -0.095835   -0.264648
  H      0.664129   -1.845009   -0.621484
  H      1.966037   -0.594755   -0.350852
  H     -0.294343   -1.338208    1.647078
  H      0.720404    0.611125    2.992509
  H      2.145239   -1.042720    4.170072
  H      2.204756   -2.062032    2.702506

 Total Charge           Charge          ....    0
 Multiplicity           Mult            ....    1
 Number of Electrons    NEL             ....   68
 Basis Dimension        Dim             ....  339

ORBITAL ENERGIES
----------------

  NO   OCC          E(Eh)            E(eV)
   0   2.0000     -20.599985      -560.5541
   1   2.0000     -20.552320      -559.2571
   2   2.0000     -11.384421      -309.7858
   3   2.0000     -11.316804      -307.9459
   4   2.0000     -11.262514      -306.4686
   5   2.0000     -11.247381      -306.0568
   6   2.0000     -11.242051      -305.9118
   7   2.0000     -11.232355      -305.6479
   8   2.0000     -11.217021      -305.2307
   9   2.0000      -1.462982       -39.8098
  10   2.0000      -1.379512       -37.5384
  11   2.0000      -1.161198       -31.5978
  12   2.0000      -1.054716       -28.7003
  13   2.0000      -0.971884       -26.4463
  14   2.0000      -0.934158       -25.4197
  15   2.0000      -0.813814       -22.1450
  16   2.0000      -0.781005       -21.2522
  17   2.0000      -0.753802       -20.5120
  18   2.0000      -0.711175       -19.3520
  19   2.0000      -0.689067       -18.7505
  20   2.0000      -0.673877       -18.3371
  21   2.0000      -0.661214       -17.9925
  22   2.0000      -0.595923       -16.2159
  23   2.0000      -0.577498       -15.7145
  24   2.0000      -0.569845       -15.5063
  25   2.0000      -0.567676       -15.4473
  26   2.0000      -0.545329       -14.8392
  27   2.0000      -0.526167       -14.3177
  28   2.0000      -0.521064       -14.1789
  29   2.0000      -0.501599       -13.6492
  30   2.0000      -0.460528       -12.5316
  31   2.0000      -0.445941       -12.1347
  32   2.0000      -0.420760       -11.4495
  33   2.0000      -0.407395       -11.0858
  34   0.0000       0.127317         3.4645
  35   0.0000       0.146131         3.9764
  36   0.0000       0.150154         4.0859
  37   0.0000       0.162928         4.4335
  38   0.0000       0.172148         4.6844

MULLIKEN ATOMIC CHARGES
-----------------------
   0 C :   -0.420911
   1 C :   -0.047645
   2 C :   -0.310096
   3 C :   -0.174830
   4 C :    0.145782
   5 C :   -0.290958
   6 C :    0.253676
   7 O :   -0.259698
   8 O :   -0.263255
   9 H :    0.158433
  10 H :    0.133348
  11 H :    0.125715
  12 H :    0.118368
  13 H :    0.136346
  14 H :    0.151998
  15 H :    0.127519
  16 H :    0.117293
  17 H :    0.150226
  18 H :    0.148690
Sum of atomic charges:   -0.0000000

LOEWDIN ATOMIC CHARGES
----------------------
   0 C :   -0.295214
   1 C :   -0.227211
   2 C :   -0.202390
   3 C :   -0.207160
   4 C :   -0.224079
   5 C :   -0.188689
   6 C :   -0.459199
   7 O :    0.154739
   8 O :    0.244032
   9 H :    0.131505
  10 H :    0.126771
  11 H :    0.124753
  12 H :    0.148064
  13 H :    0.130844
  14 H :    0.141963
  15 H :    0.157591
  16 H :    0.145291
  17 H :    0.146510
  18 H :    0.151880

  Mayer bond orders larger than 0.1
B(  0-C ,  1-C ) :   0.9098 B(  0-C ,  9-H ) :   0.9309 B(  0-C , 10-H ) :   0.9361
B(  0-C , 11-H ) :   0.9384 B(  1-C ,  2-C ) :   0.8820 B(  1-C ,  3-C ) :   0.8734
B(  1-C , 12-H ) :   0.9312 B(  2-C ,  3-C ) :   0.8809 B(  2-C , 13-H ) :   0.9261
B(  2-C , 14-H ) :   0.9225 B(  3-C ,  4-C ) :   0.9468 B(  3-C , 15-H ) :   0.9148
B(  4-C ,  5-C ) :   0.8853 B(  4-C ,  8-O ) :   0.8490 B(  4-C , 16-H ) :   0.9256
B(  5-C ,  6-C ) :   0.9440 B(  5-C , 17-H ) :   0.9075 B(  5-C , 18-H ) :   0.8968
B(  6-C ,  7-O ) :   2.0611 B(  6-C ,  8-O ) :   1.0722

MP2 TOTAL ENERGY:     -422.332786562 Eh
FINAL SINGLE POINT ENERGY      -422.332786562130

DIPOLE MOMENT
-------------
                                X             Y             Z
Electronic contribution:      7.89384      -0.51887       5.11058
Nuclear contribution   :     -9.39053      -0.04671      -4.90781
                        -----------------------------------------
Total Dipole Moment    :     -1.49670      -0.56557       0.20277
                        -----------------------------------------
Magnitude (a.u.)       :      1.61279
Magnitude (Debye)      :      4.09939

                             ****ORCA TERMINATED NORMALLY****
TOTAL RUN TIME: 0 days 0 hours 17 minutes 47 seconds 637 msec
