                         Program Version 3.0.3 - RELEASE   -
|  1> ! RI-MP2 RIJK def2-TZVP def2-TZVP/C def2-TZVP/JK TIGHTSCF
|  2> % maxcore 2000
|  3> % mp2 density relaxed end
|  4> *xyz 0 1
|  5>  O        0.0683452674     1.3515052674     0.0087052518
|  6>  C       -0.0560182333    -0.0444738595     0.0024045972
|  7>  C       -1.5285009819    -0.4006324106     0.0142105269
|  8>  O       -2.4525124911     0.3563478563     0.0271548588
|  9>  O       -1.6339253515    -1.7725516237     0.0079914675
| 10>  C       -2.8925714107    -2.3226491634     0.0173809586
| 11>  N       -2.9853480361    -3.5762973897     0.0113302229
| 12>  H        1.0054237903     1.5665316589    -0.0019451961
| 13>  H        0.3871660719    -0.5192439375    -0.8874920624
| 14>  H        0.4035391543    -0.5285945441     0.8789031748
| 15>  H       -3.6824982077    -1.5715961922     0.0294304842
| 16>  H       -3.9671994816    -3.8490703118     0.0196198658
| 17> *
| 18>
| 19>                          ****END OF INPUT****

CARTESIAN COORDINATES (ANGSTROEM)
---------------------------------
  O      0.068345    1.351505    0.008705
  C     -0.056018   -0.044474    0.002405
  C     -1.528501   -0.400632    0.014211
  O     -2.452512    0.356348    0.027155
  O     -1.633925   -1.772552    0.007991
  C     -2.892571   -2.322649    0.017381
  N     -2.985348   -3.576297    0.011330
  H      1.005424    1.566532   -0.001945
  H      0.387166   -0.519244   -0.887492
  H      0.403539   -0.528595    0.878903
  H     -3.682498   -1.571596    0.029430
  H     -3.967199   -3.849070    0.019620

 Total Charge           Charge          ....    0
 Multiplicity           Mult            ....    1
 Number of Electrons    NEL             ....   54
 Basis Dimension        Dim             ....  247

ORBITAL ENERGIES
----------------

  NO   OCC          E(Eh)            E(eV)
   0   2.0000     -20.633867      -561.4761
   1   2.0000     -20.583234      -560.0983
   2   2.0000     -20.570011      -559.7385
   3   2.0000     -15.562464      -423.4762
   4   2.0000     -11.404944      -310.3443
   5   2.0000     -11.353181      -308.9358
   6   2.0000     -11.317722      -307.9709
   7   2.0000      -1.495194       -40.6863
   8   2.0000      -1.405024       -38.2326
   9   2.0000      -1.386246       -37.7217
  10   2.0000      -1.221570       -33.2406
  11   2.0000      -1.024705       -27.8836
  12   2.0000      -0.883451       -24.0399
  13   2.0000      -0.800006       -21.7693
  14   2.0000      -0.751408       -20.4469
  15   2.0000      -0.710584       -19.3360
  16   2.0000      -0.696466       -18.9518
  17   2.0000      -0.689686       -18.7673
  18   2.0000      -0.653399       -17.7799
  19   2.0000      -0.636538       -17.3211
  20   2.0000      -0.592251       -16.1160
  21   2.0000      -0.555465       -15.1150
  22   2.0000      -0.532134       -14.4801
  23   2.0000      -0.483770       -13.1641
  24   2.0000      -0.479372       -13.0444
  25   2.0000      -0.448688       -12.2094
  26   2.0000      -0.433046       -11.7838
  27   0.0000       0.118146         3.2149
  28   0.0000       0.131329         3.5737
  29   0.0000       0.148425         4.0389
  30   0.0000       0.164406         4.4737
  31   0.0000       0.172689         4.6991

MULLIKEN ATOMIC CHARGES
-----------------------
   0 O :   -0.436719
   1 C :   -0.096691
   2 C :    0.335176
   3 O :   -0.284446
   4 O :   -0.211081
   5 C :    0.040356
   6 N :   -0.313990
   7 H :    0.325144
   8 H :    0.133239
   9 H :    0.133183
  10 H :    0.140591
  11 H :    0.235238
Sum of atomic charges:   -0.0000000

LOEWDIN ATOMIC CHARGES
----------------------
   0 O :   -0.016810
   1 C :   -0.329648
   2 C :   -0.446714
   3 O :    0.163466
   4 O :    0.285083
   5 C :   -0.351602
   6 N :   -0.054909
   7 H :    0.180907
   8 H :    0.136806
   9 H :    0.136813
  10 H :    0.122433
  11 H :    0.174176

  Mayer bond orders larger than 0.1
B(  0-O ,  1-C ) :   1.0433 B(  0-O ,  7-H ) :   0.8418 B(  1-C ,  2-C ) :   0.9312
B(  1-C ,  8-H ) :   0.9134 B(  1-C ,  9-H ) :   0.9134 B(  2-C ,  3-O ) :   1.9517
B(  2-C ,  4-O ) :   0.9999 B(  4-O ,  5-C ) :   0.9508 B(  5-C ,  6-N ) :   1.9792
B(  5-C , 10-H ) :   0.9291 B(  6-N , 11-H ) :   0.8509

MP2 TOTAL ENERGY:     -397.058843479 Eh
FINAL SINGLE POINT ENERGY      -397.058843478987

DIPOLE MOMENT
-------------
                                X             Y             Z
Electronic contribution:     -1.53313       0.50727       0.01686
Nuclear contribution   :      2.05689      -0.51185      -0.02329
                        -----------------------------------------
Total Dipole Moment    :      0.52376      -0.00458      -0.00643
                        -----------------------------------------
Magnitude (a.u.)       :      0.52382
Magnitude (Debye)      :      1.33144

                             ****ORCA TERMINATED NORMALLY****
TOTAL RUN TIME: 0 days 0 hours 5 minutes 9 seconds 686 msec
