                         Program Version 3.0.3 - RELEASE   -
|  1> ! RI-MP2 RIJK def2-TZVP def2-TZVP/C def2-TZVP/JK TIGHTSCF
|  2> % maxcore 2000
|  3> % mp2 density relaxed end
|  4> *xyz 0 1
|  5>  C       -0.0027987206     1.4123543651     0.1417052471
|  6>  N       -0.0081950502    -0.0299876388     0.0225934428
|  7>  N       -0.0557105222    -0.6455363661    -1.1484135752
|  8>  C       -0.0259615936    -1.9446079834    -0.8406142894
|  9>  C        0.0425740603    -2.0474439821     0.5591983973
| 10>  N        0.0937995597    -3.1615236651     1.3904525982
| 11>  C        0.0876424487    -4.4623199580     0.9677754072
| 12>  O        0.0366283209    -4.8196495485    -0.1873091549
| 13>  N        0.0537678215    -0.8242319492     1.0909878213
| 14>  H        0.9422624733     1.7543326173     0.5722250710
| 15>  H       -0.1240762777     1.8200916745    -0.8604648195
| 16>  H       -0.8261549331     1.7365877383     0.7824631908
| 17>  H       -0.0544327997    -2.7205374677    -1.5830820840
| 18>  H        0.1387829495    -2.9727549266     2.3807463640
| 19>  H        0.1356620531    -5.1624513896     1.8227646232
| 20> *
| 21>
| 22>                          ****END OF INPUT****

CARTESIAN COORDINATES (ANGSTROEM)
---------------------------------
  C     -0.002799    1.412354    0.141705
  N     -0.008195   -0.029988    0.022593
  N     -0.055711   -0.645536   -1.148414
  C     -0.025962   -1.944608   -0.840614
  C      0.042574   -2.047444    0.559198
  N      0.093800   -3.161524    1.390453
  C      0.087642   -4.462320    0.967775
  O      0.036628   -4.819650   -0.187309
  N      0.053768   -0.824232    1.090988
  H      0.942262    1.754333    0.572225
  H     -0.124076    1.820092   -0.860465
  H     -0.826155    1.736588    0.782463
  H     -0.054433   -2.720537   -1.583082
  H      0.138783   -2.972755    2.380746
  H      0.135662   -5.162451    1.822765

 Total Charge           Charge          ....    0
 Multiplicity           Mult            ....    1
 Number of Electrons    NEL             ....   66
 Basis Dimension        Dim             ....  315

ORBITAL ENERGIES
----------------

  NO   OCC          E(Eh)            E(eV)
   0   2.0000     -20.542914      -559.0011
   1   2.0000     -15.681554      -426.7168
   2   2.0000     -15.619597      -425.0308
   3   2.0000     -15.617425      -424.9717
   4   2.0000     -15.607553      -424.7031
   5   2.0000     -11.369439      -309.3782
   6   2.0000     -11.313151      -307.8465
   7   2.0000     -11.281049      -306.9729
   8   2.0000     -11.257182      -306.3235
   9   2.0000      -1.452632       -39.5281
  10   2.0000      -1.404075       -38.2068
  11   2.0000      -1.275627       -34.7116
  12   2.0000      -1.186991       -32.2997
  13   2.0000      -1.132328       -30.8122
  14   2.0000      -0.970175       -26.3998
  15   2.0000      -0.896568       -24.3969
  16   2.0000      -0.832479       -22.6529
  17   2.0000      -0.804928       -21.9032
  18   2.0000      -0.738300       -20.0902
  19   2.0000      -0.715559       -19.4714
  20   2.0000      -0.686226       -18.6732
  21   2.0000      -0.671885       -18.2829
  22   2.0000      -0.626055       -17.0358
  23   2.0000      -0.610270       -16.6063
  24   2.0000      -0.606257       -16.4971
  25   2.0000      -0.576441       -15.6858
  26   2.0000      -0.565464       -15.3871
  27   2.0000      -0.510167       -13.8824
  28   2.0000      -0.476047       -12.9539
  29   2.0000      -0.474334       -12.9073
  30   2.0000      -0.451758       -12.2930
  31   2.0000      -0.394296       -10.7294
  32   2.0000      -0.336312        -9.1515
  33   0.0000       0.125091         3.4039
  34   0.0000       0.130748         3.5578
  35   0.0000       0.148989         4.0542
  36   0.0000       0.152702         4.1552
  37   0.0000       0.184565         5.0223

MULLIKEN ATOMIC CHARGES
-----------------------
   0 C :   -0.318327
   1 N :    0.231613
   2 N :   -0.234860
   3 C :   -0.160984
   4 C :    0.187165
   5 N :   -0.308448
   6 C :    0.205834
   7 O :   -0.349202
   8 N :   -0.261435
   9 H :    0.154171
  10 H :    0.174841
  11 H :    0.156409
  12 H :    0.177922
  13 H :    0.254042
  14 H :    0.091258
Sum of atomic charges:   -0.0000000

LOEWDIN ATOMIC CHARGES
----------------------
   0 C :   -0.272466
   1 N :    0.104873
   2 N :    0.043737
   3 C :   -0.250342
   4 C :   -0.339872
   5 N :    0.138339
   6 C :   -0.411038
   7 O :    0.083102
   8 N :    0.053845
   9 H :    0.126533
  10 H :    0.134406
  11 H :    0.127257
  12 H :    0.145362
  13 H :    0.201639
  14 H :    0.114626

  Mayer bond orders larger than 0.1
B(  0-C ,  1-N ) :   0.8602 B(  0-C ,  9-H ) :   0.9281 B(  0-C , 10-H ) :   0.9251
B(  0-C , 11-H ) :   0.9286 B(  1-N ,  2-N ) :   1.1258 B(  1-N ,  8-N ) :   1.0960
B(  2-N ,  3-C ) :   1.4287 B(  3-C ,  4-C ) :   1.4035 B(  3-C , 12-H ) :   0.9052
B(  4-C ,  5-N ) :   0.9616 B(  4-C ,  8-N ) :   1.4344 B(  5-N ,  6-C ) :   1.1061
B(  5-N , 13-H ) :   0.8573 B(  6-C ,  7-O ) :   1.8899 B(  6-C , 14-H ) :   0.9291

MP2 TOTAL ENERGY:     -449.422925882 Eh
FINAL SINGLE POINT ENERGY      -449.422925881929

DIPOLE MOMENT
-------------
                                X             Y             Z
Electronic contribution:     -0.00548      -4.24941      -0.40575
Nuclear contribution   :      0.05662       5.14932       1.62051
                        -----------------------------------------
Total Dipole Moment    :      0.05113       0.89991       1.21476
                        -----------------------------------------
Magnitude (a.u.)       :      1.51264
Magnitude (Debye)      :      3.84484

                             ****ORCA TERMINATED NORMALLY****
TOTAL RUN TIME: 0 days 0 hours 14 minutes 41 seconds 495 msec
