                         Program Version 3.0.3 - RELEASE   -
|  1> ! RI-MP2 RIJK def2-TZVP def2-TZVP/C def2-TZVP/JK TIGHTSCF
|  2> % maxcore 2000
|  3> % mp2 density relaxed end
|  4> *xyz 0 1
|  5>  C       -0.1371607857     1.5529441183     0.0449105576
|  6>  C        0.0250796592     0.0341144682    -0.0300632064
|  7>  O        0.6560500606    -0.3710756048    -1.2349711814
|  8>  C        0.7784879369    -0.5345335241     1.1790773959
|  9>  C        0.9008232917    -2.0676445258     1.2018861131
| 10>  C        2.2841208804    -2.2884896776     1.8179013408
| 11>  C        3.0401500284    -1.0125045770     1.4698310134
| 12>  O        4.2169885168    -0.8054834720     1.4869438633
| 13>  O        2.1399057368    -0.0476606805     1.1136701183
| 14>  H        0.8403017937     2.0410919394     0.1116834803
| 15>  H       -0.6496864357     1.9159816672    -0.8491639797
| 16>  H       -0.7213926786     1.8445700624     0.9240798219
| 17>  H       -0.9649751847    -0.4387098825    -0.0480456419
| 18>  H        1.5487625034    -0.0044600238    -1.2154264181
| 19>  H        0.3337604726    -0.1532837311     2.1075019979
| 20>  H        0.0878225290    -2.5330836565     1.7621644909
| 21>  H        0.8731813172    -2.4354782809     0.1727646265
| 22>  H        2.2463145840    -2.3659652013     2.9109458411
| 23>  H        2.8251592739    -3.1597197575     1.4467696964
| 24> *
| 25>
| 26>                          ****END OF INPUT****

CARTESIAN COORDINATES (ANGSTROEM)
---------------------------------
  C     -0.137161    1.552944    0.044911
  C      0.025080    0.034114   -0.030063
  O      0.656050   -0.371076   -1.234971
  C      0.778488   -0.534534    1.179077
  C      0.900823   -2.067645    1.201886
  C      2.284121   -2.288490    1.817901
  C      3.040150   -1.012505    1.469831
  O      4.216989   -0.805483    1.486944
  O      2.139906   -0.047661    1.113670
  H      0.840302    2.041092    0.111683
  H     -0.649686    1.915982   -0.849164
  H     -0.721393    1.844570    0.924080
  H     -0.964975   -0.438710   -0.048046
  H      1.548763   -0.004460   -1.215426
  H      0.333760   -0.153284    2.107502
  H      0.087823   -2.533084    1.762164
  H      0.873181   -2.435478    0.172765
  H      2.246315   -2.365965    2.910946
  H      2.825159   -3.159720    1.446770

 Total Charge           Charge          ....    0
 Multiplicity           Mult            ....    1
 Number of Electrons    NEL             ....   70
 Basis Dimension        Dim             ....  339

ORBITAL ENERGIES
----------------

  NO   OCC          E(Eh)            E(eV)
   0   2.0000     -20.604634      -560.6806
   1   2.0000     -20.563848      -559.5708
   2   2.0000     -20.543894      -559.0278
   3   2.0000     -11.381447      -309.7049
   4   2.0000     -11.307677      -307.6975
   5   2.0000     -11.296310      -307.3882
   6   2.0000     -11.257884      -306.3426
   7   2.0000     -11.249485      -306.1140
   8   2.0000     -11.225243      -305.4544
   9   2.0000      -1.461633       -39.7731
  10   2.0000      -1.379927       -37.5497
  11   2.0000      -1.362879       -37.0858
  12   2.0000      -1.096052       -29.8251
  13   2.0000      -1.052018       -28.6269
  14   2.0000      -0.971601       -26.4386
  15   2.0000      -0.866390       -23.5757
  16   2.0000      -0.838372       -22.8133
  17   2.0000      -0.776348       -21.1255
  18   2.0000      -0.721238       -19.6259
  19   2.0000      -0.707256       -19.2454
  20   2.0000      -0.663821       -18.0635
  21   2.0000      -0.645069       -17.5532
  22   2.0000      -0.626442       -17.0464
  23   2.0000      -0.613248       -16.6873
  24   2.0000      -0.602598       -16.3975
  25   2.0000      -0.580833       -15.8053
  26   2.0000      -0.570768       -15.5314
  27   2.0000      -0.545010       -14.8305
  28   2.0000      -0.536488       -14.5986
  29   2.0000      -0.515306       -14.0222
  30   2.0000      -0.509950       -13.8764
  31   2.0000      -0.489541       -13.3211
  32   2.0000      -0.460582       -12.5331
  33   2.0000      -0.450502       -12.2588
  34   2.0000      -0.437735       -11.9114
  35   0.0000       0.120743         3.2856
  36   0.0000       0.145206         3.9513
  37   0.0000       0.152255         4.1431
  38   0.0000       0.159061         4.3283
  39   0.0000       0.168849         4.5946

MULLIKEN ATOMIC CHARGES
-----------------------
   0 C :   -0.400020
   1 C :    0.120676
   2 O :   -0.476980
   3 C :    0.003213
   4 C :   -0.253458
   5 C :   -0.220836
   6 C :    0.234598
   7 O :   -0.279287
   8 O :   -0.250463
   9 H :    0.144571
  10 H :    0.148893
  11 H :    0.122385
  12 H :    0.100538
  13 H :    0.326266
  14 H :    0.106249
  15 H :    0.133385
  16 H :    0.149879
  17 H :    0.143024
  18 H :    0.147367
Sum of atomic charges:   -0.0000000

LOEWDIN ATOMIC CHARGES
----------------------
   0 C :   -0.298904
   1 C :   -0.360947
   2 O :   -0.012197
   3 C :   -0.264655
   4 C :   -0.233185
   5 C :   -0.226556
   6 C :   -0.463959
   7 O :    0.140738
   8 O :    0.260252
   9 H :    0.128600
  10 H :    0.128110
  11 H :    0.126198
  12 H :    0.150693
  13 H :    0.180700
  14 H :    0.145794
  15 H :    0.139414
  16 H :    0.151065
  17 H :    0.156883
  18 H :    0.151958

  Mayer bond orders larger than 0.1
B(  0-C ,  1-C ) :   0.9343 B(  0-C ,  9-H ) :   0.9234 B(  0-C , 10-H ) :   0.9404
B(  0-C , 11-H ) :   0.9292 B(  1-C ,  2-O ) :   0.9009 B(  1-C ,  3-C ) :   0.9131
B(  1-C , 12-H ) :   0.9204 B(  2-O , 13-H ) :   0.8304 B(  3-C ,  4-C ) :   0.9172
B(  3-C ,  8-O ) :   0.8704 B(  3-C , 14-H ) :   0.9160 B(  4-C ,  5-C ) :   0.9282
B(  4-C , 15-H ) :   0.9255 B(  4-C , 16-H ) :   0.9193 B(  5-C ,  6-C ) :   0.9291
B(  5-C , 17-H ) :   0.9081 B(  5-C , 18-H ) :   0.9139 B(  6-C ,  7-O ) :   2.0554
B(  6-C ,  8-O ) :   1.0798

MP2 TOTAL ENERGY:     -459.488095862 Eh
FINAL SINGLE POINT ENERGY      -459.488095862268

DIPOLE MOMENT
-------------
                                X             Y             Z
Electronic contribution:      7.16814      -0.95402       0.68325
Nuclear contribution   :     -8.46433       0.57937      -0.17081
                        -----------------------------------------
Total Dipole Moment    :     -1.29618      -0.37465       0.51244
                        -----------------------------------------
Magnitude (a.u.)       :      1.44328
Magnitude (Debye)      :      3.66852

                             ****ORCA TERMINATED NORMALLY****
TOTAL RUN TIME: 0 days 0 hours 18 minutes 4 seconds 359 msec
