                         Program Version 3.0.3 - RELEASE   -
|  1> ! RI-MP2 RIJK def2-TZVP def2-TZVP/C def2-TZVP/JK TIGHTSCF
|  2> % maxcore 2000
|  3> % mp2 density relaxed end
|  4> *xyz 0 1
|  5>  C       -0.1998903462     1.5379064700     0.0565696897
|  6>  C        0.0593202205     0.0202440602     0.0189404834
|  7>  C        0.7674490617    -0.4326315448    -1.2312636204
|  8>  C        2.0468796243    -0.8302632362    -1.2347584054
|  9>  C        2.7400630847    -1.3442955027    -2.4406447706
| 10>  O        3.8515636249    -1.8453620619    -2.3988000575
| 11>  N        2.0182087779    -1.2551492498    -3.6109118247
| 12>  C        0.8860169356    -0.3499362150    -3.7401935661
| 13>  C       -0.0247936056    -0.4790363758    -2.5189890983
| 14>  H        0.7423064810     2.0931268800     0.0250750974
| 15>  H       -0.8121538331     1.8678819394    -0.7886637687
| 16>  H       -0.7275902158     1.8136122588     0.9743599457
| 17>  H        0.6498152677    -0.2675084622     0.8947060562
| 18>  H       -0.9017479369    -0.5069493886     0.0967948674
| 19>  H        2.6438925371    -0.8538571472    -0.3291780819
| 20>  H        2.5580680513    -1.4704238860    -4.4365970779
| 21>  H        1.2186566621     0.6966185807    -3.8339897449
| 22>  H        0.3378933652    -0.6005234325    -4.6532014250
| 23>  H       -0.5739767375    -1.4311325337    -2.5571488191
| 24>  H       -0.7791027290     0.3141050071    -2.5430142495
| 25> *
| 26>
| 27>                          ****END OF INPUT****

CARTESIAN COORDINATES (ANGSTROEM)
---------------------------------
  C     -0.199890    1.537906    0.056570
  C      0.059320    0.020244    0.018940
  C      0.767449   -0.432632   -1.231264
  C      2.046880   -0.830263   -1.234758
  C      2.740063   -1.344296   -2.440645
  O      3.851564   -1.845362   -2.398800
  N      2.018209   -1.255149   -3.610912
  C      0.886017   -0.349936   -3.740194
  C     -0.024794   -0.479036   -2.518989
  H      0.742306    2.093127    0.025075
  H     -0.812154    1.867882   -0.788664
  H     -0.727590    1.813612    0.974360
  H      0.649815   -0.267508    0.894706
  H     -0.901748   -0.506949    0.096795
  H      2.643893   -0.853857   -0.329178
  H      2.558068   -1.470424   -4.436597
  H      1.218657    0.696619   -3.833990
  H      0.337893   -0.600523   -4.653201
  H     -0.573977   -1.431133   -2.557149
  H     -0.779103    0.314105   -2.543014

 Total Charge           Charge          ....    0
 Multiplicity           Mult            ....    1
 Number of Electrons    NEL             ....   68
 Basis Dimension        Dim             ....  345

ORBITAL ENERGIES
----------------

  NO   OCC          E(Eh)            E(eV)
   0   2.0000     -20.506840      -558.0195
   1   2.0000     -15.572588      -423.7517
   2   2.0000     -11.339557      -308.5650
   3   2.0000     -11.278005      -306.8901
   4   2.0000     -11.265530      -306.5507
   5   2.0000     -11.248143      -306.0775
   6   2.0000     -11.244056      -305.9663
   7   2.0000     -11.231677      -305.6295
   8   2.0000     -11.228082      -305.5316
   9   2.0000      -1.369618       -37.2692
  10   2.0000      -1.232407       -33.5355
  11   2.0000      -1.120665       -30.4948
  12   2.0000      -1.029049       -28.0018
  13   2.0000      -1.012851       -27.5611
  14   2.0000      -0.895118       -24.3574
  15   2.0000      -0.873971       -23.7820
  16   2.0000      -0.799483       -21.7550
  17   2.0000      -0.729472       -19.8499
  18   2.0000      -0.688022       -18.7220
  19   2.0000      -0.668768       -18.1981
  20   2.0000      -0.634955       -17.2780
  21   2.0000      -0.622632       -16.9427
  22   2.0000      -0.610996       -16.6260
  23   2.0000      -0.582320       -15.8457
  24   2.0000      -0.569993       -15.5103
  25   2.0000      -0.551420       -15.0049
  26   2.0000      -0.540186       -14.6992
  27   2.0000      -0.534039       -14.5319
  28   2.0000      -0.517966       -14.0946
  29   2.0000      -0.502130       -13.6637
  30   2.0000      -0.482103       -13.1187
  31   2.0000      -0.415782       -11.3140
  32   2.0000      -0.387278       -10.5384
  33   2.0000      -0.364518        -9.9190
  34   0.0000       0.106518         2.8985
  35   0.0000       0.125182         3.4064
  36   0.0000       0.146469         3.9856
  37   0.0000       0.158449         4.3116
  38   0.0000       0.166323         4.5259

MULLIKEN ATOMIC CHARGES
-----------------------
   0 C :   -0.395620
   1 C :   -0.228436
   2 C :    0.080745
   3 C :   -0.232812
   4 C :    0.238333
   5 O :   -0.352463
   6 N :   -0.298416
   7 C :   -0.123293
   8 C :   -0.204900
   9 H :    0.136547
  10 H :    0.121360
  11 H :    0.137204
  12 H :    0.128574
  13 H :    0.121553
  14 H :    0.133671
  15 H :    0.234576
  16 H :    0.112438
  17 H :    0.132345
  18 H :    0.126951
  19 H :    0.131643
Sum of atomic charges:   -0.0000000

LOEWDIN ATOMIC CHARGES
----------------------
   0 C :   -0.306915
   1 C :   -0.247340
   2 C :   -0.147953
   3 C :   -0.106020
   4 C :   -0.445277
   5 O :    0.080916
   6 N :    0.098467
   7 C :   -0.273041
   8 C :   -0.217233
   9 H :    0.124346
  10 H :    0.118427
  11 H :    0.123258
  12 H :    0.145532
  13 H :    0.145973
  14 H :    0.156077
  15 H :    0.186569
  16 H :    0.129788
  17 H :    0.134316
  18 H :    0.152910
  19 H :    0.147201

  Mayer bond orders larger than 0.1
B(  0-C ,  1-C ) :   0.9117 B(  0-C ,  9-H ) :   0.9373 B(  0-C , 10-H ) :   0.9373
B(  0-C , 11-H ) :   0.9357 B(  1-C ,  2-C ) :   0.8856 B(  1-C , 12-H ) :   0.9432
B(  1-C , 13-H ) :   0.9268 B(  2-C ,  3-C ) :   1.6472 B(  2-C ,  8-C ) :   0.9217
B(  3-C ,  4-C ) :   0.9919 B(  3-C , 14-H ) :   0.9405 B(  4-C ,  5-O ) :   1.9570
B(  4-C ,  6-N ) :   1.1529 B(  6-N ,  7-C ) :   0.8957 B(  6-N , 15-H ) :   0.8622
B(  7-C ,  8-C ) :   0.9548 B(  7-C , 16-H ) :   0.9292 B(  7-C , 17-H ) :   0.9290
B(  8-C , 18-H ) :   0.8931 B(  8-C , 19-H ) :   0.9346

MP2 TOTAL ENERGY:     -402.509002573 Eh
FINAL SINGLE POINT ENERGY      -402.509002573128

DIPOLE MOMENT
-------------
                                X             Y             Z
Electronic contribution:      8.27610      -6.28533      -3.86758
Nuclear contribution   :     -9.85983       7.13529       3.63485
                        -----------------------------------------
Total Dipole Moment    :     -1.58373       0.84996      -0.23272
                        -----------------------------------------
Magnitude (a.u.)       :      1.81240
Magnitude (Debye)      :      4.60675

                             ****ORCA TERMINATED NORMALLY****
TOTAL RUN TIME: 0 days 0 hours 19 minutes 11 seconds 343 msec
