                         Program Version 3.0.3 - RELEASE   -
|  1> ! RI-MP2 RIJK def2-TZVP def2-TZVP/C def2-TZVP/JK TIGHTSCF
|  2> % maxcore 2000
|  3> % mp2 density relaxed end
|  4> *xyz 0 1
|  5>  O       -0.0652251665     0.0146173296     0.0033496378
|  6>  N       -0.0085842333     1.2381542108     0.0069168994
|  7>  O        0.9927999988     1.9269111002     0.0027269074
|  8>  C       -1.3000250888     1.9076551558     0.0173019047
|  9>  N       -1.4153037940     3.2053059217     0.0219973115
| 10>  O       -2.7465257520     3.4280142566     0.0313180473
| 11>  N       -3.4691591773     2.2535504256     0.0323486500
| 12>  C       -2.5804233755     1.3013829676     0.0236860248
| 13>  H       -2.8447573714     0.2570160522     0.0221774470
| 14> *
| 15>
| 16>                          ****END OF INPUT****

CARTESIAN COORDINATES (ANGSTROEM)
---------------------------------
  O     -0.065225    0.014617    0.003350
  N     -0.008584    1.238154    0.006917
  O      0.992800    1.926911    0.002727
  C     -1.300025    1.907655    0.017302
  N     -1.415304    3.205306    0.021997
  O     -2.746526    3.428014    0.031318
  N     -3.469159    2.253550    0.032349
  C     -2.580423    1.301383    0.023686
  H     -2.844757    0.257016    0.022177

 Total Charge           Charge          ....    0
 Multiplicity           Mult            ....    1
 Number of Electrons    NEL             ....   58
 Basis Dimension        Dim             ....  254

ORBITAL ENERGIES
----------------

  NO   OCC          E(Eh)            E(eV)
   0   2.0000     -20.736043      -564.2564
   1   2.0000     -20.643623      -561.7415
   2   2.0000     -20.640644      -561.6605
   3   2.0000     -15.898366      -432.6165
   4   2.0000     -15.722782      -427.8387
   5   2.0000     -15.702773      -427.2942
   6   2.0000     -11.385017      -309.8021
   7   2.0000     -11.345189      -308.7183
   8   2.0000      -1.650532       -44.9133
   9   2.0000      -1.600855       -43.5615
  10   2.0000      -1.444690       -39.3120
  11   2.0000      -1.272666       -34.6310
  12   2.0000      -1.240534       -33.7567
  13   2.0000      -1.058969       -28.8160
  14   2.0000      -0.922479       -25.1019
  15   2.0000      -0.872004       -23.7284
  16   2.0000      -0.824484       -22.4354
  17   2.0000      -0.772640       -21.0246
  18   2.0000      -0.764814       -20.8116
  19   2.0000      -0.744731       -20.2652
  20   2.0000      -0.729635       -19.8544
  21   2.0000      -0.649056       -17.6617
  22   2.0000      -0.586750       -15.9663
  23   2.0000      -0.552717       -15.0402
  24   2.0000      -0.539257       -14.6739
  25   2.0000      -0.527279       -14.3480
  26   2.0000      -0.495851       -13.4928
  27   2.0000      -0.489767       -13.3272
  28   2.0000      -0.475702       -12.9445
  29   0.0000       0.011073         0.3013
  30   0.0000       0.071098         1.9347
  31   0.0000       0.144028         3.9192
  32   0.0000       0.173816         4.7298
  33   0.0000       0.194467         5.2917

MULLIKEN ATOMIC CHARGES
-----------------------
   0 O :   -0.279109
   1 N :    0.409967
   2 O :   -0.246030
   3 C :    0.116707
   4 N :   -0.062040
   5 O :    0.024187
   6 N :   -0.067182
   7 C :   -0.093101
   8 H :    0.196601
Sum of atomic charges:   -0.0000000

LOEWDIN ATOMIC CHARGES
----------------------
   0 O :    0.021989
   1 N :   -0.062481
   2 O :    0.050185
   3 C :   -0.306287
   4 N :    0.069677
   5 O :    0.237148
   6 N :    0.060515
   7 C :   -0.229942
   8 H :    0.159196

  Mayer bond orders larger than 0.1
B(  0-O ,  1-N ) :   1.4586 B(  0-O ,  2-O ) :   0.1946 B(  1-N ,  2-O ) :   1.4838
B(  1-N ,  3-C ) :   0.9016 B(  3-C ,  4-N ) :   1.5460 B(  3-C ,  7-C ) :   1.2332
B(  4-N ,  5-O ) :   0.9597 B(  4-N ,  6-N ) :   0.1284 B(  5-O ,  6-N ) :   0.9436
B(  6-N ,  7-C ) :   1.5609 B(  7-C ,  8-H ) :   0.8976

MP2 TOTAL ENERGY:     -465.801177158 Eh
FINAL SINGLE POINT ENERGY      -465.801177158382

DIPOLE MOMENT
-------------
                                X             Y             Z
Electronic contribution:      0.78841       1.01107      -0.00195
Nuclear contribution   :     -1.44521      -1.54015       0.00458
                        -----------------------------------------
Total Dipole Moment    :     -0.65679      -0.52908       0.00263
                        -----------------------------------------
Magnitude (a.u.)       :      0.84339
Magnitude (Debye)      :      2.14373

                             ****ORCA TERMINATED NORMALLY****
TOTAL RUN TIME: 0 days 0 hours 7 minutes 49 seconds 620 msec
