                         Program Version 3.0.3 - RELEASE   -
|  1> ! RI-MP2 RIJK def2-TZVP def2-TZVP/C def2-TZVP/JK TIGHTSCF
|  2> % maxcore 2000
|  3> % mp2 density relaxed end
|  4> *xyz 0 1
|  5>  C       -0.0183575030     1.4846660387     0.0102033388
|  6>  C        0.0017148817     0.0353965868     0.0021180142
|  7>  C        0.0183367781    -1.1781979740    -0.0045576346
|  8>  C        0.0368727406    -2.5261922296    -0.0119214606
|  9>  C        0.0535349751    -3.7485606173    -0.0186035823
| 10>  C        0.0716171033    -5.0899556453    -0.0258949326
| 11>  C        0.0879451361    -6.3117358492    -0.0325558152
| 12>  C        0.1059479415    -7.6616984680    -0.0399144924
| 13>  C        0.1220130096    -8.8721966851    -0.0466102444
| 14>  H        0.9985523304     1.8931618816     0.0027233757
| 15>  H       -0.5434562236     1.8766893241    -0.8682159840
| 16>  H       -0.5265520567     1.8669878051     0.9027201874
| 17>  H        0.1358567467    -9.9339377177    -0.0528922000
| 18> *
| 19>
| 20>                          ****END OF INPUT****

CARTESIAN COORDINATES (ANGSTROEM)
---------------------------------
  C     -0.018358    1.484666    0.010203
  C      0.001715    0.035397    0.002118
  C      0.018337   -1.178198   -0.004558
  C      0.036873   -2.526192   -0.011921
  C      0.053535   -3.748561   -0.018604
  C      0.071617   -5.089956   -0.025895
  C      0.087945   -6.311736   -0.032556
  C      0.105948   -7.661698   -0.039914
  C      0.122013   -8.872197   -0.046610
  H      0.998552    1.893162    0.002723
  H     -0.543456    1.876689   -0.868216
  H     -0.526552    1.866988    0.902720
  H      0.135857   -9.933938   -0.052892

 Total Charge           Charge          ....    0
 Multiplicity           Mult            ....    1
 Number of Electrons    NEL             ....   58
 Basis Dimension        Dim             ....  303

ORBITAL ENERGIES
----------------

  NO   OCC          E(Eh)            E(eV)
   0   2.0000     -11.279896      -306.9416
   1   2.0000     -11.279169      -306.9218
   2   2.0000     -11.275777      -306.8295
   3   2.0000     -11.271059      -306.7011
   4   2.0000     -11.270476      -306.6852
   5   2.0000     -11.268460      -306.6304
   6   2.0000     -11.267487      -306.6039
   7   2.0000     -11.262575      -306.4702
   8   2.0000     -11.254919      -306.2619
   9   2.0000      -1.121411       -30.5152
  10   2.0000      -1.098704       -29.8973
  11   2.0000      -1.067452       -29.0468
  12   2.0000      -1.026394       -27.9296
  13   2.0000      -0.980578       -26.6829
  14   2.0000      -0.895875       -24.3780
  15   2.0000      -0.830608       -22.6020
  16   2.0000      -0.775903       -21.1134
  17   2.0000      -0.719404       -19.5760
  18   2.0000      -0.654001       -17.7963
  19   2.0000      -0.608912       -16.5693
  20   2.0000      -0.608908       -16.5692
  21   2.0000      -0.530217       -14.4279
  22   2.0000      -0.530217       -14.4279
  23   2.0000      -0.479857       -13.0576
  24   2.0000      -0.479857       -13.0576
  25   2.0000      -0.406436       -11.0597
  26   2.0000      -0.406436       -11.0597
  27   2.0000      -0.321381        -8.7452
  28   2.0000      -0.321381        -8.7452
  29   0.0000       0.050303         1.3688
  30   0.0000       0.050303         1.3688
  31   0.0000       0.119041         3.2393
  32   0.0000       0.142554         3.8791
  33   0.0000       0.159572         4.3422

MULLIKEN ATOMIC CHARGES
-----------------------
   0 C :   -0.455981
   1 C :    0.028683
   2 C :   -0.004919
   3 C :   -0.020859
   4 C :   -0.058628
   5 C :   -0.076310
   6 C :   -0.025068
   7 C :    0.042615
   8 C :   -0.146224
   9 H :    0.172283
  10 H :    0.172285
  11 H :    0.172286
  12 H :    0.199836
Sum of atomic charges:   -0.0000000

LOEWDIN ATOMIC CHARGES
----------------------
   0 C :   -0.285877
   1 C :   -0.034488
   2 C :   -0.069421
   3 C :   -0.009334
   4 C :   -0.021545
   5 C :   -0.017188
   6 C :   -0.010339
   7 C :   -0.095919
   8 C :   -0.029897
   9 H :    0.147311
  10 H :    0.147311
  11 H :    0.147313
  12 H :    0.132072

  Mayer bond orders larger than 0.1
B(  0-C ,  1-C ) :   0.8035 B(  0-C ,  9-H ) :   0.9424 B(  0-C , 10-H ) :   0.9424
B(  0-C , 11-H ) :   0.9424 B(  1-C ,  2-C ) :   2.5104 B(  2-C ,  3-C ) :   1.3161
B(  2-C ,  5-C ) :   0.1058 B(  3-C ,  4-C ) :   2.4322 B(  4-C ,  5-C ) :   1.3025
B(  4-C ,  7-C ) :   0.1121 B(  5-C ,  6-C ) :   2.4654 B(  5-C ,  8-C ) :   0.1004
B(  6-C ,  7-C ) :   1.3108 B(  7-C ,  8-C ) :   2.5193 B(  8-C , 12-H ) :   0.8727

MP2 TOTAL ENERGY:     -344.373619655 Eh
FINAL SINGLE POINT ENERGY      -344.373619655421

DIPOLE MOMENT
-------------
                                X             Y             Z
Electronic contribution:      0.12498      -9.05777      -0.04971
Nuclear contribution   :     -0.13455       9.72777       0.05326
                        -----------------------------------------
Total Dipole Moment    :     -0.00957       0.67000       0.00355
                        -----------------------------------------
Magnitude (a.u.)       :      0.67008
Magnitude (Debye)      :      1.70320

                             ****ORCA TERMINATED NORMALLY****
TOTAL RUN TIME: 0 days 0 hours 6 minutes 49 seconds 6 msec
