                         Program Version 3.0.3 - RELEASE   -
|  1> ! RI-MP2 RIJK def2-TZVP def2-TZVP/C def2-TZVP/JK TIGHTSCF
|  2> % maxcore 2000
|  3> % mp2 density relaxed end
|  4> *xyz 0 1
|  5>  C       -0.1291509186     1.5603492136    -0.1933760845
|  6>  C        0.0277585158     0.0472094877    -0.1230179327
|  7>  C        1.2059064174    -0.6999322572    -0.8261232723
|  8>  C        2.4556616515    -0.1156838861    -0.1522160631
|  9>  N        2.0291074952    -0.7282200787     1.1497812910
| 10>  C        1.1993112604    -1.7090109989     0.3874265718
| 11>  C        0.5101427765    -0.6477855776     1.1543260010
| 12>  C       -0.1059996011    -0.6638329329     2.5182141346
| 13>  O        0.1315571947     0.5545584347     3.2079569437
| 14>  H        0.7812775226     2.0901003666     0.0984686770
| 15>  H       -0.3981248489     1.8806598914    -1.2061133331
| 16>  H       -0.9220158330     1.8889906611     0.4857880274
| 17>  H       -0.9090246254    -0.4375169263    -0.4235170039
| 18>  H        1.1641372932    -0.9349491342    -1.8884045611
| 19>  H        3.3789045373    -0.6075804637    -0.4697826588
| 20>  H        2.6043838266     0.9692413178    -0.1439857757
| 21>  H        1.2662692138    -2.7839844448     0.4951481538
| 22>  H       -1.1939530208    -0.7687737924     2.4451291458
| 23>  H        0.2769902262    -1.5278439840     3.0823830952
| 24>  H        1.0895904266     0.6662816439     3.2179198240
| 25> *
| 26>
| 27>                          ****END OF INPUT****

CARTESIAN COORDINATES (ANGSTROEM)
---------------------------------
  C     -0.129151    1.560349   -0.193376
  C      0.027759    0.047209   -0.123018
  C      1.205906   -0.699932   -0.826123
  C      2.455662   -0.115684   -0.152216
  N      2.029107   -0.728220    1.149781
  C      1.199311   -1.709011    0.387427
  C      0.510143   -0.647786    1.154326
  C     -0.106000   -0.663833    2.518214
  O      0.131557    0.554558    3.207957
  H      0.781278    2.090100    0.098469
  H     -0.398125    1.880660   -1.206113
  H     -0.922016    1.888991    0.485788
  H     -0.909025   -0.437517   -0.423517
  H      1.164137   -0.934949   -1.888405
  H      3.378905   -0.607580   -0.469783
  H      2.604384    0.969241   -0.143986
  H      1.266269   -2.783984    0.495148
  H     -1.193953   -0.768774    2.445129
  H      0.276990   -1.527844    3.082383
  H      1.089590    0.666282    3.217920

 Total Charge           Charge          ....    0
 Multiplicity           Mult            ....    1
 Number of Electrons    NEL             ....   68
 Basis Dimension        Dim             ....  345

ORBITAL ENERGIES
----------------

  NO   OCC          E(Eh)            E(eV)
   0   2.0000     -20.549929      -559.1920
   1   2.0000     -15.564735      -423.5380
   2   2.0000     -11.277112      -306.8658
   3   2.0000     -11.266815      -306.5856
   4   2.0000     -11.263638      -306.4992
   5   2.0000     -11.256270      -306.2987
   6   2.0000     -11.247267      -306.0537
   7   2.0000     -11.241033      -305.8841
   8   2.0000     -11.214589      -305.1645
   9   2.0000      -1.357092       -36.9283
  10   2.0000      -1.315138       -35.7867
  11   2.0000      -1.056959       -28.7613
  12   2.0000      -1.014238       -27.5988
  13   2.0000      -0.949392       -25.8343
  14   2.0000      -0.923352       -25.1257
  15   2.0000      -0.839787       -22.8518
  16   2.0000      -0.751835       -20.4585
  17   2.0000      -0.735776       -20.0215
  18   2.0000      -0.706322       -19.2200
  19   2.0000      -0.656305       -17.8590
  20   2.0000      -0.640735       -17.4353
  21   2.0000      -0.619243       -16.8505
  22   2.0000      -0.597572       -16.2607
  23   2.0000      -0.577806       -15.7229
  24   2.0000      -0.567343       -15.4382
  25   2.0000      -0.549308       -14.9474
  26   2.0000      -0.515639       -14.0313
  27   2.0000      -0.497843       -13.5470
  28   2.0000      -0.479116       -13.0374
  29   2.0000      -0.462302       -12.5799
  30   2.0000      -0.432231       -11.7616
  31   2.0000      -0.428368       -11.6565
  32   2.0000      -0.411849       -11.2070
  33   2.0000      -0.375266       -10.2115
  34   0.0000       0.139374         3.7926
  35   0.0000       0.151935         4.1344
  36   0.0000       0.160231         4.3601
  37   0.0000       0.167581         4.5601
  38   0.0000       0.187815         5.1107

MULLIKEN ATOMIC CHARGES
-----------------------
   0 C :   -0.413498
   1 C :    0.007025
   2 C :   -0.079774
   3 C :   -0.137096
   4 N :   -0.271700
   5 C :   -0.128216
   6 C :   -0.060567
   7 C :   -0.004832
   8 O :   -0.474287
   9 H :    0.121923
  10 H :    0.130653
  11 H :    0.144218
  12 H :    0.105422
  13 H :    0.136352
  14 H :    0.123958
  15 H :    0.109902
  16 H :    0.147690
  17 H :    0.106410
  18 H :    0.111804
  19 H :    0.324613
Sum of atomic charges:   -0.0000000

LOEWDIN ATOMIC CHARGES
----------------------
   0 C :   -0.292541
   1 C :   -0.203868
   2 C :   -0.159910
   3 C :   -0.234452
   4 N :    0.128204
   5 C :   -0.141435
   6 C :   -0.238052
   7 C :   -0.309298
   8 O :   -0.045852
   9 H :    0.122560
  10 H :    0.124545
  11 H :    0.131655
  12 H :    0.161724
  13 H :    0.131161
  14 H :    0.133884
  15 H :    0.117647
  16 H :    0.131883
  17 H :    0.134997
  18 H :    0.128371
  19 H :    0.178778

  Mayer bond orders larger than 0.1
B(  0-C ,  1-C ) :   0.8945 B(  0-C ,  9-H ) :   0.9378 B(  0-C , 10-H ) :   0.9355
B(  0-C , 11-H ) :   0.9313 B(  1-C ,  2-C ) :   0.9233 B(  1-C ,  6-C ) :   0.8858
B(  1-C , 12-H ) :   0.9194 B(  2-C ,  3-C ) :   0.9213 B(  2-C ,  5-C ) :   0.9251
B(  2-C , 13-H ) :   0.9097 B(  3-C ,  4-N ) :   0.9027 B(  3-C , 14-H ) :   0.9319
B(  3-C , 15-H ) :   0.9240 B(  4-N ,  5-C ) :   0.9226 B(  4-N ,  6-C ) :   0.8004
B(  5-C ,  6-C ) :   0.8253 B(  5-C , 16-H ) :   0.8918 B(  6-C ,  7-C ) :   0.9581
B(  7-C ,  8-O ) :   0.9106 B(  7-C , 17-H ) :   0.9179 B(  7-C , 18-H ) :   0.9295
B(  8-O , 19-H ) :   0.8356

MP2 TOTAL ENERGY:     -402.395446228 Eh
FINAL SINGLE POINT ENERGY      -402.395446228317

DIPOLE MOMENT
-------------
                                X             Y             Z
Electronic contribution:      1.54639      -3.03716       2.48078
Nuclear contribution   :     -1.52938       2.69678      -3.39316
                        -----------------------------------------
Total Dipole Moment    :      0.01702      -0.34038      -0.91238
                        -----------------------------------------
Magnitude (a.u.)       :      0.97396
Magnitude (Debye)      :      2.47560

                             ****ORCA TERMINATED NORMALLY****
TOTAL RUN TIME: 0 days 0 hours 19 minutes 46 seconds 353 msec
