                         Program Version 3.0.3 - RELEASE   -
|  1> ! RI-MP2 RIJK def2-TZVP def2-TZVP/C def2-TZVP/JK TIGHTSCF
|  2> % maxcore 2000
|  3> % mp2 density relaxed end
|  4> *xyz 0 1
|  5>  C        0.2582228094     0.9717239783     0.2546987227
|  6>  O       -0.1520031640    -0.1011343205    -0.5830527724
|  7>  C       -1.3939691700    -0.6144477046    -0.2303694472
|  8>  C       -1.7110142736    -1.9890928507    -0.7221122659
|  9>  C       -1.4876451148    -1.7568065638     0.7606773476
| 10>  C       -0.2254685265    -2.2962566075     1.4099981549
| 11>  O        0.1685775652    -1.5230936535     2.5475064730
| 12>  C       -0.3717006423    -3.7123805212     1.7634083276
| 13>  C       -0.5227961461    -4.8597956329     2.0893315266
| 14>  H        1.2299904665     1.3071562953    -0.1143907386
| 15>  H       -0.4516282584     1.8106115150     0.1970172893
| 16>  H        0.3492020906     0.6476247204     1.2978775106
| 17>  H       -2.1955516663     0.1260537247    -0.2080315572
| 18>  H       -2.7114196129    -2.2085093586    -1.0762659540
| 19>  H       -0.9181838453    -2.4971503624    -1.2612226320
| 20>  H       -2.3652875992    -1.7877645798     1.4017640476
| 21>  H        0.5998465691    -2.1796721497     0.6998588290
| 22>  H       -0.4534467391    -1.7154598813     3.2580789163
| 23>  H       -0.6376221423    -5.8786014673     2.3665328523
| 24> *
| 25>
| 26>                          ****END OF INPUT****

CARTESIAN COORDINATES (ANGSTROEM)
---------------------------------
  C      0.258223    0.971724    0.254699
  O     -0.152003   -0.101134   -0.583053
  C     -1.393969   -0.614448   -0.230369
  C     -1.711014   -1.989093   -0.722112
  C     -1.487645   -1.756807    0.760677
  C     -0.225469   -2.296257    1.409998
  O      0.168578   -1.523094    2.547506
  C     -0.371701   -3.712381    1.763408
  C     -0.522796   -4.859796    2.089332
  H      1.229990    1.307156   -0.114391
  H     -0.451628    1.810612    0.197017
  H      0.349202    0.647625    1.297878
  H     -2.195552    0.126054   -0.208032
  H     -2.711420   -2.208509   -1.076266
  H     -0.918184   -2.497150   -1.261223
  H     -2.365288   -1.787765    1.401764
  H      0.599847   -2.179672    0.699859
  H     -0.453447   -1.715460    3.258079
  H     -0.637622   -5.878601    2.366533

 Total Charge           Charge          ....    0
 Multiplicity           Mult            ....    1
 Number of Electrons    NEL             ....   68
 Basis Dimension        Dim             ....  339

ORBITAL ENERGIES
----------------

  NO   OCC          E(Eh)            E(eV)
   0   2.0000     -20.566142      -559.6332
   1   2.0000     -20.561848      -559.5163
   2   2.0000     -11.313211      -307.8481
   3   2.0000     -11.287139      -307.1387
   4   2.0000     -11.265538      -306.5509
   5   2.0000     -11.240330      -305.8649
   6   2.0000     -11.237620      -305.7912
   7   2.0000     -11.231183      -305.6160
   8   2.0000     -11.230789      -305.6053
   9   2.0000      -1.385132       -37.6914
  10   2.0000      -1.371163       -37.3112
  11   2.0000      -1.146257       -31.1912
  12   2.0000      -1.049770       -28.5657
  13   2.0000      -0.961191       -26.1553
  14   2.0000      -0.925285       -25.1783
  15   2.0000      -0.826874       -22.5004
  16   2.0000      -0.796850       -21.6834
  17   2.0000      -0.753302       -20.4984
  18   2.0000      -0.703625       -19.1466
  19   2.0000      -0.693779       -18.8787
  20   2.0000      -0.668444       -18.1893
  21   2.0000      -0.628178       -17.0936
  22   2.0000      -0.622656       -16.9433
  23   2.0000      -0.599756       -16.3202
  24   2.0000      -0.591691       -16.1007
  25   2.0000      -0.550876       -14.9901
  26   2.0000      -0.534782       -14.5521
  27   2.0000      -0.506492       -13.7823
  28   2.0000      -0.477019       -12.9804
  29   2.0000      -0.466478       -12.6935
  30   2.0000      -0.423783       -11.5317
  31   2.0000      -0.410448       -11.1688
  32   2.0000      -0.397480       -10.8160
  33   2.0000      -0.380631       -10.3575
  34   0.0000       0.131687         3.5834
  35   0.0000       0.157825         4.2946
  36   0.0000       0.159636         4.3439
  37   0.0000       0.167407         4.5554
  38   0.0000       0.169012         4.5991

MULLIKEN ATOMIC CHARGES
-----------------------
   0 C :   -0.230214
   1 O :   -0.310615
   2 C :    0.060141
   3 C :   -0.275220
   4 C :   -0.108587
   5 C :   -0.022182
   6 O :   -0.466793
   7 C :   -0.069028
   8 C :   -0.125143
   9 H :    0.136607
  10 H :    0.109904
  11 H :    0.146526
  12 H :    0.104225
  13 H :    0.135327
  14 H :    0.140836
  15 H :    0.119301
  16 H :    0.143618
  17 H :    0.317474
  18 H :    0.193823
Sum of atomic charges:    0.0000000

LOEWDIN ATOMIC CHARGES
----------------------
   0 C :   -0.341499
   1 O :    0.166483
   2 C :   -0.301950
   3 C :   -0.193153
   4 C :   -0.191002
   5 C :   -0.318550
   6 O :   -0.007934
   7 C :   -0.087229
   8 C :   -0.089647
   9 H :    0.112919
  10 H :    0.101914
  11 H :    0.109623
  12 H :    0.134508
  13 H :    0.134666
  14 H :    0.145825
  15 H :    0.149045
  16 H :    0.170852
  17 H :    0.177291
  18 H :    0.127837

  Mayer bond orders larger than 0.1
B(  0-C ,  1-O ) :   0.8785 B(  0-C ,  9-H ) :   0.9395 B(  0-C , 10-H ) :   0.9353
B(  0-C , 11-H ) :   0.9306 B(  1-O ,  2-C ) :   0.9952 B(  2-C ,  3-C ) :   0.8959
B(  2-C ,  4-C ) :   0.8716 B(  2-C , 12-H ) :   0.9359 B(  3-C ,  4-C ) :   0.8867
B(  3-C , 13-H ) :   0.9193 B(  3-C , 14-H ) :   0.9141 B(  4-C ,  5-C ) :   0.9036
B(  4-C , 15-H ) :   0.8980 B(  5-C ,  6-O ) :   0.8498 B(  5-C ,  7-C ) :   1.1631
B(  5-C , 16-H ) :   0.9227 B(  6-O , 17-H ) :   0.8396 B(  7-C ,  8-C ) :   2.5682
B(  8-C , 18-H ) :   0.8946

MP2 TOTAL ENERGY:     -422.241558971 Eh
FINAL SINGLE POINT ENERGY      -422.241558970867

DIPOLE MOMENT
-------------
                                X             Y             Z
Electronic contribution:      0.93090      -4.03869       1.71686
Nuclear contribution   :     -1.65124       4.00946      -1.42540
                        -----------------------------------------
Total Dipole Moment    :     -0.72034      -0.02923       0.29146
                        -----------------------------------------
Magnitude (a.u.)       :      0.77762
Magnitude (Debye)      :      1.97656

                             ****ORCA TERMINATED NORMALLY****
TOTAL RUN TIME: 0 days 0 hours 27 minutes 42 seconds 753 msec
