                         Program Version 3.0.3 - RELEASE   -
|  1> ! RI-MP2 RIJK def2-TZVP def2-TZVP/C def2-TZVP/JK TIGHTSCF
|  2> % maxcore 2000
|  3> % mp2 density relaxed end
|  4> *xyz 0 1
|  5>  C        0.1558497935     1.5214718526    -0.3327711199
|  6>  C       -0.0501619436     0.0509829005    -0.0344475576
|  7>  C        1.0412540797    -0.9087860185    -0.3351866298
|  8>  N        0.7021749461    -0.5717729845     1.0642415845
|  9>  C       -1.5061748874    -0.4231453466    -0.1427601450
| 10>  O       -1.6035210630    -1.8411848167    -0.0406818877
| 11>  C       -2.2596573566    -2.2070634394     1.1719443872
| 12>  C       -2.7947394447    -0.9166622416     1.7245082820
| 13>  C       -2.3844808167     0.0948941477     0.9706199472
| 14>  H        1.2198087267     1.7781904741    -0.3148449103
| 15>  H       -0.2328569753     1.7841398921    -1.3234038766
| 16>  H       -0.3540824087     2.1554428071     0.4018384286
| 17>  H        0.7921187821    -1.9249365603    -0.6192993248
| 18>  H        1.9620153167    -0.5145902903    -0.7590835684
| 19>  H        1.3807847077     0.0884270639     1.4367605375
| 20>  H       -1.8789627639    -0.1251767054    -1.1365845367
| 21>  H       -3.0500975523    -2.9364346328     0.9419807835
| 22>  H       -1.5501847569    -2.6857535648     1.8634351594
| 23>  H       -3.4074848098    -0.8612908770     2.6153090859
| 24>  H       -2.5976164536     1.1453778301     1.1189674610
| 25> *
| 26>
| 27>                          ****END OF INPUT****

CARTESIAN COORDINATES (ANGSTROEM)
---------------------------------
  C      0.155850    1.521472   -0.332771
  C     -0.050162    0.050983   -0.034448
  C      1.041254   -0.908786   -0.335187
  N      0.702175   -0.571773    1.064242
  C     -1.506175   -0.423145   -0.142760
  O     -1.603521   -1.841185   -0.040682
  C     -2.259657   -2.207063    1.171944
  C     -2.794739   -0.916662    1.724508
  C     -2.384481    0.094894    0.970620
  H      1.219809    1.778190   -0.314845
  H     -0.232857    1.784140   -1.323404
  H     -0.354082    2.155443    0.401838
  H      0.792119   -1.924937   -0.619299
  H      1.962015   -0.514590   -0.759084
  H      1.380785    0.088427    1.436761
  H     -1.878963   -0.125177   -1.136585
  H     -3.050098   -2.936435    0.941981
  H     -1.550185   -2.685754    1.863435
  H     -3.407485   -0.861291    2.615309
  H     -2.597616    1.145378    1.118967

 Total Charge           Charge          ....    0
 Multiplicity           Mult            ....    1
 Number of Electrons    NEL             ....   68
 Basis Dimension        Dim             ....  345

ORBITAL ENERGIES
----------------

  NO   OCC          E(Eh)            E(eV)
   0   2.0000     -20.544829      -559.0532
   1   2.0000     -15.548488      -423.0959
   2   2.0000     -11.281586      -306.9876
   3   2.0000     -11.270596      -306.6885
   4   2.0000     -11.260905      -306.4248
   5   2.0000     -11.243340      -305.9468
   6   2.0000     -11.228758      -305.5500
   7   2.0000     -11.228461      -305.5420
   8   2.0000     -11.225549      -305.4627
   9   2.0000      -1.373613       -37.3779
  10   2.0000      -1.254478       -34.1361
  11   2.0000      -1.068472       -29.0746
  12   2.0000      -1.019349       -27.7379
  13   2.0000      -0.967919       -26.3384
  14   2.0000      -0.879134       -23.9224
  15   2.0000      -0.842299       -22.9201
  16   2.0000      -0.767364       -20.8810
  17   2.0000      -0.747821       -20.3492
  18   2.0000      -0.695242       -18.9185
  19   2.0000      -0.676230       -18.4012
  20   2.0000      -0.646005       -17.5787
  21   2.0000      -0.613242       -16.6872
  22   2.0000      -0.589477       -16.0405
  23   2.0000      -0.570557       -15.5256
  24   2.0000      -0.553755       -15.0684
  25   2.0000      -0.547889       -14.9088
  26   2.0000      -0.527892       -14.3647
  27   2.0000      -0.500238       -13.6122
  28   2.0000      -0.484822       -13.1927
  29   2.0000      -0.465640       -12.6707
  30   2.0000      -0.459180       -12.4949
  31   2.0000      -0.423411       -11.5216
  32   2.0000      -0.380536       -10.3549
  33   2.0000      -0.347268        -9.4496
  34   0.0000       0.133752         3.6396
  35   0.0000       0.155178         4.2226
  36   0.0000       0.168240         4.5780
  37   0.0000       0.171915         4.6780
  38   0.0000       0.176879         4.8131

MULLIKEN ATOMIC CHARGES
-----------------------
   0 C :   -0.434290
   1 C :    0.116889
   2 C :   -0.216862
   3 N :   -0.393757
   4 C :    0.223886
   5 O :   -0.352966
   6 C :    0.033729
   7 C :   -0.191095
   8 C :   -0.254643
   9 H :    0.128595
  10 H :    0.140183
  11 H :    0.139882
  12 H :    0.140265
  13 H :    0.121749
  14 H :    0.210174
  15 H :    0.105872
  16 H :    0.108778
  17 H :    0.104181
  18 H :    0.134326
  19 H :    0.135104
Sum of atomic charges:    0.0000000

LOEWDIN ATOMIC CHARGES
----------------------
   0 C :   -0.274557
   1 C :   -0.321217
   2 C :   -0.243030
   3 N :    0.009079
   4 C :   -0.257473
   5 O :    0.185607
   6 C :   -0.281994
   7 C :   -0.157105
   8 C :   -0.142068
   9 H :    0.128356
  10 H :    0.131669
  11 H :    0.126955
  12 H :    0.130680
  13 H :    0.119255
  14 H :    0.163267
  15 H :    0.148110
  16 H :    0.125341
  17 H :    0.128921
  18 H :    0.139746
  19 H :    0.140459

  Mayer bond orders larger than 0.1
B(  0-C ,  1-C ) :   0.9164 B(  0-C ,  9-H ) :   0.9264 B(  0-C , 10-H ) :   0.9365
B(  0-C , 11-H ) :   0.9344 B(  1-C ,  2-C ) :   0.9331 B(  1-C ,  3-N ) :   0.8938
B(  1-C ,  4-C ) :   0.8682 B(  2-C ,  3-N ) :   0.9486 B(  2-C , 12-H ) :   0.9039
B(  2-C , 13-H ) :   0.9203 B(  3-N , 14-H ) :   0.8693 B(  4-C ,  5-O ) :   0.9295
B(  4-C ,  8-C ) :   0.9177 B(  4-C , 15-H ) :   0.9227 B(  5-O ,  6-C ) :   0.9330
B(  6-C ,  7-C ) :   0.9929 B(  6-C , 16-H ) :   0.9175 B(  6-C , 17-H ) :   0.8979
B(  7-C ,  8-C ) :   1.8274 B(  7-C , 18-H ) :   0.9151 B(  8-C , 19-H ) :   0.9128

MP2 TOTAL ENERGY:     -402.428004715 Eh
FINAL SINGLE POINT ENERGY      -402.428004715417

DIPOLE MOMENT
-------------
                                X             Y             Z
Electronic contribution:     -2.37104      -3.27432       0.60444
Nuclear contribution   :      2.42744       4.03884      -0.55875
                        -----------------------------------------
Total Dipole Moment    :      0.05640       0.76452       0.04569
                        -----------------------------------------
Magnitude (a.u.)       :      0.76796
Magnitude (Debye)      :      1.95200

                             ****ORCA TERMINATED NORMALLY****
TOTAL RUN TIME: 0 days 0 hours 17 minutes 44 seconds 949 msec
