                         Program Version 3.0.3 - RELEASE   -
|  1> ! RI-MP2 RIJK def2-TZVP def2-TZVP/C def2-TZVP/JK TIGHTSCF
|  2> % maxcore 2000
|  3> % mp2 density relaxed end
|  4> *xyz 0 1
|  5>  C       -0.3557879394     1.5568123330     0.0280338057
|  6>  C        0.0492814278     0.0748717242     0.0325204728
|  7>  C        1.0570409415    -0.3053723264    -1.0801741913
|  8>  O        1.6720664731    -1.5105701024    -0.6592024043
|  9>  C        1.5666855752    -1.6386400464     0.7573170086
| 10>  C        0.8650505689    -0.3755625155     1.2799358878
| 11>  O        1.7742703510     0.6731448175     1.5664040589
| 12>  C       -1.1483864393    -0.7697029993    -0.0689180099
| 13>  N       -2.0995573213    -1.4226952609    -0.1390931352
| 14>  H        0.5300459841     2.1790802888     0.1550449495
| 15>  H       -0.8457167016     1.8125602108    -0.9153401694
| 16>  H       -1.0532838556     1.7723999094     0.8412113973
| 17>  H        0.5796770907    -0.4758543806    -2.0485050936
| 18>  H        1.7927568352     0.5050318532    -1.1774905657
| 19>  H        0.9903036444    -2.5415296962     0.9952989449
| 20>  H        2.5664084325    -1.7398977442     1.2001535866
| 21>  H        0.2166940169    -0.5870469786     2.1395480450
| 22>  H        2.3847543858     0.3668669435     2.2438988323
| 23> *
| 24>
| 25>                          ****END OF INPUT****

CARTESIAN COORDINATES (ANGSTROEM)
---------------------------------
  C     -0.355788    1.556812    0.028034
  C      0.049281    0.074872    0.032520
  C      1.057041   -0.305372   -1.080174
  O      1.672066   -1.510570   -0.659202
  C      1.566686   -1.638640    0.757317
  C      0.865051   -0.375563    1.279936
  O      1.774270    0.673145    1.566404
  C     -1.148386   -0.769703   -0.068918
  N     -2.099557   -1.422695   -0.139093
  H      0.530046    2.179080    0.155045
  H     -0.845717    1.812560   -0.915340
  H     -1.053284    1.772400    0.841211
  H      0.579677   -0.475854   -2.048505
  H      1.792757    0.505032   -1.177491
  H      0.990304   -2.541530    0.995299
  H      2.566408   -1.739898    1.200154
  H      0.216694   -0.587047    2.139548
  H      2.384754    0.366867    2.243899

 Total Charge           Charge          ....    0
 Multiplicity           Mult            ....    1
 Number of Electrons    NEL             ....   68
 Basis Dimension        Dim             ....  333

ORBITAL ENERGIES
----------------

  NO   OCC          E(Eh)            E(eV)
   0   2.0000     -20.585834      -560.1690
   1   2.0000     -20.569542      -559.7257
   2   2.0000     -15.572087      -423.7380
   3   2.0000     -11.316253      -307.9309
   4   2.0000     -11.297051      -307.4084
   5   2.0000     -11.295478      -307.3656
   6   2.0000     -11.294014      -307.3257
   7   2.0000     -11.272951      -306.7526
   8   2.0000     -11.242064      -305.9121
   9   2.0000      -1.409149       -38.3449
  10   2.0000      -1.382324       -37.6150
  11   2.0000      -1.222787       -33.2737
  12   2.0000      -1.117244       -30.4018
  13   2.0000      -1.022450       -27.8223
  14   2.0000      -0.953130       -25.9360
  15   2.0000      -0.857837       -23.3429
  16   2.0000      -0.846658       -23.0387
  17   2.0000      -0.754015       -20.5178
  18   2.0000      -0.701413       -19.0864
  19   2.0000      -0.678589       -18.4653
  20   2.0000      -0.660013       -17.9599
  21   2.0000      -0.634706       -17.2712
  22   2.0000      -0.600531       -16.3413
  23   2.0000      -0.581110       -15.8128
  24   2.0000      -0.575788       -15.6680
  25   2.0000      -0.571788       -15.5592
  26   2.0000      -0.561631       -15.2828
  27   2.0000      -0.536499       -14.5989
  28   2.0000      -0.522657       -14.2222
  29   2.0000      -0.500083       -13.6080
  30   2.0000      -0.474409       -12.9093
  31   2.0000      -0.458948       -12.4886
  32   2.0000      -0.447994       -12.1905
  33   2.0000      -0.431269       -11.7354
  34   0.0000       0.114261         3.1092
  35   0.0000       0.141827         3.8593
  36   0.0000       0.159707         4.3459
  37   0.0000       0.166671         4.5353
  38   0.0000       0.188171         5.1204

MULLIKEN ATOMIC CHARGES
-----------------------
   0 C :   -0.406754
   1 C :    0.250115
   2 C :   -0.043642
   3 O :   -0.319385
   4 C :   -0.022781
   5 C :   -0.036872
   6 O :   -0.461419
   7 C :   -0.284949
   8 N :   -0.040021
   9 H :    0.166229
  10 H :    0.150092
  11 H :    0.146260
  12 H :    0.127797
  13 H :    0.110572
  14 H :    0.117571
  15 H :    0.094959
  16 H :    0.127980
  17 H :    0.324246
Sum of atomic charges:    0.0000000

LOEWDIN ATOMIC CHARGES
----------------------
   0 C :   -0.240291
   1 C :   -0.269803
   2 C :   -0.246432
   3 O :    0.155848
   4 C :   -0.280553
   5 C :   -0.295889
   6 O :   -0.000381
   7 C :   -0.147837
   8 N :    0.069638
   9 H :    0.136124
  10 H :    0.134552
  11 H :    0.135501
  12 H :    0.136476
  13 H :    0.131903
  14 H :    0.132196
  15 H :    0.124940
  16 H :    0.144451
  17 H :    0.179557

  Mayer bond orders larger than 0.1
B(  0-C ,  1-C ) :   0.8925 B(  0-C ,  9-H ) :   0.9269 B(  0-C , 10-H ) :   0.9303
B(  0-C , 11-H ) :   0.9290 B(  1-C ,  2-C ) :   0.8985 B(  1-C ,  5-C ) :   0.8187
B(  1-C ,  7-C ) :   0.8981 B(  2-C ,  3-O ) :   0.9685 B(  2-C , 12-H ) :   0.9089
B(  2-C , 13-H ) :   0.9155 B(  3-O ,  4-C ) :   0.9574 B(  4-C ,  5-C ) :   0.9788
B(  4-C , 14-H ) :   0.9155 B(  4-C , 15-H ) :   0.9017 B(  5-C ,  6-O ) :   1.0016
B(  5-C , 16-H ) :   0.9279 B(  6-O , 17-H ) :   0.8388 B(  7-C ,  8-N ) :   2.8844

MP2 TOTAL ENERGY:     -438.387233443 Eh
FINAL SINGLE POINT ENERGY      -438.387233442963

DIPOLE MOMENT
-------------
                                X             Y             Z
Electronic contribution:     -1.86696      -3.74171      -0.60115
Nuclear contribution   :      2.93202       4.49456       1.40549
                        -----------------------------------------
Total Dipole Moment    :      1.06505       0.75285       0.80434
                        -----------------------------------------
Magnitude (a.u.)       :      1.53234
Magnitude (Debye)      :      3.89491

                             ****ORCA TERMINATED NORMALLY****
TOTAL RUN TIME: 0 days 0 hours 18 minutes 18 seconds 107 msec
