                         Program Version 3.0.3 - RELEASE   -
|  1> ! RI-MP2 RIJK def2-TZVP def2-TZVP/C def2-TZVP/JK TIGHTSCF
|  2> % maxcore 2000
|  3> % mp2 density relaxed end
|  4> *xyz 0 1
|  5>  O       -0.1737016807     1.3435379850    -0.5039444218
|  6>  N        0.0033747581    -0.0445118188    -0.3445891722
|  7>  C       -1.0461895818    -0.5995513024     0.1216654952
|  8>  C       -2.3223552505     0.1481998683     0.4601312405
|  9>  C       -3.3966513088    -0.7985767906     0.9986012165
| 10>  C       -2.7879744622    -1.7321728883     2.0829256965
| 11>  C       -2.3148380741    -2.6291403727     0.9038998369
| 12>  C       -3.5058296658    -2.0531195269     0.0864387322
| 13>  C       -0.9883616868    -2.1068709580     0.3429766186
| 14>  H        0.6809404080     1.6150730196    -0.8545831916
| 15>  H       -2.0870611177     0.9354941435     1.1875608339
| 16>  H       -2.6713061486     0.6740870530    -0.4376618318
| 17>  H       -4.3137431354    -0.2566302600     1.2412253306
| 18>  H       -2.0263859710    -1.3160295806     2.7507742837
| 19>  H       -3.5617848010    -2.2214603679     2.6799417578
| 20>  H       -2.2733115908    -3.7092175015     1.0625932001
| 21>  H       -4.4291338906    -2.6092410134     0.2676882871
| 22>  H       -3.3721250544    -1.9177004878    -0.9919861572
| 23>  H       -0.7542204165    -2.6047225339    -0.6053420397
| 24>  H       -0.1663517192    -2.3421617363     1.0292089947
| 25> *
| 26>
| 27>                          ****END OF INPUT****

CARTESIAN COORDINATES (ANGSTROEM)
---------------------------------
  O     -0.173702    1.343538   -0.503944
  N      0.003375   -0.044512   -0.344589
  C     -1.046190   -0.599551    0.121665
  C     -2.322355    0.148200    0.460131
  C     -3.396651   -0.798577    0.998601
  C     -2.787974   -1.732173    2.082926
  C     -2.314838   -2.629140    0.903900
  C     -3.505830   -2.053120    0.086439
  C     -0.988362   -2.106871    0.342977
  H      0.680940    1.615073   -0.854583
  H     -2.087061    0.935494    1.187561
  H     -2.671306    0.674087   -0.437662
  H     -4.313743   -0.256630    1.241225
  H     -2.026386   -1.316030    2.750774
  H     -3.561785   -2.221460    2.679942
  H     -2.273312   -3.709218    1.062593
  H     -4.429134   -2.609241    0.267688
  H     -3.372125   -1.917700   -0.991986
  H     -0.754220   -2.604723   -0.605342
  H     -0.166352   -2.342162    1.029209

 Total Charge           Charge          ....    0
 Multiplicity           Mult            ....    1
 Number of Electrons    NEL             ....   68
 Basis Dimension        Dim             ....  345

ORBITAL ENERGIES
----------------

  NO   OCC          E(Eh)            E(eV)
   0   2.0000     -20.582149      -560.0687
   1   2.0000     -15.601880      -424.5487
   2   2.0000     -11.272048      -306.7280
   3   2.0000     -11.234656      -305.7105
   4   2.0000     -11.234228      -305.6989
   5   2.0000     -11.231171      -305.6157
   6   2.0000     -11.229788      -305.5781
   7   2.0000     -11.223455      -305.4057
   8   2.0000     -11.223428      -305.4050
   9   2.0000      -1.407945       -38.3121
  10   2.0000      -1.184401       -32.2292
  11   2.0000      -1.134661       -30.8757
  12   2.0000      -1.005690       -27.3662
  13   2.0000      -0.967527       -26.3278
  14   2.0000      -0.902893       -24.5690
  15   2.0000      -0.828559       -22.5462
  16   2.0000      -0.765627       -20.8338
  17   2.0000      -0.710276       -19.3276
  18   2.0000      -0.683772       -18.6064
  19   2.0000      -0.673705       -18.3325
  20   2.0000      -0.625029       -17.0079
  21   2.0000      -0.617979       -16.8161
  22   2.0000      -0.598919       -16.2974
  23   2.0000      -0.585636       -15.9360
  24   2.0000      -0.563971       -15.3464
  25   2.0000      -0.541503       -14.7351
  26   2.0000      -0.528652       -14.3853
  27   2.0000      -0.520986       -14.1767
  28   2.0000      -0.456172       -12.4131
  29   2.0000      -0.454740       -12.3741
  30   2.0000      -0.442176       -12.0322
  31   2.0000      -0.439664       -11.9639
  32   2.0000      -0.407461       -11.0876
  33   2.0000      -0.370329       -10.0772
  34   0.0000       0.131795         3.5863
  35   0.0000       0.148455         4.0397
  36   0.0000       0.155375         4.2280
  37   0.0000       0.159862         4.3501
  38   0.0000       0.171078         4.6553

MULLIKEN ATOMIC CHARGES
-----------------------
   0 O :   -0.371217
   1 N :   -0.075534
   2 C :   -0.077548
   3 C :   -0.279881
   4 C :    0.072391
   5 C :   -0.329271
   6 C :    0.041381
   7 C :   -0.329288
   8 C :   -0.229551
   9 H :    0.332054
  10 H :    0.140149
  11 H :    0.140136
  12 H :    0.112570
  13 H :    0.118663
  14 H :    0.121990
  15 H :    0.112319
  16 H :    0.121990
  17 H :    0.118657
  18 H :    0.129992
  19 H :    0.129999
Sum of atomic charges:    0.0000000

LOEWDIN ATOMIC CHARGES
----------------------
   0 O :   -0.075838
   1 N :    0.021654
   2 C :   -0.267809
   3 C :   -0.216910
   4 C :   -0.220377
   5 C :   -0.197016
   6 C :   -0.221076
   7 C :   -0.197019
   8 C :   -0.205636
   9 H :    0.167803
  10 H :    0.153935
  11 H :    0.153934
  12 H :    0.136471
  13 H :    0.129009
  14 H :    0.136691
  15 H :    0.136657
  16 H :    0.136691
  17 H :    0.129006
  18 H :    0.149915
  19 H :    0.149915

  Mayer bond orders larger than 0.1
B(  0-O ,  1-N ) :   0.7988 B(  0-O ,  9-H ) :   0.8465 B(  1-N ,  2-C ) :   1.8903
B(  2-C ,  3-C ) :   0.9917 B(  2-C ,  8-C ) :   0.9430 B(  3-C ,  4-C ) :   0.8907
B(  3-C , 10-H ) :   0.9141 B(  3-C , 11-H ) :   0.9141 B(  4-C ,  5-C ) :   0.8952
B(  4-C ,  7-C ) :   0.8952 B(  4-C , 12-H ) :   0.9309 B(  5-C ,  6-C ) :   0.9001
B(  5-C , 13-H ) :   0.9232 B(  5-C , 14-H ) :   0.9243 B(  6-C ,  7-C ) :   0.9001
B(  6-C ,  8-C ) :   0.9047 B(  6-C , 15-H ) :   0.9295 B(  7-C , 16-H ) :   0.9243
B(  7-C , 17-H ) :   0.9233 B(  8-C , 18-H ) :   0.9140 B(  8-C , 19-H ) :   0.9140

MP2 TOTAL ENERGY:     -402.423129308 Eh
FINAL SINGLE POINT ENERGY      -402.423129308171

DIPOLE MOMENT
-------------
                                X             Y             Z
Electronic contribution:      4.62215       3.60939      -2.24106
Nuclear contribution   :     -4.89291      -3.76652       2.36365
                        -----------------------------------------
Total Dipole Moment    :     -0.27076      -0.15712       0.12258
                        -----------------------------------------
Magnitude (a.u.)       :      0.33619
Magnitude (Debye)      :      0.85453

                             ****ORCA TERMINATED NORMALLY****
TOTAL RUN TIME: 0 days 0 hours 19 minutes 34 seconds 989 msec
