                         Program Version 3.0.3 - RELEASE   -
|  1> ! RI-MP2 RIJK def2-TZVP def2-TZVP/C def2-TZVP/JK TIGHTSCF
|  2> % maxcore 2000
|  3> % mp2 density relaxed end
|  4> *xyz 0 1
|  5>  C       -1.1729537434     2.2071760551    -0.3995663864
|  6>  C       -0.9057879943     0.9613772530    -1.2415417456
|  7>  N       -1.6418155423    -0.1787368252    -0.6995761056
|  8>  C       -1.3638853274    -1.5460872573    -1.1110662711
|  9>  C       -0.3131869672    -1.9302408031    -2.1304615747
| 10>  C       -1.0187118474    -1.0796616548     0.2864639587
| 11>  C        0.4191848503    -0.9446214991     0.7649931505
| 12>  C       -1.9245624405    -1.4628686804     1.3575168877
| 13>  N       -2.6231760311    -1.7899004162     2.2190035123
| 14>  H       -0.6783646223     3.0791251652    -0.8383111892
| 15>  H       -2.2462651818     2.4042648681    -0.3379581161
| 16>  H       -0.7952978246     2.0826187052     0.6202784924
| 17>  H       -1.2787404583     1.1141449797    -2.2609857994
| 18>  H        0.1783243391     0.7973395790    -1.3249193241
| 19>  H       -2.2716246187    -2.1430058874    -1.1969684605
| 20>  H        0.6098217983    -1.3546098603    -2.0493209384
| 21>  H       -0.0620367705    -2.9905467669    -2.0255784145
| 22>  H       -0.7083090980    -1.7845212072    -3.1414803234
| 23>  H        1.1103614827    -0.7272647603    -0.0486306061
| 24>  H        0.5036858665    -0.1483436439     1.5105033149
| 25>  H        0.7383649610    -1.8779966234     1.2376857088
| 26> *
| 27>
| 28>                          ****END OF INPUT****

CARTESIAN COORDINATES (ANGSTROEM)
---------------------------------
  C     -1.172954    2.207176   -0.399566
  C     -0.905788    0.961377   -1.241542
  N     -1.641816   -0.178737   -0.699576
  C     -1.363885   -1.546087   -1.111066
  C     -0.313187   -1.930241   -2.130462
  C     -1.018712   -1.079662    0.286464
  C      0.419185   -0.944621    0.764993
  C     -1.924562   -1.462869    1.357517
  N     -2.623176   -1.789900    2.219004
  H     -0.678365    3.079125   -0.838311
  H     -2.246265    2.404265   -0.337958
  H     -0.795298    2.082619    0.620278
  H     -1.278740    1.114145   -2.260986
  H      0.178324    0.797340   -1.324919
  H     -2.271625   -2.143006   -1.196968
  H      0.609822   -1.354610   -2.049321
  H     -0.062037   -2.990547   -2.025578
  H     -0.708309   -1.784521   -3.141480
  H      1.110361   -0.727265   -0.048631
  H      0.503686   -0.148344    1.510503
  H      0.738365   -1.877997    1.237686

 Total Charge           Charge          ....    0
 Multiplicity           Mult            ....    1
 Number of Electrons    NEL             ....   68
 Basis Dimension        Dim             ....  351

ORBITAL ENERGIES
----------------

  NO   OCC          E(Eh)            E(eV)
   0   2.0000     -15.579482      -423.9392
   1   2.0000     -15.562388      -423.4741
   2   2.0000     -11.312413      -307.8264
   3   2.0000     -11.287462      -307.1475
   4   2.0000     -11.268341      -306.6271
   5   2.0000     -11.264590      -306.5251
   6   2.0000     -11.248639      -306.0910
   7   2.0000     -11.243138      -305.9413
   8   2.0000     -11.222720      -305.3857
   9   2.0000      -1.303288       -35.4643
  10   2.0000      -1.206934       -32.8424
  11   2.0000      -1.070451       -29.1284
  12   2.0000      -1.025696       -27.9106
  13   2.0000      -0.999295       -27.1922
  14   2.0000      -0.913777       -24.8651
  15   2.0000      -0.840985       -22.8844
  16   2.0000      -0.792047       -21.5527
  17   2.0000      -0.726089       -19.7579
  18   2.0000      -0.656041       -17.8518
  19   2.0000      -0.640559       -17.4305
  20   2.0000      -0.619162       -16.8482
  21   2.0000      -0.601545       -16.3689
  22   2.0000      -0.583614       -15.8810
  23   2.0000      -0.569934       -15.5087
  24   2.0000      -0.559000       -15.2112
  25   2.0000      -0.549587       -14.9550
  26   2.0000      -0.537702       -14.6316
  27   2.0000      -0.531521       -14.4634
  28   2.0000      -0.512395       -13.9430
  29   2.0000      -0.502121       -13.6634
  30   2.0000      -0.478953       -13.0330
  31   2.0000      -0.444953       -12.1078
  32   2.0000      -0.433977       -11.8091
  33   2.0000      -0.380259       -10.3474
  34   0.0000       0.117073         3.1857
  35   0.0000       0.146440         3.9848
  36   0.0000       0.155680         4.2363
  37   0.0000       0.159025         4.3273
  38   0.0000       0.176597         4.8055

MULLIKEN ATOMIC CHARGES
-----------------------
   0 C :   -0.382505
   1 C :   -0.110455
   2 N :   -0.222026
   3 C :   -0.045210
   4 C :   -0.392422
   5 C :    0.169505
   6 C :   -0.382126
   7 C :   -0.192454
   8 N :   -0.058990
   9 H :    0.129650
  10 H :    0.139749
  11 H :    0.125627
  12 H :    0.125676
  13 H :    0.087160
  14 H :    0.135320
  15 H :    0.127335
  16 H :    0.150369
  17 H :    0.148504
  18 H :    0.131199
  19 H :    0.154828
  20 H :    0.161266
Sum of atomic charges:   -0.0000000

LOEWDIN ATOMIC CHARGES
----------------------
   0 C :   -0.310794
   1 C :   -0.310796
   2 N :    0.165372
   3 C :   -0.222551
   4 C :   -0.290185
   5 C :   -0.275724
   6 C :   -0.248262
   7 C :   -0.146156
   8 N :    0.063957
   9 H :    0.123384
  10 H :    0.127219
  11 H :    0.121274
  12 H :    0.136776
  13 H :    0.119220
  14 H :    0.151540
  15 H :    0.123235
  16 H :    0.135171
  17 H :    0.133164
  18 H :    0.126929
  19 H :    0.135928
  20 H :    0.141299

  Mayer bond orders larger than 0.1
B(  0-C ,  1-C ) :   0.9348 B(  0-C ,  9-H ) :   0.9367 B(  0-C , 10-H ) :   0.9357
B(  0-C , 11-H ) :   0.9364 B(  1-C ,  2-N ) :   0.8777 B(  1-C , 12-H ) :   0.9245
B(  1-C , 13-H ) :   0.9175 B(  2-N ,  3-C ) :   0.9410 B(  2-N ,  5-C ) :   0.7746
B(  3-C ,  4-C ) :   0.8948 B(  3-C ,  5-C ) :   0.8923 B(  3-C , 14-H ) :   0.9059
B(  4-C , 15-H ) :   0.9380 B(  4-C , 16-H ) :   0.9290 B(  4-C , 17-H ) :   0.9348
B(  5-C ,  6-C ) :   0.9222 B(  5-C ,  7-C ) :   0.8922 B(  6-C , 18-H ) :   0.9310
B(  6-C , 19-H ) :   0.9321 B(  6-C , 20-H ) :   0.9269 B(  7-C ,  8-N ) :   2.8769

MP2 TOTAL ENERGY:     -382.582932530 Eh
FINAL SINGLE POINT ENERGY      -382.582932530110

DIPOLE MOMENT
-------------
                                X             Y             Z
Electronic contribution:     -6.64438      -4.97933       6.17836
Nuclear contribution   :      8.09313       5.31616      -7.57168
                        -----------------------------------------
Total Dipole Moment    :      1.44875       0.33682      -1.39332
                        -----------------------------------------
Magnitude (a.u.)       :      2.03806
Magnitude (Debye)      :      5.18033

                             ****ORCA TERMINATED NORMALLY****
TOTAL RUN TIME: 0 days 0 hours 20 minutes 19 seconds 647 msec
