                         Program Version 3.0.3 - RELEASE   -
|  1> ! RI-MP2 RIJK def2-TZVP def2-TZVP/C def2-TZVP/JK TIGHTSCF
|  2> % maxcore 2000
|  3> % mp2 density relaxed end
|  4> *xyz 0 1
|  5>  C        0.1417229160     1.4925148337    -0.1002700292
|  6>  C       -0.1017154747    -0.0119194562     0.0788296835
|  7>  C        0.6243329599    -0.5775535862     1.2813653889
|  8>  C        0.1949274896    -0.1136797626     2.6669961662
|  9>  C        1.0815617399    -0.6808922282     3.4826190686
| 10>  C        1.9710087220    -1.4404027827     2.5264735965
| 11>  C        1.0893602282    -2.0747295392     1.4087201584
| 12>  C        2.2348040501    -1.7402094593     0.4488356679
| 13>  N        2.2024731264    -0.4804707691     1.3178247128
| 14>  H        1.2097682973     1.6957045798    -0.2166398236
| 15>  H       -0.3835459850     1.8717375993    -0.9818196935
| 16>  H       -0.2073707261     2.0604893253     0.7681861424
| 17>  H       -1.1742408018    -0.2077587570     0.2080758421
| 18>  H        0.1927399592    -0.5403376770    -0.8338584338
| 19>  H       -0.6343478975     0.5443986556     2.8858032155
| 20>  H        1.1869122853    -0.6206644514     4.5560504005
| 21>  H        2.8655045591    -1.9509907747     2.8853899916
| 22>  H        0.4598064716    -2.9728372870     1.4714565967
| 23>  H        3.1642220494    -2.3077344229     0.5520092270
| 24>  H        2.0132515609    -1.5657843102    -0.6057353985
| 25> *
| 26>
| 27>                          ****END OF INPUT****

CARTESIAN COORDINATES (ANGSTROEM)
---------------------------------
  C      0.141723    1.492515   -0.100270
  C     -0.101715   -0.011919    0.078830
  C      0.624333   -0.577554    1.281365
  C      0.194927   -0.113680    2.666996
  C      1.081562   -0.680892    3.482619
  C      1.971009   -1.440403    2.526474
  C      1.089360   -2.074730    1.408720
  C      2.234804   -1.740209    0.448836
  N      2.202473   -0.480471    1.317825
  H      1.209768    1.695705   -0.216640
  H     -0.383546    1.871738   -0.981820
  H     -0.207371    2.060489    0.768186
  H     -1.174241   -0.207759    0.208076
  H      0.192740   -0.540338   -0.833858
  H     -0.634348    0.544399    2.885803
  H      1.186912   -0.620664    4.556050
  H      2.865505   -1.950991    2.885390
  H      0.459806   -2.972837    1.471457
  H      3.164222   -2.307734    0.552009
  H      2.013252   -1.565784   -0.605735

 Total Charge           Charge          ....    0
 Multiplicity           Mult            ....    1
 Number of Electrons    NEL             ....   66
 Basis Dimension        Dim             ....  345

ORBITAL ENERGIES
----------------

  NO   OCC          E(Eh)            E(eV)
   0   2.0000     -15.562212      -423.4693
   1   2.0000     -11.271719      -306.7191
   2   2.0000     -11.266112      -306.5665
   3   2.0000     -11.249825      -306.1233
   4   2.0000     -11.246100      -306.0219
   5   2.0000     -11.228455      -305.5418
   6   2.0000     -11.226332      -305.4840
   7   2.0000     -11.225050      -305.4491
   8   2.0000     -11.211242      -305.0734
   9   2.0000      -1.296932       -35.2913
  10   2.0000      -1.076580       -29.2952
  11   2.0000      -1.046750       -28.4835
  12   2.0000      -0.926463       -25.2103
  13   2.0000      -0.920308       -25.0429
  14   2.0000      -0.879966       -23.9451
  15   2.0000      -0.834309       -22.7027
  16   2.0000      -0.750893       -20.4328
  17   2.0000      -0.706239       -19.2177
  18   2.0000      -0.673192       -18.3185
  19   2.0000      -0.639073       -17.3901
  20   2.0000      -0.617847       -16.8125
  21   2.0000      -0.587611       -15.9897
  22   2.0000      -0.559278       -15.2187
  23   2.0000      -0.545566       -14.8456
  24   2.0000      -0.529245       -14.4015
  25   2.0000      -0.519203       -14.1282
  26   2.0000      -0.493727       -13.4350
  27   2.0000      -0.479355       -13.0439
  28   2.0000      -0.454702       -12.3731
  29   2.0000      -0.452968       -12.3259
  30   2.0000      -0.432801       -11.7771
  31   2.0000      -0.382292       -10.4027
  32   2.0000      -0.331240        -9.0135
  33   0.0000       0.129436         3.5221
  34   0.0000       0.143345         3.9006
  35   0.0000       0.161844         4.4040
  36   0.0000       0.167992         4.5713
  37   0.0000       0.175162         4.7664

MULLIKEN ATOMIC CHARGES
-----------------------
   0 C :   -0.402702
   1 C :   -0.240898
   2 C :    0.219691
   3 C :   -0.271660
   4 C :   -0.198895
   5 C :   -0.039275
   6 C :   -0.044325
   7 C :   -0.192970
   8 N :   -0.197632
   9 H :    0.149264
  10 H :    0.131544
  11 H :    0.123339
  12 H :    0.118635
  13 H :    0.112021
  14 H :    0.137675
  15 H :    0.138363
  16 H :    0.125626
  17 H :    0.101309
  18 H :    0.114550
  19 H :    0.116340
Sum of atomic charges:   -0.0000000

LOEWDIN ATOMIC CHARGES
----------------------
   0 C :   -0.307561
   1 C :   -0.254050
   2 C :   -0.208801
   3 C :   -0.106156
   4 C :   -0.126257
   5 C :   -0.185963
   6 C :   -0.142189
   7 C :   -0.244974
   8 N :    0.148052
   9 H :    0.128568
  10 H :    0.120026
  11 H :    0.121756
  12 H :    0.145274
  13 H :    0.139989
  14 H :    0.138143
  15 H :    0.136337
  16 H :    0.135862
  17 H :    0.120478
  18 H :    0.122602
  19 H :    0.118862

  Mayer bond orders larger than 0.1
B(  0-C ,  1-C ) :   0.9355 B(  0-C ,  9-H ) :   0.9337 B(  0-C , 10-H ) :   0.9379
B(  0-C , 11-H ) :   0.9368 B(  1-C ,  2-C ) :   0.8810 B(  1-C , 12-H ) :   0.9314
B(  1-C , 13-H ) :   0.9349 B(  2-C ,  3-C ) :   0.9082 B(  2-C ,  6-C ) :   0.8889
B(  2-C ,  8-N ) :   0.8855 B(  3-C ,  4-C ) :   1.7855 B(  3-C , 14-H ) :   0.9273
B(  4-C ,  5-C ) :   0.9630 B(  4-C , 15-H ) :   0.9294 B(  5-C ,  6-C ) :   0.9282
B(  5-C ,  8-N ) :   0.9238 B(  5-C , 16-H ) :   0.9056 B(  6-C ,  7-C ) :   0.9450
B(  6-C , 17-H ) :   0.8981 B(  7-C ,  8-N ) :   0.9118 B(  7-C , 18-H ) :   0.9252
B(  7-C , 19-H ) :   0.9284

MP2 TOTAL ENERGY:     -365.274090890 Eh
FINAL SINGLE POINT ENERGY      -365.274090890494

DIPOLE MOMENT
-------------
                                X             Y             Z
Electronic contribution:      2.15592      -2.91003       4.52768
Nuclear contribution   :     -2.61311       2.43425      -4.52504
                        -----------------------------------------
Total Dipole Moment    :     -0.45719      -0.47579       0.00264
                        -----------------------------------------
Magnitude (a.u.)       :      0.65985
Magnitude (Debye)      :      1.67720

                             ****ORCA TERMINATED NORMALLY****
TOTAL RUN TIME: 0 days 0 hours 20 minutes 49 seconds 388 msec
