                         Program Version 3.0.3 - RELEASE   -
|  1> ! RI-MP2 RIJK def2-TZVP def2-TZVP/C def2-TZVP/JK TIGHTSCF
|  2> % maxcore 2000
|  3> % mp2 density relaxed end
|  4> *xyz 0 1
|  5>  N       -0.0827149179    -1.1472806085     0.0006297180
|  6>  C       -0.0434643981     0.0080452828     0.0006065941
|  7>  C        0.0105219641     1.4516594629    -0.0396476071
|  8>  O        0.5968728071     2.1055421534     1.0984156898
|  9>  C        1.3125406146     2.1488805570    -0.1145918745
| 10>  C        2.7579441854     1.6668915407    -0.2328667320
| 11>  N        3.1654113458     2.9870870194    -0.8485029517
| 12>  C        2.3778641887     3.1089427155    -2.0834883168
| 13>  C        1.7073952635     3.4282396401    -0.8022474662
| 14>  H       -0.8786695682     1.9324724552    -0.4422812472
| 15>  H        3.2239310658     1.5435177392     0.7464311949
| 16>  H        2.9636902401     0.7940389257    -0.8590086869
| 17>  H        2.6852431155     3.9443681763    -2.7046466416
| 18>  H        2.1018118524     2.2098539961    -2.6311669259
| 19>  H        1.4042339511     4.4247468542    -0.5011678369
| 20> *
| 21>
| 22>                          ****END OF INPUT****

CARTESIAN COORDINATES (ANGSTROEM)
---------------------------------
  N     -0.082715   -1.147281    0.000630
  C     -0.043464    0.008045    0.000607
  C      0.010522    1.451659   -0.039648
  O      0.596873    2.105542    1.098416
  C      1.312541    2.148881   -0.114592
  C      2.757944    1.666892   -0.232867
  N      3.165411    2.987087   -0.848503
  C      2.377864    3.108943   -2.083488
  C      1.707395    3.428240   -0.802247
  H     -0.878670    1.932472   -0.442281
  H      3.223931    1.543518    0.746431
  H      2.963690    0.794039   -0.859009
  H      2.685243    3.944368   -2.704647
  H      2.101812    2.209854   -2.631167
  H      1.404234    4.424747   -0.501168

 Total Charge           Charge          ....    0
 Multiplicity           Mult            ....    1
 Number of Electrons    NEL             ....   64
 Basis Dimension        Dim             ....  315

ORBITAL ENERGIES
----------------

  NO   OCC          E(Eh)            E(eV)
   0   2.0000     -20.616973      -561.0163
   1   2.0000     -15.592614      -424.2966
   2   2.0000     -15.591374      -424.2629
   3   2.0000     -11.352259      -308.9107
   4   2.0000     -11.341251      -308.6111
   5   2.0000     -11.292517      -307.2850
   6   2.0000     -11.291539      -307.2584
   7   2.0000     -11.285648      -307.0981
   8   2.0000     -11.284947      -307.0790
   9   2.0000      -1.466308       -39.9003
  10   2.0000      -1.319097       -35.8944
  11   2.0000      -1.235400       -33.6169
  12   2.0000      -1.024682       -27.8830
  13   2.0000      -1.004569       -27.3357
  14   2.0000      -0.950732       -25.8707
  15   2.0000      -0.861527       -23.4433
  16   2.0000      -0.796287       -21.6681
  17   2.0000      -0.758013       -20.6266
  18   2.0000      -0.734230       -19.9794
  19   2.0000      -0.679596       -18.4927
  20   2.0000      -0.644085       -17.5264
  21   2.0000      -0.623542       -16.9674
  22   2.0000      -0.588317       -16.0089
  23   2.0000      -0.582295       -15.8451
  24   2.0000      -0.553571       -15.0634
  25   2.0000      -0.540120       -14.6974
  26   2.0000      -0.502135       -13.6638
  27   2.0000      -0.496592       -13.5130
  28   2.0000      -0.482182       -13.1208
  29   2.0000      -0.460291       -12.5252
  30   2.0000      -0.455888       -12.4053
  31   2.0000      -0.392609       -10.6834
  32   0.0000       0.127456         3.4683
  33   0.0000       0.129321         3.5190
  34   0.0000       0.144643         3.9359
  35   0.0000       0.158032         4.3003
  36   0.0000       0.168852         4.5947

MULLIKEN ATOMIC CHARGES
-----------------------
   0 N :   -0.050901
   1 C :   -0.175713
   2 C :    0.108005
   3 O :   -0.293848
   4 C :    0.128363
   5 C :   -0.116164
   6 N :   -0.217831
   7 C :   -0.156377
   8 C :   -0.111884
   9 H :    0.163288
  10 H :    0.144757
  11 H :    0.144618
  12 H :    0.141783
  13 H :    0.136923
  14 H :    0.154978
Sum of atomic charges:   -0.0000000

LOEWDIN ATOMIC CHARGES
----------------------
   0 N :    0.084454
   1 C :   -0.164465
   2 C :   -0.229266
   3 O :    0.229810
   4 C :   -0.281913
   5 C :   -0.190266
   6 N :    0.112016
   7 C :   -0.239433
   8 C :   -0.172027
   9 H :    0.161733
  10 H :    0.144946
  11 H :    0.133830
  12 H :    0.137612
  13 H :    0.130538
  14 H :    0.142430

  Mayer bond orders larger than 0.1
B(  0-N ,  1-C ) :   2.8207 B(  1-C ,  2-C ) :   0.9100 B(  2-C ,  3-O ) :   0.9234
B(  2-C ,  4-C ) :   0.9209 B(  2-C ,  9-H ) :   0.9011 B(  3-O ,  4-C ) :   0.9022
B(  4-C ,  5-C ) :   0.9671 B(  4-C ,  8-C ) :   0.9318 B(  5-C ,  6-N ) :   0.9184
B(  5-C , 10-H ) :   0.9071 B(  5-C , 11-H ) :   0.9275 B(  6-N ,  7-C ) :   0.8881
B(  6-N ,  8-C ) :   0.9065 B(  7-C ,  8-C ) :   0.9224 B(  7-C , 12-H ) :   0.9238
B(  7-C , 13-H ) :   0.9112 B(  8-C , 14-H ) :   0.8909

MP2 TOTAL ENERGY:     -416.027873722 Eh
FINAL SINGLE POINT ENERGY      -416.027873722012

DIPOLE MOMENT
-------------
                                X             Y             Z
Electronic contribution:     -3.46746      -2.91204       3.27075
Nuclear contribution   :      3.31933       3.95659      -4.13073
                        -----------------------------------------
Total Dipole Moment    :     -0.14813       1.04455      -0.85998
                        -----------------------------------------
Magnitude (a.u.)       :      1.36110
Magnitude (Debye)      :      3.45964

                             ****ORCA TERMINATED NORMALLY****
TOTAL RUN TIME: 0 days 0 hours 14 minutes 36 seconds 993 msec
