                         Program Version 3.0.3 - RELEASE   -
|  1> ! RI-MP2 RIJK def2-TZVP def2-TZVP/C def2-TZVP/JK TIGHTSCF
|  2> % maxcore 2000
|  3> % mp2 density relaxed end
|  4> *xyz 0 1
|  5>  O       -0.1284486650     1.3756368576     0.0487439931
|  6>  C       -0.0965854927    -0.0023126716     0.0344814259
|  7>  C        1.0350751109    -0.5911025790     0.7745356502
|  8>  O        1.8641843150     0.1065414898     1.3187205890
|  9>  C       -1.3827768952    -0.8172599599     0.0379601065
| 10>  C       -2.3890986951    -0.0793818484    -0.8445621026
| 11>  O       -1.4589403923    -0.0708688824    -1.9643394494
| 12>  C       -0.5205435108    -0.8025567796    -1.2036717440
| 13>  H        0.6731100996     1.6383036253     0.5293462328
| 14>  H        1.0956309926    -1.6980749921     0.7931388285
| 15>  H       -1.6091433185    -1.5866948019     0.7647880940
| 16>  H       -3.2675668545    -0.6833780168    -1.0898237345
| 17>  H       -2.6796400975     0.9282545629    -0.5368247493
| 18>  H        0.0924100437    -1.5396043237    -1.7114701004
| 19> *
| 20>
| 21>                          ****END OF INPUT****

CARTESIAN COORDINATES (ANGSTROEM)
---------------------------------
  O     -0.128449    1.375637    0.048744
  C     -0.096585   -0.002313    0.034481
  C      1.035075   -0.591103    0.774536
  O      1.864184    0.106541    1.318721
  C     -1.382777   -0.817260    0.037960
  C     -2.389099   -0.079382   -0.844562
  O     -1.458940   -0.070869   -1.964339
  C     -0.520544   -0.802557   -1.203672
  H      0.673110    1.638304    0.529346
  H      1.095631   -1.698075    0.793139
  H     -1.609143   -1.586695    0.764788
  H     -3.267567   -0.683378   -1.089824
  H     -2.679640    0.928255   -0.536825
  H      0.092410   -1.539604   -1.711470

 Total Charge           Charge          ....    0
 Multiplicity           Mult            ....    1
 Number of Electrons    NEL             ....   60
 Basis Dimension        Dim             ....  284

ORBITAL ENERGIES
----------------

  NO   OCC          E(Eh)            E(eV)
   0   2.0000     -20.577368      -559.9386
   1   2.0000     -20.573687      -559.8385
   2   2.0000     -20.572408      -559.8037
   3   2.0000     -11.355106      -308.9882
   4   2.0000     -11.318024      -307.9791
   5   2.0000     -11.316760      -307.9447
   6   2.0000     -11.301645      -307.5334
   7   2.0000     -11.267065      -306.5924
   8   2.0000      -1.432978       -38.9933
   9   2.0000      -1.413913       -38.4745
  10   2.0000      -1.375450       -37.4279
  11   2.0000      -1.139888       -31.0179
  12   2.0000      -0.978785       -26.6341
  13   2.0000      -0.912056       -24.8183
  14   2.0000      -0.807759       -21.9802
  15   2.0000      -0.782698       -21.2983
  16   2.0000      -0.751066       -20.4375
  17   2.0000      -0.706311       -19.2197
  18   2.0000      -0.695903       -18.9365
  19   2.0000      -0.653303       -17.7773
  20   2.0000      -0.630866       -17.1667
  21   2.0000      -0.612787       -16.6748
  22   2.0000      -0.582540       -15.8517
  23   2.0000      -0.563556       -15.3351
  24   2.0000      -0.541418       -14.7327
  25   2.0000      -0.505903       -13.7663
  26   2.0000      -0.490932       -13.3589
  27   2.0000      -0.462113       -12.5747
  28   2.0000      -0.426387       -11.6026
  29   2.0000      -0.383303       -10.4302
  30   0.0000       0.105789         2.8787
  31   0.0000       0.139196         3.7877
  32   0.0000       0.155370         4.2278
  33   0.0000       0.162477         4.4212
  34   0.0000       0.183837         5.0025

MULLIKEN ATOMIC CHARGES
-----------------------
   0 O :   -0.452324
   1 C :    0.217507
   2 C :    0.069521
   3 O :   -0.308000
   4 C :   -0.248924
   5 C :   -0.002376
   6 O :   -0.318375
   7 C :    0.053725
   8 H :    0.336854
   9 H :    0.104348
  10 H :    0.151291
  11 H :    0.124600
  12 H :    0.127862
  13 H :    0.144292
Sum of atomic charges:    0.0000000

LOEWDIN ATOMIC CHARGES
----------------------
   0 O :    0.054035
   1 C :   -0.352728
   2 C :   -0.262886
   3 O :    0.118278
   4 C :   -0.154693
   5 C :   -0.219647
   6 O :    0.170220
   7 C :   -0.209806
   8 H :    0.194675
   9 H :    0.127736
  10 H :    0.141137
  11 H :    0.128956
  12 H :    0.129536
  13 H :    0.135189

  Mayer bond orders larger than 0.1
B(  0-O ,  1-C ) :   1.1377 B(  0-O ,  8-H ) :   0.7970 B(  1-C ,  2-C ) :   0.8996
B(  1-C ,  4-C ) :   0.8444 B(  1-C ,  7-C ) :   0.7789 B(  2-C ,  3-O ) :   1.8898
B(  2-C ,  9-H ) :   0.9459 B(  4-C ,  5-C ) :   0.9656 B(  4-C ,  7-C ) :   0.8698
B(  4-C , 10-H ) :   0.8951 B(  5-C ,  6-O ) :   0.9145 B(  5-C , 11-H ) :   0.9229
B(  5-C , 12-H ) :   0.9078 B(  6-O ,  7-C ) :   0.9804 B(  7-C , 13-H ) :   0.9106

MP2 TOTAL ENERGY:     -418.961602771 Eh
FINAL SINGLE POINT ENERGY      -418.961602770774

DIPOLE MOMENT
-------------
                                X             Y             Z
Electronic contribution:      2.73369       1.31476       0.19335
Nuclear contribution   :     -3.27070      -2.34459       0.07260
                        -----------------------------------------
Total Dipole Moment    :     -0.53701      -1.02983       0.26595
                        -----------------------------------------
Magnitude (a.u.)       :      1.19149
Magnitude (Debye)      :      3.02852

                             ****ORCA TERMINATED NORMALLY****
TOTAL RUN TIME: 0 days 0 hours 10 minutes 40 seconds 58 msec
