                         Program Version 3.0.3 - RELEASE   -
|  1> ! RI-MP2 RIJK def2-TZVP def2-TZVP/C def2-TZVP/JK TIGHTSCF
|  2> % maxcore 2000
|  3> % mp2 density relaxed end
|  4> *xyz 0 1
|  5>  O        0.2805570431     0.4518467573    -0.4397852675
|  6>  C       -0.4211328743     0.1517308322     0.7747845520
|  7>  C       -1.6753052578    -0.6433084661     0.4303974700
|  8>  C       -1.3999378468    -2.0246661649    -0.1792632251
|  9>  O       -0.7326440673    -1.9328962945    -1.4157321577
| 10>  C       -0.8170367920    -3.0614493702     0.8469898753
| 11>  C       -2.2340188775    -3.6449273494     1.0303870790
| 12>  O       -2.8095654941    -3.1054936433     2.2141286019
| 13>  C       -2.6686273028    -2.9164255871    -0.2698746953
| 14>  H        1.1550296457     0.7841588090    -0.2175936631
| 15>  H        0.2209651841    -0.4269619895     1.4543503997
| 16>  H       -0.6969832033     1.0831053589     1.2895217883
| 17>  H       -2.2617452134    -0.7738703462     1.3450247120
| 18>  H       -2.2801386453    -0.0616608548    -0.2767852998
| 19>  H       -0.1462602754    -1.1635447118    -1.3716305818
| 20>  H       -0.1491001647    -3.7562799941     0.3339613875
| 21>  H       -0.3409752987    -2.6945086288     1.7599265219
| 22>  H       -2.3188822400    -4.7386994382     1.0258468872
| 23>  H       -3.7546853793    -3.2878035557     2.1887317969
| 24>  H       -3.6440560830    -2.4191877399    -0.2612734953
| 25>  H       -2.5991193173    -3.5658944629    -1.1461197161
| 26> *
| 27>
| 28>                          ****END OF INPUT****

CARTESIAN COORDINATES (ANGSTROEM)
---------------------------------
  O      0.280557    0.451847   -0.439785
  C     -0.421133    0.151731    0.774785
  C     -1.675305   -0.643308    0.430397
  C     -1.399938   -2.024666   -0.179263
  O     -0.732644   -1.932896   -1.415732
  C     -0.817037   -3.061449    0.846990
  C     -2.234019   -3.644927    1.030387
  O     -2.809565   -3.105494    2.214129
  C     -2.668627   -2.916426   -0.269875
  H      1.155030    0.784159   -0.217594
  H      0.220965   -0.426962    1.454350
  H     -0.696983    1.083105    1.289522
  H     -2.261745   -0.773870    1.345025
  H     -2.280139   -0.061661   -0.276785
  H     -0.146260   -1.163545   -1.371631
  H     -0.149100   -3.756280    0.333961
  H     -0.340975   -2.694509    1.759927
  H     -2.318882   -4.738699    1.025847
  H     -3.754685   -3.287804    2.188732
  H     -3.644056   -2.419188   -0.261273
  H     -2.599119   -3.565894   -1.146120

 Total Charge           Charge          ....    0
 Multiplicity           Mult            ....    1
 Number of Electrons    NEL             ....   72
 Basis Dimension        Dim             ....  351

ORBITAL ENERGIES
----------------

  NO   OCC          E(Eh)            E(eV)
   0   2.0000     -20.572892      -559.8169
   1   2.0000     -20.555644      -559.3475
   2   2.0000     -20.529894      -558.6468
   3   2.0000     -11.285184      -307.0855
   4   2.0000     -11.277722      -306.8824
   5   2.0000     -11.276186      -306.8406
   6   2.0000     -11.219823      -305.3069
   7   2.0000     -11.212990      -305.1210
   8   2.0000     -11.211449      -305.0790
   9   2.0000      -1.377014       -37.4704
  10   2.0000      -1.361771       -37.0557
  11   2.0000      -1.342479       -36.5307
  12   2.0000      -1.110315       -30.2132
  13   2.0000      -1.023383       -27.8477
  14   2.0000      -0.908233       -24.7143
  15   2.0000      -0.880189       -23.9512
  16   2.0000      -0.821512       -22.3545
  17   2.0000      -0.735330       -20.0094
  18   2.0000      -0.718840       -19.5606
  19   2.0000      -0.699748       -19.0411
  20   2.0000      -0.679405       -18.4875
  21   2.0000      -0.658502       -17.9187
  22   2.0000      -0.613720       -16.7002
  23   2.0000      -0.594068       -16.1654
  24   2.0000      -0.590354       -16.0643
  25   2.0000      -0.563919       -15.3450
  26   2.0000      -0.555039       -15.1034
  27   2.0000      -0.537631       -14.6297
  28   2.0000      -0.526711       -14.3325
  29   2.0000      -0.507782       -13.8175
  30   2.0000      -0.497874       -13.5478
  31   2.0000      -0.478444       -13.0191
  32   2.0000      -0.455307       -12.3895
  33   2.0000      -0.434100       -11.8125
  34   2.0000      -0.410957       -11.1827
  35   2.0000      -0.395694       -10.7674
  36   0.0000       0.126853         3.4518
  37   0.0000       0.139435         3.7942
  38   0.0000       0.166924         4.5422
  39   0.0000       0.174731         4.7547
  40   0.0000       0.183125         4.9831

MULLIKEN ATOMIC CHARGES
-----------------------
   0 O :   -0.507569
   1 C :   -0.065227
   2 C :   -0.312605
   3 C :    0.306241
   4 O :   -0.480206
   5 C :   -0.270327
   6 C :    0.051300
   7 O :   -0.476827
   8 C :   -0.289122
   9 H :    0.326058
  10 H :    0.110585
  11 H :    0.113293
  12 H :    0.145457
  13 H :    0.124064
  14 H :    0.337588
  15 H :    0.124084
  16 H :    0.109725
  17 H :    0.098046
  18 H :    0.315484
  19 H :    0.117520
  20 H :    0.122438
Sum of atomic charges:    0.0000000

LOEWDIN ATOMIC CHARGES
----------------------
   0 O :   -0.059525
   1 C :   -0.332824
   2 C :   -0.242277
   3 C :   -0.361125
   4 O :    0.004934
   5 C :   -0.189313
   6 C :   -0.322244
   7 O :   -0.028355
   8 C :   -0.193449
   9 H :    0.174747
  10 H :    0.119392
  11 H :    0.119720
  12 H :    0.155793
  13 H :    0.147421
  14 H :    0.169921
  15 H :    0.141545
  16 H :    0.129401
  17 H :    0.120127
  18 H :    0.173850
  19 H :    0.127715
  20 H :    0.144544

  Mayer bond orders larger than 0.1
B(  0-O ,  1-C ) :   0.9318 B(  0-O ,  9-H ) :   0.8424 B(  1-C ,  2-C ) :   0.9405
B(  1-C , 10-H ) :   0.9270 B(  1-C , 11-H ) :   0.9354 B(  2-C ,  3-C ) :   0.9249
B(  2-C , 12-H ) :   0.9052 B(  2-C , 13-H ) :   0.9317 B(  3-C ,  4-O ) :   1.0861
B(  3-C ,  5-C ) :   0.8753 B(  3-C ,  8-C ) :   0.8468 B(  4-O , 14-H ) :   0.8048
B(  5-C ,  6-C ) :   0.8993 B(  5-C , 15-H ) :   0.9153 B(  5-C , 16-H ) :   0.9181
B(  6-C ,  7-O ) :   0.9774 B(  6-C ,  8-C ) :   0.9263 B(  6-C , 17-H ) :   0.9511
B(  7-O , 18-H ) :   0.8460 B(  8-C , 19-H ) :   0.9282 B(  8-C , 20-H ) :   0.9054

MP2 TOTAL ENERGY:     -460.625287309 Eh
FINAL SINGLE POINT ENERGY      -460.625287309314

DIPOLE MOMENT
-------------
                                X             Y             Z
Electronic contribution:      0.51182      -0.38913      -1.39475
Nuclear contribution   :     -0.44536       0.76764       2.02700
                        -----------------------------------------
Total Dipole Moment    :      0.06646       0.37851       0.63225
                        -----------------------------------------
Magnitude (a.u.)       :      0.73989
Magnitude (Debye)      :      1.88064

                             ****ORCA TERMINATED NORMALLY****
TOTAL RUN TIME: 0 days 0 hours 17 minutes 27 seconds 776 msec
