                         Program Version 3.0.3 - RELEASE   -
|  1> ! RI-MP2 RIJK def2-TZVP def2-TZVP/C def2-TZVP/JK TIGHTSCF
|  2> % maxcore 2000
|  3> % mp2 density relaxed end
|  4> *xyz 0 1
|  5>  C        0.0306602109     1.4621404678    -0.0191064693
|  6>  N        0.0353019910     0.0142643171    -0.0216875497
|  7>  C        0.0112697124    -0.8366747706    -1.1346136715
|  8>  C       -0.0240347148    -0.3287879309    -2.5337571010
|  9>  C        0.0280025445    -2.0973542577    -0.6118090849
| 10>  N        0.0613029939    -2.0713193601     0.7747539549
| 11>  C        0.0641701063    -0.8006982703     1.0662930053
| 12>  O        0.0921433816    -0.2611426278     2.3013777132
| 13>  H        0.9063209590     1.8592832579    -0.5428637514
| 14>  H       -0.8713493264     1.8534658565    -0.5008323743
| 15>  H        0.0539760420     1.8066032173     1.0146928858
| 16>  H        0.8515116324     0.2851858361    -2.7819627570
| 17>  H       -0.0382552456    -1.1748188205    -3.2250596415
| 18>  H       -0.9141448989     0.2799865489    -2.7392891300
| 19>  H        0.0180424325    -3.0320128192    -1.1519909617
| 20>  H        0.1092811493    -1.0074252644     2.9132789931
| 21> *
| 22>
| 23>                          ****END OF INPUT****

CARTESIAN COORDINATES (ANGSTROEM)
---------------------------------
  C      0.030660    1.462140   -0.019106
  N      0.035302    0.014264   -0.021688
  C      0.011270   -0.836675   -1.134614
  C     -0.024035   -0.328788   -2.533757
  C      0.028003   -2.097354   -0.611809
  N      0.061303   -2.071319    0.774754
  C      0.064170   -0.800698    1.066293
  O      0.092143   -0.261143    2.301378
  H      0.906321    1.859283   -0.542864
  H     -0.871349    1.853466   -0.500832
  H      0.053976    1.806603    1.014693
  H      0.851512    0.285186   -2.781963
  H     -0.038255   -1.174819   -3.225060
  H     -0.914145    0.279987   -2.739289
  H      0.018042   -3.032013   -1.151991
  H      0.109281   -1.007425    2.913279

 Total Charge           Charge          ....    0
 Multiplicity           Mult            ....    1
 Number of Electrons    NEL             ....   60
 Basis Dimension        Dim             ....  296

ORBITAL ENERGIES
----------------

  NO   OCC          E(Eh)            E(eV)
   0   2.0000     -20.604613      -560.6800
   1   2.0000     -15.608498      -424.7288
   2   2.0000     -15.528338      -422.5475
   3   2.0000     -11.349570      -308.8375
   4   2.0000     -11.275741      -306.8285
   5   2.0000     -11.253115      -306.2128
   6   2.0000     -11.235174      -305.7246
   7   2.0000     -11.232718      -305.6578
   8   2.0000      -1.438879       -39.1539
   9   2.0000      -1.321831       -35.9688
  10   2.0000      -1.181963       -32.1629
  11   2.0000      -1.042056       -28.3558
  12   2.0000      -0.966320       -26.2949
  13   2.0000      -0.925860       -25.1939
  14   2.0000      -0.828807       -22.5530
  15   2.0000      -0.760814       -20.7028
  16   2.0000      -0.717168       -19.5151
  17   2.0000      -0.671017       -18.2593
  18   2.0000      -0.665336       -18.1047
  19   2.0000      -0.622215       -16.9313
  20   2.0000      -0.595828       -16.2133
  21   2.0000      -0.576290       -15.6816
  22   2.0000      -0.574500       -15.6329
  23   2.0000      -0.566610       -15.4182
  24   2.0000      -0.548546       -14.9267
  25   2.0000      -0.535180       -14.5630
  26   2.0000      -0.510049       -13.8791
  27   2.0000      -0.434522       -11.8239
  28   2.0000      -0.383769       -10.4429
  29   2.0000      -0.293691        -7.9917
  30   0.0000       0.126289         3.4365
  31   0.0000       0.152028         4.1369
  32   0.0000       0.168965         4.5978
  33   0.0000       0.185816         5.0563
  34   0.0000       0.194741         5.2992

MULLIKEN ATOMIC CHARGES
-----------------------
   0 C :   -0.343183
   1 N :   -0.063991
   2 C :    0.050362
   3 C :   -0.403079
   4 C :   -0.156373
   5 N :   -0.314628
   6 C :    0.293137
   7 O :   -0.450253
   8 H :    0.148373
   9 H :    0.148367
  10 H :    0.178936
  11 H :    0.140213
  12 H :    0.152050
  13 H :    0.140202
  14 H :    0.127579
  15 H :    0.352289
Sum of atomic charges:   -0.0000000

LOEWDIN ATOMIC CHARGES
----------------------
   0 C :   -0.268302
   1 N :    0.246199
   2 C :   -0.247549
   3 C :   -0.279534
   4 C :   -0.246237
   5 N :    0.070737
   6 C :   -0.463805
   7 O :    0.068444
   8 H :    0.123317
   9 H :    0.123319
  10 H :    0.135218
  11 H :    0.129085
  12 H :    0.140442
  13 H :    0.129081
  14 H :    0.132423
  15 H :    0.207163

  Mayer bond orders larger than 0.1
B(  0-C ,  1-N ) :   0.8668 B(  0-C ,  8-H ) :   0.9320 B(  0-C ,  9-H ) :   0.9320
B(  0-C , 10-H ) :   0.9248 B(  1-N ,  2-C ) :   1.0610 B(  1-N ,  6-C ) :   1.1876
B(  2-C ,  3-C ) :   0.8653 B(  2-C ,  4-C ) :   1.5596 B(  3-C , 11-H ) :   0.9343
B(  3-C , 12-H ) :   0.9464 B(  3-C , 13-H ) :   0.9343 B(  4-C ,  5-N ) :   1.2444
B(  4-C , 14-H ) :   0.9443 B(  5-N ,  6-C ) :   1.5950 B(  6-C ,  7-O ) :   1.0772
B(  7-O , 15-H ) :   0.8130

MP2 TOTAL ENERGY:     -379.334795358 Eh
FINAL SINGLE POINT ENERGY      -379.334795358069

DIPOLE MOMENT
-------------
                                X             Y             Z
Electronic contribution:      0.16285      -4.01654       6.22161
Nuclear contribution   :     -0.17636       5.05671      -6.64070
                        -----------------------------------------
Total Dipole Moment    :     -0.01351       1.04017      -0.41908
                        -----------------------------------------
Magnitude (a.u.)       :      1.12150
Magnitude (Debye)      :      2.85063

                             ****ORCA TERMINATED NORMALLY****
TOTAL RUN TIME: 0 days 0 hours 12 minutes 14 seconds 640 msec
