                         Program Version 3.0.3 - RELEASE   -
|  1> ! RI-MP2 RIJK def2-TZVP def2-TZVP/C def2-TZVP/JK TIGHTSCF
|  2> % maxcore 2000
|  3> % mp2 density relaxed end
|  4> *xyz 0 1
|  5>  C        0.2671562472     0.9507713336     0.4696924159
|  6>  O       -0.4397255503     0.2665186992    -0.5735614014
|  7>  C        0.3385255157    -0.5022036211    -1.3737630211
|  8>  C        0.6094094496    -1.8519944954    -1.3163492038
|  9>  O        0.1935256245    -2.7641744938    -0.3905187272
| 10>  C        1.4339646036    -2.1188533908    -2.4341233104
| 11>  C        2.0215400574    -3.4287463252    -2.8455298824
| 12>  N        1.6522309080    -1.0036935242    -3.1351442558
| 13>  N        0.9897297035    -0.0310189958    -2.4760675226
| 14>  H        0.7940063990     0.2409458042     1.1174984105
| 15>  H        0.9922825415     1.6604578393     0.0547570371
| 16>  H       -0.4831167529     1.4931420546     1.0479189445
| 17>  H       -0.5140583914    -2.3612551614     0.1252069406
| 18>  H        1.2432565202    -4.1863232284    -2.9879258391
| 19>  H        2.5689064494    -3.3077006085    -3.7827520786
| 20>  H        2.7110457327    -3.8166970914    -2.0873659411
| 21>  H        0.9328621923     0.8921133252    -2.8701146951
| 22> *
| 23>
| 24>                          ****END OF INPUT****

CARTESIAN COORDINATES (ANGSTROEM)
---------------------------------
  C      0.267156    0.950771    0.469692
  O     -0.439726    0.266519   -0.573561
  C      0.338526   -0.502204   -1.373763
  C      0.609409   -1.851994   -1.316349
  O      0.193526   -2.764174   -0.390519
  C      1.433965   -2.118853   -2.434123
  C      2.021540   -3.428746   -2.845530
  N      1.652231   -1.003694   -3.135144
  N      0.989730   -0.031019   -2.476068
  H      0.794006    0.240946    1.117498
  H      0.992283    1.660458    0.054757
  H     -0.483117    1.493142    1.047919
  H     -0.514058   -2.361255    0.125207
  H      1.243257   -4.186323   -2.987926
  H      2.568906   -3.307701   -3.782752
  H      2.711046   -3.816697   -2.087366
  H      0.932862    0.892113   -2.870115

 Total Charge           Charge          ....    0
 Multiplicity           Mult            ....    1
 Number of Electrons    NEL             ....   68
 Basis Dimension        Dim             ....  327

ORBITAL ENERGIES
----------------

  NO   OCC          E(Eh)            E(eV)
   0   2.0000     -20.603122      -560.6395
   1   2.0000     -20.583776      -560.1130
   2   2.0000     -15.625990      -425.2048
   3   2.0000     -15.577258      -423.8787
   4   2.0000     -11.321965      -308.0863
   5   2.0000     -11.300083      -307.4909
   6   2.0000     -11.273228      -306.7601
   7   2.0000     -11.253989      -306.2366
   8   2.0000     -11.216845      -305.2259
   9   2.0000      -1.434760       -39.0418
  10   2.0000      -1.394278       -37.9402
  11   2.0000      -1.354865       -36.8677
  12   2.0000      -1.101875       -29.9835
  13   2.0000      -1.040576       -28.3155
  14   2.0000      -0.959832       -26.1183
  15   2.0000      -0.957224       -26.0474
  16   2.0000      -0.822066       -22.3695
  17   2.0000      -0.776149       -21.1201
  18   2.0000      -0.743607       -20.2346
  19   2.0000      -0.710547       -19.3350
  20   2.0000      -0.669226       -18.2106
  21   2.0000      -0.657810       -17.8999
  22   2.0000      -0.641518       -17.4566
  23   2.0000      -0.609526       -16.5860
  24   2.0000      -0.578526       -15.7425
  25   2.0000      -0.557693       -15.1756
  26   2.0000      -0.555865       -15.1258
  27   2.0000      -0.544608       -14.8195
  28   2.0000      -0.540098       -14.6968
  29   2.0000      -0.523417       -14.2429
  30   2.0000      -0.494205       -13.4480
  31   2.0000      -0.437692       -11.9102
  32   2.0000      -0.344346        -9.3701
  33   2.0000      -0.315814        -8.5937
  34   0.0000       0.125528         3.4158
  35   0.0000       0.143075         3.8933
  36   0.0000       0.158741         4.3196
  37   0.0000       0.164502         4.4763
  38   0.0000       0.177736         4.8365

MULLIKEN ATOMIC CHARGES
-----------------------
   0 C :   -0.208460
   1 O :   -0.326837
   2 C :    0.172919
   3 C :    0.103662
   4 O :   -0.453220
   5 C :    0.047663
   6 C :   -0.415328
   7 N :   -0.231386
   8 N :   -0.117197
   9 H :    0.134702
  10 H :    0.127198
  11 H :    0.146887
  12 H :    0.336098
  13 H :    0.139583
  14 H :    0.149899
  15 H :    0.137364
  16 H :    0.256453
Sum of atomic charges:    0.0000000

LOEWDIN ATOMIC CHARGES
----------------------
   0 C :   -0.316089
   1 O :    0.194152
   2 C :   -0.371374
   3 C :   -0.286694
   4 O :    0.057261
   5 C :   -0.287550
   6 C :   -0.273553
   7 N :    0.039386
   8 N :    0.130430
   9 H :    0.109956
  10 H :    0.106519
  11 H :    0.115235
  12 H :    0.194683
  13 H :    0.132792
  14 H :    0.135434
  15 H :    0.131845
  16 H :    0.187568

  Mayer bond orders larger than 0.1
B(  0-C ,  1-O ) :   0.8490 B(  0-C ,  9-H ) :   0.9316 B(  0-C , 10-H ) :   0.9372
B(  0-C , 11-H ) :   0.9367 B(  1-O ,  2-C ) :   1.0549 B(  2-C ,  3-C ) :   1.4130
B(  2-C ,  7-N ) :   0.1255 B(  2-C ,  8-N ) :   1.1367 B(  3-C ,  4-O ) :   1.1017
B(  3-C ,  5-C ) :   1.2378 B(  4-O , 12-H ) :   0.8283 B(  5-C ,  6-C ) :   0.8846
B(  5-C ,  7-N ) :   1.5623 B(  6-C , 13-H ) :   0.9312 B(  6-C , 14-H ) :   0.9493
B(  6-C , 15-H ) :   0.9295 B(  7-N ,  8-N ) :   1.0414 B(  8-N , 16-H ) :   0.8637

MP2 TOTAL ENERGY:     -454.409584662 Eh
FINAL SINGLE POINT ENERGY      -454.409584662019

DIPOLE MOMENT
-------------
                                X             Y             Z
Electronic contribution:     -2.32635       1.11989      -1.66254
Nuclear contribution   :      2.00566      -0.16677       2.55155
                        -----------------------------------------
Total Dipole Moment    :     -0.32068       0.95312       0.88901
                        -----------------------------------------
Magnitude (a.u.)       :      1.34224
Magnitude (Debye)      :      3.41170

                             ****ORCA TERMINATED NORMALLY****
TOTAL RUN TIME: 0 days 0 hours 16 minutes 28 seconds 772 msec
