                         Program Version 3.0.3 - RELEASE   -
|  1> ! RI-MP2 RIJK def2-TZVP def2-TZVP/C def2-TZVP/JK TIGHTSCF
|  2> % maxcore 2000
|  3> % mp2 density relaxed end
|  4> *xyz 0 1
|  5>  C       -0.3696072893     1.5146568162    -0.0629829585
|  6>  C        0.0037128396     0.0367438271     0.0231135036
|  7>  C        0.7349717214    -0.5141058276    -1.2237377198
|  8>  C        1.4132460981    -1.7977323796    -0.7357350249
|  9>  O        2.8800940835    -1.7989080748    -0.8599062700
| 10>  C        3.0344552763    -1.7400277831     0.5118618838
| 11>  N        4.0738706554    -1.7276404608     1.2133170270
| 12>  C        1.5484364824    -1.6882179751     0.8049129677
| 13>  C        0.9518822861    -0.3175345926     1.1937219351
| 14>  H        0.5246309840     2.1353293063    -0.1921019314
| 15>  H       -1.0367931174     1.7090148917    -0.9092115698
| 16>  H       -0.8800772853     1.8490416749     0.8461563681
| 17>  H       -0.9182722431    -0.5482530866     0.1527586304
| 18>  H        0.0614483830    -0.6792281761    -2.0690484980
| 19>  H        1.5105733993     0.1880917181    -1.5507247740
| 20>  H        1.0108556157    -2.7219466629    -1.1540853631
| 21>  H        4.9132618586    -1.7660750569     0.6319760353
| 22>  H        1.1734464047    -2.5191473724     1.4027106680
| 23>  H        1.7456079010     0.4335856398     1.2751221119
| 24>  H        0.4353547260    -0.3428022256     2.1563087288
| 25> *
| 26>
| 27>                          ****END OF INPUT****

CARTESIAN COORDINATES (ANGSTROEM)
---------------------------------
  C     -0.369607    1.514657   -0.062983
  C      0.003713    0.036744    0.023114
  C      0.734972   -0.514106   -1.223738
  C      1.413246   -1.797732   -0.735735
  O      2.880094   -1.798908   -0.859906
  C      3.034455   -1.740028    0.511862
  N      4.073871   -1.727640    1.213317
  C      1.548436   -1.688218    0.804913
  C      0.951882   -0.317535    1.193722
  H      0.524631    2.135329   -0.192102
  H     -1.036793    1.709015   -0.909212
  H     -0.880077    1.849042    0.846156
  H     -0.918272   -0.548253    0.152759
  H      0.061448   -0.679228   -2.069048
  H      1.510573    0.188092   -1.550725
  H      1.010856   -2.721947   -1.154085
  H      4.913262   -1.766075    0.631976
  H      1.173446   -2.519147    1.402711
  H      1.745608    0.433586    1.275122
  H      0.435355   -0.342802    2.156309

 Total Charge           Charge          ....    0
 Multiplicity           Mult            ....    1
 Number of Electrons    NEL             ....   68
 Basis Dimension        Dim             ....  345

ORBITAL ENERGIES
----------------

  NO   OCC          E(Eh)            E(eV)
   0   2.0000     -20.584853      -560.1423
   1   2.0000     -15.531858      -422.6433
   2   2.0000     -11.333649      -308.4043
   3   2.0000     -11.298536      -307.4488
   4   2.0000     -11.248272      -306.0810
   5   2.0000     -11.241875      -305.9070
   6   2.0000     -11.235158      -305.7242
   7   2.0000     -11.232321      -305.6470
   8   2.0000     -11.223609      -305.4099
   9   2.0000      -1.426527       -38.8178
  10   2.0000      -1.191430       -32.4205
  11   2.0000      -1.134989       -30.8846
  12   2.0000      -1.024301       -27.8726
  13   2.0000      -0.984314       -26.7846
  14   2.0000      -0.915127       -24.9019
  15   2.0000      -0.838108       -22.8061
  16   2.0000      -0.783723       -21.3262
  17   2.0000      -0.723665       -19.6919
  18   2.0000      -0.708447       -19.2778
  19   2.0000      -0.676965       -18.4212
  20   2.0000      -0.657808       -17.8999
  21   2.0000      -0.634174       -17.2568
  22   2.0000      -0.595057       -16.1923
  23   2.0000      -0.568485       -15.4693
  24   2.0000      -0.561475       -15.2785
  25   2.0000      -0.544296       -14.8110
  26   2.0000      -0.511865       -13.9286
  27   2.0000      -0.494172       -13.4471
  28   2.0000      -0.480662       -13.0795
  29   2.0000      -0.474125       -12.9016
  30   2.0000      -0.469693       -12.7810
  31   2.0000      -0.465037       -12.6543
  32   2.0000      -0.427298       -11.6274
  33   2.0000      -0.397142       -10.8068
  34   0.0000       0.122151         3.3239
  35   0.0000       0.147697         4.0190
  36   0.0000       0.166408         4.5282
  37   0.0000       0.167624         4.5613
  38   0.0000       0.185264         5.0413

MULLIKEN ATOMIC CHARGES
-----------------------
   0 C :   -0.405891
   1 C :   -0.017444
   2 C :   -0.302935
   3 C :    0.101772
   4 O :   -0.277987
   5 C :    0.063001
   6 N :   -0.369208
   7 C :    0.027923
   8 C :   -0.328129
   9 H :    0.127554
  10 H :    0.134164
  11 H :    0.135448
  12 H :    0.096712
  13 H :    0.128773
  14 H :    0.133659
  15 H :    0.116346
  16 H :    0.227674
  17 H :    0.135325
  18 H :    0.140607
  19 H :    0.132637
Sum of atomic charges:    0.0000000

LOEWDIN ATOMIC CHARGES
----------------------
   0 C :   -0.295210
   1 C :   -0.268659
   2 C :   -0.215065
   3 C :   -0.204951
   4 O :    0.220589
   5 C :   -0.386683
   6 N :   -0.056732
   7 C :   -0.159939
   8 C :   -0.199454
   9 H :    0.124927
  10 H :    0.124937
  11 H :    0.125492
  12 H :    0.152424
  13 H :    0.138095
  14 H :    0.150425
  15 H :    0.135555
  16 H :    0.172331
  17 H :    0.155322
  18 H :    0.148082
  19 H :    0.138515

  Mayer bond orders larger than 0.1
B(  0-C ,  1-C ) :   0.8996 B(  0-C ,  9-H ) :   0.9352 B(  0-C , 10-H ) :   0.9391
B(  0-C , 11-H ) :   0.9391 B(  1-C ,  2-C ) :   0.9233 B(  1-C ,  8-C ) :   0.9130
B(  1-C , 12-H ) :   0.9253 B(  2-C ,  3-C ) :   0.9078 B(  2-C , 13-H ) :   0.9234
B(  2-C , 14-H ) :   0.9150 B(  3-C ,  4-O ) :   0.9094 B(  3-C ,  7-C ) :   0.9163
B(  3-C , 15-H ) :   0.9296 B(  4-O ,  5-C ) :   1.0691 B(  5-C ,  6-N ) :   2.0935
B(  5-C ,  7-C ) :   0.8996 B(  6-N , 16-H ) :   0.8466 B(  7-C ,  8-C ) :   0.8939
B(  7-C , 17-H ) :   0.9066 B(  8-C , 18-H ) :   0.9241 B(  8-C , 19-H ) :   0.9281

MP2 TOTAL ENERGY:     -402.476539103 Eh
FINAL SINGLE POINT ENERGY      -402.476539103092

DIPOLE MOMENT
-------------
                                X             Y             Z
Electronic contribution:      7.31227      -6.70008      -0.15114
Nuclear contribution   :     -8.41456       6.87749      -0.27636
                        -----------------------------------------
Total Dipole Moment    :     -1.10230       0.17741      -0.42751
                        -----------------------------------------
Magnitude (a.u.)       :      1.19553
Magnitude (Debye)      :      3.03880

                             ****ORCA TERMINATED NORMALLY****
TOTAL RUN TIME: 0 days 0 hours 19 minutes 7 seconds 999 msec
