                         Program Version 3.0.3 - RELEASE   -
|  1> ! RI-MP2 RIJK def2-TZVP def2-TZVP/C def2-TZVP/JK TIGHTSCF
|  2> % maxcore 2000
|  3> % mp2 density relaxed end
|  4> *xyz 0 1
|  5>  O        0.5347667753     1.8032079753    -0.0272328678
|  6>  C        0.2385335657     0.5689660823    -0.6174194364
|  7>  C        1.3703013717     0.1759908573    -1.5916316396
|  8>  O        1.0913642601    -1.0630965008    -2.2267860913
|  9>  C        0.7667303232    -0.9854754032    -3.6041745544
| 10>  C       -0.5013811505    -0.3093438296    -3.8898705531
| 11>  C       -1.5378730054     0.2535453051    -4.1222957330
| 12>  C        0.0502176714    -0.4964327688     0.4423697500
| 13>  O        0.1347158066    -0.2298533539     1.6189014588
| 14>  H        0.5268349338     1.6391213980     0.9300210382
| 15>  H       -0.6979425182     0.6164076042    -1.1981058013
| 16>  H        1.4960112749     0.9888647013    -2.3159935486
| 17>  H        2.3080520923     0.0730461951    -1.0331482963
| 18>  H        1.5756952152    -0.4895232302    -4.1625900235
| 19>  H        0.7200852349    -2.0223953191    -3.9531290530
| 20>  H       -2.4539779178     0.7481971252    -4.3340399597
| 21>  H       -0.1623459032    -1.5193315683     0.0823290111
| 22> *
| 23>
| 24>                          ****END OF INPUT****

CARTESIAN COORDINATES (ANGSTROEM)
---------------------------------
  O      0.534767    1.803208   -0.027233
  C      0.238534    0.568966   -0.617419
  C      1.370301    0.175991   -1.591632
  O      1.091364   -1.063097   -2.226786
  C      0.766730   -0.985475   -3.604175
  C     -0.501381   -0.309344   -3.889871
  C     -1.537873    0.253545   -4.122296
  C      0.050218   -0.496433    0.442370
  O      0.134716   -0.229853    1.618901
  H      0.526835    1.639121    0.930021
  H     -0.697943    0.616408   -1.198106
  H      1.496011    0.988865   -2.315994
  H      2.308052    0.073046   -1.033148
  H      1.575695   -0.489523   -4.162590
  H      0.720085   -2.022395   -3.953129
  H     -2.453978    0.748197   -4.334040
  H     -0.162346   -1.519332    0.082329

 Total Charge           Charge          ....    0
 Multiplicity           Mult            ....    1
 Number of Electrons    NEL             ....   68
 Basis Dimension        Dim             ....  327

ORBITAL ENERGIES
----------------

  NO   OCC          E(Eh)            E(eV)
   0   2.0000     -20.584516      -560.1332
   1   2.0000     -20.574158      -559.8513
   2   2.0000     -20.562548      -559.5354
   3   2.0000     -11.341881      -308.6283
   4   2.0000     -11.324455      -308.1541
   5   2.0000     -11.298374      -307.4444
   6   2.0000     -11.297299      -307.4151
   7   2.0000     -11.251171      -306.1599
   8   2.0000     -11.244991      -305.9918
   9   2.0000      -1.421477       -38.6804
  10   2.0000      -1.402977       -38.1769
  11   2.0000      -1.367302       -37.2062
  12   2.0000      -1.075647       -29.2699
  13   2.0000      -1.037372       -28.2283
  14   2.0000      -0.961344       -26.1595
  15   2.0000      -0.896145       -24.3854
  16   2.0000      -0.798074       -21.7167
  17   2.0000      -0.749503       -20.3950
  18   2.0000      -0.733446       -19.9581
  19   2.0000      -0.703266       -19.1368
  20   2.0000      -0.694033       -18.8856
  21   2.0000      -0.673380       -18.3236
  22   2.0000      -0.667556       -18.1651
  23   2.0000      -0.629020       -17.1165
  24   2.0000      -0.607207       -16.5229
  25   2.0000      -0.559454       -15.2235
  26   2.0000      -0.546778       -14.8786
  27   2.0000      -0.534928       -14.5561
  28   2.0000      -0.520002       -14.1500
  29   2.0000      -0.494367       -13.4524
  30   2.0000      -0.442515       -12.0414
  31   2.0000      -0.432582       -11.7712
  32   2.0000      -0.413121       -11.2416
  33   2.0000      -0.406424       -11.0593
  34   0.0000       0.115217         3.1352
  35   0.0000       0.137492         3.7413
  36   0.0000       0.146609         3.9894
  37   0.0000       0.159160         4.3310
  38   0.0000       0.162070         4.4101

MULLIKEN ATOMIC CHARGES
-----------------------
   0 O :   -0.481173
   1 C :    0.080404
   2 C :   -0.037890
   3 O :   -0.319068
   4 C :   -0.165190
   5 C :   -0.054759
   6 C :   -0.142344
   7 C :    0.096428
   8 O :   -0.299820
   9 H :    0.336561
  10 H :    0.114037
  11 H :    0.125121
  12 H :    0.124744
  13 H :    0.153734
  14 H :    0.154038
  15 H :    0.195945
  16 H :    0.119232
Sum of atomic charges:    0.0000000

LOEWDIN ATOMIC CHARGES
----------------------
   0 O :    0.000547
   1 C :   -0.373549
   2 C :   -0.286076
   3 O :    0.161573
   4 C :   -0.310375
   5 C :   -0.117674
   6 C :   -0.087331
   7 C :   -0.265189
   8 O :    0.122366
   9 H :    0.183993
  10 H :    0.155937
  11 H :    0.135806
  12 H :    0.132282
  13 H :    0.142151
  14 H :    0.150695
  15 H :    0.129957
  16 H :    0.124885

  Mayer bond orders larger than 0.1
B(  0-O ,  1-C ) :   1.0731 B(  0-O ,  9-H ) :   0.8009 B(  1-C ,  2-C ) :   0.8867
B(  1-C ,  7-C ) :   0.9004 B(  1-C , 10-H ) :   0.9096 B(  2-C ,  3-O ) :   0.8600
B(  2-C , 11-H ) :   0.9192 B(  2-C , 12-H ) :   0.9122 B(  3-O ,  4-C ) :   0.9662
B(  4-C ,  5-C ) :   0.9356 B(  4-C , 13-H ) :   0.9913 B(  4-C , 14-H ) :   0.9262
B(  5-C ,  6-C ) :   2.6669 B(  6-C , 15-H ) :   0.9151 B(  7-C ,  8-O ) :   1.9007
B(  7-C , 16-H ) :   0.9251

MP2 TOTAL ENERGY:     -458.170344912 Eh
FINAL SINGLE POINT ENERGY      -458.170344911502

DIPOLE MOMENT
-------------
                                X             Y             Z
Electronic contribution:     -1.11142      -0.41460       2.98635
Nuclear contribution   :      1.00337       0.11779      -3.98598
                        -----------------------------------------
Total Dipole Moment    :     -0.10806      -0.29681      -0.99963
                        -----------------------------------------
Magnitude (a.u.)       :      1.04835
Magnitude (Debye)      :      2.66470

                             ****ORCA TERMINATED NORMALLY****
TOTAL RUN TIME: 0 days 0 hours 15 minutes 46 seconds 347 msec
