                         Program Version 3.0.3 - RELEASE   -
|  1> ! RI-MP2 RIJK def2-TZVP def2-TZVP/C def2-TZVP/JK TIGHTSCF
|  2> % maxcore 2000
|  3> % mp2 density relaxed end
|  4> *xyz 0 1
|  5>  C       -0.0001938351     1.3947682341     0.0121997408
|  6>  C        1.4196924419     1.9538415221     0.0357657238
|  7>  O        2.1294385381     1.5621686939     1.2272806086
|  8>  C        1.9208841893     0.2649953679     1.4943446082
|  9>  N        2.6101211504    -0.4711160680     2.3121316320
| 10>  O        2.0062687407    -1.7124938705     2.2440671566
| 11>  N        0.9334510484    -1.7287024763     1.3728296835
| 12>  C        0.8766288268    -0.5158601540     0.9129790072
| 13>  O       -0.0082153803    -0.0463064506     0.0218754396
| 14>  H       -0.5685143453     1.7624915656     0.8751635882
| 15>  H       -0.5086650829     1.6931862552    -0.9060770660
| 16>  H        1.9784236949     1.6111417304    -0.8436037172
| 17>  H        1.3962140630     3.0448137904     0.0434240147
| 18> *
| 19>
| 20>                          ****END OF INPUT****

CARTESIAN COORDINATES (ANGSTROEM)
---------------------------------
  C     -0.000194    1.394768    0.012200
  C      1.419692    1.953842    0.035766
  O      2.129439    1.562169    1.227281
  C      1.920884    0.264995    1.494345
  N      2.610121   -0.471116    2.312132
  O      2.006269   -1.712494    2.244067
  N      0.933451   -1.728702    1.372830
  C      0.876629   -0.515860    0.912979
  O     -0.008215   -0.046306    0.021875
  H     -0.568514    1.762492    0.875164
  H     -0.508665    1.693186   -0.906077
  H      1.978424    1.611142   -0.843604
  H      1.396214    3.044814    0.043424

 Total Charge           Charge          ....    0
 Multiplicity           Mult            ....    1
 Number of Electrons    NEL             ....   66
 Basis Dimension        Dim             ....  303

ORBITAL ENERGIES
----------------

  NO   OCC          E(Eh)            E(eV)
   0   2.0000     -20.671261      -562.4936
   1   2.0000     -20.635452      -561.5192
   2   2.0000     -20.635450      -561.5192
   3   2.0000     -15.648674      -425.8221
   4   2.0000     -15.648624      -425.8207
   5   2.0000     -11.360599      -309.1376
   6   2.0000     -11.359603      -309.1105
   7   2.0000     -11.336484      -308.4814
   8   2.0000     -11.335849      -308.4641
   9   2.0000      -1.537543       -41.8387
  10   2.0000      -1.478048       -40.2197
  11   2.0000      -1.450657       -39.4744
  12   2.0000      -1.211087       -32.9553
  13   2.0000      -1.168887       -31.8070
  14   2.0000      -1.057121       -28.7657
  15   2.0000      -0.937964       -25.5233
  16   2.0000      -0.901871       -24.5412
  17   2.0000      -0.810557       -22.0564
  18   2.0000      -0.771041       -20.9811
  19   2.0000      -0.745664       -20.2906
  20   2.0000      -0.696861       -18.9625
  21   2.0000      -0.693318       -18.8662
  22   2.0000      -0.673226       -18.3194
  23   2.0000      -0.652645       -17.7594
  24   2.0000      -0.631192       -17.1756
  25   2.0000      -0.612447       -16.6655
  26   2.0000      -0.570543       -15.5253
  27   2.0000      -0.559179       -15.2160
  28   2.0000      -0.535408       -14.5692
  29   2.0000      -0.494593       -13.4586
  30   2.0000      -0.492069       -13.3899
  31   2.0000      -0.414045       -11.2667
  32   2.0000      -0.403030       -10.9670
  33   0.0000       0.095473         2.5979
  34   0.0000       0.119409         3.2493
  35   0.0000       0.153676         4.1817
  36   0.0000       0.161452         4.3933
  37   0.0000       0.176053         4.7907

MULLIKEN ATOMIC CHARGES
-----------------------
   0 C :   -0.078263
   1 C :   -0.078249
   2 O :   -0.255185
   3 C :    0.141723
   4 N :   -0.088482
   5 O :   -0.013985
   6 N :   -0.088475
   7 C :    0.141716
   8 O :   -0.255190
   9 H :    0.135055
  10 H :    0.152145
  11 H :    0.135050
  12 H :    0.152141
Sum of atomic charges:   -0.0000000

LOEWDIN ATOMIC CHARGES
----------------------
   0 C :   -0.269091
   1 C :   -0.269087
   2 O :    0.260175
   3 C :   -0.414097
   4 N :    0.047599
   5 O :    0.189819
   6 N :    0.047597
   7 C :   -0.414093
   8 O :    0.260168
   9 H :    0.137226
  10 H :    0.143281
  11 H :    0.137225
  12 H :    0.143280

  Mayer bond orders larger than 0.1
B(  0-C ,  1-C ) :   0.9394 B(  0-C ,  8-O ) :   0.8569 B(  0-C ,  9-H ) :   0.9284
B(  0-C , 10-H ) :   0.9206 B(  1-C ,  2-O ) :   0.8569 B(  1-C , 11-H ) :   0.9284
B(  1-C , 12-H ) :   0.9206 B(  2-O ,  3-C ) :   1.0997 B(  3-C ,  4-N ) :   1.5998
B(  3-C ,  7-C ) :   1.1512 B(  4-N ,  5-O ) :   0.9012 B(  4-N ,  6-N ) :   0.1237
B(  5-O ,  6-N ) :   0.9012 B(  6-N ,  7-C ) :   1.5998 B(  7-C ,  8-O ) :   1.0996

MP2 TOTAL ENERGY:     -489.053295494 Eh
FINAL SINGLE POINT ENERGY      -489.053295493626

DIPOLE MOMENT
-------------
                                X             Y             Z
Electronic contribution:      2.09926      -5.48341       3.59420
Nuclear contribution   :     -2.77768       7.25546      -4.75574
                        -----------------------------------------
Total Dipole Moment    :     -0.67842       1.77205      -1.16154
                        -----------------------------------------
Magnitude (a.u.)       :      2.22477
Magnitude (Debye)      :      5.65491

                             ****ORCA TERMINATED NORMALLY****
TOTAL RUN TIME: 0 days 0 hours 13 minutes 3 seconds 872 msec
