                         Program Version 3.0.3 - RELEASE   -
|  1> ! RI-MP2 RIJK def2-TZVP def2-TZVP/C def2-TZVP/JK TIGHTSCF
|  2> % maxcore 2000
|  3> % mp2 density relaxed end
|  4> *xyz 0 1
|  5>  C       -0.0322440800     1.5655093090    -0.0232730071
|  6>  C       -0.0412264819     0.0285592667     0.0198655746
|  7>  C       -1.4965812170    -0.5033859614     0.0477668442
|  8>  O       -2.2091952334    -0.1579714728    -1.1249560325
|  9>  N        0.6717829489    -0.5559485136    -1.1140083158
| 10>  C        1.8126920949    -1.2531048802    -0.7362036673
| 11>  O        2.6439775908    -1.7223805034    -1.4816273892
| 12>  C        1.7715200198    -1.2735263728     0.7565628651
| 13>  C        0.7472368471    -0.5328610909     1.1811693467
| 14>  H        0.9878218457     1.9446732837    -0.1234046878
| 15>  H       -0.6345274320     1.9137471205    -0.8669638163
| 16>  H       -0.4677411693     1.9782486868     0.8920850000
| 17>  H       -1.4745138776    -1.5908255703     0.1998108172
| 18>  H       -2.0384574844    -0.0506679852     0.8850384660
| 19>  H       -1.8649603171    -0.7100729956    -1.8352664308
| 20>  H        0.6378156582    -0.1386126731    -2.0308648625
| 21>  H        2.5066363654    -1.8034511510     1.3453760104
| 22>  H        0.4545924219    -0.3442256564     2.2071736751
| 23> *
| 24>
| 25>                          ****END OF INPUT****

CARTESIAN COORDINATES (ANGSTROEM)
---------------------------------
  C     -0.032244    1.565509   -0.023273
  C     -0.041226    0.028559    0.019866
  C     -1.496581   -0.503386    0.047767
  O     -2.209195   -0.157971   -1.124956
  N      0.671783   -0.555949   -1.114008
  C      1.812692   -1.253105   -0.736204
  O      2.643978   -1.722381   -1.481627
  C      1.771520   -1.273526    0.756563
  C      0.747237   -0.532861    1.181169
  H      0.987822    1.944673   -0.123405
  H     -0.634527    1.913747   -0.866964
  H     -0.467741    1.978249    0.892085
  H     -1.474514   -1.590826    0.199811
  H     -2.038457   -0.050668    0.885038
  H     -1.864960   -0.710073   -1.835266
  H      0.637816   -0.138613   -2.030865
  H      2.506636   -1.803451    1.345376
  H      0.454592   -0.344226    2.207174

 Total Charge           Charge          ....    0
 Multiplicity           Mult            ....    1
 Number of Electrons    NEL             ....   68
 Basis Dimension        Dim             ....  333

ORBITAL ENERGIES
----------------

  NO   OCC          E(Eh)            E(eV)
   0   2.0000     -20.571873      -559.7891
   1   2.0000     -20.522989      -558.4589
   2   2.0000     -15.582539      -424.0224
   3   2.0000     -11.353414      -308.9421
   4   2.0000     -11.297134      -307.4106
   5   2.0000     -11.293176      -307.3029
   6   2.0000     -11.269561      -306.6604
   7   2.0000     -11.251846      -306.1783
   8   2.0000     -11.235959      -305.7460
   9   2.0000      -1.386216       -37.7208
  10   2.0000      -1.377855       -37.4934
  11   2.0000      -1.263963       -34.3942
  12   2.0000      -1.083952       -29.4958
  13   2.0000      -1.048539       -28.5322
  14   2.0000      -0.945457       -25.7272
  15   2.0000      -0.876021       -23.8378
  16   2.0000      -0.808261       -21.9939
  17   2.0000      -0.786224       -21.3942
  18   2.0000      -0.710485       -19.3333
  19   2.0000      -0.694702       -18.9038
  20   2.0000      -0.652976       -17.7684
  21   2.0000      -0.633352       -17.2344
  22   2.0000      -0.620743       -16.8913
  23   2.0000      -0.608754       -16.5650
  24   2.0000      -0.592764       -16.1299
  25   2.0000      -0.586081       -15.9481
  26   2.0000      -0.552794       -15.0423
  27   2.0000      -0.543282       -14.7835
  28   2.0000      -0.536536       -14.5999
  29   2.0000      -0.497034       -13.5250
  30   2.0000      -0.467364       -12.7176
  31   2.0000      -0.427701       -11.6383
  32   2.0000      -0.404461       -11.0060
  33   2.0000      -0.389821       -10.6076
  34   0.0000       0.095681         2.6036
  35   0.0000       0.123399         3.3579
  36   0.0000       0.142149         3.8681
  37   0.0000       0.167713         4.5637
  38   0.0000       0.173171         4.7122

MULLIKEN ATOMIC CHARGES
-----------------------
   0 C :   -0.419411
   1 C :    0.240859
   2 C :   -0.023141
   3 O :   -0.473723
   4 N :   -0.377769
   5 C :    0.220380
   6 O :   -0.333013
   7 C :   -0.137633
   8 C :   -0.227786
   9 H :    0.148748
  10 H :    0.153999
  11 H :    0.128033
  12 H :    0.122629
  13 H :    0.111230
  14 H :    0.320230
  15 H :    0.247757
  16 H :    0.151694
  17 H :    0.146917
Sum of atomic charges:    0.0000000

LOEWDIN ATOMIC CHARGES
----------------------
   0 C :   -0.260650
   1 C :   -0.327996
   2 C :   -0.301289
   3 O :   -0.036419
   4 N :    0.148395
   5 C :   -0.430186
   6 O :    0.092604
   7 C :   -0.105595
   8 C :   -0.088147
   9 H :    0.130593
  10 H :    0.132532
  11 H :    0.130507
  12 H :    0.126795
  13 H :    0.133676
  14 H :    0.174904
  15 H :    0.185165
  16 H :    0.147952
  17 H :    0.147159

  Mayer bond orders larger than 0.1
B(  0-C ,  1-C ) :   0.9228 B(  0-C ,  9-H ) :   0.9338 B(  0-C , 10-H ) :   0.9208
B(  0-C , 11-H ) :   0.9278 B(  1-C ,  2-C ) :   0.8786 B(  1-C ,  4-N ) :   0.8518
B(  1-C ,  8-C ) :   0.9188 B(  2-C ,  3-O ) :   0.9345 B(  2-C , 12-H ) :   0.9216
B(  2-C , 13-H ) :   0.9228 B(  3-O , 14-H ) :   0.8396 B(  4-N ,  5-C ) :   1.1345
B(  4-N , 15-H ) :   0.8603 B(  5-C ,  6-O ) :   1.9860 B(  5-C ,  7-C ) :   0.9604
B(  7-C ,  8-C ) :   1.7079 B(  7-C , 16-H ) :   0.9290 B(  8-C , 17-H ) :   0.9168

MP2 TOTAL ENERGY:     -438.411949897 Eh
FINAL SINGLE POINT ENERGY      -438.411949897244

DIPOLE MOMENT
-------------
                                X             Y             Z
Electronic contribution:      4.26546      -4.55419      -2.55419
Nuclear contribution   :     -4.94204       5.11566       3.36510
                        -----------------------------------------
Total Dipole Moment    :     -0.67658       0.56147       0.81091
                        -----------------------------------------
Magnitude (a.u.)       :      1.19607
Magnitude (Debye)      :      3.04017

                             ****ORCA TERMINATED NORMALLY****
TOTAL RUN TIME: 0 days 0 hours 18 minutes 33 seconds 957 msec
