                         Program Version 3.0.3 - RELEASE   -
|  1> ! RI-MP2 RIJK def2-TZVP def2-TZVP/C def2-TZVP/JK TIGHTSCF
|  2> % maxcore 2000
|  3> % mp2 density relaxed end
|  4> *xyz 0 1
|  5>  C        0.0610516375     1.4756178005     0.0624972202
|  6>  C       -0.0273053189    -0.0200966917     0.0243155532
|  7>  C       -0.0514945949    -0.7166112492    -1.1279124804
|  8>  O       -0.1180867483    -2.0545147850    -1.2357102044
|  9>  N       -0.2530165467    -2.8345007830    -0.0930465569
| 10>  C       -0.1854487213    -2.2315357277     1.0529641905
| 11>  N       -0.2327116250    -3.0413426351     2.1741078266
| 12>  C       -0.0304407469    -0.7715140280     1.2632204742
| 13>  N        0.0952376642    -0.1888562162     2.4042755310
| 14>  H        0.9559360182     1.7916329915     0.6080112399
| 15>  H        0.0875305570     1.9006633176    -0.9443049494
| 16>  H       -0.7920971801     1.8987952075     0.6029235332
| 17>  H       -0.0089008916    -0.2651158703    -2.1132075512
| 18>  H       -0.4510717832    -4.0041070838     1.9516284753
| 19>  H       -0.8079034213    -2.6803579257     2.9235794402
| 20>  H        0.1489739611    -0.8663494214     3.1651145278
| 21> *
| 22>
| 23>                          ****END OF INPUT****

CARTESIAN COORDINATES (ANGSTROEM)
---------------------------------
  C      0.061052    1.475618    0.062497
  C     -0.027305   -0.020097    0.024316
  C     -0.051495   -0.716611   -1.127912
  O     -0.118087   -2.054515   -1.235710
  N     -0.253017   -2.834501   -0.093047
  C     -0.185449   -2.231536    1.052964
  N     -0.232712   -3.041343    2.174108
  C     -0.030441   -0.771514    1.263220
  N      0.095238   -0.188856    2.404276
  H      0.955936    1.791633    0.608011
  H      0.087531    1.900663   -0.944305
  H     -0.792097    1.898795    0.602924
  H     -0.008901   -0.265116   -2.113208
  H     -0.451072   -4.004107    1.951628
  H     -0.807903   -2.680358    2.923579
  H      0.148974   -0.866349    3.165115

 Total Charge           Charge          ....    0
 Multiplicity           Mult            ....    1
 Number of Electrons    NEL             ....   66
 Basis Dimension        Dim             ....  321

ORBITAL ENERGIES
----------------

  NO   OCC          E(Eh)            E(eV)
   0   2.0000     -20.640942      -561.6686
   1   2.0000     -15.633924      -425.4207
   2   2.0000     -15.591666      -424.2708
   3   2.0000     -15.556708      -423.3196
   4   2.0000     -11.339901      -308.5744
   5   2.0000     -11.319748      -308.0260
   6   2.0000     -11.309594      -307.7497
   7   2.0000     -11.246340      -306.0285
   8   2.0000     -11.227519      -305.5163
   9   2.0000      -1.481427       -40.3117
  10   2.0000      -1.284456       -34.9518
  11   2.0000      -1.216105       -33.0919
  12   2.0000      -1.143205       -31.1082
  13   2.0000      -1.092339       -29.7240
  14   2.0000      -0.963592       -26.2207
  15   2.0000      -0.888101       -24.1665
  16   2.0000      -0.858515       -23.3614
  17   2.0000      -0.772915       -21.0321
  18   2.0000      -0.728082       -19.8121
  19   2.0000      -0.697014       -18.9667
  20   2.0000      -0.666552       -18.1378
  21   2.0000      -0.657342       -17.8872
  22   2.0000      -0.640975       -17.4418
  23   2.0000      -0.577381       -15.7113
  24   2.0000      -0.574339       -15.6286
  25   2.0000      -0.559049       -15.2125
  26   2.0000      -0.542256       -14.7555
  27   2.0000      -0.526690       -14.3320
  28   2.0000      -0.502187       -13.6652
  29   2.0000      -0.468973       -12.7614
  30   2.0000      -0.427250       -11.6261
  31   2.0000      -0.395530       -10.7629
  32   2.0000      -0.330118        -8.9830
  33   0.0000       0.083032         2.2594
  34   0.0000       0.123859         3.3704
  35   0.0000       0.143719         3.9108
  36   0.0000       0.150962         4.1079
  37   0.0000       0.173162         4.7120

MULLIKEN ATOMIC CHARGES
-----------------------
   0 C :   -0.380722
   1 C :    0.004287
   2 C :    0.029345
   3 O :   -0.125829
   4 N :   -0.126969
   5 C :    0.222255
   6 N :   -0.519687
   7 C :   -0.045995
   8 N :   -0.342599
   9 H :    0.153346
  10 H :    0.127450
  11 H :    0.147821
  12 H :    0.146325
  13 H :    0.258881
  14 H :    0.254307
  15 H :    0.197785
Sum of atomic charges:   -0.0000000

LOEWDIN ATOMIC CHARGES
----------------------
   0 C :   -0.254572
   1 C :   -0.180943
   2 C :   -0.221564
   3 O :    0.242595
   4 N :    0.046128
   5 C :   -0.336363
   6 N :   -0.054145
   7 C :   -0.257397
   8 N :   -0.038985
   9 H :    0.139484
  10 H :    0.128299
  11 H :    0.138096
  12 H :    0.147728
  13 H :    0.177291
  14 H :    0.171376
  15 H :    0.152973

  Mayer bond orders larger than 0.1
B(  0-C ,  1-C ) :   0.9135 B(  0-C ,  9-H ) :   0.9207 B(  0-C , 10-H ) :   0.9381
B(  0-C , 11-H ) :   0.9249 B(  1-C ,  2-C ) :   1.5762 B(  1-C ,  7-C ) :   1.0795
B(  1-C ,  8-N ) :  -0.1168 B(  2-C ,  3-O ) :   1.0931 B(  2-C , 12-H ) :   0.9314
B(  3-O ,  4-N ) :   0.8240 B(  4-N ,  5-C ) :   1.6833 B(  5-C ,  6-N ) :   1.0464
B(  5-C ,  7-C ) :   0.9489 B(  6-N , 13-H ) :   0.8653 B(  6-N , 14-H ) :   0.8611
B(  7-C ,  8-N ) :   1.9977 B(  8-N , 15-H ) :   0.8641

MP2 TOTAL ENERGY:     -433.318783803 Eh
FINAL SINGLE POINT ENERGY      -433.318783802812

DIPOLE MOMENT
-------------
                                X             Y             Z
Electronic contribution:     -0.17343      -5.69960      -2.28710
Nuclear contribution   :     -0.23565       5.61417       2.40994
                        -----------------------------------------
Total Dipole Moment    :     -0.40908      -0.08543       0.12284
                        -----------------------------------------
Magnitude (a.u.)       :      0.43558
Magnitude (Debye)      :      1.10716

                             ****ORCA TERMINATED NORMALLY****
TOTAL RUN TIME: 0 days 0 hours 15 minutes 27 seconds 999 msec
