                         Program Version 3.0.3 - RELEASE   -
|  1> ! RI-MP2 RIJK def2-TZVP def2-TZVP/C def2-TZVP/JK TIGHTSCF
|  2> % maxcore 2000
|  3> % mp2 density relaxed end
|  4> *xyz 0 1
|  5>  C        0.0812898281     1.5050932273     0.0171111589
|  6>  C       -0.0238510944    -0.0262510484     0.0019241054
|  7>  C       -1.4892199497    -0.4754356425    -0.0830884151
|  8>  C        0.8285380099    -0.6463393435    -1.1024884346
|  9>  C        2.2625692986    -0.8380226275    -0.6513320882
| 10>  C        1.3217991995    -2.0249663068    -0.7115386106
| 11>  C        1.2343183975    -2.0344496765     0.8371433432
| 12>  C        2.1756179063    -0.8479275706     0.8973775845
| 13>  C        0.6999892852    -0.6601686418     1.1872525821
| 14>  H        1.1259439183     1.8249210980     0.0776631643
| 15>  H       -0.3547598767     1.9393878185    -0.8895674705
| 16>  H       -0.4537404662     1.9287099711     0.8744977743
| 17>  H       -1.9667332933    -0.0934776034    -0.9924338986
| 18>  H       -1.5637931329    -1.5670312602    -0.0938784090
| 19>  H       -2.0657818512    -0.1041484876     0.7716276613
| 20>  H        0.6270647223    -0.4337816570    -2.1469446088
| 21>  H        3.1335255053    -0.6152624289    -1.2518856445
| 22>  H        1.3348726183    -2.8846652309    -1.3669748427
| 23>  H        1.1739780750    -2.9021074367     1.4793117794
| 24>  H        2.9737324968    -0.6335850121     1.5944571792
| 25>  H        0.3827488633    -0.4600553906     2.2050807500
| 26> *
| 27>
| 28>                          ****END OF INPUT****

CARTESIAN COORDINATES (ANGSTROEM)
---------------------------------
  C      0.081290    1.505093    0.017111
  C     -0.023851   -0.026251    0.001924
  C     -1.489220   -0.475436   -0.083088
  C      0.828538   -0.646339   -1.102488
  C      2.262569   -0.838023   -0.651332
  C      1.321799   -2.024966   -0.711539
  C      1.234318   -2.034450    0.837143
  C      2.175618   -0.847928    0.897378
  C      0.699989   -0.660169    1.187253
  H      1.125944    1.824921    0.077663
  H     -0.354760    1.939388   -0.889567
  H     -0.453740    1.928710    0.874498
  H     -1.966733   -0.093478   -0.992434
  H     -1.563793   -1.567031   -0.093878
  H     -2.065782   -0.104148    0.771628
  H      0.627065   -0.433782   -2.146945
  H      3.133526   -0.615262   -1.251886
  H      1.334873   -2.884665   -1.366975
  H      1.173978   -2.902107    1.479312
  H      2.973732   -0.633585    1.594457
  H      0.382749   -0.460055    2.205081

 Total Charge           Charge          ....    0
 Multiplicity           Mult            ....    1
 Number of Electrons    NEL             ....   66
 Basis Dimension        Dim             ....  351

ORBITAL ENERGIES
----------------

  NO   OCC          E(Eh)            E(eV)
   0   2.0000     -11.229247      -305.5634
   1   2.0000     -11.226534      -305.4895
   2   2.0000     -11.226024      -305.4756
   3   2.0000     -11.225828      -305.4703
   4   2.0000     -11.225292      -305.4557
   5   2.0000     -11.223008      -305.3936
   6   2.0000     -11.222976      -305.3927
   7   2.0000     -11.206251      -304.9376
   8   2.0000     -11.206232      -304.9371
   9   2.0000      -1.240967       -33.7684
  10   2.0000      -1.059600       -28.8332
  11   2.0000      -1.045070       -28.4378
  12   2.0000      -0.926509       -25.2116
  13   2.0000      -0.876578       -23.8529
  14   2.0000      -0.862270       -23.4635
  15   2.0000      -0.762939       -20.7606
  16   2.0000      -0.738240       -20.0885
  17   2.0000      -0.713767       -19.4226
  18   2.0000      -0.698914       -19.0184
  19   2.0000      -0.605175       -16.4677
  20   2.0000      -0.604002       -16.4357
  21   2.0000      -0.577547       -15.7159
  22   2.0000      -0.566399       -15.4125
  23   2.0000      -0.540793       -14.7157
  24   2.0000      -0.529785       -14.4162
  25   2.0000      -0.517049       -14.0696
  26   2.0000      -0.500158       -13.6100
  27   2.0000      -0.469698       -12.7811
  28   2.0000      -0.455406       -12.3922
  29   2.0000      -0.428699       -11.6655
  30   2.0000      -0.398083       -10.8324
  31   2.0000      -0.385705       -10.4956
  32   2.0000      -0.330472        -8.9926
  33   0.0000       0.139719         3.8020
  34   0.0000       0.163959         4.4616
  35   0.0000       0.167575         4.5600
  36   0.0000       0.175843         4.7849
  37   0.0000       0.194658         5.2969

MULLIKEN ATOMIC CHARGES
-----------------------
   0 C :   -0.441406
   1 C :    0.328042
   2 C :   -0.441406
   3 C :   -0.240138
   4 C :   -0.135300
   5 C :   -0.135238
   6 C :   -0.135300
   7 C :   -0.135237
   8 C :   -0.240136
   9 H :    0.140116
  10 H :    0.127081
  11 H :    0.127087
  12 H :    0.127087
  13 H :    0.140116
  14 H :    0.127081
  15 H :    0.122022
  16 H :    0.135874
  17 H :    0.135879
  18 H :    0.135874
  19 H :    0.135879
  20 H :    0.122022
Sum of atomic charges:   -0.0000000

LOEWDIN ATOMIC CHARGES
----------------------
   0 C :   -0.259265
   1 C :   -0.279251
   2 C :   -0.259265
   3 C :   -0.136233
   4 C :   -0.133521
   5 C :   -0.133508
   6 C :   -0.133520
   7 C :   -0.133508
   8 C :   -0.136233
   9 H :    0.130131
  10 H :    0.124570
  11 H :    0.124573
  12 H :    0.124572
  13 H :    0.130131
  14 H :    0.124570
  15 H :    0.150847
  16 H :    0.136013
  17 H :    0.136018
  18 H :    0.136013
  19 H :    0.136017
  20 H :    0.150847

  Mayer bond orders larger than 0.1
B(  0-C ,  1-C ) :   0.8689 B(  0-C ,  9-H ) :   0.9406 B(  0-C , 10-H ) :   0.9379
B(  0-C , 11-H ) :   0.9378 B(  1-C ,  2-C ) :   0.8689 B(  1-C ,  3-C ) :   0.8603
B(  1-C ,  8-C ) :   0.8603 B(  2-C , 12-H ) :   0.9378 B(  2-C , 13-H ) :   0.9406
B(  2-C , 14-H ) :   0.9379 B(  3-C ,  4-C ) :   0.8943 B(  3-C ,  5-C ) :   0.8943
B(  3-C , 15-H ) :   0.9287 B(  4-C ,  5-C ) :   0.8900 B(  4-C ,  7-C ) :   0.8916
B(  4-C , 16-H ) :   0.9286 B(  5-C ,  6-C ) :   0.8916 B(  5-C , 17-H ) :   0.9286
B(  6-C ,  7-C ) :   0.8900 B(  6-C ,  8-C ) :   0.8943 B(  6-C , 18-H ) :   0.9286
B(  7-C ,  8-C ) :   0.8943 B(  7-C , 19-H ) :   0.9286 B(  8-C , 20-H ) :   0.9287

MP2 TOTAL ENERGY:     -349.272260653 Eh
FINAL SINGLE POINT ENERGY      -349.272260653127

DIPOLE MOMENT
-------------
                                X             Y             Z
Electronic contribution:      4.33092      -3.44556       0.22232
Nuclear contribution   :     -4.30966       3.42865      -0.22123
                        -----------------------------------------
Total Dipole Moment    :      0.02125      -0.01691       0.00109
                        -----------------------------------------
Magnitude (a.u.)       :      0.02718
Magnitude (Debye)      :      0.06909

                             ****ORCA TERMINATED NORMALLY****
TOTAL RUN TIME: 0 days 0 hours 24 minutes 22 seconds 841 msec
