                         Program Version 3.0.3 - RELEASE   -
|  1> ! RI-MP2 RIJK def2-TZVP def2-TZVP/C def2-TZVP/JK TIGHTSCF
|  2> % maxcore 2000
|  3> % mp2 density relaxed end
|  4> *xyz 0 1
|  5>  C        0.2507720994     1.3550066279     0.2196714920
|  6>  C       -0.0664192339    -0.1377912493     0.2495974044
|  7>  O        0.3069212975    -0.6123188259     1.5271115199
|  8>  C       -1.5502638681    -0.4420991219    -0.0998766736
|  9>  C       -1.8532268268    -1.9598485191    -0.2432855144
| 10>  C       -2.4822833649    -2.3834676701     1.0933121600
| 11>  O       -1.4222004604    -2.8980734196     1.9345256221
| 12>  C       -3.0395497210    -1.0826671573     1.6256573294
| 13>  C       -2.5170186286    -0.0343266331     0.9897144703
| 14>  H        1.3025913193     1.5123902096     0.4730581833
| 15>  H        0.0655232619     1.7786237305    -0.7723886265
| 16>  H       -0.3535147997     1.8970662322     0.9535528883
| 17>  H        0.5380217178    -0.6313294661    -0.5335198329
| 18>  H       -0.0949251348    -1.4826657408     1.6796325311
| 19>  H       -1.7633110199     0.0787110238    -1.0415592251
| 20>  H       -2.5808841515    -2.1149874751    -1.0447930207
| 21>  H       -0.9710341496    -2.5640908466    -0.4724227113
| 22>  H       -3.2374384490    -3.1707287052     0.9745058561
| 23>  H       -1.7159621202    -2.8500692141     2.8510238104
| 24>  H       -3.7303545667    -1.0393666040     2.4614150869
| 25>  H       -2.7191798809     1.0026903842     1.2339611004
| 26> *
| 27>
| 28>                          ****END OF INPUT****

CARTESIAN COORDINATES (ANGSTROEM)
---------------------------------
  C      0.250772    1.355007    0.219671
  C     -0.066419   -0.137791    0.249597
  O      0.306921   -0.612319    1.527112
  C     -1.550264   -0.442099   -0.099877
  C     -1.853227   -1.959849   -0.243286
  C     -2.482283   -2.383468    1.093312
  O     -1.422200   -2.898073    1.934526
  C     -3.039550   -1.082667    1.625657
  C     -2.517019   -0.034327    0.989714
  H      1.302591    1.512390    0.473058
  H      0.065523    1.778624   -0.772389
  H     -0.353515    1.897066    0.953553
  H      0.538022   -0.631329   -0.533520
  H     -0.094925   -1.482666    1.679633
  H     -1.763311    0.078711   -1.041559
  H     -2.580884   -2.114987   -1.044793
  H     -0.971034   -2.564091   -0.472423
  H     -3.237438   -3.170729    0.974506
  H     -1.715962   -2.850069    2.851024
  H     -3.730355   -1.039367    2.461415
  H     -2.719180    1.002690    1.233961

 Total Charge           Charge          ....    0
 Multiplicity           Mult            ....    1
 Number of Electrons    NEL             ....   70
 Basis Dimension        Dim             ....  351

ORBITAL ENERGIES
----------------

  NO   OCC          E(Eh)            E(eV)
   0   2.0000     -20.568670      -559.7020
   1   2.0000     -20.528640      -558.6127
   2   2.0000     -11.291193      -307.2490
   3   2.0000     -11.272797      -306.7484
   4   2.0000     -11.238604      -305.8180
   5   2.0000     -11.234851      -305.7159
   6   2.0000     -11.228798      -305.5511
   7   2.0000     -11.226807      -305.4970
   8   2.0000     -11.206731      -304.9507
   9   2.0000      -1.371007       -37.3070
  10   2.0000      -1.339968       -36.4624
  11   2.0000      -1.138321       -30.9753
  12   2.0000      -1.021626       -27.7998
  13   2.0000      -0.977893       -26.6098
  14   2.0000      -0.942553       -25.6482
  15   2.0000      -0.828834       -22.5537
  16   2.0000      -0.778171       -21.1751
  17   2.0000      -0.750068       -20.4104
  18   2.0000      -0.708475       -19.2786
  19   2.0000      -0.696046       -18.9404
  20   2.0000      -0.652366       -17.7518
  21   2.0000      -0.633337       -17.2340
  22   2.0000      -0.599761       -16.3203
  23   2.0000      -0.584181       -15.8964
  24   2.0000      -0.567222       -15.4349
  25   2.0000      -0.541403       -14.7323
  26   2.0000      -0.529112       -14.3979
  27   2.0000      -0.526044       -14.3144
  28   2.0000      -0.504782       -13.7358
  29   2.0000      -0.499344       -13.5878
  30   2.0000      -0.477597       -12.9961
  31   2.0000      -0.457271       -12.4430
  32   2.0000      -0.450933       -12.2705
  33   2.0000      -0.419258       -11.4086
  34   2.0000      -0.364190        -9.9101
  35   0.0000       0.123860         3.3704
  36   0.0000       0.135206         3.6792
  37   0.0000       0.161986         4.4079
  38   0.0000       0.164616         4.4794
  39   0.0000       0.176179         4.7941

MULLIKEN ATOMIC CHARGES
-----------------------
   0 C :   -0.407144
   1 C :    0.120352
   2 O :   -0.483016
   3 C :   -0.064638
   4 C :   -0.244247
   5 C :    0.128040
   6 O :   -0.504128
   7 C :   -0.250820
   8 C :   -0.155889
   9 H :    0.141798
  10 H :    0.117843
  11 H :    0.124181
  12 H :    0.076445
  13 H :    0.326575
  14 H :    0.106245
  15 H :    0.128704
  16 H :    0.143373
  17 H :    0.102010
  18 H :    0.322406
  19 H :    0.135937
  20 H :    0.135975
Sum of atomic charges:    0.0000000

LOEWDIN ATOMIC CHARGES
----------------------
   0 C :   -0.294236
   1 C :   -0.360530
   2 O :   -0.014876
   3 C :   -0.217744
   4 C :   -0.199691
   5 C :   -0.312195
   6 O :   -0.035629
   7 C :   -0.157559
   8 C :   -0.112645
   9 H :    0.127956
  10 H :    0.122109
  11 H :    0.123140
  12 H :    0.134023
  13 H :    0.164805
  14 H :    0.157786
  15 H :    0.144640
  16 H :    0.144568
  17 H :    0.134108
  18 H :    0.174832
  19 H :    0.136437
  20 H :    0.140701

  Mayer bond orders larger than 0.1
B(  0-C ,  1-C ) :   0.9005 B(  0-C ,  9-H ) :   0.9387 B(  0-C , 10-H ) :   0.9354
B(  0-C , 11-H ) :   0.9406 B(  1-C ,  2-O ) :   0.9694 B(  1-C ,  3-C ) :   0.8771
B(  1-C , 12-H ) :   0.9393 B(  2-O , 13-H ) :   0.8065 B(  3-C ,  4-C ) :   0.9165
B(  3-C ,  8-C ) :   0.9435 B(  3-C , 14-H ) :   0.9156 B(  4-C ,  5-C ) :   0.9230
B(  4-C , 15-H ) :   0.9210 B(  4-C , 16-H ) :   0.9395 B(  5-C ,  6-O ) :   0.8756
B(  5-C ,  7-C ) :   0.9407 B(  5-C , 17-H ) :   0.9422 B(  6-O , 18-H ) :   0.8394
B(  7-C ,  8-C ) :   1.7733 B(  7-C , 19-H ) :   0.9226 B(  8-C , 20-H ) :   0.9171

MP2 TOTAL ENERGY:     -423.539477858 Eh
FINAL SINGLE POINT ENERGY      -423.539477857503

DIPOLE MOMENT
-------------
                                X             Y             Z
Electronic contribution:     -1.47804      -3.50665       2.96277
Nuclear contribution   :      0.50107       3.40842      -3.13851
                        -----------------------------------------
Total Dipole Moment    :     -0.97696      -0.09823      -0.17575
                        -----------------------------------------
Magnitude (a.u.)       :      0.99749
Magnitude (Debye)      :      2.53543

                             ****ORCA TERMINATED NORMALLY****
TOTAL RUN TIME: 0 days 0 hours 21 minutes 35 seconds 567 msec
