                         Program Version 3.0.3 - RELEASE   -
|  1> ! RI-MP2 RIJK def2-TZVP def2-TZVP/C def2-TZVP/JK TIGHTSCF
|  2> % maxcore 2000
|  3> % mp2 density relaxed end
|  4> *xyz 0 1
|  5>  C        0.0654954657     1.5976538922     0.1003168079
|  6>  C        0.0093452075     0.0593512135     0.1359531930
|  7>  C       -1.3892569031    -0.4933332748    -0.0275971973
|  8>  C       -1.9574508940    -0.8461811650    -1.1881997862
|  9>  C       -1.3081785469    -0.7161779419    -2.5405428423
| 10>  C       -3.3612709651    -1.4148683611    -1.2070224704
| 11>  C       -3.7998310750    -1.8646191303     0.1836153859
| 12>  O       -3.5343515971    -0.8555660502     1.1399977052
| 13>  C       -2.1507698788    -0.6200085998     1.2761146057
| 14>  H        1.0829200512     1.9571233120     0.2855256703
| 15>  H       -0.2577828879     1.9778291036    -0.8736000694
| 16>  H       -0.5880873018     2.0396348999     0.8593527936
| 17>  H        0.6788552443    -0.3454285085    -0.6288253974
| 18>  H        0.4124321607    -0.2864820498     1.0977973422
| 19>  H       -1.1984814989    -1.6983654768    -3.0194013841
| 20>  H       -1.9380251417    -0.1170968046    -3.2115395813
| 21>  H       -0.3242814495    -0.2457566117    -2.5050479976
| 22>  H       -4.0634510126    -0.6646293426    -1.5980781001
| 23>  H       -3.4093378438    -2.2657622184    -1.9007220319
| 24>  H       -4.8759960867    -2.0560733895     0.2247449325
| 25>  H       -3.2783726752    -2.7973071524     0.4583484028
| 26>  H       -1.6827281402    -1.4164348634     1.8878232103
| 27>  H       -2.0585181710     0.3074692995     1.8551484886
| 28> *
| 29>
| 30>                          ****END OF INPUT****

CARTESIAN COORDINATES (ANGSTROEM)
---------------------------------
  C      0.065495    1.597654    0.100317
  C      0.009345    0.059351    0.135953
  C     -1.389257   -0.493333   -0.027597
  C     -1.957451   -0.846181   -1.188200
  C     -1.308179   -0.716178   -2.540543
  C     -3.361271   -1.414868   -1.207022
  C     -3.799831   -1.864619    0.183615
  O     -3.534352   -0.855566    1.139998
  C     -2.150770   -0.620009    1.276115
  H      1.082920    1.957123    0.285526
  H     -0.257783    1.977829   -0.873600
  H     -0.588087    2.039635    0.859353
  H      0.678855   -0.345429   -0.628825
  H      0.412432   -0.286482    1.097797
  H     -1.198481   -1.698365   -3.019401
  H     -1.938025   -0.117097   -3.211540
  H     -0.324281   -0.245757   -2.505048
  H     -4.063451   -0.664629   -1.598078
  H     -3.409338   -2.265762   -1.900722
  H     -4.875996   -2.056073    0.224745
  H     -3.278373   -2.797307    0.458348
  H     -1.682728   -1.416435    1.887823
  H     -2.058518    0.307469    1.855148

 Total Charge           Charge          ....    0
 Multiplicity           Mult            ....    1
 Number of Electrons    NEL             ....   70
 Basis Dimension        Dim             ....  363

ORBITAL ENERGIES
----------------

  NO   OCC          E(Eh)            E(eV)
   0   2.0000     -20.547919      -559.1373
   1   2.0000     -11.271564      -306.7148
   2   2.0000     -11.268899      -306.6423
   3   2.0000     -11.227276      -305.5097
   4   2.0000     -11.226588      -305.4910
   5   2.0000     -11.222268      -305.3734
   6   2.0000     -11.221806      -305.3609
   7   2.0000     -11.219612      -305.3012
   8   2.0000     -11.216443      -305.2149
   9   2.0000      -1.372709       -37.3533
  10   2.0000      -1.110444       -30.2167
  11   2.0000      -1.049049       -28.5461
  12   2.0000      -0.993987       -27.0478
  13   2.0000      -0.957648       -26.0589
  14   2.0000      -0.881094       -23.9758
  15   2.0000      -0.846903       -23.0454
  16   2.0000      -0.817659       -22.2496
  17   2.0000      -0.692824       -18.8527
  18   2.0000      -0.663354       -18.0508
  19   2.0000      -0.652917       -17.7668
  20   2.0000      -0.622708       -16.9447
  21   2.0000      -0.614128       -16.7113
  22   2.0000      -0.586796       -15.9675
  23   2.0000      -0.575568       -15.6620
  24   2.0000      -0.562465       -15.3054
  25   2.0000      -0.540987       -14.7210
  26   2.0000      -0.534871       -14.5546
  27   2.0000      -0.523845       -14.2545
  28   2.0000      -0.511622       -13.9219
  29   2.0000      -0.506868       -13.7926
  30   2.0000      -0.495215       -13.4755
  31   2.0000      -0.472118       -12.8470
  32   2.0000      -0.443947       -12.0804
  33   2.0000      -0.403793       -10.9878
  34   2.0000      -0.327486        -8.9113
  35   0.0000       0.130268         3.5448
  36   0.0000       0.151619         4.1258
  37   0.0000       0.159333         4.3357
  38   0.0000       0.167494         4.5578
  39   0.0000       0.175304         4.7703

MULLIKEN ATOMIC CHARGES
-----------------------
   0 C :   -0.384194
   1 C :   -0.258956
   2 C :    0.057666
   3 C :   -0.056203
   4 C :   -0.430979
   5 C :   -0.193905
   6 C :   -0.048977
   7 O :   -0.312342
   8 C :   -0.080456
   9 H :    0.130855
  10 H :    0.129626
  11 H :    0.124810
  12 H :    0.125740
  13 H :    0.118413
  14 H :    0.138066
  15 H :    0.140068
  16 H :    0.130039
  17 H :    0.113625
  18 H :    0.113238
  19 H :    0.125444
  20 H :    0.086607
  21 H :    0.107215
  22 H :    0.124602
Sum of atomic charges:    0.0000000

LOEWDIN ATOMIC CHARGES
----------------------
   0 C :   -0.309057
   1 C :   -0.253888
   2 C :   -0.160211
   3 C :   -0.173963
   4 C :   -0.271704
   5 C :   -0.232753
   6 C :   -0.310178
   7 O :    0.160330
   8 C :   -0.287246
   9 H :    0.119893
  10 H :    0.121725
  11 H :    0.120690
  12 H :    0.139869
  13 H :    0.143526
  14 H :    0.129685
  15 H :    0.132320
  16 H :    0.125705
  17 H :    0.145000
  18 H :    0.145345
  19 H :    0.128151
  20 H :    0.122228
  21 H :    0.127050
  22 H :    0.137481

  Mayer bond orders larger than 0.1
B(  0-C ,  1-C ) :   0.9204 B(  0-C ,  9-H ) :   0.9382 B(  0-C , 10-H ) :   0.9382
B(  0-C , 11-H ) :   0.9370 B(  1-C ,  2-C ) :   0.8620 B(  1-C , 12-H ) :   0.9491
B(  1-C , 13-H ) :   0.9319 B(  2-C ,  3-C ) :   1.7143 B(  2-C ,  8-C ) :   0.9238
B(  3-C ,  4-C ) :   0.8892 B(  3-C ,  5-C ) :   0.9458 B(  4-C , 14-H ) :   0.9359
B(  4-C , 15-H ) :   0.9324 B(  4-C , 16-H ) :   0.9505 B(  5-C ,  6-C ) :   0.9561
B(  5-C , 17-H ) :   0.9032 B(  5-C , 18-H ) :   0.9211 B(  6-C ,  7-O ) :   0.9176
B(  6-C , 19-H ) :   0.9318 B(  6-C , 20-H ) :   0.9320 B(  7-O ,  8-C ) :   0.9653
B(  8-C , 21-H ) :   0.9526 B(  8-C , 22-H ) :   0.9185

MP2 TOTAL ENERGY:     -387.625217811 Eh
FINAL SINGLE POINT ENERGY      -387.625217811463

DIPOLE MOMENT
-------------
                                X             Y             Z
Electronic contribution:     -4.90274      -2.30463       3.28728
Nuclear contribution   :      5.31161       2.11765      -3.68357
                        -----------------------------------------
Total Dipole Moment    :      0.40888      -0.18698      -0.39629
                        -----------------------------------------
Magnitude (a.u.)       :      0.59932
Magnitude (Debye)      :      1.52335

                             ****ORCA TERMINATED NORMALLY****
TOTAL RUN TIME: 0 days 0 hours 19 minutes 38 seconds 802 msec
