                         Program Version 3.0.3 - RELEASE   -
|  1> ! RI-MP2 RIJK def2-TZVP def2-TZVP/C def2-TZVP/JK TIGHTSCF
|  2> % maxcore 2000
|  3> % mp2 density relaxed end
|  4> *xyz 0 1
|  5>  C        0.0886810121     1.5125807008    -0.1454908283
|  6>  O        1.5464001571     1.5184842800     0.0338523275
|  7>  C        1.5172379419     0.2078685125     0.5947961637
|  8>  C        1.7812248337    -0.3112441078     1.9931995435
|  9>  C        0.9951858938    -1.5436646290     1.4381916069
| 10>  C       -0.4460729571    -0.9572249066     1.2611350067
| 11>  C        0.0390273653     0.0125735838     0.1749190644
| 12>  N        0.5057685190    -0.8598096863    -0.9533516132
| 13>  C        1.5973433221    -1.2032359975    -0.0437560397
| 14>  H       -0.3967491144     2.1690590890     0.5869061721
| 15>  H       -0.1913839504     1.7933495292    -1.1634118667
| 16>  H        2.8372161702    -0.5368702615     2.1681495835
| 17>  H        1.3590601424     0.2156143110     2.8538436806
| 18>  H        1.1247375309    -2.5300683510     1.8792405652
| 19>  H       -1.1992404784    -1.6713003083     0.9153065709
| 20>  H       -0.8043644828    -0.4825926443     2.1782101842
| 21>  H       -0.1321342099    -1.6233292054    -1.1761633675
| 22>  H        2.4678420344    -1.7623940688    -0.3920221238
| 23> *
| 24>
| 25>                          ****END OF INPUT****

CARTESIAN COORDINATES (ANGSTROEM)
---------------------------------
  C      0.088681    1.512581   -0.145491
  O      1.546400    1.518484    0.033852
  C      1.517238    0.207869    0.594796
  C      1.781225   -0.311244    1.993200
  C      0.995186   -1.543665    1.438192
  C     -0.446073   -0.957225    1.261135
  C      0.039027    0.012574    0.174919
  N      0.505769   -0.859810   -0.953352
  C      1.597343   -1.203236   -0.043756
  H     -0.396749    2.169059    0.586906
  H     -0.191384    1.793350   -1.163412
  H      2.837216   -0.536870    2.168150
  H      1.359060    0.215614    2.853844
  H      1.124738   -2.530068    1.879241
  H     -1.199240   -1.671300    0.915307
  H     -0.804364   -0.482593    2.178210
  H     -0.132134   -1.623329   -1.176163
  H      2.467842   -1.762394   -0.392022

 Total Charge           Charge          ....    0
 Multiplicity           Mult            ....    1
 Number of Electrons    NEL             ....   66
 Basis Dimension        Dim             ....  333

ORBITAL ENERGIES
----------------

  NO   OCC          E(Eh)            E(eV)
   0   2.0000     -20.554330      -559.3118
   1   2.0000     -15.548548      -423.0975
   2   2.0000     -11.287255      -307.1418
   3   2.0000     -11.280838      -306.9672
   4   2.0000     -11.271505      -306.7133
   5   2.0000     -11.262675      -306.4730
   6   2.0000     -11.249110      -306.1039
   7   2.0000     -11.242073      -305.9124
   8   2.0000     -11.232101      -305.6410
   9   2.0000      -1.387193       -37.7474
  10   2.0000      -1.263695       -34.3869
  11   2.0000      -1.105413       -30.0798
  12   2.0000      -0.999085       -27.1865
  13   2.0000      -0.940507       -25.5925
  14   2.0000      -0.888819       -24.1860
  15   2.0000      -0.873021       -23.7561
  16   2.0000      -0.765016       -20.8171
  17   2.0000      -0.699106       -19.0237
  18   2.0000      -0.689376       -18.7589
  19   2.0000      -0.660986       -17.9863
  20   2.0000      -0.657335       -17.8870
  21   2.0000      -0.618902       -16.8412
  22   2.0000      -0.596868       -16.2416
  23   2.0000      -0.580619       -15.7994
  24   2.0000      -0.536150       -14.5894
  25   2.0000      -0.503408       -13.6984
  26   2.0000      -0.491339       -13.3700
  27   2.0000      -0.480770       -13.0824
  28   2.0000      -0.477586       -12.9958
  29   2.0000      -0.455433       -12.3930
  30   2.0000      -0.409995       -11.1565
  31   2.0000      -0.385276       -10.4839
  32   2.0000      -0.368548       -10.0287
  33   0.0000       0.135604         3.6900
  34   0.0000       0.152458         4.1486
  35   0.0000       0.161995         4.4081
  36   0.0000       0.176448         4.8014
  37   0.0000       0.185130         5.0377

MULLIKEN ATOMIC CHARGES
-----------------------
   0 C :   -0.007901
   1 O :   -0.322043
   2 C :    0.193021
   3 C :   -0.269117
   4 C :   -0.017385
   5 C :   -0.271562
   6 C :   -0.018600
   7 N :   -0.303706
   8 C :   -0.144546
   9 H :    0.095855
  10 H :    0.112327
  11 H :    0.129549
  12 H :    0.116715
  13 H :    0.133101
  14 H :    0.126053
  15 H :    0.123721
  16 H :    0.198293
  17 H :    0.126225
Sum of atomic charges:    0.0000000

LOEWDIN ATOMIC CHARGES
----------------------
   0 C :   -0.210076
   1 O :    0.162382
   2 C :   -0.264415
   3 C :   -0.184241
   4 C :   -0.161339
   5 C :   -0.197198
   6 C :   -0.225286
   7 N :    0.053878
   8 C :   -0.185259
   9 H :    0.121789
  10 H :    0.126277
  11 H :    0.144008
  12 H :    0.129878
  13 H :    0.130912
  14 H :    0.131801
  15 H :    0.141173
  16 H :    0.157200
  17 H :    0.128516

  Mayer bond orders larger than 0.1
B(  0-C ,  1-O ) :   0.9345 B(  0-C ,  6-C ) :   0.9644 B(  0-C ,  9-H ) :   0.9122
B(  0-C , 10-H ) :   0.8927 B(  1-O ,  2-C ) :   0.9897 B(  2-C ,  3-C ) :   0.9463
B(  2-C ,  6-C ) :   0.8369 B(  2-C ,  8-C ) :   0.8760 B(  3-C ,  4-C ) :   0.9009
B(  3-C , 11-H ) :   0.9245 B(  3-C , 12-H ) :   0.9082 B(  4-C ,  5-C ) :   0.8868
B(  4-C ,  8-C ) :   0.8031 B(  4-C , 13-H ) :   0.9118 B(  5-C ,  6-C ) :   0.9882
B(  5-C , 14-H ) :   0.9184 B(  5-C , 15-H ) :   0.9226 B(  6-C ,  7-N ) :   0.9381
B(  7-N ,  8-C ) :   0.9856 B(  7-N , 16-H ) :   0.8674 B(  8-C , 17-H ) :   0.9066

MP2 TOTAL ENERGY:     -401.164219847 Eh
FINAL SINGLE POINT ENERGY      -401.164219847351

DIPOLE MOMENT
-------------
                                X             Y             Z
Electronic contribution:      1.67959       2.05007      -2.72305
Nuclear contribution   :     -2.36056      -2.78819       3.34403
                        -----------------------------------------
Total Dipole Moment    :     -0.68097      -0.73812       0.62098
                        -----------------------------------------
Magnitude (a.u.)       :      1.18075
Magnitude (Debye)      :      3.00122

                             ****ORCA TERMINATED NORMALLY****
TOTAL RUN TIME: 0 days 0 hours 21 minutes 1 seconds 35 msec
