                         Program Version 3.0.3 - RELEASE   -
|  1> ! RI-MP2 RIJK def2-TZVP def2-TZVP/C def2-TZVP/JK TIGHTSCF
|  2> % maxcore 2000
|  3> % mp2 density relaxed end
|  4> *xyz 0 1
|  5>  C       -0.1002831475     1.5833800405    -0.0031388307
|  6>  C        0.0088819800     0.0581076688     0.0042431436
|  7>  C        0.8466671213    -0.5313432793    -1.1602487155
|  8>  N        1.5928370158    -1.6974647439    -0.6229037173
|  9>  C        1.2149894109    -1.9362951568     0.7446744000
| 10>  C        2.6083845491    -1.4106877466     0.4178663624
| 11>  C        2.2589592670    -0.1694211253     1.1923965573
| 12>  O        2.9159882127     0.6617955940     1.7560866169
| 13>  C        0.7490447866    -0.5309901710     1.2191410398
| 14>  H        0.8862701920     2.0501118257     0.0816616660
| 15>  H       -0.5665463063     1.9377060274    -0.9282163124
| 16>  H       -0.7102480958     1.9399043446     0.8328034608
| 17>  H       -1.0006482617    -0.3722351015    -0.0237474040
| 18>  H        0.2187774374    -0.8847169585    -1.9828882823
| 19>  H        1.5555993188     0.1967083466    -1.5670457404
| 20>  H        0.9372335111    -2.9149325256     1.1142580456
| 21>  H        3.5665836848    -1.9128683038     0.3481705071
| 22>  H        0.2621945940    -0.4066856054     2.1862906231
| 23> *
| 24>
| 25>                          ****END OF INPUT****

CARTESIAN COORDINATES (ANGSTROEM)
---------------------------------
  C     -0.100283    1.583380   -0.003139
  C      0.008882    0.058108    0.004243
  C      0.846667   -0.531343   -1.160249
  N      1.592837   -1.697465   -0.622904
  C      1.214989   -1.936295    0.744674
  C      2.608385   -1.410688    0.417866
  C      2.258959   -0.169421    1.192397
  O      2.915988    0.661796    1.756087
  C      0.749045   -0.530990    1.219141
  H      0.886270    2.050112    0.081662
  H     -0.566546    1.937706   -0.928216
  H     -0.710248    1.939904    0.832803
  H     -1.000648   -0.372235   -0.023747
  H      0.218777   -0.884717   -1.982888
  H      1.555599    0.196708   -1.567046
  H      0.937234   -2.914933    1.114258
  H      3.566584   -1.912868    0.348171
  H      0.262195   -0.406686    2.186291

 Total Charge           Charge          ....    0
 Multiplicity           Mult            ....    1
 Number of Electrons    NEL             ....   66
 Basis Dimension        Dim             ....  333

ORBITAL ENERGIES
----------------

  NO   OCC          E(Eh)            E(eV)
   0   2.0000     -20.549925      -559.1919
   1   2.0000     -15.588125      -424.1744
   2   2.0000     -11.337862      -308.5189
   3   2.0000     -11.287597      -307.1511
   4   2.0000     -11.278208      -306.8956
   5   2.0000     -11.263708      -306.5011
   6   2.0000     -11.255679      -306.2826
   7   2.0000     -11.249428      -306.1125
   8   2.0000     -11.225690      -305.4666
   9   2.0000      -1.395811       -37.9819
  10   2.0000      -1.324142       -36.0317
  11   2.0000      -1.090257       -29.6674
  12   2.0000      -1.054487       -28.6940
  13   2.0000      -0.951870       -25.9017
  14   2.0000      -0.899149       -24.4671
  15   2.0000      -0.817206       -22.2373
  16   2.0000      -0.800759       -21.7897
  17   2.0000      -0.732611       -19.9354
  18   2.0000      -0.691706       -18.8223
  19   2.0000      -0.668580       -18.1930
  20   2.0000      -0.646689       -17.5973
  21   2.0000      -0.606063       -16.4918
  22   2.0000      -0.591916       -16.1068
  23   2.0000      -0.577677       -15.7194
  24   2.0000      -0.565302       -15.3827
  25   2.0000      -0.545458       -14.8427
  26   2.0000      -0.518673       -14.1138
  27   2.0000      -0.496947       -13.5226
  28   2.0000      -0.484427       -13.1819
  29   2.0000      -0.466268       -12.6878
  30   2.0000      -0.447070       -12.1654
  31   2.0000      -0.416927       -11.3452
  32   2.0000      -0.378054       -10.2874
  33   0.0000       0.127365         3.4658
  34   0.0000       0.149470         4.0673
  35   0.0000       0.153273         4.1708
  36   0.0000       0.168606         4.5880
  37   0.0000       0.173129         4.7111

MULLIKEN ATOMIC CHARGES
-----------------------
   0 C :   -0.425113
   1 C :   -0.072836
   2 C :   -0.171428
   3 N :   -0.189362
   4 C :   -0.112433
   5 C :   -0.083031
   6 C :    0.080321
   7 O :   -0.266718
   8 C :    0.004220
   9 H :    0.147787
  10 H :    0.137178
  11 H :    0.135260
  12 H :    0.101254
  13 H :    0.131864
  14 H :    0.133595
  15 H :    0.159122
  16 H :    0.146122
  17 H :    0.144199
Sum of atomic charges:    0.0000000

LOEWDIN ATOMIC CHARGES
----------------------
   0 C :   -0.287753
   1 C :   -0.251326
   2 C :   -0.232250
   3 N :    0.156378
   4 C :   -0.165491
   5 C :   -0.161529
   6 C :   -0.300664
   7 O :    0.152561
   8 C :   -0.149311
   9 H :    0.130226
  10 H :    0.126125
  11 H :    0.126661
  12 H :    0.152851
  13 H :    0.134475
  14 H :    0.138029
  15 H :    0.138223
  16 H :    0.139467
  17 H :    0.153329

  Mayer bond orders larger than 0.1
B(  0-C ,  1-C ) :   0.9057 B(  0-C ,  9-H ) :   0.9282 B(  0-C , 10-H ) :   0.9382
B(  0-C , 11-H ) :   0.9362 B(  1-C ,  2-C ) :   0.9401 B(  1-C ,  8-C ) :   0.8842
B(  1-C , 12-H ) :   0.9190 B(  2-C ,  3-N ) :   0.8944 B(  2-C , 13-H ) :   0.9230
B(  2-C , 14-H ) :   0.9285 B(  3-N ,  4-C ) :   0.9547 B(  3-N ,  5-C ) :   0.8760
B(  4-C ,  5-C ) :   0.8251 B(  4-C ,  8-C ) :   0.8685 B(  4-C , 15-H ) :   0.8981
B(  5-C ,  6-C ) :   0.9106 B(  5-C ,  8-C ) :  -0.1108 B(  5-C , 16-H ) :   0.9200
B(  6-C ,  7-O ) :   2.0041 B(  6-C ,  8-C ) :   0.8644 B(  8-C , 17-H ) :   0.8982

MP2 TOTAL ENERGY:     -401.240667793 Eh
FINAL SINGLE POINT ENERGY      -401.240667793499

DIPOLE MOMENT
-------------
                                X             Y             Z
Electronic contribution:      5.54637      -3.39806       3.01832
Nuclear contribution   :     -6.47599       3.01251      -3.24890
                        -----------------------------------------
Total Dipole Moment    :     -0.92962      -0.38555      -0.23058
                        -----------------------------------------
Magnitude (a.u.)       :      1.03248
Magnitude (Debye)      :      2.62436

                             ****ORCA TERMINATED NORMALLY****
TOTAL RUN TIME: 0 days 0 hours 20 minutes 9 seconds 931 msec
