                         Program Version 3.0.3 - RELEASE   -
|  1> ! RI-MP2 RIJK def2-TZVP def2-TZVP/C def2-TZVP/JK TIGHTSCF
|  2> % maxcore 2000
|  3> % mp2 density relaxed end
|  4> *xyz 0 1
|  5>  C        0.0600619380     1.5981919056    -0.0940601705
|  6>  C        0.0705336947     0.0854662985     0.0150660646
|  7>  O       -1.2317660797    -0.4757777069    -0.1003188395
|  8>  C        1.1204581851    -0.7301306738    -0.8175686518
|  9>  O        2.3971682161    -0.1347251654    -0.4429618996
| 10>  C        2.1969117680    -0.7553115715     0.8332493336
| 11>  C        1.2130651388    -1.7734104727     0.3493077794
| 12>  C        0.7277380223    -0.5973866406     1.2128000738
| 13>  O        0.3109608563    -0.5654468570     2.5181550033
| 14>  H        1.0815392069     1.9828201391    -0.0832100953
| 15>  H       -0.4160884956     1.9208288668    -1.0292528065
| 16>  H       -0.4977928675     2.0367413213     0.7388695546
| 17>  H       -1.6615379855    -0.0731055929    -0.8621334834
| 18>  H        0.9990567917    -0.9154696856    -1.8835103032
| 19>  H        3.0101127060    -0.8005703788     1.5456184634
| 20>  H        1.1433837750    -2.8483169769     0.4240165393
| 21>  H       -0.6028947005    -0.8770952391     2.5321493979
| 22> *
| 23>
| 24>                          ****END OF INPUT****

CARTESIAN COORDINATES (ANGSTROEM)
---------------------------------
  C      0.060062    1.598192   -0.094060
  C      0.070534    0.085466    0.015066
  O     -1.231766   -0.475778   -0.100319
  C      1.120458   -0.730131   -0.817569
  O      2.397168   -0.134725   -0.442962
  C      2.196912   -0.755312    0.833249
  C      1.213065   -1.773410    0.349308
  C      0.727738   -0.597387    1.212800
  O      0.310961   -0.565447    2.518155
  H      1.081539    1.982820   -0.083210
  H     -0.416088    1.920829   -1.029253
  H     -0.497793    2.036741    0.738870
  H     -1.661538   -0.073106   -0.862133
  H      0.999057   -0.915470   -1.883510
  H      3.010113   -0.800570    1.545618
  H      1.143384   -2.848317    0.424017
  H     -0.602895   -0.877095    2.532149

 Total Charge           Charge          ....    0
 Multiplicity           Mult            ....    1
 Number of Electrons    NEL             ....   68
 Basis Dimension        Dim             ....  327

ORBITAL ENERGIES
----------------

  NO   OCC          E(Eh)            E(eV)
   0   2.0000     -20.579168      -559.9876
   1   2.0000     -20.570704      -559.7573
   2   2.0000     -20.558453      -559.4240
   3   2.0000     -11.299433      -307.4732
   4   2.0000     -11.298161      -307.4386
   5   2.0000     -11.297259      -307.4141
   6   2.0000     -11.293745      -307.3184
   7   2.0000     -11.239860      -305.8521
   8   2.0000     -11.219868      -305.3081
   9   2.0000      -1.419322       -38.6217
  10   2.0000      -1.384765       -37.6814
  11   2.0000      -1.372862       -37.3575
  12   2.0000      -1.143520       -31.1168
  13   2.0000      -1.019508       -27.7422
  14   2.0000      -0.940298       -25.5868
  15   2.0000      -0.868054       -23.6210
  16   2.0000      -0.778260       -21.1775
  17   2.0000      -0.768310       -20.9068
  18   2.0000      -0.736786       -20.0490
  19   2.0000      -0.673747       -18.3336
  20   2.0000      -0.659827       -17.9548
  21   2.0000      -0.641676       -17.4609
  22   2.0000      -0.633541       -17.2395
  23   2.0000      -0.613132       -16.6842
  24   2.0000      -0.576624       -15.6907
  25   2.0000      -0.549147       -14.9431
  26   2.0000      -0.548085       -14.9141
  27   2.0000      -0.539663       -14.6850
  28   2.0000      -0.529244       -14.4015
  29   2.0000      -0.500366       -13.6157
  30   2.0000      -0.467391       -12.7184
  31   2.0000      -0.428386       -11.6570
  32   2.0000      -0.379408       -10.3242
  33   2.0000      -0.376135       -10.2351
  34   0.0000       0.125407         3.4125
  35   0.0000       0.158034         4.3003
  36   0.0000       0.171503         4.6668
  37   0.0000       0.174220         4.7408
  38   0.0000       0.189099         5.1456

MULLIKEN ATOMIC CHARGES
-----------------------
   0 C :   -0.442028
   1 C :    0.193405
   2 O :   -0.471596
   3 C :    0.055457
   4 O :   -0.331133
   5 C :   -0.022032
   6 C :   -0.212738
   7 C :    0.152176
   8 O :   -0.465424
   9 H :    0.160215
  10 H :    0.114846
  11 H :    0.145183
  12 H :    0.319946
  13 H :    0.146873
  14 H :    0.148741
  15 H :    0.166143
  16 H :    0.341967
Sum of atomic charges:    0.0000000

LOEWDIN ATOMIC CHARGES
----------------------
   0 C :   -0.276815
   1 C :   -0.345631
   2 O :    0.014339
   3 C :   -0.164781
   4 O :    0.164267
   5 C :   -0.205209
   6 C :   -0.115764
   7 C :   -0.294903
   8 O :    0.049061
   9 H :    0.139099
  10 H :    0.123383
  11 H :    0.132394
  12 H :    0.178046
  13 H :    0.130461
  14 H :    0.139839
  15 H :    0.135507
  16 H :    0.196708

  Mayer bond orders larger than 0.1
B(  0-C ,  1-C ) :   0.9223 B(  0-C ,  9-H ) :   0.9276 B(  0-C , 10-H ) :   0.9222
B(  0-C , 11-H ) :   0.9325 B(  1-C ,  2-O ) :   1.0453 B(  1-C ,  3-C ) :   0.9010
B(  1-C ,  7-C ) :   0.8808 B(  2-O , 12-H ) :   0.8388 B(  3-C ,  4-O ) :   0.8747
B(  3-C ,  6-C ) :   0.9188 B(  3-C , 13-H ) :   0.8898 B(  4-O ,  5-C ) :   0.9400
B(  5-C ,  6-C ) :   0.9056 B(  5-C ,  7-C ) :   0.8975 B(  5-C , 14-H ) :   0.9184
B(  6-C ,  7-C ) :   0.7962 B(  6-C , 15-H ) :   0.8824 B(  7-C ,  8-O ) :   1.0233
B(  8-O , 16-H ) :   0.8255

MP2 TOTAL ENERGY:     -458.156386913 Eh
FINAL SINGLE POINT ENERGY      -458.156386913256

DIPOLE MOMENT
-------------
                                X             Y             Z
Electronic contribution:      1.80639      -3.14116       1.27413
Nuclear contribution   :     -2.49845       3.00304      -1.67836
                        -----------------------------------------
Total Dipole Moment    :     -0.69206      -0.13812      -0.40423
                        -----------------------------------------
Magnitude (a.u.)       :      0.81328
Magnitude (Debye)      :      2.06720

                             ****ORCA TERMINATED NORMALLY****
TOTAL RUN TIME: 0 days 0 hours 16 minutes 47 seconds 784 msec
