                         Program Version 3.0.3 - RELEASE   -
|  1> ! RI-MP2 RIJK def2-TZVP def2-TZVP/C def2-TZVP/JK TIGHTSCF
|  2> % maxcore 2000
|  3> % mp2 density relaxed end
|  4> *xyz 0 1
|  5>  C       -0.0385524118     1.4646377741    -0.0036865773
|  6>  C        0.0607573853    -0.0323254683     0.0048107828
|  7>  C        0.9106217958    -0.9176766071    -0.8907244822
|  8>  N        0.0595607104    -2.1061945134    -0.4992285873
|  9>  C        0.4189589952    -2.2458258587     0.9641530360
| 10>  C       -0.2677670942    -0.9199638752     1.2445423351
| 11>  C       -0.7200161699    -0.3764159863     2.5677421225
| 12>  C       -1.0231820951    -1.0825970838    -0.0532439953
| 13>  C       -2.4562757483    -1.1143642113    -0.4557452627
| 14>  H        0.8700850294     1.9277981542     0.3996343907
| 15>  H       -0.1760213497     1.8419973605    -1.0237133815
| 16>  H       -0.8818370634     1.8251974529     0.5938950739
| 17>  H        0.7660942690    -0.6970975821    -1.9534866920
| 18>  H        1.9824325733    -1.0384357517    -0.6887660835
| 19>  H       -0.1215880163    -3.0948976564     1.3953093315
| 20>  H        1.4922135507    -2.3627259170     1.1606230266
| 21>  H        0.1319165900    -0.0654773542     3.1844551003
| 22>  H       -1.3754273878     0.4929106726     2.4539500943
| 23>  H       -1.2766972767    -1.1335180649     3.1322342314
| 24>  H       -3.0011514816    -0.2796327870    -0.0018534114
| 25>  H       -2.5673108628    -1.0366797848    -1.5432040851
| 26>  H       -2.9399087616    -2.0446000121    -0.1368593566
| 27> *
| 28>
| 29>                          ****END OF INPUT****

CARTESIAN COORDINATES (ANGSTROEM)
---------------------------------
  C     -0.038552    1.464638   -0.003687
  C      0.060757   -0.032325    0.004811
  C      0.910622   -0.917677   -0.890724
  N      0.059561   -2.106195   -0.499229
  C      0.418959   -2.245826    0.964153
  C     -0.267767   -0.919964    1.244542
  C     -0.720016   -0.376416    2.567742
  C     -1.023182   -1.082597   -0.053244
  C     -2.456276   -1.114364   -0.455745
  H      0.870085    1.927798    0.399634
  H     -0.176021    1.841997   -1.023713
  H     -0.881837    1.825197    0.593895
  H      0.766094   -0.697098   -1.953487
  H      1.982433   -1.038436   -0.688766
  H     -0.121588   -3.094898    1.395309
  H      1.492214   -2.362726    1.160623
  H      0.131917   -0.065477    3.184455
  H     -1.375427    0.492911    2.453950
  H     -1.276697   -1.133518    3.132234
  H     -3.001151   -0.279633   -0.001853
  H     -2.567311   -1.036680   -1.543204
  H     -2.939909   -2.044600   -0.136859

 Total Charge           Charge          ....    0
 Multiplicity           Mult            ....    1
 Number of Electrons    NEL             ....   68
 Basis Dimension        Dim             ....  357

ORBITAL ENERGIES
----------------

  NO   OCC          E(Eh)            E(eV)
   0   2.0000     -15.545733      -423.0209
   1   2.0000     -11.254294      -306.2449
   2   2.0000     -11.244017      -305.9653
   3   2.0000     -11.244001      -305.9648
   4   2.0000     -11.234595      -305.7089
   5   2.0000     -11.234061      -305.6943
   6   2.0000     -11.223561      -305.4086
   7   2.0000     -11.223559      -305.4086
   8   2.0000     -11.223552      -305.4084
   9   2.0000      -1.291844       -35.1529
  10   2.0000      -1.059274       -28.8243
  11   2.0000      -1.015421       -27.6310
  12   2.0000      -0.995142       -27.0792
  13   2.0000      -0.932223       -25.3671
  14   2.0000      -0.920108       -25.0374
  15   2.0000      -0.846258       -23.0278
  16   2.0000      -0.705307       -19.1924
  17   2.0000      -0.695358       -18.9216
  18   2.0000      -0.644008       -17.5244
  19   2.0000      -0.622120       -16.9287
  20   2.0000      -0.610648       -16.6166
  21   2.0000      -0.594607       -16.1801
  22   2.0000      -0.574124       -15.6227
  23   2.0000      -0.560133       -15.2420
  24   2.0000      -0.554481       -15.0882
  25   2.0000      -0.553495       -15.0614
  26   2.0000      -0.546201       -14.8629
  27   2.0000      -0.519376       -14.1329
  28   2.0000      -0.513954       -13.9854
  29   2.0000      -0.460271       -12.5246
  30   2.0000      -0.447537       -12.1781
  31   2.0000      -0.409633       -11.1467
  32   2.0000      -0.352044        -9.5796
  33   2.0000      -0.344596        -9.3769
  34   0.0000       0.124092         3.3767
  35   0.0000       0.163561         4.4507
  36   0.0000       0.164414         4.4739
  37   0.0000       0.171337         4.6623
  38   0.0000       0.187371         5.0986

MULLIKEN ATOMIC CHARGES
-----------------------
   0 C :   -0.416576
   1 C :   -0.043690
   2 C :   -0.110543
   3 N :   -0.211014
   4 C :   -0.110551
   5 C :   -0.043636
   6 C :   -0.416611
   7 C :    0.114151
   8 C :   -0.412041
   9 H :    0.139614
  10 H :    0.137925
  11 H :    0.126932
  12 H :    0.110214
  13 H :    0.101820
  14 H :    0.110218
  15 H :    0.101816
  16 H :    0.139621
  17 H :    0.126938
  18 H :    0.137926
  19 H :    0.132133
  20 H :    0.142669
  21 H :    0.142683
Sum of atomic charges:   -0.0000000

LOEWDIN ATOMIC CHARGES
----------------------
   0 C :   -0.274061
   1 C :   -0.192157
   2 C :   -0.211116
   3 N :    0.116767
   4 C :   -0.211121
   5 C :   -0.192157
   6 C :   -0.274065
   7 C :   -0.171511
   8 C :   -0.273125
   9 H :    0.130393
  10 H :    0.130086
  11 H :    0.128301
  12 H :    0.133051
  13 H :    0.119262
  14 H :    0.133054
  15 H :    0.119257
  16 H :    0.130388
  17 H :    0.128301
  18 H :    0.130088
  19 H :    0.133654
  20 H :    0.133350
  21 H :    0.133359

  Mayer bond orders larger than 0.1
B(  0-C ,  1-C ) :   0.8860 B(  0-C ,  9-H ) :   0.9426 B(  0-C , 10-H ) :   0.9394
B(  0-C , 11-H ) :   0.9352 B(  1-C ,  2-C ) :   0.9805 B(  1-C ,  5-C ) :   0.7945
B(  1-C ,  7-C ) :   0.8424 B(  2-C ,  3-N ) :   0.9400 B(  2-C , 12-H ) :   0.9165
B(  2-C , 13-H ) :   0.9208 B(  3-N ,  4-C ) :   0.9399 B(  3-N ,  7-C ) :   0.9221
B(  4-C ,  5-C ) :   0.9804 B(  4-C , 14-H ) :   0.9165 B(  4-C , 15-H ) :   0.9208
B(  5-C ,  6-C ) :   0.8860 B(  5-C ,  7-C ) :   0.8424 B(  6-C , 16-H ) :   0.9426
B(  6-C , 17-H ) :   0.9352 B(  6-C , 18-H ) :   0.9393 B(  7-C ,  8-C ) :   0.7974
B(  8-C , 19-H ) :   0.9360 B(  8-C , 20-H ) :   0.9462 B(  8-C , 21-H ) :   0.9462

MP2 TOTAL ENERGY:     -366.492238725 Eh
FINAL SINGLE POINT ENERGY      -366.492238724556

DIPOLE MOMENT
-------------
                                X             Y             Z
Electronic contribution:      2.18290      -3.71513      -2.08144
Nuclear contribution   :     -2.32608       4.37595       2.51668
                        -----------------------------------------
Total Dipole Moment    :     -0.14318       0.66082       0.43524
                        -----------------------------------------
Magnitude (a.u.)       :      0.80412
Magnitude (Debye)      :      2.04392

                             ****ORCA TERMINATED NORMALLY****
TOTAL RUN TIME: 0 days 0 hours 21 minutes 24 seconds 950 msec
