                         Program Version 3.0.3 - RELEASE   -
|  1> ! RI-MP2 RIJK def2-TZVP def2-TZVP/C def2-TZVP/JK TIGHTSCF
|  2> % maxcore 2000
|  3> % mp2 density relaxed end
|  4> *xyz 0 1
|  5>  C       -1.5825235200     0.2772879374     0.0169907204
|  6>  O       -0.7899700197    -0.8535258469     0.3298154755
|  7>  C        0.5260745912    -0.5369017034     0.7316369516
|  8>  C        0.5242814421    -0.0204174068     2.1691911671
|  9>  O        1.3629446445     0.7007542495     2.6424213463
| 10>  C        1.3897299939    -1.8068579361     0.6696348092
| 11>  C        2.8771388124    -1.5482904858     0.7613847764
| 12>  C        0.7955339117    -3.0717561054     1.1834637200
| 13>  N        0.9822033520    -2.8595098875    -0.2650792031
| 14>  H       -1.1423041787     0.8570222985    -0.8068752786
| 15>  H       -2.5627101907    -0.0940670158    -0.2887101314
| 16>  H       -1.7098405734     0.9445974722     0.8812857235
| 17>  H        0.9678126416     0.2309188480     0.0772270058
| 18>  H       -0.3302109234    -0.4128242925     2.7675550094
| 19>  H        3.1339899044    -1.0000797219     1.6721633060
| 20>  H        3.4199788769    -2.4960229647     0.7519759935
| 21>  H        3.2174677963    -0.9566011978    -0.0958738740
| 22>  H        1.4414720154    -3.8240366079     1.6275392971
| 23>  H       -0.2180785140    -3.0454986068     1.5725182605
| 24>  H        0.0828131875    -2.6056821663    -0.6691770452
| 25> *
| 26>
| 27>                          ****END OF INPUT****

CARTESIAN COORDINATES (ANGSTROEM)
---------------------------------
  C     -1.582524    0.277288    0.016991
  O     -0.789970   -0.853526    0.329815
  C      0.526075   -0.536902    0.731637
  C      0.524281   -0.020417    2.169191
  O      1.362945    0.700754    2.642421
  C      1.389730   -1.806858    0.669635
  C      2.877139   -1.548290    0.761385
  C      0.795534   -3.071756    1.183464
  N      0.982203   -2.859510   -0.265079
  H     -1.142304    0.857022   -0.806875
  H     -2.562710   -0.094067   -0.288710
  H     -1.709841    0.944597    0.881286
  H      0.967813    0.230919    0.077227
  H     -0.330211   -0.412824    2.767555
  H      3.133990   -1.000080    1.672163
  H      3.419979   -2.496023    0.751976
  H      3.217468   -0.956601   -0.095874
  H      1.441472   -3.824037    1.627539
  H     -0.218079   -3.045499    1.572518
  H      0.082813   -2.605682   -0.669177

 Total Charge           Charge          ....    0
 Multiplicity           Mult            ....    1
 Number of Electrons    NEL             ....   70
 Basis Dimension        Dim             ....  345

ORBITAL ENERGIES
----------------

  NO   OCC          E(Eh)            E(eV)
   0   2.0000     -20.587373      -560.2109
   1   2.0000     -20.570151      -559.7423
   2   2.0000     -15.555231      -423.2794
   3   2.0000     -11.340766      -308.5979
   4   2.0000     -11.308791      -307.7279
   5   2.0000     -11.295573      -307.3682
   6   2.0000     -11.277044      -306.8640
   7   2.0000     -11.255173      -306.2688
   8   2.0000     -11.218163      -305.2617
   9   2.0000      -1.417227       -38.5647
  10   2.0000      -1.402186       -38.1554
  11   2.0000      -1.266113       -34.4527
  12   2.0000      -1.045873       -28.4597
  13   2.0000      -0.980554       -26.6822
  14   2.0000      -0.925248       -25.1773
  15   2.0000      -0.883057       -24.0292
  16   2.0000      -0.828807       -22.5530
  17   2.0000      -0.767307       -20.8795
  18   2.0000      -0.718283       -19.5455
  19   2.0000      -0.702920       -19.1274
  20   2.0000      -0.684823       -18.6350
  21   2.0000      -0.646321       -17.5873
  22   2.0000      -0.621563       -16.9136
  23   2.0000      -0.614177       -16.7126
  24   2.0000      -0.600029       -16.3276
  25   2.0000      -0.569338       -15.4925
  26   2.0000      -0.557648       -15.1744
  27   2.0000      -0.536598       -14.6016
  28   2.0000      -0.518972       -14.1220
  29   2.0000      -0.506242       -13.7756
  30   2.0000      -0.489249       -13.3131
  31   2.0000      -0.468248       -12.7417
  32   2.0000      -0.457529       -12.4500
  33   2.0000      -0.419601       -11.4179
  34   2.0000      -0.385426       -10.4880
  35   0.0000       0.115726         3.1491
  36   0.0000       0.135902         3.6981
  37   0.0000       0.155483         4.2309
  38   0.0000       0.163362         4.4453
  39   0.0000       0.168867         4.5951

MULLIKEN ATOMIC CHARGES
-----------------------
   0 C :   -0.236396
   1 O :   -0.329440
   2 C :    0.169054
   3 C :    0.029785
   4 O :   -0.252102
   5 C :    0.133710
   6 C :   -0.438884
   7 C :   -0.201132
   8 N :   -0.376806
   9 H :    0.127453
  10 H :    0.147182
  11 H :    0.127582
  12 H :    0.086923
  13 H :    0.093536
  14 H :    0.152677
  15 H :    0.143349
  16 H :    0.129511
  17 H :    0.124868
  18 H :    0.136892
  19 H :    0.232237
Sum of atomic charges:   -0.0000000

LOEWDIN ATOMIC CHARGES
----------------------
   0 C :   -0.343659
   1 O :    0.160392
   2 C :   -0.297285
   3 C :   -0.274454
   4 O :    0.143389
   5 C :   -0.318668
   6 C :   -0.260208
   7 C :   -0.242125
   8 N :    0.015719
   9 H :    0.107544
  10 H :    0.117053
  11 H :    0.107479
  12 H :    0.151499
  13 H :    0.116990
  14 H :    0.132630
  15 H :    0.133942
  16 H :    0.129773
  17 H :    0.125739
  18 H :    0.125459
  19 H :    0.168792

  Mayer bond orders larger than 0.1
B(  0-C ,  1-O ) :   0.8977 B(  0-C ,  9-H ) :   0.9349 B(  0-C , 10-H ) :   0.9377
B(  0-C , 11-H ) :   0.9321 B(  1-O ,  2-C ) :   0.9213 B(  2-C ,  3-C ) :   0.8279
B(  2-C ,  5-C ) :   0.9091 B(  2-C , 12-H ) :   0.9045 B(  3-C ,  4-O ) :   1.9978
B(  3-C , 13-H ) :   0.9364 B(  5-C ,  6-C ) :   0.9129 B(  5-C ,  7-C ) :   0.9440
B(  5-C ,  8-N ) :   0.8959 B(  6-C , 14-H ) :   0.9289 B(  6-C , 15-H ) :   0.9327
B(  6-C , 16-H ) :   0.9381 B(  7-C ,  8-N ) :   0.9172 B(  7-C , 17-H ) :   0.9162
B(  7-C , 18-H ) :   0.9053 B(  8-N , 19-H ) :   0.8651

MP2 TOTAL ENERGY:     -439.532055155 Eh
FINAL SINGLE POINT ENERGY      -439.532055155386

DIPOLE MOMENT
-------------
                                X             Y             Z
Electronic contribution:     -0.11817       1.04852       2.20088
Nuclear contribution   :     -0.78475      -0.78565      -2.37829
                        -----------------------------------------
Total Dipole Moment    :     -0.90292       0.26287      -0.17741
                        -----------------------------------------
Magnitude (a.u.)       :      0.95700
Magnitude (Debye)      :      2.43249

                             ****ORCA TERMINATED NORMALLY****
TOTAL RUN TIME: 0 days 0 hours 19 minutes 45 seconds 378 msec
