                         Program Version 3.0.3 - RELEASE   -
|  1> ! RI-MP2 RIJK def2-TZVP def2-TZVP/C def2-TZVP/JK TIGHTSCF
|  2> % maxcore 2000
|  3> % mp2 density relaxed end
|  4> *xyz 0 1
|  5>  N        0.0195916007     1.3554797125     0.0768719898
|  6>  C       -0.0128828605    -0.0383468546     0.0745404221
|  7>  N       -1.0982182185    -0.7772431211     0.2637882923
|  8>  C       -0.6053820305    -2.0449545658     0.2199989021
|  9>  C        0.7239244805    -2.1155754725    -0.0155854278
| 10>  C        1.2168897294    -3.5131996126     0.1407186829
| 11>  C       -0.1907373154    -4.2217838133     0.1654716972
| 12>  O       -1.2228274974    -3.2356699160     0.4465498147
| 13>  N        1.1279219404    -0.7814859822    -0.0746377419
| 14>  H        0.4321954234     1.7523263305    -0.7600582978
| 15>  H       -0.9235564780     1.7082731332     0.1852312093
| 16>  H        1.8240994912    -3.9101523000    -0.6809844515
| 17>  H        1.7794303464    -3.6812072267     1.0711544548
| 18>  H       -0.4046349223    -4.6566040210    -0.8171725163
| 19>  H       -0.2642143768    -5.0024351080     0.9247788745
| 20>  H        2.0547465074    -0.4142646324    -0.2012387043
| 21> *
| 22>
| 23>                          ****END OF INPUT****

CARTESIAN COORDINATES (ANGSTROEM)
---------------------------------
  N      0.019592    1.355480    0.076872
  C     -0.012883   -0.038347    0.074540
  N     -1.098218   -0.777243    0.263788
  C     -0.605382   -2.044955    0.219999
  C      0.723924   -2.115575   -0.015585
  C      1.216890   -3.513200    0.140719
  C     -0.190737   -4.221784    0.165472
  O     -1.222827   -3.235670    0.446550
  N      1.127922   -0.781486   -0.074638
  H      0.432195    1.752326   -0.760058
  H     -0.923556    1.708273    0.185231
  H      1.824099   -3.910152   -0.680984
  H      1.779430   -3.681207    1.071154
  H     -0.404635   -4.656604   -0.817173
  H     -0.264214   -5.002435    0.924779
  H      2.054747   -0.414265   -0.201239

 Total Charge           Charge          ....    0
 Multiplicity           Mult            ....    1
 Number of Electrons    NEL             ....   66
 Basis Dimension        Dim             ....  321

ORBITAL ENERGIES
----------------

  NO   OCC          E(Eh)            E(eV)
   0   2.0000     -20.568971      -559.7102
   1   2.0000     -15.611955      -424.8229
   2   2.0000     -15.580198      -423.9587
   3   2.0000     -15.535676      -422.7472
   4   2.0000     -11.340606      -308.5936
   5   2.0000     -11.287436      -307.1468
   6   2.0000     -11.284559      -307.0685
   7   2.0000     -11.247986      -306.0733
   8   2.0000     -11.228929      -305.5547
   9   2.0000      -1.403959       -38.2037
  10   2.0000      -1.338612       -36.4255
  11   2.0000      -1.207980       -32.8708
  12   2.0000      -1.165956       -31.7273
  13   2.0000      -1.051389       -28.6098
  14   2.0000      -0.963104       -26.2074
  15   2.0000      -0.845051       -22.9950
  16   2.0000      -0.823307       -22.4033
  17   2.0000      -0.777651       -21.1609
  18   2.0000      -0.735823       -20.0228
  19   2.0000      -0.676615       -18.4116
  20   2.0000      -0.672126       -18.2895
  21   2.0000      -0.655263       -17.8306
  22   2.0000      -0.615142       -16.7389
  23   2.0000      -0.597389       -16.2558
  24   2.0000      -0.563169       -15.3246
  25   2.0000      -0.555984       -15.1291
  26   2.0000      -0.548007       -14.9120
  27   2.0000      -0.496370       -13.5069
  28   2.0000      -0.491129       -13.3643
  29   2.0000      -0.458334       -12.4719
  30   2.0000      -0.436894       -11.8885
  31   2.0000      -0.389240       -10.5918
  32   2.0000      -0.272084        -7.4038
  33   0.0000       0.118369         3.2210
  34   0.0000       0.142679         3.8825
  35   0.0000       0.153817         4.1856
  36   0.0000       0.174127         4.7382
  37   0.0000       0.189220         5.1489

MULLIKEN ATOMIC CHARGES
-----------------------
   0 N :   -0.527306
   1 C :    0.307937
   2 N :   -0.308287
   3 C :    0.170999
   4 C :   -0.021277
   5 C :   -0.220853
   6 C :   -0.020096
   7 O :   -0.291363
   8 N :   -0.328297
   9 H :    0.250088
  10 H :    0.268273
  11 H :    0.129791
  12 H :    0.115158
  13 H :    0.104156
  14 H :    0.122470
  15 H :    0.248608
Sum of atomic charges:    0.0000000

LOEWDIN ATOMIC CHARGES
----------------------
   0 N :   -0.093517
   1 C :   -0.413711
   2 N :    0.109666
   3 C :   -0.367239
   4 C :   -0.250613
   5 C :   -0.228011
   6 C :   -0.225419
   7 O :    0.218796
   8 N :    0.191517
   9 H :    0.167379
  10 H :    0.180298
  11 H :    0.136195
  12 H :    0.134553
  13 H :    0.124839
  14 H :    0.124300
  15 H :    0.190968

  Mayer bond orders larger than 0.1
B(  0-N ,  1-C ) :   1.0512 B(  0-N ,  9-H ) :   0.8723 B(  0-N , 10-H ) :   0.8725
B(  1-C ,  2-N ) :   1.5102 B(  1-C ,  8-N ) :   1.1904 B(  2-N ,  3-C ) :   1.3345
B(  3-C ,  4-C ) :   1.4971 B(  3-C ,  7-O ) :   1.0506 B(  4-C ,  5-C ) :   0.9381
B(  4-C ,  8-N ) :   1.0026 B(  5-C ,  6-C ) :   0.9637 B(  5-C , 11-H ) :   0.9269
B(  5-C , 12-H ) :   0.8932 B(  6-C ,  7-O ) :   0.8756 B(  6-C , 13-H ) :   0.9239
B(  6-C , 14-H ) :   0.9336 B(  8-N , 15-H ) :   0.8642

MP2 TOTAL ENERGY:     -433.368740384 Eh
FINAL SINGLE POINT ENERGY      -433.368740384293

DIPOLE MOMENT
-------------
                                X             Y             Z
Electronic contribution:     -2.62832       2.36672       0.49541
Nuclear contribution   :      4.24147      -2.18125      -1.18208
                        -----------------------------------------
Total Dipole Moment    :      1.61315       0.18547      -0.68667
                        -----------------------------------------
Magnitude (a.u.)       :      1.76300
Magnitude (Debye)      :      4.48118

                             ****ORCA TERMINATED NORMALLY****
TOTAL RUN TIME: 0 days 0 hours 15 minutes 28 seconds 444 msec
