                         Program Version 3.0.3 - RELEASE   -
|  1> ! RI-MP2 RIJK def2-TZVP def2-TZVP/C def2-TZVP/JK TIGHTSCF
|  2> % maxcore 2000
|  3> % mp2 density relaxed end
|  4> *xyz 0 1
|  5>  C       -0.0183522053     1.4515071370     0.1440012186
|  6>  C       -0.0078350276    -0.0311660137    -0.0463080724
|  7>  N       -0.0887612370    -0.6041675902    -1.1724778517
|  8>  C       -0.0749651868    -2.0352237894    -1.2510985032
|  9>  O       -0.1596000473    -2.5827863877    -2.3293681812
| 10>  C        0.0381439244    -2.7291062675     0.0183690224
| 11>  C        0.1295621459    -2.0274623867     1.1698036597
| 12>  N        0.3089359358    -2.5149338123     2.4361406655
| 13>  O        0.1026515233    -0.6694595644     1.1748101132
| 14>  H        0.9007740329     1.7778005036     0.6412259313
| 15>  H       -0.1046213537     1.9355717218    -0.8272419003
| 16>  H       -0.8573568973     1.7481627112     0.7817403917
| 17>  H        0.0540475795    -3.8109074635     0.0249783713
| 18>  H        0.0828823102    -3.4876725963     2.5708042897
| 19>  H        0.0129333830    -1.9059489621     3.1840175354
| 20> *
| 21>
| 22>                          ****END OF INPUT****

CARTESIAN COORDINATES (ANGSTROEM)
---------------------------------
  C     -0.018352    1.451507    0.144001
  C     -0.007835   -0.031166   -0.046308
  N     -0.088761   -0.604168   -1.172478
  C     -0.074965   -2.035224   -1.251099
  O     -0.159600   -2.582786   -2.329368
  C      0.038144   -2.729106    0.018369
  C      0.129562   -2.027462    1.169804
  N      0.308936   -2.514934    2.436141
  O      0.102652   -0.669460    1.174810
  H      0.900774    1.777801    0.641226
  H     -0.104621    1.935572   -0.827242
  H     -0.857357    1.748163    0.781740
  H      0.054048   -3.810907    0.024978
  H      0.082882   -3.487673    2.570804
  H      0.012933   -1.905949    3.184018

 Total Charge           Charge          ....    0
 Multiplicity           Mult            ....    1
 Number of Electrons    NEL             ....   66
 Basis Dimension        Dim             ....  315

ORBITAL ENERGIES
----------------

  NO   OCC          E(Eh)            E(eV)
   0   2.0000     -20.656369      -562.0884
   1   2.0000     -20.512414      -558.1712
   2   2.0000     -15.609495      -424.7560
   3   2.0000     -15.565572      -423.5607
   4   2.0000     -11.385145      -309.8056
   5   2.0000     -11.379068      -309.6402
   6   2.0000     -11.344812      -308.7080
   7   2.0000     -11.254308      -306.2453
   8   2.0000     -11.227046      -305.5034
   9   2.0000      -1.501376       -40.8545
  10   2.0000      -1.370382       -37.2900
  11   2.0000      -1.268811       -34.5261
  12   2.0000      -1.230737       -33.4901
  13   2.0000      -1.079666       -29.3792
  14   2.0000      -1.014617       -27.6091
  15   2.0000      -0.904155       -24.6033
  16   2.0000      -0.857810       -23.3422
  17   2.0000      -0.770403       -20.9637
  18   2.0000      -0.741068       -20.1655
  19   2.0000      -0.700351       -19.0575
  20   2.0000      -0.696171       -18.9438
  21   2.0000      -0.674507       -18.3543
  22   2.0000      -0.633786       -17.2462
  23   2.0000      -0.608888       -16.5687
  24   2.0000      -0.596892       -16.2423
  25   2.0000      -0.580771       -15.8036
  26   2.0000      -0.565571       -15.3900
  27   2.0000      -0.548160       -14.9162
  28   2.0000      -0.520134       -14.1536
  29   2.0000      -0.465048       -12.6546
  30   2.0000      -0.424108       -11.5406
  31   2.0000      -0.410455       -11.1691
  32   2.0000      -0.347611        -9.4590
  33   0.0000       0.110454         3.0056
  34   0.0000       0.116875         3.1803
  35   0.0000       0.135450         3.6858
  36   0.0000       0.144589         3.9345
  37   0.0000       0.161450         4.3933

MULLIKEN ATOMIC CHARGES
-----------------------
   0 C :   -0.404514
   1 C :    0.254576
   2 N :   -0.212543
   3 C :    0.234591
   4 O :   -0.304790
   5 C :   -0.349635
   6 C :    0.373893
   7 N :   -0.497227
   8 O :   -0.241411
   9 H :    0.152722
  10 H :    0.169906
  11 H :    0.149610
  12 H :    0.137972
  13 H :    0.267595
  14 H :    0.269256
Sum of atomic charges:    0.0000000

LOEWDIN ATOMIC CHARGES
----------------------
   0 C :   -0.257574
   1 C :   -0.333528
   2 N :    0.163763
   3 C :   -0.427384
   4 O :    0.118751
   5 C :   -0.167215
   6 C :   -0.339625
   7 N :   -0.029315
   8 O :    0.332369
   9 H :    0.139943
  10 H :    0.143935
  11 H :    0.139055
  12 H :    0.156515
  13 H :    0.181001
  14 H :    0.179309

  Mayer bond orders larger than 0.1
B(  0-C ,  1-C ) :   0.8978 B(  0-C ,  9-H ) :   0.9215 B(  0-C , 10-H ) :   0.9448
B(  0-C , 11-H ) :   0.9220 B(  1-C ,  2-N ) :   1.8102 B(  1-C ,  8-O ) :   0.9659
B(  2-N ,  3-C ) :   1.0086 B(  3-C ,  4-O ) :   1.9907 B(  3-C ,  5-C ) :   1.1068
B(  5-C ,  6-C ) :   1.4816 B(  5-C , 12-H ) :   0.9097 B(  6-C ,  7-N ) :   1.1208
B(  6-C ,  8-O ) :   1.0321 B(  7-N , 13-H ) :   0.8703 B(  7-N , 14-H ) :   0.8592

MP2 TOTAL ENERGY:     -453.263134570 Eh
FINAL SINGLE POINT ENERGY      -453.263134569639

DIPOLE MOMENT
-------------
                                X             Y             Z
Electronic contribution:     -0.07596      -3.40380      -3.05865
Nuclear contribution   :     -0.05409       3.79646       5.69826
                        -----------------------------------------
Total Dipole Moment    :     -0.13005       0.39266       2.63961
                        -----------------------------------------
Magnitude (a.u.)       :      2.67182
Magnitude (Debye)      :      6.79123

                             ****ORCA TERMINATED NORMALLY****
TOTAL RUN TIME: 0 days 0 hours 14 minutes 5 seconds 234 msec
