                         Program Version 3.0.3 - RELEASE   -
|  1> ! RI-MP2 RIJK def2-TZVP def2-TZVP/C def2-TZVP/JK TIGHTSCF
|  2> % maxcore 2000
|  3> % mp2 density relaxed end
|  4> *xyz 0 1
|  5>  C        0.1341379251     1.3837612157    -0.0450715278
|  6>  O        0.0838160945    -0.0252975255    -0.0176677396
|  7>  C        0.7017149399    -0.6348809975    -1.1295771062
|  8>  C        0.4503653706    -2.1364364222    -1.0055838647
|  9>  O       -0.9203532084    -2.3983138051    -0.8847231591
| 10>  C        1.1757327845    -2.9748003370    -2.0958242989
| 11>  C        2.2947408612    -3.3744937457    -1.0876730233
| 12>  C        1.3904994670    -2.8283710633     0.0335174276
| 13>  O        1.3307154178    -2.9994071944     1.2142756239
| 14>  H        1.1714335194     1.7504505149    -0.0306027195
| 15>  H       -0.3648329762     1.7899611647    -0.9382501066
| 16>  H       -0.3813476752     1.7448018891     0.8474538904
| 17>  H        0.2514733615    -0.2755816293    -2.0706347079
| 18>  H        1.7800575891    -0.4074574716    -1.1599310202
| 19>  H       -1.2588237106    -1.7581780765    -0.2443783404
| 20>  H        0.5534033513    -3.8215021364    -2.3894807909
| 21>  H        1.4896830858    -2.4291619798    -2.9877325872
| 22>  H        2.5553606620    -4.4319231269    -1.0074493622
| 23>  H        3.2178947708    -2.7968424132    -1.1982111573
| 24> *
| 25>
| 26>                          ****END OF INPUT****

CARTESIAN COORDINATES (ANGSTROEM)
---------------------------------
  C      0.134138    1.383761   -0.045072
  O      0.083816   -0.025298   -0.017668
  C      0.701715   -0.634881   -1.129577
  C      0.450365   -2.136436   -1.005584
  O     -0.920353   -2.398314   -0.884723
  C      1.175733   -2.974800   -2.095824
  C      2.294741   -3.374494   -1.087673
  C      1.390499   -2.828371    0.033517
  O      1.330715   -2.999407    1.214276
  H      1.171434    1.750451   -0.030603
  H     -0.364833    1.789961   -0.938250
  H     -0.381348    1.744802    0.847454
  H      0.251473   -0.275582   -2.070635
  H      1.780058   -0.407457   -1.159931
  H     -1.258824   -1.758178   -0.244378
  H      0.553403   -3.821502   -2.389481
  H      1.489683   -2.429162   -2.987733
  H      2.555361   -4.431923   -1.007449
  H      3.217895   -2.796842   -1.198211

 Total Charge           Charge          ....    0
 Multiplicity           Mult            ....    1
 Number of Electrons    NEL             ....   70
 Basis Dimension        Dim             ....  339

ORBITAL ENERGIES
----------------

  NO   OCC          E(Eh)            E(eV)
   0   2.0000     -20.576007      -559.9016
   1   2.0000     -20.563672      -559.5660
   2   2.0000     -20.553589      -559.2916
   3   2.0000     -11.327886      -308.2475
   4   2.0000     -11.301085      -307.5182
   5   2.0000     -11.297461      -307.4195
   6   2.0000     -11.285356      -307.0901
   7   2.0000     -11.244130      -305.9683
   8   2.0000     -11.242186      -305.9154
   9   2.0000      -1.407633       -38.3037
  10   2.0000      -1.393535       -37.9200
  11   2.0000      -1.367769       -37.2189
  12   2.0000      -1.133855       -30.8538
  13   2.0000      -1.007095       -27.4044
  14   2.0000      -0.921786       -25.0831
  15   2.0000      -0.876286       -23.8450
  16   2.0000      -0.855747       -23.2861
  17   2.0000      -0.735093       -20.0029
  18   2.0000      -0.712483       -19.3877
  19   2.0000      -0.688009       -18.7217
  20   2.0000      -0.678191       -18.4545
  21   2.0000      -0.666804       -18.1447
  22   2.0000      -0.632645       -17.2152
  23   2.0000      -0.627203       -17.0671
  24   2.0000      -0.597001       -16.2452
  25   2.0000      -0.566044       -15.4028
  26   2.0000      -0.558703       -15.2031
  27   2.0000      -0.542751       -14.7690
  28   2.0000      -0.519295       -14.1307
  29   2.0000      -0.508406       -13.8344
  30   2.0000      -0.498588       -13.5673
  31   2.0000      -0.486153       -13.2289
  32   2.0000      -0.466943       -12.7062
  33   2.0000      -0.446553       -12.1513
  34   2.0000      -0.381326       -10.3764
  35   0.0000       0.124748         3.3946
  36   0.0000       0.130694         3.5564
  37   0.0000       0.149084         4.0568
  38   0.0000       0.167180         4.5492
  39   0.0000       0.175739         4.7821

MULLIKEN ATOMIC CHARGES
-----------------------
   0 C :   -0.223083
   1 O :   -0.322192
   2 C :   -0.160118
   3 C :    0.404206
   4 O :   -0.477787
   5 C :   -0.287618
   6 C :   -0.243945
   7 C :    0.057226
   8 O :   -0.236591
   9 H :    0.117831
  10 H :    0.117862
  11 H :    0.146473
  12 H :    0.114055
  13 H :    0.105967
  14 H :    0.336930
  15 H :    0.141543
  16 H :    0.129589
  17 H :    0.140366
  18 H :    0.139287
Sum of atomic charges:   -0.0000000

LOEWDIN ATOMIC CHARGES
----------------------
   0 C :   -0.352421
   1 O :    0.135755
   2 C :   -0.293378
   3 C :   -0.349283
   4 O :    0.028963
   5 C :   -0.188784
   6 C :   -0.211728
   7 C :   -0.281193
   8 O :    0.177025
   9 H :    0.104684
  10 H :    0.103651
  11 H :    0.116400
  12 H :    0.129056
  13 H :    0.130037
  14 H :    0.188291
  15 H :    0.145976
  16 H :    0.131871
  17 H :    0.140249
  18 H :    0.144829

  Mayer bond orders larger than 0.1
B(  0-C ,  1-O ) :   0.9097 B(  0-C ,  9-H ) :   0.9372 B(  0-C , 10-H ) :   0.9369
B(  0-C , 11-H ) :   0.9381 B(  1-O ,  2-C ) :   0.9380 B(  2-C ,  3-C ) :   0.9192
B(  2-C , 12-H ) :   0.9239 B(  2-C , 13-H ) :   0.9075 B(  3-C ,  4-O ) :   0.9483
B(  3-C ,  5-C ) :   0.8738 B(  3-C ,  6-C ) :  -0.1179 B(  3-C ,  7-C ) :   0.7810
B(  4-O , 14-H ) :   0.8170 B(  5-C ,  6-C ) :   0.9462 B(  5-C , 15-H ) :   0.9156
B(  5-C , 16-H ) :   0.9302 B(  6-C ,  7-C ) :   0.9058 B(  6-C , 17-H ) :   0.9071
B(  6-C , 18-H ) :   0.8980 B(  7-C ,  8-O ) :   2.0643

MP2 TOTAL ENERGY:     -459.416078148 Eh
FINAL SINGLE POINT ENERGY      -459.416078147631

DIPOLE MOMENT
-------------
                                X             Y             Z
Electronic contribution:     -1.41490      -5.19021       4.38154
Nuclear contribution   :      1.88582       6.19368      -5.39170
                        -----------------------------------------
Total Dipole Moment    :      0.47092       1.00346      -1.01017
                        -----------------------------------------
Magnitude (a.u.)       :      1.49971
Magnitude (Debye)      :      3.81197

                             ****ORCA TERMINATED NORMALLY****
TOTAL RUN TIME: 0 days 0 hours 16 minutes 40 seconds 821 msec
