                         Program Version 3.0.3 - RELEASE   -
|  1> ! RI-MP2 RIJK def2-TZVP def2-TZVP/C def2-TZVP/JK TIGHTSCF
|  2> % maxcore 2000
|  3> % mp2 density relaxed end
|  4> *xyz 0 1
|  5>  N       -0.0269696518     0.8655223066     1.0763165760
|  6>  C        0.0442170243     0.0808459186     0.0843555926
|  7>  C       -1.1958625377    -0.3980697576    -0.6392846287
|  8>  C       -1.1025482307    -1.8844489873    -0.9506428368
|  9>  N       -0.9209595698    -2.2454960050    -2.3664952928
| 10>  C        0.2241414510    -2.3364277646    -1.4389274412
| 11>  C        1.2446917179    -1.2224589126    -1.5486901711
| 12>  O        1.2416762390    -0.3866056457    -0.3750629108
| 13>  H        0.9124681641     1.0834090020     1.4164633797
| 14>  H       -2.0584773956    -0.1466276783    -0.0226160227
| 15>  H       -1.2915742857     0.1457518855    -1.5865668578
| 16>  H       -1.6738594974    -2.5564119022    -0.3173315224
| 17>  H       -1.2958447023    -3.1754655951    -2.5368467360
| 18>  H        0.5860435727    -3.3191047294    -1.1529275605
| 19>  H        2.2671801897    -1.5982569360    -1.6175584904
| 20>  H        1.0330776922    -0.6190067588    -2.4382953969
| 21> *
| 22>
| 23>                          ****END OF INPUT****

CARTESIAN COORDINATES (ANGSTROEM)
---------------------------------
  N     -0.026970    0.865522    1.076317
  C      0.044217    0.080846    0.084356
  C     -1.195863   -0.398070   -0.639285
  C     -1.102548   -1.884449   -0.950643
  N     -0.920960   -2.245496   -2.366495
  C      0.224141   -2.336428   -1.438927
  C      1.244692   -1.222459   -1.548690
  O      1.241676   -0.386606   -0.375063
  H      0.912468    1.083409    1.416463
  H     -2.058477   -0.146628   -0.022616
  H     -1.291574    0.145752   -1.586567
  H     -1.673859   -2.556412   -0.317332
  H     -1.295845   -3.175466   -2.536847
  H      0.586044   -3.319105   -1.152928
  H      2.267180   -1.598257   -1.617558
  H      1.033078   -0.619007   -2.438295

 Total Charge           Charge          ....    0
 Multiplicity           Mult            ....    1
 Number of Electrons    NEL             ....   60
 Basis Dimension        Dim             ....  296

ORBITAL ENERGIES
----------------

  NO   OCC          E(Eh)            E(eV)
   0   2.0000     -20.590367      -560.2924
   1   2.0000     -15.577759      -423.8924
   2   2.0000     -15.524152      -422.4336
   3   2.0000     -11.333162      -308.3910
   4   2.0000     -11.298709      -307.4535
   5   2.0000     -11.279515      -306.9312
   6   2.0000     -11.276054      -306.8370
   7   2.0000     -11.243036      -305.9386
   8   2.0000      -1.421351       -38.6769
   9   2.0000      -1.283585       -34.9281
  10   2.0000      -1.189662       -32.3723
  11   2.0000      -1.029205       -28.0061
  12   2.0000      -0.996700       -27.1216
  13   2.0000      -0.870503       -23.6876
  14   2.0000      -0.835595       -22.7377
  15   2.0000      -0.748307       -20.3625
  16   2.0000      -0.723207       -19.6795
  17   2.0000      -0.694867       -18.9083
  18   2.0000      -0.668473       -18.1901
  19   2.0000      -0.653503       -17.7827
  20   2.0000      -0.595952       -16.2167
  21   2.0000      -0.579102       -15.7582
  22   2.0000      -0.553357       -15.0576
  23   2.0000      -0.518736       -14.1155
  24   2.0000      -0.511235       -13.9114
  25   2.0000      -0.494760       -13.4631
  26   2.0000      -0.473134       -12.8746
  27   2.0000      -0.430220       -11.7069
  28   2.0000      -0.401746       -10.9321
  29   2.0000      -0.388449       -10.5702
  30   0.0000       0.124779         3.3954
  31   0.0000       0.153509         4.1772
  32   0.0000       0.167094         4.5469
  33   0.0000       0.171517         4.6672
  34   0.0000       0.178719         4.8632

MULLIKEN ATOMIC CHARGES
-----------------------
   0 N :   -0.371001
   1 C :    0.117092
   2 C :   -0.189803
   3 C :   -0.036251
   4 N :   -0.383376
   5 C :   -0.077991
   6 C :   -0.071403
   7 O :   -0.256731
   8 H :    0.216572
   9 H :    0.143846
  10 H :    0.150053
  11 H :    0.140816
  12 H :    0.223146
  13 H :    0.134400
  14 H :    0.132049
  15 H :    0.128582
Sum of atomic charges:   -0.0000000

LOEWDIN ATOMIC CHARGES
----------------------
   0 N :   -0.065742
   1 C :   -0.408704
   2 C :   -0.203256
   3 C :   -0.245064
   4 N :    0.005221
   5 C :   -0.258928
   6 C :   -0.258613
   7 O :    0.230395
   8 H :    0.164794
   9 H :    0.157661
  10 H :    0.162119
  11 H :    0.140820
  12 H :    0.169818
  13 H :    0.138397
  14 H :    0.135095
  15 H :    0.135986

  Mayer bond orders larger than 0.1
B(  0-N ,  1-C ) :   2.0498 B(  0-N ,  8-H ) :   0.8578 B(  1-C ,  2-C ) :   0.9297
B(  1-C ,  7-O ) :   1.0866 B(  2-C ,  3-C ) :   0.8954 B(  2-C ,  9-H ) :   0.9201
B(  2-C , 10-H ) :   0.9125 B(  3-C ,  4-N ) :   0.9336 B(  3-C ,  5-C ) :   0.9035
B(  3-C , 11-H ) :   0.9167 B(  4-N ,  5-C ) :   0.9566 B(  4-N , 12-H ) :   0.8681
B(  5-C ,  6-C ) :   0.9232 B(  5-C , 13-H ) :   0.9164 B(  6-C ,  7-O ) :   0.8851
B(  6-C , 14-H ) :   0.9344 B(  6-C , 15-H ) :   0.9204

MP2 TOTAL ENERGY:     -379.274504413 Eh
FINAL SINGLE POINT ENERGY      -379.274504413434

DIPOLE MOMENT
-------------
                                X             Y             Z
Electronic contribution:      1.26702       1.25224       1.40147
Nuclear contribution   :     -1.11975      -2.51900      -1.95756
                        -----------------------------------------
Total Dipole Moment    :      0.14727      -1.26676      -0.55609
                        -----------------------------------------
Magnitude (a.u.)       :      1.39126
Magnitude (Debye)      :      3.53631

                             ****ORCA TERMINATED NORMALLY****
TOTAL RUN TIME: 0 days 0 hours 11 minutes 36 seconds 488 msec
