                         Program Version 3.0.3 - RELEASE   -
|  1> ! RI-MP2 RIJK def2-TZVP def2-TZVP/C def2-TZVP/JK TIGHTSCF
|  2> % maxcore 2000
|  3> % mp2 density relaxed end
|  4> *xyz 0 1
|  5>  O       -0.1019251517     1.4522181930    -0.0190791629
|  6>  C        0.0089828229     0.0381154214    -0.0004983766
|  7>  C       -1.4048616079    -0.5331358025     0.0453194155
|  8>  C       -1.3797263090    -2.0622802929     0.1576690749
|  9>  C       -0.3792334594    -2.6810135729    -0.8008948886
| 10>  C        0.5701523558    -1.9704559427    -1.4285064016
| 11>  C        0.7528848359    -0.4926331707    -1.2349851794
| 12>  C       -0.4787049584    -4.0911280555    -1.0170656077
| 13>  N       -0.5885439238    -5.2347672410    -1.1662411346
| 14>  H        0.7849998858     1.8264506344    -0.0134485412
| 15>  H        0.5484123090    -0.2923591390     0.9032204851
| 16>  H       -1.9473591213    -0.0964936543     0.8884761057
| 17>  H       -1.9303200957    -0.2302390924    -0.8682501277
| 18>  H       -1.1281945798    -2.3713252450     1.1811433129
| 19>  H       -2.3748059777    -2.4747103060    -0.0395891354
| 20>  H        1.2459416559    -2.4762224605    -2.1119531555
| 21>  H        0.3853337077     0.0467959462    -2.1201101992
| 22>  H        1.8249476617    -0.2628225696    -1.1682781838
| 23> *
| 24>
| 25>                          ****END OF INPUT****

CARTESIAN COORDINATES (ANGSTROEM)
---------------------------------
  O     -0.101925    1.452218   -0.019079
  C      0.008983    0.038115   -0.000498
  C     -1.404862   -0.533136    0.045319
  C     -1.379726   -2.062280    0.157669
  C     -0.379233   -2.681014   -0.800895
  C      0.570152   -1.970456   -1.428506
  C      0.752885   -0.492633   -1.234985
  C     -0.478705   -4.091128   -1.017066
  N     -0.588544   -5.234767   -1.166241
  H      0.785000    1.826451   -0.013449
  H      0.548412   -0.292359    0.903220
  H     -1.947359   -0.096494    0.888476
  H     -1.930320   -0.230239   -0.868250
  H     -1.128195   -2.371325    1.181143
  H     -2.374806   -2.474710   -0.039589
  H      1.245942   -2.476222   -2.111953
  H      0.385334    0.046796   -2.120110
  H      1.824948   -0.262823   -1.168278

 Total Charge           Charge          ....    0
 Multiplicity           Mult            ....    1
 Number of Electrons    NEL             ....   66
 Basis Dimension        Dim             ....  333

ORBITAL ENERGIES
----------------

  NO   OCC          E(Eh)            E(eV)
   0   2.0000     -20.571321      -559.7741
   1   2.0000     -15.568913      -423.6517
   2   2.0000     -11.299076      -307.4635
   3   2.0000     -11.281854      -306.9948
   4   2.0000     -11.274527      -306.7955
   5   2.0000     -11.272241      -306.7333
   6   2.0000     -11.253926      -306.2349
   7   2.0000     -11.253074      -306.2117
   8   2.0000     -11.237756      -305.7949
   9   2.0000      -1.378937       -37.5228
  10   2.0000      -1.218621       -33.1604
  11   2.0000      -1.152737       -31.3676
  12   2.0000      -1.042722       -28.3739
  13   2.0000      -1.036201       -28.1965
  14   2.0000      -0.890631       -24.2353
  15   2.0000      -0.860509       -23.4156
  16   2.0000      -0.780945       -21.2506
  17   2.0000      -0.723251       -19.6807
  18   2.0000      -0.712235       -19.3809
  19   2.0000      -0.644107       -17.5271
  20   2.0000      -0.621924       -16.9234
  21   2.0000      -0.616526       -16.7765
  22   2.0000      -0.583810       -15.8863
  23   2.0000      -0.574032       -15.6202
  24   2.0000      -0.559149       -15.2152
  25   2.0000      -0.557617       -15.1735
  26   2.0000      -0.522516       -14.2184
  27   2.0000      -0.515590       -14.0299
  28   2.0000      -0.492277       -13.3955
  29   2.0000      -0.476528       -12.9670
  30   2.0000      -0.459650       -12.5077
  31   2.0000      -0.451078       -12.2745
  32   2.0000      -0.370112       -10.0712
  33   0.0000       0.095836         2.6078
  34   0.0000       0.116669         3.1747
  35   0.0000       0.134947         3.6721
  36   0.0000       0.150485         4.0949
  37   0.0000       0.164499         4.4762

MULLIKEN ATOMIC CHARGES
-----------------------
   0 O :   -0.451996
   1 C :    0.069056
   2 C :   -0.199172
   3 C :   -0.254420
   4 C :    0.141508
   5 C :   -0.230767
   6 C :   -0.188954
   7 C :   -0.199692
   8 N :   -0.055922
   9 H :    0.315382
  10 H :    0.084791
  11 H :    0.142199
  12 H :    0.121860
  13 H :    0.139399
  14 H :    0.153035
  15 H :    0.147872
  16 H :    0.138895
  17 H :    0.126926
Sum of atomic charges:    0.0000000

LOEWDIN ATOMIC CHARGES
----------------------
   0 O :   -0.013927
   1 C :   -0.345387
   2 C :   -0.227299
   3 C :   -0.203178
   4 C :   -0.166670
   5 C :   -0.090027
   6 C :   -0.238293
   7 C :   -0.155661
   8 N :    0.068936
   9 H :    0.175296
  10 H :    0.138386
  11 H :    0.145928
  12 H :    0.148031
  13 H :    0.152846
  14 H :    0.154468
  15 H :    0.154849
  16 H :    0.156003
  17 H :    0.145700

  Mayer bond orders larger than 0.1
B(  0-O ,  1-C ) :   0.9941 B(  0-O ,  9-H ) :   0.8449 B(  1-C ,  2-C ) :   0.8904
B(  1-C ,  6-C ) :   0.9419 B(  1-C , 10-H ) :   0.9425 B(  2-C ,  3-C ) :   0.9253
B(  2-C , 11-H ) :   0.9307 B(  2-C , 12-H ) :   0.9273 B(  3-C ,  4-C ) :   0.9212
B(  3-C , 13-H ) :   0.9120 B(  3-C , 14-H ) :   0.9231 B(  4-C ,  5-C ) :   1.6921
B(  4-C ,  7-C ) :   0.9054 B(  5-C ,  6-C ) :   0.9465 B(  5-C , 15-H ) :   0.9204
B(  6-C , 16-H ) :   0.8942 B(  6-C , 17-H ) :   0.9167 B(  7-C ,  8-N ) :   2.8483

MP2 TOTAL ENERGY:     -401.293699719 Eh
FINAL SINGLE POINT ENERGY      -401.293699718925

DIPOLE MOMENT
-------------
                                X             Y             Z
Electronic contribution:      0.32951      -6.21630      -1.51492
Nuclear contribution   :      0.32975       7.66840       1.75929
                        -----------------------------------------
Total Dipole Moment    :      0.65925       1.45210       0.24437
                        -----------------------------------------
Magnitude (a.u.)       :      1.61336
Magnitude (Debye)      :      4.10083

                             ****ORCA TERMINATED NORMALLY****
TOTAL RUN TIME: 0 days 0 hours 17 minutes 39 seconds 249 msec
