                         Program Version 3.0.3 - RELEASE   -
|  1> ! RI-MP2 RIJK def2-TZVP def2-TZVP/C def2-TZVP/JK TIGHTSCF
|  2> % maxcore 2000
|  3> % mp2 density relaxed end
|  4> *xyz 0 1
|  5>  C       -0.0347534605     1.4581086645     0.1000688359
|  6>  C        1.2941481257     0.7472930453     0.0364994346
|  7>  C        2.0549320309     0.4357454136     1.3482603473
|  8>  C        1.0783976964    -0.4814375239     2.0181102088
|  9>  C       -0.0292920511    -0.7736093212     1.2757934827
| 10>  N       -0.8923440440    -1.5969493463     1.9529856873
| 11>  C       -0.2981502086    -1.7986296094     3.1120486805
| 12>  N        0.9005294085    -1.1306636344     3.2151419317
| 13>  C       -0.0135837936    -0.0521694850    -0.0214693727
| 14>  H       -0.3634195350     1.8815809715     1.0441124029
| 15>  H       -0.3211643024     2.0335353629    -0.7748927773
| 16>  H        1.8874758763     0.8809338423    -0.8601293162
| 17>  H        3.0202968890    -0.0439008186     1.1382110150
| 18>  H        2.2712007812     1.3475386411     1.9193072335
| 19>  H       -0.6722508302    -2.4169239111     3.9146748075
| 20>  H        1.5254812843    -1.1572486531     4.0029411046
| 21>  H       -0.3571407870    -0.5226076582    -0.9352134960
| 22> *
| 23>
| 24>                          ****END OF INPUT****

CARTESIAN COORDINATES (ANGSTROEM)
---------------------------------
  C     -0.034753    1.458109    0.100069
  C      1.294148    0.747293    0.036499
  C      2.054932    0.435745    1.348260
  C      1.078398   -0.481438    2.018110
  C     -0.029292   -0.773609    1.275793
  N     -0.892344   -1.596949    1.952986
  C     -0.298150   -1.798630    3.112049
  N      0.900529   -1.130664    3.215142
  C     -0.013584   -0.052169   -0.021469
  H     -0.363420    1.881581    1.044112
  H     -0.321164    2.033535   -0.774893
  H      1.887476    0.880934   -0.860129
  H      3.020297   -0.043901    1.138211
  H      2.271201    1.347539    1.919307
  H     -0.672251   -2.416924    3.914675
  H      1.525481   -1.157249    4.002941
  H     -0.357141   -0.522608   -0.935213

 Total Charge           Charge          ....    0
 Multiplicity           Mult            ....    1
 Number of Electrons    NEL             ....   64
 Basis Dimension        Dim             ....  327

ORBITAL ENERGIES
----------------

  NO   OCC          E(Eh)            E(eV)
   0   2.0000     -15.616217      -424.9389
   1   2.0000     -15.540668      -422.8831
   2   2.0000     -11.291224      -307.2498
   3   2.0000     -11.244579      -305.9805
   4   2.0000     -11.243876      -305.9614
   5   2.0000     -11.234909      -305.7174
   6   2.0000     -11.231564      -305.6264
   7   2.0000     -11.229142      -305.5605
   8   2.0000     -11.223935      -305.4188
   9   2.0000      -1.332977       -36.2721
  10   2.0000      -1.173169       -31.9236
  11   2.0000      -1.157600       -31.4999
  12   2.0000      -1.021285       -27.7906
  13   2.0000      -0.952895       -25.9296
  14   2.0000      -0.843812       -22.9613
  15   2.0000      -0.823257       -22.4020
  16   2.0000      -0.785873       -21.3847
  17   2.0000      -0.740865       -20.1599
  18   2.0000      -0.719339       -19.5742
  19   2.0000      -0.654827       -17.8188
  20   2.0000      -0.614472       -16.7206
  21   2.0000      -0.595792       -16.2123
  22   2.0000      -0.591773       -16.1030
  23   2.0000      -0.564198       -15.3526
  24   2.0000      -0.556109       -15.1325
  25   2.0000      -0.513775       -13.9805
  26   2.0000      -0.497194       -13.5293
  27   2.0000      -0.440280       -11.9806
  28   2.0000      -0.424488       -11.5509
  29   2.0000      -0.406931       -11.0732
  30   2.0000      -0.383516       -10.4360
  31   2.0000      -0.290208        -7.8970
  32   0.0000       0.126034         3.4296
  33   0.0000       0.151764         4.1297
  34   0.0000       0.159946         4.3524
  35   0.0000       0.175796         4.7837
  36   0.0000       0.181337         4.9344

MULLIKEN ATOMIC CHARGES
-----------------------
   0 C :   -0.278628
   1 C :   -0.087220
   2 C :   -0.174170
   3 C :    0.003681
   4 C :   -0.003484
   5 N :   -0.270336
   6 C :    0.049036
   7 N :   -0.296485
   8 C :   -0.112227
   9 H :    0.134671
  10 H :    0.129271
  11 H :    0.128101
  12 H :    0.124145
  13 H :    0.128300
  14 H :    0.144043
  15 H :    0.248815
  16 H :    0.132486
Sum of atomic charges:   -0.0000000

LOEWDIN ATOMIC CHARGES
----------------------
   0 C :   -0.198143
   1 C :   -0.169880
   2 C :   -0.199416
   3 C :   -0.207897
   4 C :   -0.222675
   5 N :    0.107233
   6 C :   -0.310183
   7 N :    0.188665
   8 C :   -0.152697
   9 H :    0.137414
  10 H :    0.133585
  11 H :    0.142085
  12 H :    0.142124
  13 H :    0.143494
  14 H :    0.127469
  15 H :    0.192288
  16 H :    0.146533

  Mayer bond orders larger than 0.1
B(  0-C ,  1-C ) :   0.8936 B(  0-C ,  8-C ) :   0.8774 B(  0-C ,  9-H ) :   0.9223
B(  0-C , 10-H ) :   0.9261 B(  1-C ,  2-C ) :   0.9361 B(  1-C ,  8-C ) :   0.8577
B(  1-C , 11-H ) :   0.9281 B(  2-C ,  3-C ) :   0.9608 B(  2-C , 12-H ) :   0.9069
B(  2-C , 13-H ) :   0.9067 B(  3-C ,  4-C ) :   1.4532 B(  3-C ,  7-N ) :   1.1004
B(  4-C ,  5-N ) :   1.3666 B(  4-C ,  8-C ) :   0.9700 B(  5-N ,  6-C ) :   1.5357
B(  6-C ,  7-N ) :   1.1483 B(  6-C , 14-H ) :   0.9285 B(  7-N , 15-H ) :   0.8645
B(  8-C , 16-H ) :   0.9315

MP2 TOTAL ENERGY:     -380.219809219 Eh
FINAL SINGLE POINT ENERGY      -380.219809219076

DIPOLE MOMENT
-------------
                                X             Y             Z
Electronic contribution:     -1.81470      -4.07194       2.82933
Nuclear contribution   :      3.06609       4.47692      -2.14365
                        -----------------------------------------
Total Dipole Moment    :      1.25139       0.40498       0.68568
                        -----------------------------------------
Magnitude (a.u.)       :      1.48329
Magnitude (Debye)      :      3.77023

                             ****ORCA TERMINATED NORMALLY****
TOTAL RUN TIME: 0 days 0 hours 17 minutes 53 seconds 63 msec
