                         Program Version 3.0.3 - RELEASE   -
|  1> ! RI-MP2 RIJK def2-TZVP def2-TZVP/C def2-TZVP/JK TIGHTSCF
|  2> % maxcore 2000
|  3> % mp2 density relaxed end
|  4> *xyz 0 1
|  5>  O       -0.1607148533     1.4132357230     0.1169710594
|  6>  C       -0.0336492050     0.0363055506     0.0824901523
|  7>  C       -0.2413393738    -0.7514684460    -1.1805123361
|  8>  C       -1.1650577553    -0.9889933862    -0.0002049389
|  9>  C       -0.4483210238    -1.8698333906     1.0321195980
| 10>  C        0.6863852196    -0.7957775573     1.1468185091
| 11>  C       -2.6291449383    -0.7900400629    -0.0868264501
| 12>  C       -3.5863045188    -1.8769465920     0.1668612687
| 13>  O       -3.3631027110    -0.8585343778     1.1433247441
| 14>  H        0.5437273133     1.7995386780    -0.4150597857
| 15>  H       -0.6842751405    -0.1755349541    -1.9882545037
| 16>  H        0.4536123690    -1.5257278959    -1.5009789319
| 17>  H       -1.0221717254    -1.9730962798     1.9543091848
| 18>  H       -0.1415943926    -2.8599381665     0.6801954820
| 19>  H        1.7076058721    -1.1167609239     0.9148212490
| 20>  H        0.6789958802    -0.2988583292     2.1190730540
| 21>  H       -2.9448128880     0.0213202199    -0.7440899934
| 22>  H       -4.5642033391    -1.8627198950    -0.3131190049
| 23>  H       -3.2142706994    -2.8659935642     0.4315084234
| 24> *
| 25>
| 26>                          ****END OF INPUT****

CARTESIAN COORDINATES (ANGSTROEM)
---------------------------------
  O     -0.160715    1.413236    0.116971
  C     -0.033649    0.036306    0.082490
  C     -0.241339   -0.751468   -1.180512
  C     -1.165058   -0.988993   -0.000205
  C     -0.448321   -1.869833    1.032120
  C      0.686385   -0.795778    1.146819
  C     -2.629145   -0.790040   -0.086826
  C     -3.586305   -1.876947    0.166861
  O     -3.363103   -0.858534    1.143325
  H      0.543727    1.799539   -0.415060
  H     -0.684275   -0.175535   -1.988255
  H      0.453612   -1.525728   -1.500979
  H     -1.022172   -1.973096    1.954309
  H     -0.141594   -2.859938    0.680195
  H      1.707606   -1.116761    0.914821
  H      0.678996   -0.298858    2.119073
  H     -2.944813    0.021320   -0.744090
  H     -4.564203   -1.862720   -0.313119
  H     -3.214271   -2.865994    0.431508

 Total Charge           Charge          ....    0
 Multiplicity           Mult            ....    1
 Number of Electrons    NEL             ....   68
 Basis Dimension        Dim             ....  339

ORBITAL ENERGIES
----------------

  NO   OCC          E(Eh)            E(eV)
   0   2.0000     -20.570000      -559.7382
   1   2.0000     -20.562197      -559.5258
   2   2.0000     -11.291104      -307.2466
   3   2.0000     -11.287593      -307.1510
   4   2.0000     -11.279021      -306.9178
   5   2.0000     -11.240444      -305.8680
   6   2.0000     -11.234389      -305.7033
   7   2.0000     -11.227569      -305.5177
   8   2.0000     -11.226815      -305.4972
   9   2.0000      -1.405393       -38.2427
  10   2.0000      -1.381429       -37.5906
  11   2.0000      -1.187694       -32.3188
  12   2.0000      -0.996566       -27.1179
  13   2.0000      -0.949402       -25.8345
  14   2.0000      -0.893377       -24.3100
  15   2.0000      -0.859453       -23.3869
  16   2.0000      -0.805081       -21.9074
  17   2.0000      -0.737470       -20.0676
  18   2.0000      -0.713494       -19.4152
  19   2.0000      -0.681572       -18.5465
  20   2.0000      -0.644532       -17.5386
  21   2.0000      -0.628318       -17.0974
  22   2.0000      -0.622418       -16.9369
  23   2.0000      -0.583986       -15.8911
  24   2.0000      -0.556953       -15.1555
  25   2.0000      -0.541544       -14.7362
  26   2.0000      -0.530876       -14.4459
  27   2.0000      -0.519805       -14.1446
  28   2.0000      -0.480903       -13.0860
  29   2.0000      -0.468273       -12.7424
  30   2.0000      -0.465426       -12.6649
  31   2.0000      -0.439339       -11.9550
  32   2.0000      -0.397592       -10.8190
  33   2.0000      -0.362066        -9.8523
  34   0.0000       0.136370         3.7108
  35   0.0000       0.149615         4.0712
  36   0.0000       0.167231         4.5506
  37   0.0000       0.176303         4.7974
  38   0.0000       0.182566         4.9679

MULLIKEN ATOMIC CHARGES
-----------------------
   0 O :   -0.446849
   1 C :    0.134081
   2 C :   -0.356933
   3 C :    0.106162
   4 C :   -0.231207
   5 C :   -0.221060
   6 C :   -0.019364
   7 C :   -0.073122
   8 O :   -0.332763
   9 H :    0.327105
  10 H :    0.144260
  11 H :    0.125409
  12 H :    0.135647
  13 H :    0.114573
  14 H :    0.110343
  15 H :    0.116265
  16 H :    0.135491
  17 H :    0.116503
  18 H :    0.115459
Sum of atomic charges:    0.0000000

LOEWDIN ATOMIC CHARGES
----------------------
   0 O :    0.032098
   1 C :   -0.320377
   2 C :   -0.170723
   3 C :   -0.181794
   4 C :   -0.181069
   5 C :   -0.194000
   6 C :   -0.254174
   7 C :   -0.261630
   8 O :    0.147230
   9 H :    0.185563
  10 H :    0.145131
  11 H :    0.132549
  12 H :    0.142248
  13 H :    0.127123
  14 H :    0.125057
  15 H :    0.140887
  16 H :    0.146840
  17 H :    0.118293
  18 H :    0.120749

  Mayer bond orders larger than 0.1
B(  0-O ,  1-C ) :   1.0795 B(  0-O ,  3-C ) :  -0.1047 B(  0-O ,  9-H ) :   0.8332
B(  1-C ,  2-C ) :   0.9155 B(  1-C ,  3-C ) :   0.8028 B(  1-C ,  5-C ) :   1.0032
B(  2-C ,  3-C ) :   0.8263 B(  2-C , 10-H ) :   0.9401 B(  2-C , 11-H ) :   0.8963
B(  3-C ,  4-C ) :   0.9187 B(  3-C ,  6-C ) :   0.9269 B(  4-C ,  5-C ) :   0.9921
B(  4-C , 12-H ) :   0.9145 B(  4-C , 13-H ) :   0.9132 B(  5-C , 14-H ) :   0.9110
B(  5-C , 15-H ) :   0.9071 B(  6-C ,  7-C ) :   0.9742 B(  6-C ,  8-O ) :   0.8932
B(  6-C , 16-H ) :   0.9075 B(  7-C ,  8-O ) :   0.9094 B(  7-C , 17-H ) :   0.9199
B(  7-C , 18-H ) :   0.9072

MP2 TOTAL ENERGY:     -422.262701528 Eh
FINAL SINGLE POINT ENERGY      -422.262701527737

DIPOLE MOMENT
-------------
                                X             Y             Z
Electronic contribution:     -2.23339       3.32095       0.65897
Nuclear contribution   :      2.87152      -3.71868      -1.54324
                        -----------------------------------------
Total Dipole Moment    :      0.63813      -0.39773      -0.88427
                        -----------------------------------------
Magnitude (a.u.)       :      1.16075
Magnitude (Debye)      :      2.95038

                             ****ORCA TERMINATED NORMALLY****
TOTAL RUN TIME: 0 days 0 hours 15 minutes 57 seconds 577 msec
