                         Program Version 3.0.3 - RELEASE   -
|  1> ! RI-MP2 RIJK def2-TZVP def2-TZVP/C def2-TZVP/JK TIGHTSCF
|  2> % maxcore 2000
|  3> % mp2 density relaxed end
|  4> *xyz 0 1
|  5>  C       -0.0318319729     1.4916772718    -0.0160263923
|  6>  C        0.0239884049    -0.0092525788     0.0606582333
|  7>  N        0.1104269374    -0.6732152477     1.1470229637
|  8>  O        0.1503156097     0.1682572288     2.2669451153
|  9>  C        0.0090194992    -0.8206167090    -1.2266155200
| 10>  C        0.1627982756    -2.3473210440    -1.0193711384
| 11>  O        0.2408944626    -3.0271398829    -2.2545026835
| 12>  C       -1.2036229240    -0.5462979558    -2.0029028551
| 13>  C       -2.2083108896    -0.3742801485    -2.6418489575
| 14>  H        0.9119523983     1.9229761978     0.3352929683
| 15>  H       -0.2223544521     1.8288542304    -1.0358236679
| 16>  H       -0.8161193869     1.8763618497     0.6419744462
| 17>  H        0.1981751255    -0.4623524269     2.9933567218
| 18>  H        0.8687647667    -0.4947154410    -1.8319760347
| 19>  H        1.0970046708    -2.5431132787    -0.4895760494
| 20>  H       -0.6604779930    -2.7133505447    -0.3931349834
| 21>  H       -0.5795787087    -2.8522247310    -2.7304003530
| 22>  H       -3.0923520137    -0.1991024096    -3.2041443532
| 23> *
| 24>
| 25>                          ****END OF INPUT****

CARTESIAN COORDINATES (ANGSTROEM)
---------------------------------
  C     -0.031832    1.491677   -0.016026
  C      0.023988   -0.009253    0.060658
  N      0.110427   -0.673215    1.147023
  O      0.150316    0.168257    2.266945
  C      0.009019   -0.820617   -1.226616
  C      0.162798   -2.347321   -1.019371
  O      0.240894   -3.027140   -2.254503
  C     -1.203623   -0.546298   -2.002903
  C     -2.208311   -0.374280   -2.641849
  H      0.911952    1.922976    0.335293
  H     -0.222354    1.828854   -1.035824
  H     -0.816119    1.876362    0.641974
  H      0.198175   -0.462352    2.993357
  H      0.868765   -0.494715   -1.831976
  H      1.097005   -2.543113   -0.489576
  H     -0.660478   -2.713351   -0.393135
  H     -0.579579   -2.852225   -2.730400
  H     -3.092352   -0.199102   -3.204144

 Total Charge           Charge          ....    0
 Multiplicity           Mult            ....    1
 Number of Electrons    NEL             ....   68
 Basis Dimension        Dim             ....  333

ORBITAL ENERGIES
----------------

  NO   OCC          E(Eh)            E(eV)
   0   2.0000     -20.597232      -560.4792
   1   2.0000     -20.555955      -559.3560
   2   2.0000     -15.620107      -425.0447
   3   2.0000     -11.292535      -307.2855
   4   2.0000     -11.281919      -306.9966
   5   2.0000     -11.275720      -306.8280
   6   2.0000     -11.250014      -306.1284
   7   2.0000     -11.238973      -305.8280
   8   2.0000     -11.234816      -305.7149
   9   2.0000      -1.426272       -38.8108
  10   2.0000      -1.363865       -37.1127
  11   2.0000      -1.185731       -32.2654
  12   2.0000      -1.080570       -29.4038
  13   2.0000      -1.001420       -27.2500
  14   2.0000      -0.989297       -26.9202
  15   2.0000      -0.881454       -23.9856
  16   2.0000      -0.771038       -20.9810
  17   2.0000      -0.726792       -19.7770
  18   2.0000      -0.708288       -19.2735
  19   2.0000      -0.698316       -19.0021
  20   2.0000      -0.666308       -18.1312
  21   2.0000      -0.649970       -17.6866
  22   2.0000      -0.613583       -16.6964
  23   2.0000      -0.603763       -16.4292
  24   2.0000      -0.574489       -15.6327
  25   2.0000      -0.573052       -15.5935
  26   2.0000      -0.556678       -15.1480
  27   2.0000      -0.546251       -14.8643
  28   2.0000      -0.499599       -13.5948
  29   2.0000      -0.462914       -12.5965
  30   2.0000      -0.439506       -11.9596
  31   2.0000      -0.405626       -11.0376
  32   2.0000      -0.400616       -10.9013
  33   2.0000      -0.389841       -10.6081
  34   0.0000       0.125943         3.4271
  35   0.0000       0.144704         3.9376
  36   0.0000       0.148658         4.0452
  37   0.0000       0.157889         4.2964
  38   0.0000       0.165472         4.5027

MULLIKEN ATOMIC CHARGES
-----------------------
   0 C :   -0.419786
   1 C :    0.076572
   2 N :   -0.117229
   3 O :   -0.370413
   4 C :   -0.091531
   5 C :   -0.014015
   6 O :   -0.471189
   7 C :   -0.116941
   8 C :   -0.162567
   9 H :    0.154634
  10 H :    0.150043
  11 H :    0.157698
  12 H :    0.337525
  13 H :    0.127806
  14 H :    0.125404
  15 H :    0.115997
  16 H :    0.323763
  17 H :    0.194228
Sum of atomic charges:   -0.0000000

LOEWDIN ATOMIC CHARGES
----------------------
   0 C :   -0.276216
   1 C :   -0.268388
   2 N :    0.029070
   3 O :   -0.065572
   4 C :   -0.223903
   5 C :   -0.309748
   6 O :   -0.036176
   7 C :   -0.094361
   8 C :   -0.094919
   9 H :    0.140582
  10 H :    0.136112
  11 H :    0.141333
  12 H :    0.171423
  13 H :    0.183669
  14 H :    0.134779
  15 H :    0.124915
  16 H :    0.178322
  17 H :    0.129078

  Mayer bond orders larger than 0.1
B(  0-C ,  1-C ) :   0.9300 B(  0-C ,  9-H ) :   0.9196 B(  0-C , 10-H ) :   0.9317
B(  0-C , 11-H ) :   0.9211 B(  1-C ,  2-N ) :   1.8114 B(  1-C ,  4-C ) :   0.9249
B(  2-N ,  3-O ) :   0.8214 B(  3-O , 12-H ) :   0.8450 B(  4-C ,  5-C ) :   0.9097
B(  4-C ,  7-C ) :   1.0346 B(  4-C , 13-H ) :   0.9111 B(  5-C ,  6-O ) :   0.9332
B(  5-C , 14-H ) :   0.9245 B(  5-C , 15-H ) :   0.9258 B(  6-O , 16-H ) :   0.8379
B(  7-C ,  8-C ) :   2.6362 B(  8-C , 17-H ) :   0.8966

MP2 TOTAL ENERGY:     -438.280633671 Eh
FINAL SINGLE POINT ENERGY      -438.280633670893

DIPOLE MOMENT
-------------
                                X             Y             Z
Electronic contribution:     -0.47931      -2.01587       0.74647
Nuclear contribution   :      0.08854       2.55303      -0.57169
                        -----------------------------------------
Total Dipole Moment    :     -0.39078       0.53716       0.17478
                        -----------------------------------------
Magnitude (a.u.)       :      0.68688
Magnitude (Debye)      :      1.74590

                             ****ORCA TERMINATED NORMALLY****
TOTAL RUN TIME: 0 days 0 hours 16 minutes 23 seconds 50 msec
