                         Program Version 3.0.3 - RELEASE   -
|  1> ! RI-MP2 RIJK def2-TZVP def2-TZVP/C def2-TZVP/JK TIGHTSCF
|  2> % maxcore 2000
|  3> % mp2 density relaxed end
|  4> *xyz 0 1
|  5>  O        0.0451645261     1.4530660816    -0.0436389295
|  6>  C        0.0461551079     0.0528429211     0.1491060449
|  7>  C       -1.3685006302    -0.5430098156     0.0288711476
|  8>  C       -2.1769560779     0.0826300061     1.0790631068
|  9>  N       -2.7377663767     0.6332020450     1.9286518879
| 10>  C       -2.0632441357    -0.6851018065    -1.3783364831
| 11>  C       -1.1090705880    -1.8800736509    -1.6699986978
| 12>  C       -1.5955350529    -2.0845914434    -0.2045369628
| 13>  C       -3.0199074798    -1.7287712377    -0.7275152033
| 14>  H       -0.4441335208     1.8553802943     0.6837018128
| 15>  H        0.7066732421    -0.3534092536    -0.6174836475
| 16>  H        0.4654531158    -0.2246158784     1.1280731431
| 17>  H       -2.3235693561     0.1412345117    -2.0381737200
| 18>  H       -1.4845268716    -2.6099099011    -2.3899336694
| 19>  H       -0.0547172241    -1.6744978169    -1.8474213345
| 20>  H       -1.3204808842    -2.8793095095     0.4891219510
| 21>  H       -3.7436510792    -1.3603496770     0.0009825250
| 22>  H       -3.4683541348    -2.4536792592    -1.4092671312
| 23> *
| 24>
| 25>                          ****END OF INPUT****

CARTESIAN COORDINATES (ANGSTROEM)
---------------------------------
  O      0.045165    1.453066   -0.043639
  C      0.046155    0.052843    0.149106
  C     -1.368501   -0.543010    0.028871
  C     -2.176956    0.082630    1.079063
  N     -2.737766    0.633202    1.928652
  C     -2.063244   -0.685102   -1.378336
  C     -1.109071   -1.880074   -1.669999
  C     -1.595535   -2.084591   -0.204537
  C     -3.019907   -1.728771   -0.727515
  H     -0.444134    1.855380    0.683702
  H      0.706673   -0.353409   -0.617484
  H      0.465453   -0.224616    1.128073
  H     -2.323569    0.141235   -2.038174
  H     -1.484527   -2.609910   -2.389934
  H     -0.054717   -1.674498   -1.847421
  H     -1.320481   -2.879310    0.489122
  H     -3.743651   -1.360350    0.000983
  H     -3.468354   -2.453679   -1.409267

 Total Charge           Charge          ....    0
 Multiplicity           Mult            ....    1
 Number of Electrons    NEL             ....   66
 Basis Dimension        Dim             ....  333

ORBITAL ENERGIES
----------------

  NO   OCC          E(Eh)            E(eV)
   0   2.0000     -20.568744      -559.7040
   1   2.0000     -15.573545      -423.7777
   2   2.0000     -11.298347      -307.4437
   3   2.0000     -11.294859      -307.3487
   4   2.0000     -11.278793      -306.9116
   5   2.0000     -11.275187      -306.8134
   6   2.0000     -11.275136      -306.8120
   7   2.0000     -11.253621      -306.2266
   8   2.0000     -11.251498      -306.1688
   9   2.0000      -1.376517       -37.4569
  10   2.0000      -1.249320       -33.9957
  11   2.0000      -1.214809       -33.0566
  12   2.0000      -1.023366       -27.8472
  13   2.0000      -0.940498       -25.5922
  14   2.0000      -0.886740       -24.1294
  15   2.0000      -0.883003       -24.0277
  16   2.0000      -0.794159       -21.6102
  17   2.0000      -0.707328       -19.2474
  18   2.0000      -0.701784       -19.0965
  19   2.0000      -0.680379       -18.5141
  20   2.0000      -0.658162       -17.9095
  21   2.0000      -0.605336       -16.4720
  22   2.0000      -0.574232       -15.6257
  23   2.0000      -0.564417       -15.3586
  24   2.0000      -0.540762       -14.7149
  25   2.0000      -0.515610       -14.0305
  26   2.0000      -0.506416       -13.7803
  27   2.0000      -0.484606       -13.1868
  28   2.0000      -0.481072       -13.0906
  29   2.0000      -0.475912       -12.9502
  30   2.0000      -0.470996       -12.8165
  31   2.0000      -0.439147       -11.9498
  32   2.0000      -0.434945       -11.8355
  33   0.0000       0.138017         3.7556
  34   0.0000       0.142503         3.8777
  35   0.0000       0.149609         4.0711
  36   0.0000       0.155565         4.2331
  37   0.0000       0.181073         4.9272

MULLIKEN ATOMIC CHARGES
-----------------------
   0 O :   -0.471013
   1 C :   -0.017578
   2 C :    0.123906
   3 C :   -0.301660
   4 N :   -0.030476
   5 C :   -0.111437
   6 C :   -0.234480
   7 C :   -0.117787
   8 C :   -0.230513
   9 H :    0.331038
  10 H :    0.112714
  11 H :    0.125099
  12 H :    0.151884
  13 H :    0.125840
  14 H :    0.121874
  15 H :    0.148845
  16 H :    0.148945
  17 H :    0.124800
Sum of atomic charges:   -0.0000000

LOEWDIN ATOMIC CHARGES
----------------------
   0 O :   -0.027572
   1 C :   -0.290160
   2 C :   -0.203851
   3 C :   -0.168253
   4 N :    0.061878
   5 C :   -0.121672
   6 C :   -0.186256
   7 C :   -0.125698
   8 C :   -0.180545
   9 H :    0.181388
  10 H :    0.134463
  11 H :    0.129175
  12 H :    0.134175
  13 H :    0.134137
  14 H :    0.125762
  15 H :    0.131244
  16 H :    0.139303
  17 H :    0.132479

  Mayer bond orders larger than 0.1
B(  0-O ,  1-C ) :   0.9420 B(  0-O ,  9-H ) :   0.8355 B(  1-C ,  2-C ) :   0.9185
B(  1-C , 10-H ) :   0.9129 B(  1-C , 11-H ) :   0.9304 B(  2-C ,  3-C ) :   0.8808
B(  2-C ,  5-C ) :   0.8354 B(  2-C ,  7-C ) :   0.8449 B(  3-C ,  4-N ) :   2.8932
B(  5-C ,  6-C ) :   0.9012 B(  5-C ,  8-C ) :   0.9085 B(  5-C , 12-H ) :   0.8863
B(  6-C ,  7-C ) :   0.9029 B(  6-C , 13-H ) :   0.9298 B(  6-C , 14-H ) :   0.9315
B(  7-C ,  8-C ) :   0.9112 B(  7-C , 15-H ) :   0.8843 B(  8-C , 16-H ) :   0.9177
B(  8-C , 17-H ) :   0.9310

MP2 TOTAL ENERGY:     -401.220483038 Eh
FINAL SINGLE POINT ENERGY      -401.220483037869

DIPOLE MOMENT
-------------
                                X             Y             Z
Electronic contribution:     -1.36867       3.81099       4.00549
Nuclear contribution   :      1.75070      -4.88659      -4.76437
                        -----------------------------------------
Total Dipole Moment    :      0.38203      -1.07560      -0.75888
                        -----------------------------------------
Magnitude (a.u.)       :      1.37067
Magnitude (Debye)      :      3.48398

                             ****ORCA TERMINATED NORMALLY****
TOTAL RUN TIME: 0 days 0 hours 18 minutes 38 seconds 840 msec
