                         Program Version 3.0.3 - RELEASE   -
|  1> ! RI-MP2 RIJK def2-TZVP def2-TZVP/C def2-TZVP/JK TIGHTSCF
|  2> % maxcore 2000
|  3> % mp2 density relaxed end
|  4> *xyz 0 1
|  5>  C        0.0299580190     1.4946694706    -0.0336910806
|  6>  C        0.0346717099    -0.0013304311    -0.0482927561
|  7>  C       -0.3459570725    -0.8055760901    -1.0433730823
|  8>  C       -0.1689604713    -2.2822892237    -0.7352175201
|  9>  C       -1.4016769634    -3.1170570448    -1.1113377044
| 10>  C        1.0709207047    -2.8349184970    -1.4779004601
| 11>  O        0.9823191708    -2.7225869144    -2.8901796038
| 12>  C        0.1026411574    -2.2546453677     0.7982669167
| 13>  C        0.5289325863    -0.8058420273     1.1376345241
| 14>  H        1.0398225452     1.8922818018     0.1316098209
| 15>  H       -0.3487677854     1.9092494423    -0.9719295781
| 16>  H       -0.5905642358     1.8801751315     0.7854643526
| 17>  H       -0.7373011433    -0.4575770778    -1.9955426824
| 18>  H       -1.5218618642    -3.1546165667    -2.1978110486
| 19>  H       -1.2983803670    -4.1475533038    -0.7515586072
| 20>  H       -2.3118951868    -2.6954590364    -0.6733533662
| 21>  H        1.9764012380    -2.3354109213    -1.0991427276
| 22>  H        1.1744494509    -3.9068707180    -1.2724947406
| 23>  H        1.0031715246    -1.7840831361    -3.1038134548
| 24>  H       -0.8227262460    -2.4998699238     1.3289745004
| 25>  H        0.8479834300    -2.9979448598     1.1002295814
| 26>  H        1.6185117170    -0.7040628601     1.2433110396
| 27>  H        0.1031428420    -0.4539061163     2.0853431772
| 28> *
| 29>
| 30>                          ****END OF INPUT****

CARTESIAN COORDINATES (ANGSTROEM)
---------------------------------
  C      0.029958    1.494669   -0.033691
  C      0.034672   -0.001330   -0.048293
  C     -0.345957   -0.805576   -1.043373
  C     -0.168960   -2.282289   -0.735218
  C     -1.401677   -3.117057   -1.111338
  C      1.070921   -2.834918   -1.477900
  O      0.982319   -2.722587   -2.890180
  C      0.102641   -2.254645    0.798267
  C      0.528933   -0.805842    1.137635
  H      1.039823    1.892282    0.131610
  H     -0.348768    1.909249   -0.971930
  H     -0.590564    1.880175    0.785464
  H     -0.737301   -0.457577   -1.995543
  H     -1.521862   -3.154617   -2.197811
  H     -1.298380   -4.147553   -0.751559
  H     -2.311895   -2.695459   -0.673353
  H      1.976401   -2.335411   -1.099143
  H      1.174449   -3.906871   -1.272495
  H      1.003172   -1.784083   -3.103813
  H     -0.822726   -2.499870    1.328975
  H      0.847983   -2.997945    1.100230
  H      1.618512   -0.704063    1.243311
  H      0.103143   -0.453906    2.085343

 Total Charge           Charge          ....    0
 Multiplicity           Mult            ....    1
 Number of Electrons    NEL             ....   70
 Basis Dimension        Dim             ....  363

ORBITAL ENERGIES
----------------

  NO   OCC          E(Eh)            E(eV)
   0   2.0000     -20.549775      -559.1878
   1   2.0000     -11.267461      -306.6032
   2   2.0000     -11.233957      -305.6915
   3   2.0000     -11.232406      -305.6493
   4   2.0000     -11.225746      -305.4681
   5   2.0000     -11.225667      -305.4659
   6   2.0000     -11.220820      -305.3340
   7   2.0000     -11.213899      -305.1457
   8   2.0000     -11.205913      -304.9284
   9   2.0000      -1.354643       -36.8617
  10   2.0000      -1.146043       -31.1854
  11   2.0000      -1.043082       -28.3837
  12   2.0000      -0.982680       -26.7401
  13   2.0000      -0.932915       -25.3859
  14   2.0000      -0.914355       -24.8809
  15   2.0000      -0.860270       -23.4091
  16   2.0000      -0.759378       -20.6637
  17   2.0000      -0.710099       -19.3228
  18   2.0000      -0.681923       -18.5561
  19   2.0000      -0.647801       -17.6276
  20   2.0000      -0.625010       -17.0074
  21   2.0000      -0.600784       -16.3482
  22   2.0000      -0.590872       -16.0785
  23   2.0000      -0.573504       -15.6058
  24   2.0000      -0.562962       -15.3190
  25   2.0000      -0.549954       -14.9650
  26   2.0000      -0.522111       -14.2074
  27   2.0000      -0.515476       -14.0268
  28   2.0000      -0.514067       -13.9885
  29   2.0000      -0.490044       -13.3348
  30   2.0000      -0.473043       -12.8722
  31   2.0000      -0.456333       -12.4175
  32   2.0000      -0.450628       -12.2622
  33   2.0000      -0.430212       -11.7067
  34   2.0000      -0.337468        -9.1830
  35   0.0000       0.125784         3.4228
  36   0.0000       0.145463         3.9583
  37   0.0000       0.151936         4.1344
  38   0.0000       0.159232         4.3329
  39   0.0000       0.180530         4.9125

MULLIKEN ATOMIC CHARGES
-----------------------
   0 C :   -0.434334
   1 C :    0.059481
   2 C :   -0.374424
   3 C :    0.268591
   4 C :   -0.434323
   5 C :   -0.073580
   6 O :   -0.480012
   7 C :   -0.301323
   8 C :   -0.207612
   9 H :    0.137749
  10 H :    0.137010
  11 H :    0.140638
  12 H :    0.135779
  13 H :    0.143558
  14 H :    0.127486
  15 H :    0.130154
  16 H :    0.112708
  17 H :    0.111577
  18 H :    0.315809
  19 H :    0.120647
  20 H :    0.126948
  21 H :    0.115182
  22 H :    0.122294
Sum of atomic charges:   -0.0000000

LOEWDIN ATOMIC CHARGES
----------------------
   0 C :   -0.274834
   1 C :   -0.183194
   2 C :   -0.119437
   3 C :   -0.293198
   4 C :   -0.271872
   5 C :   -0.303717
   6 O :   -0.042590
   7 C :   -0.191347
   8 C :   -0.213396
   9 H :    0.131502
  10 H :    0.129770
  11 H :    0.131508
  12 H :    0.140053
  13 H :    0.129241
  14 H :    0.125572
  15 H :    0.124103
  16 H :    0.122058
  17 H :    0.131049
  18 H :    0.172043
  19 H :    0.142138
  20 H :    0.136815
  21 H :    0.140033
  22 H :    0.137702

  Mayer bond orders larger than 0.1
B(  0-C ,  1-C ) :   0.8898 B(  0-C ,  9-H ) :   0.9263 B(  0-C , 10-H ) :   0.9493
B(  0-C , 11-H ) :   0.9357 B(  1-C ,  2-C ) :   1.7456 B(  1-C ,  8-C ) :   0.9472
B(  2-C ,  3-C ) :   0.8660 B(  2-C , 12-H ) :   0.9242 B(  3-C ,  4-C ) :   0.8809
B(  3-C ,  5-C ) :   0.8806 B(  3-C ,  7-C ) :   0.8675 B(  4-C , 13-H ) :   0.9346
B(  4-C , 14-H ) :   0.9363 B(  4-C , 15-H ) :   0.9375 B(  5-C ,  6-O ) :   0.9315
B(  5-C , 16-H ) :   0.9335 B(  5-C , 17-H ) :   0.9275 B(  6-O , 18-H ) :   0.8462
B(  7-C ,  8-C ) :   0.9614 B(  7-C , 19-H ) :   0.9284 B(  7-C , 20-H ) :   0.9338
B(  8-C , 21-H ) :   0.9018 B(  8-C , 22-H ) :   0.9256

MP2 TOTAL ENERGY:     -387.637014208 Eh
FINAL SINGLE POINT ENERGY      -387.637014207751

DIPOLE MOMENT
-------------
                                X             Y             Z
Electronic contribution:      1.35685      -0.93904      -2.90032
Nuclear contribution   :     -1.32598       1.56333       3.43007
                        -----------------------------------------
Total Dipole Moment    :      0.03086       0.62429       0.52975
                        -----------------------------------------
Magnitude (a.u.)       :      0.81934
Magnitude (Debye)      :      2.08260

                             ****ORCA TERMINATED NORMALLY****
TOTAL RUN TIME: 0 days 0 hours 22 minutes 8 seconds 127 msec
