                         Program Version 3.0.3 - RELEASE   -
|  1> ! RI-MP2 RIJK def2-TZVP def2-TZVP/C def2-TZVP/JK TIGHTSCF
|  2> % maxcore 2000
|  3> % mp2 density relaxed end
|  4> *xyz 0 1
|  5>  C        0.0498944548     1.5486193436     0.0088932307
|  6>  C       -0.0370614019     0.0248049554     0.0030915831
|  7>  C       -1.4542593374    -0.4869406916     0.0129579407
|  8>  O       -2.4504722048     0.1924226997     0.0251484137
|  9>  C       -1.6167831905    -2.0225980943     0.0069483562
| 10>  O       -0.6898963423    -2.7897955084    -0.0049839296
| 11>  C       -3.0141906806    -2.4923162406     0.0176532546
| 12>  N       -4.0908467796    -2.9131692580     0.0256468893
| 13>  H        1.0944139100     1.8692439218     0.0016343989
| 14>  H       -0.4486407029     1.9729218674    -0.8662907578
| 15>  H       -0.4341073609     1.9653714580     0.8957785170
| 16>  H        0.4657494038    -0.4141737802    -0.8692515256
| 17>  H        0.4802841922    -0.4214859428     0.8631686288
| 18> *
| 19>
| 20>                          ****END OF INPUT****

CARTESIAN COORDINATES (ANGSTROEM)
---------------------------------
  C      0.049894    1.548619    0.008893
  C     -0.037061    0.024805    0.003092
  C     -1.454259   -0.486941    0.012958
  O     -2.450472    0.192423    0.025148
  C     -1.616783   -2.022598    0.006948
  O     -0.689896   -2.789796   -0.004984
  C     -3.014191   -2.492316    0.017653
  N     -4.090847   -2.913169    0.025647
  H      1.094414    1.869244    0.001634
  H     -0.448641    1.972922   -0.866291
  H     -0.434107    1.965371    0.895779
  H      0.465749   -0.414174   -0.869252
  H      0.480284   -0.421486    0.863169

 Total Charge           Charge          ....    0
 Multiplicity           Mult            ....    1
 Number of Electrons    NEL             ....   58
 Basis Dimension        Dim             ....  278

ORBITAL ENERGIES
----------------

  NO   OCC          E(Eh)            E(eV)
   0   2.0000     -20.635286      -561.5147
   1   2.0000     -20.607835      -560.7677
   2   2.0000     -15.617346      -424.9696
   3   2.0000     -11.418930      -310.7249
   4   2.0000     -11.382982      -309.7467
   5   2.0000     -11.305266      -307.6319
   6   2.0000     -11.271455      -306.7119
   7   2.0000     -11.242403      -305.9213
   8   2.0000      -1.476138       -40.1678
   9   2.0000      -1.445485       -39.3336
  10   2.0000      -1.251314       -34.0500
  11   2.0000      -1.090756       -29.6810
  12   2.0000      -1.008904       -27.4537
  13   2.0000      -0.927207       -25.2306
  14   2.0000      -0.818646       -22.2765
  15   2.0000      -0.743944       -20.2437
  16   2.0000      -0.731322       -19.9003
  17   2.0000      -0.669558       -18.2196
  18   2.0000      -0.669521       -18.2186
  19   2.0000      -0.617695       -16.8083
  20   2.0000      -0.603551       -16.4234
  21   2.0000      -0.567776       -15.4500
  22   2.0000      -0.557399       -15.1676
  23   2.0000      -0.555693       -15.1212
  24   2.0000      -0.543729       -14.7956
  25   2.0000      -0.519565       -14.1381
  26   2.0000      -0.503677       -13.7057
  27   2.0000      -0.496552       -13.5119
  28   2.0000      -0.456201       -12.4139
  29   0.0000       0.010634         0.2894
  30   0.0000       0.115907         3.1540
  31   0.0000       0.131128         3.5682
  32   0.0000       0.148905         4.0519
  33   0.0000       0.171827         4.6757

MULLIKEN ATOMIC CHARGES
-----------------------
   0 C :   -0.366748
   1 C :   -0.213643
   2 C :    0.146768
   3 O :   -0.237702
   4 C :    0.300042
   5 O :   -0.213320
   6 C :   -0.118622
   7 N :   -0.023377
   8 H :    0.143846
   9 H :    0.139610
  10 H :    0.139639
  11 H :    0.151770
  12 H :    0.151738
Sum of atomic charges:   -0.0000000

LOEWDIN ATOMIC CHARGES
----------------------
   0 C :   -0.302382
   1 C :   -0.261346
   2 C :   -0.293637
   3 O :    0.212354
   4 C :   -0.280387
   5 O :    0.232600
   6 C :   -0.132682
   7 N :    0.116273
   8 H :    0.126405
   9 H :    0.129354
  10 H :    0.129360
  11 H :    0.162031
  12 H :    0.162055

  Mayer bond orders larger than 0.1
B(  0-C ,  1-C ) :   0.9341 B(  0-C ,  8-H ) :   0.9391 B(  0-C ,  9-H ) :   0.9336
B(  0-C , 10-H ) :   0.9335 B(  1-C ,  2-C ) :   0.9537 B(  1-C , 11-H ) :   0.9009
B(  1-C , 12-H ) :   0.9008 B(  2-C ,  3-O ) :   1.9547 B(  2-C ,  4-C ) :   0.8518
B(  4-C ,  5-O ) :   1.9512 B(  4-C ,  6-C ) :   0.9247 B(  6-C ,  7-N ) :   2.7754

MP2 TOTAL ENERGY:     -397.968063523 Eh
FINAL SINGLE POINT ENERGY      -397.968063522762

DIPOLE MOMENT
-------------
                                X             Y             Z
Electronic contribution:     -7.21711      -8.89495       0.02213
Nuclear contribution   :      8.64472       9.65196      -0.03146
                        -----------------------------------------
Total Dipole Moment    :      1.42761       0.75700      -0.00933
                        -----------------------------------------
Magnitude (a.u.)       :      1.61592
Magnitude (Debye)      :      4.10735

                             ****ORCA TERMINATED NORMALLY****
TOTAL RUN TIME: 0 days 0 hours 9 minutes 28 seconds 454 msec
