                         Program Version 3.0.3 - RELEASE   -
|  1> ! RI-MP2 RIJK def2-TZVP def2-TZVP/C def2-TZVP/JK TIGHTSCF
|  2> % maxcore 2000
|  3> % mp2 density relaxed end
|  4> *xyz 0 1
|  5>  C       -0.1164764597     1.5962709150    -0.1895829345
|  6>  C       -0.1158322145     0.1355727561     0.2674236630
|  7>  C       -1.4191249848    -0.5772755876    -0.0649688478
|  8>  O       -1.3343276584    -1.9158589812     0.3916437821
|  9>  C       -2.4922688365    -2.6663628892     0.1628922765
| 10>  C       -2.7487805339    -3.1724965366    -1.2986762603
| 11>  C       -2.8914978235    -4.5850130231    -0.7087783387
| 12>  O       -3.3290870831    -5.6168515592    -1.1268270823
| 13>  C       -2.3600674227    -4.1289817312     0.6580671312
| 14>  H        0.8282975817     2.0861171976     0.0622103666
| 15>  H       -0.2527587288     1.6763645439    -1.2737422168
| 16>  H       -0.9222682340     2.1643971840     0.2882147827
| 17>  H        0.7092881615    -0.4104926669    -0.2039765244
| 18>  H        0.0472052283     0.0744269051     1.3494443880
| 19>  H       -2.2712966454    -0.0673216585     0.4164961830
| 20>  H       -1.6024435421    -0.5534279301    -1.1523059084
| 21>  H       -3.3763376895    -2.1593464278     0.5759793433
| 22>  H       -3.6034779685    -2.7857445830    -1.8581960788
| 23>  H       -1.8446298188    -3.0883303833    -1.9121259672
| 24>  H       -1.3058203662    -4.3963486377     0.7885721458
| 25>  H       -2.9218993811    -4.4394654761     1.5412992270
| 26> *
| 27>
| 28>                          ****END OF INPUT****

CARTESIAN COORDINATES (ANGSTROEM)
---------------------------------
  C     -0.116476    1.596271   -0.189583
  C     -0.115832    0.135573    0.267424
  C     -1.419125   -0.577276   -0.064969
  O     -1.334328   -1.915859    0.391644
  C     -2.492269   -2.666363    0.162892
  C     -2.748781   -3.172497   -1.298676
  C     -2.891498   -4.585013   -0.708778
  O     -3.329087   -5.616852   -1.126827
  C     -2.360067   -4.128982    0.658067
  H      0.828298    2.086117    0.062210
  H     -0.252759    1.676365   -1.273742
  H     -0.922268    2.164397    0.288215
  H      0.709288   -0.410493   -0.203977
  H      0.047205    0.074427    1.349444
  H     -2.271297   -0.067322    0.416496
  H     -1.602444   -0.553428   -1.152306
  H     -3.376338   -2.159346    0.575979
  H     -3.603478   -2.785745   -1.858196
  H     -1.844630   -3.088330   -1.912126
  H     -1.305820   -4.396349    0.788572
  H     -2.921899   -4.439465    1.541299

 Total Charge           Charge          ....    0
 Multiplicity           Mult            ....    1
 Number of Electrons    NEL             ....   70
 Basis Dimension        Dim             ....  351

ORBITAL ENERGIES
----------------

  NO   OCC          E(Eh)            E(eV)
   0   2.0000     -20.568105      -559.6866
   1   2.0000     -20.552253      -559.2552
   2   2.0000     -11.334087      -308.4162
   3   2.0000     -11.299994      -307.4885
   4   2.0000     -11.283262      -307.0332
   5   2.0000     -11.241404      -305.8942
   6   2.0000     -11.239520      -305.8429
   7   2.0000     -11.227459      -305.5147
   8   2.0000     -11.223315      -305.4019
   9   2.0000      -1.397099       -38.0170
  10   2.0000      -1.391382       -37.8614
  11   2.0000      -1.133265       -30.8377
  12   2.0000      -1.058626       -28.8067
  13   2.0000      -0.943548       -25.6753
  14   2.0000      -0.928677       -25.2706
  15   2.0000      -0.838132       -22.8067
  16   2.0000      -0.816621       -22.2214
  17   2.0000      -0.732655       -19.9366
  18   2.0000      -0.699748       -19.0411
  19   2.0000      -0.679878       -18.5004
  20   2.0000      -0.663502       -18.0548
  21   2.0000      -0.634591       -17.2681
  22   2.0000      -0.607247       -16.5240
  23   2.0000      -0.591778       -16.1031
  24   2.0000      -0.588970       -16.0267
  25   2.0000      -0.566182       -15.4066
  26   2.0000      -0.554645       -15.0927
  27   2.0000      -0.534083       -14.5331
  28   2.0000      -0.512197       -13.9376
  29   2.0000      -0.497207       -13.5297
  30   2.0000      -0.481787       -13.1101
  31   2.0000      -0.479417       -13.0456
  32   2.0000      -0.470196       -12.7947
  33   2.0000      -0.427283       -11.6270
  34   2.0000      -0.398782       -10.8514
  35   0.0000       0.125943         3.4271
  36   0.0000       0.128331         3.4921
  37   0.0000       0.145342         3.9550
  38   0.0000       0.162013         4.4086
  39   0.0000       0.166236         4.5235

MULLIKEN ATOMIC CHARGES
-----------------------
   0 C :   -0.407815
   1 C :   -0.161585
   2 C :   -0.069059
   3 O :   -0.288088
   4 C :    0.024489
   5 C :   -0.235149
   6 C :    0.136123
   7 O :   -0.251098
   8 C :   -0.197229
   9 H :    0.140233
  10 H :    0.124890
  11 H :    0.124429
  12 H :    0.113171
  13 H :    0.114458
  14 H :    0.092613
  15 H :    0.094140
  16 H :    0.083681
  17 H :    0.140875
  18 H :    0.137450
  19 H :    0.143003
  20 H :    0.140467
Sum of atomic charges:    0.0000000

LOEWDIN ATOMIC CHARGES
----------------------
   0 C :   -0.318774
   1 C :   -0.294292
   2 C :   -0.322002
   3 O :    0.184264
   4 C :   -0.308642
   5 C :   -0.201449
   6 C :   -0.314990
   7 O :    0.160624
   8 C :   -0.188478
   9 H :    0.123656
  10 H :    0.121028
  11 H :    0.121106
  12 H :    0.137808
  13 H :    0.138205
  14 H :    0.119659
  15 H :    0.119939
  16 H :    0.132373
  17 H :    0.137799
  18 H :    0.154122
  19 H :    0.157900
  20 H :    0.140145

  Mayer bond orders larger than 0.1
B(  0-C ,  1-C ) :   0.9152 B(  0-C ,  9-H ) :   0.9399 B(  0-C , 10-H ) :   0.9370
B(  0-C , 11-H ) :   0.9363 B(  1-C ,  2-C ) :   0.9555 B(  1-C , 12-H ) :   0.9312
B(  1-C , 13-H ) :   0.9299 B(  2-C ,  3-O ) :   0.9118 B(  2-C , 14-H ) :   0.9188
B(  2-C , 15-H ) :   0.9209 B(  3-O ,  4-C ) :   1.0177 B(  4-C ,  5-C ) :   0.9320
B(  4-C ,  8-C ) :   0.9249 B(  4-C , 16-H ) :   0.9361 B(  5-C ,  6-C ) :   0.8873
B(  5-C ,  8-C ) :  -0.1081 B(  5-C , 17-H ) :   0.8974 B(  5-C , 18-H ) :   0.8900
B(  6-C ,  7-O ) :   2.0357 B(  6-C ,  8-C ) :   0.8917 B(  8-C , 19-H ) :   0.8947
B(  8-C , 20-H ) :   0.9017

MP2 TOTAL ENERGY:     -423.514078777 Eh
FINAL SINGLE POINT ENERGY      -423.514078776834

DIPOLE MOMENT
-------------
                                X             Y             Z
Electronic contribution:     -5.15007     -13.32729      -0.89244
Nuclear contribution   :      5.31857      14.56733       1.09584
                        -----------------------------------------
Total Dipole Moment    :      0.16850       1.24004       0.20340
                        -----------------------------------------
Magnitude (a.u.)       :      1.26786
Magnitude (Debye)      :      3.22265

                             ****ORCA TERMINATED NORMALLY****
TOTAL RUN TIME: 0 days 0 hours 16 minutes 17 seconds 206 msec
