                         Program Version 3.0.3 - RELEASE   -
|  1> ! RI-MP2 RIJK def2-TZVP def2-TZVP/C def2-TZVP/JK TIGHTSCF
|  2> % maxcore 2000
|  3> % mp2 density relaxed end
|  4> *xyz 0 1
|  5>  N       -0.0202600570     1.4004229382     0.1468976243
|  6>  C        0.0193765243     0.0256177803     0.0566766062
|  7>  C       -1.1704752766    -0.7325437227     0.0419341720
|  8>  N       -1.2103159349    -2.0530084012     0.0073951038
|  9>  C       -0.0448717980    -2.7194685604    -0.0153526711
| 10>  C        1.1933253586    -2.0691466504    -0.0056918531
| 11>  C        1.2256977629    -0.6858604622     0.0297188078
| 12>  C       -0.1042534063    -4.1533634726    -0.0545364186
| 13>  N       -0.1127706348    -5.3104417323    -0.0868917544
| 14>  H        0.8009773750     1.9039513401    -0.1498811794
| 15>  H       -0.8832072645     1.8488333893    -0.1193620031
| 16>  H       -2.1307569981    -0.2189194458     0.0605110792
| 17>  H        2.1095193311    -2.6470910665    -0.0283497569
| 18>  H        2.1733629084    -0.1565769739     0.0392477234
| 19> *
| 20>
| 21>                          ****END OF INPUT****

CARTESIAN COORDINATES (ANGSTROEM)
---------------------------------
  N     -0.020260    1.400423    0.146898
  C      0.019377    0.025618    0.056677
  C     -1.170475   -0.732544    0.041934
  N     -1.210316   -2.053008    0.007395
  C     -0.044872   -2.719469   -0.015353
  C      1.193325   -2.069147   -0.005692
  C      1.225698   -0.685860    0.029719
  C     -0.104253   -4.153363   -0.054536
  N     -0.112771   -5.310442   -0.086892
  H      0.800977    1.903951   -0.149881
  H     -0.883207    1.848833   -0.119362
  H     -2.130757   -0.218919    0.060511
  H      2.109519   -2.647091   -0.028350
  H      2.173363   -0.156577    0.039248

 Total Charge           Charge          ....    0
 Multiplicity           Mult            ....    1
 Number of Electrons    NEL             ....   62
 Basis Dimension        Dim             ....  309

ORBITAL ENERGIES
----------------

  NO   OCC          E(Eh)            E(eV)
   0   2.0000     -15.599380      -424.4807
   1   2.0000     -15.598453      -424.4555
   2   2.0000     -15.566533      -423.5869
   3   2.0000     -11.318420      -307.9899
   4   2.0000     -11.309059      -307.7351
   5   2.0000     -11.289269      -307.1966
   6   2.0000     -11.276271      -306.8429
   7   2.0000     -11.270007      -306.6725
   8   2.0000     -11.269005      -306.6452
   9   2.0000      -1.297887       -35.3173
  10   2.0000      -1.250049       -34.0156
  11   2.0000      -1.208736       -32.8914
  12   2.0000      -1.103362       -30.0240
  13   2.0000      -1.051508       -28.6130
  14   2.0000      -0.905264       -24.6335
  15   2.0000      -0.891087       -24.2477
  16   2.0000      -0.778078       -21.1726
  17   2.0000      -0.742073       -20.1928
  18   2.0000      -0.727293       -19.7906
  19   2.0000      -0.659450       -17.9446
  20   2.0000      -0.639221       -17.3941
  21   2.0000      -0.611140       -16.6300
  22   2.0000      -0.594965       -16.1898
  23   2.0000      -0.580856       -15.8059
  24   2.0000      -0.549327       -14.9480
  25   2.0000      -0.527098       -14.3431
  26   2.0000      -0.465289       -12.6612
  27   2.0000      -0.464201       -12.6316
  28   2.0000      -0.448711       -12.2100
  29   2.0000      -0.402576       -10.9546
  30   2.0000      -0.325251        -8.8505
  31   0.0000       0.075725         2.0606
  32   0.0000       0.089669         2.4400
  33   0.0000       0.111558         3.0356
  34   0.0000       0.143595         3.9074
  35   0.0000       0.154799         4.2123

MULLIKEN ATOMIC CHARGES
-----------------------
   0 N :   -0.500527
   1 C :    0.266051
   2 C :   -0.106945
   3 N :   -0.260485
   4 C :    0.306378
   5 C :   -0.183694
   6 C :   -0.191567
   7 C :   -0.198111
   8 N :   -0.053768
   9 H :    0.256161
  10 H :    0.257839
  11 H :    0.125305
  12 H :    0.148113
  13 H :    0.135251
Sum of atomic charges:    0.0000000

LOEWDIN ATOMIC CHARGES
----------------------
   0 N :   -0.040343
   1 C :   -0.243136
   2 C :   -0.183355
   3 N :    0.175489
   4 C :   -0.234669
   5 C :   -0.098178
   6 C :   -0.104149
   7 C :   -0.145693
   8 N :    0.073192
   9 H :    0.172181
  10 H :    0.173849
  11 H :    0.142473
  12 H :    0.160090
  13 H :    0.152249

  Mayer bond orders larger than 0.1
B(  0-N ,  1-C ) :   1.0723 B(  0-N ,  9-H ) :   0.8718 B(  0-N , 10-H ) :   0.8714
B(  1-C ,  2-C ) :   1.2025 B(  1-C ,  6-C ) :   1.2923 B(  2-C ,  3-N ) :   1.4871
B(  2-C , 11-H ) :   0.9574 B(  3-N ,  4-C ) :   1.2665 B(  4-C ,  5-C ) :   1.3018
B(  4-C ,  7-C ) :   0.9006 B(  5-C ,  6-C ) :   1.4034 B(  5-C , 12-H ) :   0.9246
B(  6-C , 13-H ) :   0.9263 B(  7-C ,  8-N ) :   2.8610

MP2 TOTAL ENERGY:     -395.100546685 Eh
FINAL SINGLE POINT ENERGY      -395.100546684537

DIPOLE MOMENT
-------------
                                X             Y             Z
Electronic contribution:     -1.26371      -5.94956      -0.02404
Nuclear contribution   :      2.06461       8.82879      -0.23969
                        -----------------------------------------
Total Dipole Moment    :      0.80090       2.87923      -0.26374
                        -----------------------------------------
Magnitude (a.u.)       :      3.00016
Magnitude (Debye)      :      7.62581

                             ****ORCA TERMINATED NORMALLY****
TOTAL RUN TIME: 0 days 0 hours 14 minutes 41 seconds 301 msec
