                         Program Version 3.0.3 - RELEASE   -
|  1> ! RI-MP2 RIJK def2-TZVP def2-TZVP/C def2-TZVP/JK TIGHTSCF
|  2> % maxcore 2000
|  3> % mp2 density relaxed end
|  4> *xyz 0 1
|  5>  O       -0.1514620019     0.1185427201    -0.6607759293
|  6>  C       -0.0545403951     1.1792088806    -0.1429369096
|  7>  O       -1.1043624012     1.9930749856     0.3261641517
|  8>  C       -0.1348226273     2.8076986504     1.0421005463
|  9>  C        0.3124278674     4.2608227782     1.2903676652
| 10>  C        1.4003447733     3.4547722516     2.1380221333
| 11>  C        0.2415731997     2.4825187750     2.4941960261
| 12>  C        2.2029763596     2.5474083428     1.1368328781
| 13>  C        1.0000157520     2.2519438634     0.2065549307
| 14>  H        0.6351363579     4.8508954104     0.4303125495
| 15>  H       -0.3238699447     4.8488539888     1.9542137749
| 16>  H        1.9592186445     3.9744382897     2.9145587450
| 17>  H       -0.4670264458     2.8940303980     3.2152144122
| 18>  H        0.4955849946     1.4489281418     2.7436625197
| 19>  H        3.0093605703     3.0621436617     0.6100066496
| 20>  H        2.6277447162     1.6840354523     1.6538521284
| 21>  H        1.0943833607     2.8269644395    -0.7220428418
| 22> *
| 23>
| 24>                          ****END OF INPUT****

CARTESIAN COORDINATES (ANGSTROEM)
---------------------------------
  O     -0.151462    0.118543   -0.660776
  C     -0.054540    1.179209   -0.142937
  O     -1.104362    1.993075    0.326164
  C     -0.134823    2.807699    1.042101
  C      0.312428    4.260823    1.290368
  C      1.400345    3.454772    2.138022
  C      0.241573    2.482519    2.494196
  C      2.202976    2.547408    1.136833
  C      1.000016    2.251944    0.206555
  H      0.635136    4.850895    0.430313
  H     -0.323870    4.848854    1.954214
  H      1.959219    3.974438    2.914559
  H     -0.467026    2.894030    3.215214
  H      0.495585    1.448928    2.743663
  H      3.009361    3.062144    0.610007
  H      2.627745    1.684035    1.653852
  H      1.094383    2.826964   -0.722043

 Total Charge           Charge          ....    0
 Multiplicity           Mult            ....    1
 Number of Electrons    NEL             ....   66
 Basis Dimension        Dim             ....  327

ORBITAL ENERGIES
----------------

  NO   OCC          E(Eh)            E(eV)
   0   2.0000     -20.598935      -560.5255
   1   2.0000     -20.558738      -559.4317
   2   2.0000     -11.391239      -309.9714
   3   2.0000     -11.311951      -307.8138
   4   2.0000     -11.268227      -306.6241
   5   2.0000     -11.260082      -306.4024
   6   2.0000     -11.259884      -306.3970
   7   2.0000     -11.259295      -306.3810
   8   2.0000     -11.243755      -305.9581
   9   2.0000      -1.457758       -39.6676
  10   2.0000      -1.382611       -37.6228
  11   2.0000      -1.208743       -32.8916
  12   2.0000      -1.031110       -28.0579
  13   2.0000      -0.964536       -26.2464
  14   2.0000      -0.930614       -25.3233
  15   2.0000      -0.843836       -22.9619
  16   2.0000      -0.776126       -21.1194
  17   2.0000      -0.734227       -19.9793
  18   2.0000      -0.719615       -19.5817
  19   2.0000      -0.682153       -18.5623
  20   2.0000      -0.655532       -17.8379
  21   2.0000      -0.643891       -17.5212
  22   2.0000      -0.630206       -17.1488
  23   2.0000      -0.577265       -15.7082
  24   2.0000      -0.554135       -15.0788
  25   2.0000      -0.543650       -14.7935
  26   2.0000      -0.523568       -14.2470
  27   2.0000      -0.508868       -13.8470
  28   2.0000      -0.487740       -13.2721
  29   2.0000      -0.469652       -12.7799
  30   2.0000      -0.451685       -12.2910
  31   2.0000      -0.443217       -12.0605
  32   2.0000      -0.425575       -11.5805
  33   0.0000       0.120688         3.2841
  34   0.0000       0.146642         3.9903
  35   0.0000       0.154008         4.1908
  36   0.0000       0.164132         4.4662
  37   0.0000       0.180614         4.9148

MULLIKEN ATOMIC CHARGES
-----------------------
   0 O :   -0.238109
   1 C :    0.235357
   2 O :   -0.252821
   3 C :    0.203056
   4 C :   -0.244041
   5 C :   -0.046185
   6 C :   -0.282427
   7 C :   -0.264987
   8 C :   -0.182289
   9 H :    0.127338
  10 H :    0.136310
  11 H :    0.137193
  12 H :    0.135645
  13 H :    0.132494
  14 H :    0.135387
  15 H :    0.140225
  16 H :    0.127853
Sum of atomic charges:    0.0000000

LOEWDIN ATOMIC CHARGES
----------------------
   0 O :    0.169909
   1 C :   -0.398902
   2 O :    0.239946
   3 C :   -0.286897
   4 C :   -0.164345
   5 C :   -0.172542
   6 C :   -0.173076
   7 C :   -0.196512
   8 C :   -0.158233
   9 H :    0.131519
  10 H :    0.140938
  11 H :    0.136048
  12 H :    0.144311
  13 H :    0.136633
  14 H :    0.136123
  15 H :    0.141803
  16 H :    0.173278

  Mayer bond orders larger than 0.1
B(  0-O ,  1-C ) :   2.0807 B(  1-C ,  2-O ) :   1.0220 B(  1-C ,  8-C ) :   0.8893
B(  2-O ,  3-C ) :   0.9109 B(  3-C ,  4-C ) :   0.9097 B(  3-C ,  6-C ) :   0.9273
B(  3-C ,  8-C ) :   0.8467 B(  4-C ,  5-C ) :   0.8933 B(  4-C ,  9-H ) :   0.9138
B(  4-C , 10-H ) :   0.9294 B(  5-C ,  6-C ) :   0.9040 B(  5-C ,  7-C ) :   0.9012
B(  5-C , 11-H ) :   0.9142 B(  6-C , 12-H ) :   0.9258 B(  6-C , 13-H ) :   0.9122
B(  7-C ,  8-C ) :   0.9231 B(  7-C , 14-H ) :   0.9222 B(  7-C , 15-H ) :   0.9237
B(  8-C , 16-H ) :   0.9016

MP2 TOTAL ENERGY:     -421.099047655 Eh
FINAL SINGLE POINT ENERGY      -421.099047655423

DIPOLE MOMENT
-------------
                                X             Y             Z
Electronic contribution:     -4.53571      -5.29700      -4.76675
Nuclear contribution   :      5.49881       6.58268       5.59257
                        -----------------------------------------
Total Dipole Moment    :      0.96310       1.28568       0.82582
                        -----------------------------------------
Magnitude (a.u.)       :      1.80624
Magnitude (Debye)      :      4.59110

                             ****ORCA TERMINATED NORMALLY****
TOTAL RUN TIME: 0 days 0 hours 19 minutes 21 seconds 750 msec
