                         Program Version 3.0.3 - RELEASE   -
|  1> ! RI-MP2 RIJK def2-TZVP def2-TZVP/C def2-TZVP/JK TIGHTSCF
|  2> % maxcore 2000
|  3> % mp2 density relaxed end
|  4> *xyz 0 1
|  5>  O        0.0367816408     0.0848349652     0.1794486226
|  6>  C       -0.0454719490     1.2752431306     0.0494557753
|  7>  C       -1.2851808540     2.0632198911    -0.2422358678
|  8>  N       -1.3822167967     3.2709566662     0.6316762989
|  9>  C       -0.8692422526     3.4093498697    -0.7300275455
| 10>  C        0.6500534328     3.5064634526    -0.7689046746
| 11>  C        1.1661934365     2.2658249393     0.0236677293
| 12>  C        1.6446559496     2.5530597943     1.3667492693
| 13>  C        2.0586189163     2.7823900200     2.4712300663
| 14>  H       -2.1834032834     1.5480797595    -0.5601119571
| 15>  H       -2.3608257306     3.5484776168     0.6639393419
| 16>  H       -1.4600204438     3.9329415290    -1.4747815247
| 17>  H        0.9935551667     3.4503328004    -1.8065772444
| 18>  H        1.0091940128     4.4439709611    -0.3394875683
| 19>  H        1.9624286588     1.7571381599    -0.5297138610
| 20>  H        2.4120323859     2.9839840844     3.4518420798
| 21> *
| 22>
| 23>                          ****END OF INPUT****

CARTESIAN COORDINATES (ANGSTROEM)
---------------------------------
  O      0.036782    0.084835    0.179449
  C     -0.045472    1.275243    0.049456
  C     -1.285181    2.063220   -0.242236
  N     -1.382217    3.270957    0.631676
  C     -0.869242    3.409350   -0.730028
  C      0.650053    3.506463   -0.768905
  C      1.166193    2.265825    0.023668
  C      1.644656    2.553060    1.366749
  C      2.058619    2.782390    2.471230
  H     -2.183403    1.548080   -0.560112
  H     -2.360826    3.548478    0.663939
  H     -1.460020    3.932942   -1.474782
  H      0.993555    3.450333   -1.806577
  H      1.009194    4.443971   -0.339488
  H      1.962429    1.757138   -0.529714
  H      2.412032    2.983984    3.451842

 Total Charge           Charge          ....    0
 Multiplicity           Mult            ....    1
 Number of Electrons    NEL             ....   64
 Basis Dimension        Dim             ....  321

ORBITAL ENERGIES
----------------

  NO   OCC          E(Eh)            E(eV)
   0   2.0000     -20.556461      -559.3697
   1   2.0000     -15.586019      -424.1171
   2   2.0000     -11.342070      -308.6334
   3   2.0000     -11.288291      -307.1700
   4   2.0000     -11.280302      -306.9526
   5   2.0000     -11.273475      -306.7668
   6   2.0000     -11.252205      -306.1881
   7   2.0000     -11.234671      -305.7109
   8   2.0000     -11.220920      -305.3367
   9   2.0000      -1.402259       -38.1574
  10   2.0000      -1.296581       -35.2818
  11   2.0000      -1.107377       -30.1333
  12   2.0000      -1.016843       -27.6697
  13   2.0000      -0.958024       -26.0691
  14   2.0000      -0.932297       -25.3691
  15   2.0000      -0.814545       -22.1649
  16   2.0000      -0.768973       -20.9248
  17   2.0000      -0.734998       -20.0003
  18   2.0000      -0.717298       -19.5187
  19   2.0000      -0.669691       -18.2232
  20   2.0000      -0.647881       -17.6297
  21   2.0000      -0.617750       -16.8098
  22   2.0000      -0.588687       -16.0190
  23   2.0000      -0.568238       -15.4625
  24   2.0000      -0.556043       -15.1307
  25   2.0000      -0.531812       -14.4713
  26   2.0000      -0.492378       -13.3983
  27   2.0000      -0.491481       -13.3739
  28   2.0000      -0.445547       -12.1239
  29   2.0000      -0.404675       -11.0118
  30   2.0000      -0.383760       -10.4426
  31   2.0000      -0.370089       -10.0706
  32   0.0000       0.116041         3.1576
  33   0.0000       0.131032         3.5656
  34   0.0000       0.146832         3.9955
  35   0.0000       0.164821         4.4850
  36   0.0000       0.176250         4.7960

MULLIKEN ATOMIC CHARGES
-----------------------
   0 O :   -0.251272
   1 C :    0.169745
   2 C :   -0.102489
   3 N :   -0.372873
   4 C :   -0.056619
   5 C :   -0.194301
   6 C :    0.012544
   7 C :   -0.107084
   8 C :   -0.188376
   9 H :    0.146625
  10 H :    0.225519
  11 H :    0.138318
  12 H :    0.123206
  13 H :    0.135901
  14 H :    0.132436
  15 H :    0.188720
Sum of atomic charges:   -0.0000000

LOEWDIN ATOMIC CHARGES
----------------------
   0 O :    0.177958
   1 C :   -0.264670
   2 C :   -0.203373
   3 N :    0.030860
   4 C :   -0.245767
   5 C :   -0.188039
   6 C :   -0.185495
   7 C :   -0.086209
   8 C :   -0.091069
   9 H :    0.143811
  10 H :    0.175113
  11 H :    0.138513
  12 H :    0.143997
  13 H :    0.148484
  14 H :    0.179122
  15 H :    0.126765

  Mayer bond orders larger than 0.1
B(  0-O ,  1-C ) :   2.0488 B(  1-C ,  2-C ) :   0.9481 B(  1-C ,  6-C ) :   0.8168
B(  2-C ,  3-N ) :   0.8844 B(  2-C ,  4-C ) :   0.8582 B(  2-C ,  6-C ) :  -0.1518
B(  2-C ,  9-H ) :   0.9158 B(  3-N ,  4-C ) :   0.9558 B(  3-N , 10-H ) :   0.8648
B(  4-C ,  5-C ) :   0.9509 B(  4-C , 11-H ) :   0.9175 B(  5-C ,  6-C ) :   0.8589
B(  5-C , 12-H ) :   0.9229 B(  5-C , 13-H ) :   0.9092 B(  6-C ,  7-C ) :   1.1702
B(  6-C , 14-H ) :   0.8940 B(  7-C ,  8-C ) :   2.5819 B(  8-C , 15-H ) :   0.8928

MP2 TOTAL ENERGY:     -400.010705867 Eh
FINAL SINGLE POINT ENERGY      -400.010705867181

DIPOLE MOMENT
-------------
                                X             Y             Z
Electronic contribution:      0.21365      -3.86617       1.73722
Nuclear contribution   :     -0.82501       4.92945      -2.57395
                        -----------------------------------------
Total Dipole Moment    :     -0.61137       1.06328      -0.83673
                        -----------------------------------------
Magnitude (a.u.)       :      1.48474
Magnitude (Debye)      :      3.77391

                             ****ORCA TERMINATED NORMALLY****
TOTAL RUN TIME: 0 days 0 hours 17 minutes 2 seconds 255 msec
