                         Program Version 3.0.3 - RELEASE   -
|  1> ! RI-MP2 RIJK def2-TZVP def2-TZVP/C def2-TZVP/JK TIGHTSCF
|  2> % maxcore 2000
|  3> % mp2 density relaxed end
|  4> *xyz 0 1
|  5>  C       -0.0155367553     1.5075961442     0.0018131720
|  6>  C       -0.0037891312    -0.0086913988     0.0274731802
|  7>  C        0.7582181046    -0.6981638822    -1.1530107237
|  8>  O        0.9757524733    -2.0398979453    -0.7109065207
|  9>  C        0.3785372490    -2.1171123233     0.6190594640
| 10>  C        0.7242770944    -0.7382995994     1.1942875342
| 11>  C       -1.1269717004    -1.9944950302     0.4383217973
| 12>  C       -1.3481601516    -0.7276310532     0.0722801317
| 13>  H        1.0026313411     1.9112325692    -0.0001531266
| 14>  H       -0.5243677597     1.8864318509    -0.8919748690
| 15>  H       -0.5362733551     1.9127090177     0.8755681714
| 16>  H        0.1770440431    -0.6911087789    -2.0832026088
| 17>  H        1.7253804205    -0.2103418052    -1.3362171455
| 18>  H        0.7669908602    -3.0102637616     1.1050376087
| 19>  H        1.8019054092    -0.5502902733     1.2294262484
| 20>  H        0.2675512039    -0.5365229497     2.1647366253
| 21>  H       -1.8332577843    -2.8139042708     0.4685193880
| 22>  H       -2.2807768417    -0.2835825399    -0.2558229369
| 23> *
| 24>
| 25>                          ****END OF INPUT****

CARTESIAN COORDINATES (ANGSTROEM)
---------------------------------
  C     -0.015537    1.507596    0.001813
  C     -0.003789   -0.008691    0.027473
  C      0.758218   -0.698164   -1.153011
  O      0.975752   -2.039898   -0.710907
  C      0.378537   -2.117112    0.619059
  C      0.724277   -0.738300    1.194288
  C     -1.126972   -1.994495    0.438322
  C     -1.348160   -0.727631    0.072280
  H      1.002631    1.911233   -0.000153
  H     -0.524368    1.886432   -0.891975
  H     -0.536273    1.912709    0.875568
  H      0.177044   -0.691109   -2.083203
  H      1.725380   -0.210342   -1.336217
  H      0.766991   -3.010264    1.105038
  H      1.801905   -0.550290    1.229426
  H      0.267551   -0.536523    2.164737
  H     -1.833258   -2.813904    0.468519
  H     -2.280777   -0.283583   -0.255823

 Total Charge           Charge          ....    0
 Multiplicity           Mult            ....    1
 Number of Electrons    NEL             ....   60
 Basis Dimension        Dim             ....  308

ORBITAL ENERGIES
----------------

  NO   OCC          E(Eh)            E(eV)
   0   2.0000     -20.543517      -559.0175
   1   2.0000     -11.280875      -306.9682
   2   2.0000     -11.268215      -306.6237
   3   2.0000     -11.245007      -305.9922
   4   2.0000     -11.229346      -305.5660
   5   2.0000     -11.223850      -305.4165
   6   2.0000     -11.223476      -305.4063
   7   2.0000     -11.223221      -305.3994
   8   2.0000      -1.367578       -37.2137
   9   2.0000      -1.137974       -30.9658
  10   2.0000      -1.029983       -28.0273
  11   2.0000      -0.969573       -26.3834
  12   2.0000      -0.928979       -25.2788
  13   2.0000      -0.832033       -22.6408
  14   2.0000      -0.780824       -21.2473
  15   2.0000      -0.720397       -19.6030
  16   2.0000      -0.681682       -18.5495
  17   2.0000      -0.665254       -18.1025
  18   2.0000      -0.619686       -16.8625
  19   2.0000      -0.596893       -16.2423
  20   2.0000      -0.570654       -15.5283
  21   2.0000      -0.557121       -15.1600
  22   2.0000      -0.540953       -14.7201
  23   2.0000      -0.521962       -14.2033
  24   2.0000      -0.501338       -13.6421
  25   2.0000      -0.494387       -13.4529
  26   2.0000      -0.467786       -12.7291
  27   2.0000      -0.441430       -12.0119
  28   2.0000      -0.401336       -10.9209
  29   2.0000      -0.353663        -9.6237
  30   0.0000       0.132467         3.6046
  31   0.0000       0.141946         3.8625
  32   0.0000       0.166994         4.5441
  33   0.0000       0.179190         4.8760
  34   0.0000       0.188770         5.1367

MULLIKEN ATOMIC CHARGES
-----------------------
   0 C :   -0.411369
   1 C :    0.130790
   2 C :   -0.042728
   3 O :   -0.323590
   4 C :    0.104672
   5 C :   -0.259857
   6 C :   -0.200603
   7 C :   -0.235365
   8 H :    0.135915
   9 H :    0.135942
  10 H :    0.139100
  11 H :    0.097074
  12 H :    0.100150
  13 H :    0.126865
  14 H :    0.119105
  15 H :    0.121209
  16 H :    0.133490
  17 H :    0.129200
Sum of atomic charges:    0.0000000

LOEWDIN ATOMIC CHARGES
----------------------
   0 C :   -0.269918
   1 C :   -0.276697
   2 C :   -0.250898
   3 O :    0.150895
   4 C :   -0.263606
   5 C :   -0.179324
   6 C :   -0.128380
   7 C :   -0.109130
   8 H :    0.128788
   9 H :    0.129026
  10 H :    0.129693
  11 H :    0.124062
  12 H :    0.124010
  13 H :    0.137745
  14 H :    0.138745
  15 H :    0.142054
  16 H :    0.134573
  17 H :    0.138365

  Mayer bond orders larger than 0.1
B(  0-C ,  1-C ) :   0.8662 B(  0-C ,  8-H ) :   0.9428 B(  0-C ,  9-H ) :   0.9396
B(  0-C , 10-H ) :   0.9413 B(  1-C ,  2-C ) :   0.9182 B(  1-C ,  5-C ) :   0.9000
B(  1-C ,  7-C ) :   0.9228 B(  2-C ,  3-O ) :   0.9687 B(  2-C , 11-H ) :   0.9133
B(  2-C , 12-H ) :   0.9158 B(  3-O ,  4-C ) :   0.8949 B(  4-C ,  5-C ) :   0.9638
B(  4-C ,  6-C ) :   0.9419 B(  4-C , 13-H ) :   0.9223 B(  5-C , 14-H ) :   0.9192
B(  5-C , 15-H ) :   0.9137 B(  6-C ,  7-C ) :   1.7603 B(  6-C , 16-H ) :   0.9306
B(  7-C , 17-H ) :   0.9300

MP2 TOTAL ENERGY:     -347.201839757 Eh
FINAL SINGLE POINT ENERGY      -347.201839757347

DIPOLE MOMENT
-------------
                                X             Y             Z
Electronic contribution:     -0.07309      -5.08010      -0.51352
Nuclear contribution   :     -0.18520       5.61490       0.81731
                        -----------------------------------------
Total Dipole Moment    :     -0.25829       0.53480       0.30379
                        -----------------------------------------
Magnitude (a.u.)       :      0.66709
Magnitude (Debye)      :      1.69562

                             ****ORCA TERMINATED NORMALLY****
TOTAL RUN TIME: 0 days 0 hours 15 minutes 20 seconds 769 msec
