                         Program Version 3.0.3 - RELEASE   -
|  1> ! RI-MP2 RIJK def2-TZVP def2-TZVP/C def2-TZVP/JK TIGHTSCF
|  2> % maxcore 2000
|  3> % mp2 density relaxed end
|  4> *xyz 0 1
|  5>  O       -0.7359577608     1.1159633881     0.6785860710
|  6>  C        0.2207430613     0.8552569445    -0.0092260568
|  7>  C        1.4221080244     1.7409213284    -0.1276645523
|  8>  C        1.7545466349     2.7289419801     1.0128754868
|  9>  N        2.0101769622     3.8205299585     0.0247366921
| 10>  C        1.5371986598     2.9783647418    -1.0886813772
| 11>  C        2.6713109022     2.1690437851    -1.7428637547
| 12>  O        2.5468698139     1.1105565440    -0.7548472068
| 13>  H        0.2733332201    -0.0610488758    -0.6365596279
| 14>  H        0.8767254449     2.8882536809     1.6477696103
| 15>  H        2.6219153165     2.4646347836     1.6241784955
| 16>  H        1.4341357609     4.6385552227     0.1807769783
| 17>  H        0.7341547788     3.3696242006    -1.7143188265
| 18>  H        2.4549789870     1.7906925118    -2.7495147889
| 19>  H        3.6528435738     2.6516443255    -1.7181168930
| 20> *
| 21>
| 22>                          ****END OF INPUT****

CARTESIAN COORDINATES (ANGSTROEM)
---------------------------------
  O     -0.735958    1.115963    0.678586
  C      0.220743    0.855257   -0.009226
  C      1.422108    1.740921   -0.127665
  C      1.754547    2.728942    1.012875
  N      2.010177    3.820530    0.024737
  C      1.537199    2.978365   -1.088681
  C      2.671311    2.169044   -1.742864
  O      2.546870    1.110557   -0.754847
  H      0.273333   -0.061049   -0.636560
  H      0.876725    2.888254    1.647770
  H      2.621915    2.464635    1.624178
  H      1.434136    4.638555    0.180777
  H      0.734155    3.369624   -1.714319
  H      2.454979    1.790693   -2.749515
  H      3.652844    2.651644   -1.718117

 Total Charge           Charge          ....    0
 Multiplicity           Mult            ....    1
 Number of Electrons    NEL             ....   60
 Basis Dimension        Dim             ....  290

ORBITAL ENERGIES
----------------

  NO   OCC          E(Eh)            E(eV)
   0   2.0000     -20.569720      -559.7305
   1   2.0000     -20.568986      -559.7106
   2   2.0000     -15.560598      -423.4254
   3   2.0000     -11.340151      -308.5812
   4   2.0000     -11.304820      -307.6198
   5   2.0000     -11.292071      -307.2729
   6   2.0000     -11.286373      -307.1178
   7   2.0000     -11.267416      -306.6020
   8   2.0000      -1.413623       -38.4666
   9   2.0000      -1.398553       -38.0566
  10   2.0000      -1.236001       -33.6333
  11   2.0000      -1.009508       -27.4701
  12   2.0000      -0.983688       -26.7675
  13   2.0000      -0.900855       -24.5135
  14   2.0000      -0.844470       -22.9792
  15   2.0000      -0.732674       -19.9371
  16   2.0000      -0.727098       -19.7853
  17   2.0000      -0.686997       -18.6941
  18   2.0000      -0.667774       -18.1710
  19   2.0000      -0.647397       -17.6166
  20   2.0000      -0.616540       -16.7769
  21   2.0000      -0.601918       -16.3790
  22   2.0000      -0.566034       -15.4026
  23   2.0000      -0.552955       -15.0467
  24   2.0000      -0.531436       -14.4611
  25   2.0000      -0.494800       -13.4642
  26   2.0000      -0.472112       -12.8468
  27   2.0000      -0.442130       -12.0310
  28   2.0000      -0.416066       -11.3217
  29   2.0000      -0.383975       -10.4485
  30   0.0000       0.101447         2.7605
  31   0.0000       0.134802         3.6682
  32   0.0000       0.160194         4.3591
  33   0.0000       0.171090         4.6556
  34   0.0000       0.185272         5.0415

MULLIKEN ATOMIC CHARGES
-----------------------
   0 O :   -0.271305
   1 C :    0.055004
   2 C :    0.242426
   3 C :   -0.172114
   4 N :   -0.341099
   5 C :   -0.096160
   6 C :    0.000282
   7 O :   -0.332682
   8 H :    0.101398
   9 H :    0.145732
  10 H :    0.114885
  11 H :    0.213141
  12 H :    0.130175
  13 H :    0.101646
  14 H :    0.108671
Sum of atomic charges:    0.0000000

LOEWDIN ATOMIC CHARGES
----------------------
   0 O :    0.139806
   1 C :   -0.259441
   2 C :   -0.296063
   3 C :   -0.211096
   4 N :   -0.009917
   5 C :   -0.209965
   6 C :   -0.235997
   7 O :    0.162656
   8 H :    0.119966
   9 H :    0.133171
  10 H :    0.128751
  11 H :    0.161949
  12 H :    0.132403
  13 H :    0.119516
  14 H :    0.124261

  Mayer bond orders larger than 0.1
B(  0-O ,  1-C ) :   1.9699 B(  1-C ,  2-C ) :   0.8627 B(  1-C ,  8-H ) :   0.9393
B(  2-C ,  3-C ) :   0.9007 B(  2-C ,  5-C ) :   0.9085 B(  2-C ,  7-O ) :   0.9483
B(  3-C ,  4-N ) :   0.9504 B(  3-C ,  9-H ) :   0.9055 B(  3-C , 10-H ) :   0.9070
B(  4-N ,  5-C ) :   1.0186 B(  4-N , 11-H ) :   0.8747 B(  5-C ,  6-C ) :   0.9361
B(  5-C , 12-H ) :   0.8978 B(  6-C ,  7-O ) :   0.9206 B(  6-C , 13-H ) :   0.9215
B(  6-C , 14-H ) :   0.8959

MP2 TOTAL ENERGY:     -399.095351927 Eh
FINAL SINGLE POINT ENERGY      -399.095351926685

DIPOLE MOMENT
-------------
                                X             Y             Z
Electronic contribution:     -1.96033      -2.55104       0.94805
Nuclear contribution   :      1.96558       3.11107      -1.53872
                        -----------------------------------------
Total Dipole Moment    :      0.00525       0.56003      -0.59067
                        -----------------------------------------
Magnitude (a.u.)       :      0.81398
Magnitude (Debye)      :      2.06896

                             ****ORCA TERMINATED NORMALLY****
TOTAL RUN TIME: 0 days 0 hours 10 minutes 47 seconds 998 msec
