                         Program Version 3.0.3 - RELEASE   -
|  1> ! RI-MP2 RIJK def2-TZVP def2-TZVP/C def2-TZVP/JK TIGHTSCF
|  2> % maxcore 2000
|  3> % mp2 density relaxed end
|  4> *xyz 0 1
|  5>  C       -0.1047396707     1.4331430328     0.1037892691
|  6>  C       -0.0402263115    -0.0190253363     0.0336399095
|  7>  C        0.0308820734    -1.2193692091    -0.0332836803
|  8>  C        0.0544259900    -2.6786278069    -0.1014623889
|  9>  N        0.7730995985    -3.2771275220     1.0376260164
| 10>  C       -0.2307205179    -3.3897250263     2.1186725468
| 11>  C       -1.5672547657    -3.7466519275     1.4435995473
| 12>  C       -1.4106120181    -3.2132150071     0.0147388652
| 13>  O       -2.2275154846    -3.2340953823    -0.8630365408
| 14>  H        0.5735254097     1.8224789142     0.8708835649
| 15>  H        0.1789123690     1.8875669339    -0.8517390323
| 16>  H       -1.1161868214     1.7764309468     0.3473568668
| 17>  H        0.4881789041    -3.0070836274    -1.0511492721
| 18>  H        1.0652403384    -4.2115943762     0.7646473922
| 19>  H        0.0973356261    -4.1245247841     2.8561594603
| 20>  H       -0.3012128526    -2.4197975025     2.6222702742
| 21>  H       -1.7144390034    -4.8315830813     1.3828780116
| 22>  H       -2.4596373633    -3.3246880288     1.9132220801
| 23> *
| 24>
| 25>                          ****END OF INPUT****

CARTESIAN COORDINATES (ANGSTROEM)
---------------------------------
  C     -0.104740    1.433143    0.103789
  C     -0.040226   -0.019025    0.033640
  C      0.030882   -1.219369   -0.033284
  C      0.054426   -2.678628   -0.101462
  N      0.773100   -3.277128    1.037626
  C     -0.230721   -3.389725    2.118673
  C     -1.567255   -3.746652    1.443600
  C     -1.410612   -3.213215    0.014739
  O     -2.227515   -3.234095   -0.863037
  H      0.573525    1.822479    0.870884
  H      0.178912    1.887567   -0.851739
  H     -1.116187    1.776431    0.347357
  H      0.488179   -3.007084   -1.051149
  H      1.065240   -4.211594    0.764647
  H      0.097336   -4.124525    2.856159
  H     -0.301213   -2.419798    2.622270
  H     -1.714439   -4.831583    1.382878
  H     -2.459637   -3.324688    1.913222

 Total Charge           Charge          ....    0
 Multiplicity           Mult            ....    1
 Number of Electrons    NEL             ....   66
 Basis Dimension        Dim             ....  333

ORBITAL ENERGIES
----------------

  NO   OCC          E(Eh)            E(eV)
   0   2.0000     -20.553299      -559.2837
   1   2.0000     -15.565287      -423.5530
   2   2.0000     -11.337009      -308.4957
   3   2.0000     -11.293692      -307.3170
   4   2.0000     -11.265915      -306.5611
   5   2.0000     -11.249052      -306.1023
   6   2.0000     -11.242692      -305.9292
   7   2.0000     -11.231759      -305.6317
   8   2.0000     -11.222642      -305.3836
   9   2.0000      -1.398971       -38.0679
  10   2.0000      -1.244699       -33.8700
  11   2.0000      -1.067469       -29.0473
  12   2.0000      -1.031043       -28.0561
  13   2.0000      -1.004757       -27.3408
  14   2.0000      -0.936427       -25.4815
  15   2.0000      -0.849653       -23.1202
  16   2.0000      -0.762067       -20.7369
  17   2.0000      -0.712204       -19.3800
  18   2.0000      -0.677075       -18.4241
  19   2.0000      -0.650701       -17.7065
  20   2.0000      -0.621528       -16.9126
  21   2.0000      -0.617699       -16.8084
  22   2.0000      -0.601669       -16.3722
  23   2.0000      -0.588766       -16.0211
  24   2.0000      -0.588017       -16.0008
  25   2.0000      -0.559770       -15.2321
  26   2.0000      -0.541513       -14.7353
  27   2.0000      -0.526821       -14.3355
  28   2.0000      -0.494752       -13.4629
  29   2.0000      -0.449831       -12.2405
  30   2.0000      -0.391551       -10.6546
  31   2.0000      -0.378120       -10.2892
  32   2.0000      -0.360931        -9.8214
  33   0.0000       0.117055         3.1852
  34   0.0000       0.130363         3.5474
  35   0.0000       0.138459         3.7677
  36   0.0000       0.159507         4.3404
  37   0.0000       0.178141         4.8475

MULLIKEN ATOMIC CHARGES
-----------------------
   0 C :   -0.486113
   1 C :    0.045347
   2 C :   -0.080647
   3 C :   -0.006165
   4 N :   -0.306912
   5 C :   -0.175084
   6 C :   -0.232041
   7 C :    0.112518
   8 O :   -0.256596
   9 H :    0.164498
  10 H :    0.165403
  11 H :    0.163551
  12 H :    0.139403
  13 H :    0.207501
  14 H :    0.137992
  15 H :    0.125648
  16 H :    0.137038
  17 H :    0.144659
Sum of atomic charges:   -0.0000000

LOEWDIN ATOMIC CHARGES
----------------------
   0 C :   -0.292318
   1 C :   -0.088443
   2 C :   -0.058771
   3 C :   -0.262280
   4 N :    0.009604
   5 C :   -0.286554
   6 C :   -0.238144
   7 C :   -0.283907
   8 O :    0.168179
   9 H :    0.142279
  10 H :    0.142796
  11 H :    0.141386
  12 H :    0.167201
  13 H :    0.170720
  14 H :    0.129617
  15 H :    0.136045
  16 H :    0.152949
  17 H :    0.149642

  Mayer bond orders larger than 0.1
B(  0-C ,  1-C ) :   0.8527 B(  0-C ,  9-H ) :   0.9444 B(  0-C , 10-H ) :   0.9505
B(  0-C , 11-H ) :   0.9464 B(  1-C ,  2-C ) :   2.6722 B(  2-C ,  3-C ) :   1.0733
B(  3-C ,  4-N ) :   1.0997 B(  3-C ,  6-C ) :  -0.1069 B(  3-C ,  7-C ) :   0.8333
B(  3-C , 12-H ) :   0.8985 B(  4-N ,  5-C ) :   0.9347 B(  4-N , 13-H ) :   0.8787
B(  5-C ,  6-C ) :   0.9399 B(  5-C , 14-H ) :   0.9336 B(  5-C , 15-H ) :   0.9276
B(  6-C ,  7-C ) :   0.9050 B(  6-C , 16-H ) :   0.9044 B(  6-C , 17-H ) :   0.9085
B(  7-C ,  8-O ) :   2.0457

MP2 TOTAL ENERGY:     -401.235716343 Eh
FINAL SINGLE POINT ENERGY      -401.235716343442

DIPOLE MOMENT
-------------
                                X             Y             Z
Electronic contribution:     -1.32400      -3.06039      -3.97966
Nuclear contribution   :      1.60385       2.95988       4.68185
                        -----------------------------------------
Total Dipole Moment    :      0.27985      -0.10051       0.70218
                        -----------------------------------------
Magnitude (a.u.)       :      0.76255
Magnitude (Debye)      :      1.93825

                             ****ORCA TERMINATED NORMALLY****
TOTAL RUN TIME: 0 days 0 hours 17 minutes 57 seconds 425 msec
