                         Program Version 3.0.3 - RELEASE   -
|  1> ! RI-MP2 RIJK def2-TZVP def2-TZVP/C def2-TZVP/JK TIGHTSCF
|  2> % maxcore 2000
|  3> % mp2 density relaxed end
|  4> *xyz 0 1
|  5>  C       -0.0258246111     1.5907996192     0.0386508541
|  6>  C        0.1543365875     0.1013355680    -0.0005396443
|  7>  C       -0.7144550563    -0.8382408751     0.7849316262
|  8>  C        0.7793751919    -0.7376362213     1.1207038222
|  9>  C        1.6976339157    -1.7321371203     0.4167340359
| 10>  C        1.2273205727    -1.6468314102    -1.0519213861
| 11>  O        0.6634112681    -0.3480465916    -1.2254934126
| 12>  C        1.1861232505    -0.1660816990     2.3668743865
| 13>  N        1.5117342517     0.3064819487     3.3726403092
| 14>  H        0.9067667718     2.0922444161    -0.2343431912
| 15>  H       -0.8018877234     1.8970061366    -0.6693998677
| 16>  H       -0.3188967072     1.9179275959     1.0388457582
| 17>  H       -1.3950042914    -0.3950405868     1.5027548837
| 18>  H       -1.0685765387    -1.7600022444     0.3367861604
| 19>  H        2.7346111060    -1.4015457717     0.5234654302
| 20>  H        1.6214202389    -2.7484323162     0.8121400517
| 21>  H        2.0405316198    -1.7562430940    -1.7730824303
| 22>  H        0.4776592934    -2.4195546442    -1.2680330761
| 23> *
| 24>
| 25>                          ****END OF INPUT****

CARTESIAN COORDINATES (ANGSTROEM)
---------------------------------
  C     -0.025825    1.590800    0.038651
  C      0.154337    0.101336   -0.000540
  C     -0.714455   -0.838241    0.784932
  C      0.779375   -0.737636    1.120704
  C      1.697634   -1.732137    0.416734
  C      1.227321   -1.646831   -1.051921
  O      0.663411   -0.348047   -1.225493
  C      1.186123   -0.166082    2.366874
  N      1.511734    0.306482    3.372640
  H      0.906767    2.092244   -0.234343
  H     -0.801888    1.897006   -0.669400
  H     -0.318897    1.917928    1.038846
  H     -1.395004   -0.395041    1.502755
  H     -1.068577   -1.760002    0.336786
  H      2.734611   -1.401546    0.523465
  H      1.621420   -2.748432    0.812140
  H      2.040532   -1.756243   -1.773082
  H      0.477659   -2.419555   -1.268033

 Total Charge           Charge          ....    0
 Multiplicity           Mult            ....    1
 Number of Electrons    NEL             ....   66
 Basis Dimension        Dim             ....  333

ORBITAL ENERGIES
----------------

  NO   OCC          E(Eh)            E(eV)
   0   2.0000     -20.579685      -560.0017
   1   2.0000     -15.567657      -423.6175
   2   2.0000     -11.320740      -308.0530
   3   2.0000     -11.297602      -307.4234
   4   2.0000     -11.285831      -307.1031
   5   2.0000     -11.273810      -306.7760
   6   2.0000     -11.258851      -306.3689
   7   2.0000     -11.257679      -306.3370
   8   2.0000     -11.234004      -305.6928
   9   2.0000      -1.413638       -38.4670
  10   2.0000      -1.221303       -33.2333
  11   2.0000      -1.167563       -31.7710
  12   2.0000      -1.063430       -28.9374
  13   2.0000      -0.976170       -26.5629
  14   2.0000      -0.920111       -25.0375
  15   2.0000      -0.861519       -23.4431
  16   2.0000      -0.796835       -21.6830
  17   2.0000      -0.715704       -19.4753
  18   2.0000      -0.696967       -18.9654
  19   2.0000      -0.657403       -17.8888
  20   2.0000      -0.620842       -16.8940
  21   2.0000      -0.606228       -16.4963
  22   2.0000      -0.584894       -15.9158
  23   2.0000      -0.577050       -15.7023
  24   2.0000      -0.563383       -15.3304
  25   2.0000      -0.551888       -15.0176
  26   2.0000      -0.539958       -14.6930
  27   2.0000      -0.515757       -14.0345
  28   2.0000      -0.503665       -13.7054
  29   2.0000      -0.488001       -13.2792
  30   2.0000      -0.465891       -12.6775
  31   2.0000      -0.421481       -11.4691
  32   2.0000      -0.385873       -10.5001
  33   0.0000       0.126804         3.4505
  34   0.0000       0.145640         3.9631
  35   0.0000       0.152412         4.1473
  36   0.0000       0.166321         4.5258
  37   0.0000       0.176093         4.7917

MULLIKEN ATOMIC CHARGES
-----------------------
   0 C :   -0.418780
   1 C :    0.204551
   2 C :   -0.282681
   3 C :    0.176611
   4 C :   -0.247753
   5 C :   -0.061220
   6 O :   -0.297028
   7 C :   -0.271291
   8 N :   -0.052190
   9 H :    0.144598
  10 H :    0.147898
  11 H :    0.145187
  12 H :    0.152205
  13 H :    0.146011
  14 H :    0.138940
  15 H :    0.136769
  16 H :    0.131416
  17 H :    0.106759
Sum of atomic charges:    0.0000000

LOEWDIN ATOMIC CHARGES
----------------------
   0 C :   -0.251259
   1 C :   -0.306749
   2 C :   -0.135426
   3 C :   -0.204502
   4 C :   -0.192981
   5 C :   -0.279769
   6 O :    0.216099
   7 C :   -0.159286
   8 N :    0.062491
   9 H :    0.136424
  10 H :    0.135375
  11 H :    0.138683
  12 H :    0.149457
  13 H :    0.143321
  14 H :    0.150394
  15 H :    0.145762
  16 H :    0.130722
  17 H :    0.121243

  Mayer bond orders larger than 0.1
B(  0-C ,  1-C ) :   0.9119 B(  0-C ,  9-H ) :   0.9325 B(  0-C , 10-H ) :   0.9348
B(  0-C , 11-H ) :   0.9326 B(  1-C ,  2-C ) :   0.8819 B(  1-C ,  3-C ) :   0.7820
B(  1-C ,  6-O ) :   0.9952 B(  2-C ,  3-C ) :   0.8286 B(  2-C , 12-H ) :   0.9129
B(  2-C , 13-H ) :   0.9020 B(  3-C ,  4-C ) :   0.9170 B(  3-C ,  7-C ) :   0.9118
B(  4-C ,  5-C ) :   0.9500 B(  4-C , 14-H ) :   0.9199 B(  4-C , 15-H ) :   0.9216
B(  5-C ,  6-O ) :   0.9164 B(  5-C , 16-H ) :   0.9227 B(  5-C , 17-H ) :   0.9331
B(  7-C ,  8-N ) :   2.8751

MP2 TOTAL ENERGY:     -401.270619344 Eh
FINAL SINGLE POINT ENERGY      -401.270619343579

DIPOLE MOMENT
-------------
                                X             Y             Z
Electronic contribution:      1.64174       0.26924       3.62367
Nuclear contribution   :     -2.07332      -1.05951      -4.69878
                        -----------------------------------------
Total Dipole Moment    :     -0.43158      -0.79026      -1.07511
                        -----------------------------------------
Magnitude (a.u.)       :      1.40237
Magnitude (Debye)      :      3.56454

                             ****ORCA TERMINATED NORMALLY****
TOTAL RUN TIME: 0 days 0 hours 18 minutes 46 seconds 811 msec
