                         Program Version 3.0.3 - RELEASE   -
|  1> ! RI-MP2 RIJK def2-TZVP def2-TZVP/C def2-TZVP/JK TIGHTSCF
|  2> % maxcore 2000
|  3> % mp2 density relaxed end
|  4> *xyz 0 1
|  5>  O        0.0465039111     1.3895906325    -0.1260754717
|  6>  C        0.0744048379    -0.0176039785     0.0156172453
|  7>  C       -1.3323832045    -0.5971802643     0.0876220319
|  8>  O       -2.0013943827    -0.2042338367    -1.1194641979
|  9>  C       -3.0671755747    -1.1183204069    -1.3686505140
| 10>  C       -2.5979744199    -2.4489015205    -0.8075666349
| 11>  C       -1.1893208736    -2.8498972416    -1.1572472561
| 12>  C       -1.4622228382    -2.1101040835     0.1307986680
| 13>  H       -0.5500369830     1.5686421325    -0.8622519718
| 14>  H        0.6208251863    -0.4983673076    -0.8104155069
| 15>  H        0.6112497533    -0.2347369031     0.9452608254
| 16>  H       -1.8488471929    -0.1593247186     0.9583981247
| 17>  H       -3.9910242140    -0.7964481873    -0.8619579518
| 18>  H       -3.2478333979    -1.1192912339    -2.4488314030
| 19>  H       -3.3355114624    -3.2040304308    -0.5633057308
| 20>  H       -0.9358683993    -3.9009248270    -1.0778400536
| 21>  H       -0.6905073038    -2.3243044020    -1.9650844019
| 22>  H       -1.3387261516    -2.6154150228     1.0810718191
| 23> *
| 24>
| 25>                          ****END OF INPUT****

CARTESIAN COORDINATES (ANGSTROEM)
---------------------------------
  O      0.046504    1.389591   -0.126075
  C      0.074405   -0.017604    0.015617
  C     -1.332383   -0.597180    0.087622
  O     -2.001394   -0.204234   -1.119464
  C     -3.067176   -1.118320   -1.368651
  C     -2.597974   -2.448902   -0.807567
  C     -1.189321   -2.849897   -1.157247
  C     -1.462223   -2.110104    0.130799
  H     -0.550037    1.568642   -0.862252
  H      0.620825   -0.498367   -0.810416
  H      0.611250   -0.234737    0.945261
  H     -1.848847   -0.159325    0.958398
  H     -3.991024   -0.796448   -0.861958
  H     -3.247833   -1.119291   -2.448831
  H     -3.335511   -3.204030   -0.563306
  H     -0.935868   -3.900925   -1.077840
  H     -0.690507   -2.324304   -1.965084
  H     -1.338726   -2.615415    1.081072

 Total Charge           Charge          ....    0
 Multiplicity           Mult            ....    1
 Number of Electrons    NEL             ....   62
 Basis Dimension        Dim             ....  308

ORBITAL ENERGIES
----------------

  NO   OCC          E(Eh)            E(eV)
   0   2.0000     -20.560614      -559.4827
   1   2.0000     -20.545312      -559.0664
   2   2.0000     -11.282866      -307.0224
   3   2.0000     -11.282548      -307.0137
   4   2.0000     -11.269567      -306.6605
   5   2.0000     -11.240647      -305.8735
   6   2.0000     -11.239933      -305.8541
   7   2.0000     -11.234241      -305.6992
   8   2.0000      -1.390732       -37.8438
   9   2.0000      -1.348149       -36.6850
  10   2.0000      -1.153616       -31.3915
  11   2.0000      -1.026139       -27.9227
  12   2.0000      -0.925700       -25.1896
  13   2.0000      -0.871487       -23.7144
  14   2.0000      -0.792563       -21.5667
  15   2.0000      -0.773182       -21.0393
  16   2.0000      -0.717878       -19.5345
  17   2.0000      -0.695925       -18.9371
  18   2.0000      -0.643655       -17.5147
  19   2.0000      -0.627176       -17.0663
  20   2.0000      -0.618945       -16.8423
  21   2.0000      -0.579626       -15.7724
  22   2.0000      -0.566493       -15.4151
  23   2.0000      -0.563585       -15.3359
  24   2.0000      -0.535762       -14.5788
  25   2.0000      -0.489039       -13.3074
  26   2.0000      -0.483450       -13.1553
  27   2.0000      -0.449324       -12.2267
  28   2.0000      -0.440694       -11.9919
  29   2.0000      -0.424011       -11.5379
  30   2.0000      -0.396260       -10.7828
  31   0.0000       0.142528         3.8784
  32   0.0000       0.158882         4.3234
  33   0.0000       0.163280         4.4431
  34   0.0000       0.172642         4.6978
  35   0.0000       0.185943         5.0598

MULLIKEN ATOMIC CHARGES
-----------------------
   0 O :   -0.480279
   1 C :    0.003626
   2 C :    0.035701
   3 O :   -0.353199
   4 C :   -0.042391
   5 C :   -0.121271
   6 C :   -0.311476
   7 C :   -0.112776
   8 H :    0.328186
   9 H :    0.095627
  10 H :    0.103313
  11 H :    0.084101
  12 H :    0.098364
  13 H :    0.118073
  14 H :    0.134225
  15 H :    0.136819
  16 H :    0.145869
  17 H :    0.137488
Sum of atomic charges:    0.0000000

LOEWDIN ATOMIC CHARGES
----------------------
   0 O :   -0.046320
   1 C :   -0.325943
   2 C :   -0.302499
   3 O :    0.157729
   4 C :   -0.280717
   5 C :   -0.208877
   6 C :   -0.201389
   7 C :   -0.185207
   8 H :    0.178094
   9 H :    0.120223
  10 H :    0.131073
  11 H :    0.143036
  12 H :    0.124494
  13 H :    0.129462
  14 H :    0.144965
  15 H :    0.136272
  16 H :    0.138472
  17 H :    0.147133

  Mayer bond orders larger than 0.1
B(  0-O ,  1-C ) :   0.9317 B(  0-O ,  8-H ) :   0.8331 B(  1-C ,  2-C ) :   0.9501
B(  1-C ,  9-H ) :   0.9196 B(  1-C , 10-H ) :   0.9240 B(  2-C ,  3-O ) :   0.8867
B(  2-C ,  7-C ) :   0.9324 B(  2-C , 11-H ) :   0.9213 B(  3-O ,  4-C ) :   0.9377
B(  4-C ,  5-C ) :   0.9669 B(  4-C , 12-H ) :   0.9299 B(  4-C , 13-H ) :   0.9233
B(  5-C ,  6-C ) :   0.8837 B(  5-C ,  7-C ) :   0.8541 B(  5-C , 14-H ) :   0.9214
B(  6-C ,  7-C ) :   0.8868 B(  6-C , 15-H ) :   0.9316 B(  6-C , 16-H ) :   0.9169
B(  7-C , 17-H ) :   0.9196

MP2 TOTAL ENERGY:     -384.299510342 Eh
FINAL SINGLE POINT ENERGY      -384.299510342207

DIPOLE MOMENT
-------------
                                X             Y             Z
Electronic contribution:     -0.01807       2.82836       0.05522
Nuclear contribution   :     -0.54293      -3.85142      -0.09854
                        -----------------------------------------
Total Dipole Moment    :     -0.56100      -1.02307      -0.04333
                        -----------------------------------------
Magnitude (a.u.)       :      1.16759
Magnitude (Debye)      :      2.96777

                             ****ORCA TERMINATED NORMALLY****
TOTAL RUN TIME: 0 days 0 hours 11 minutes 46 seconds 196 msec
