                         Program Version 3.0.3 - RELEASE   -
|  1> ! RI-MP2 RIJK def2-TZVP def2-TZVP/C def2-TZVP/JK TIGHTSCF
|  2> % maxcore 2000
|  3> % mp2 density relaxed end
|  4> *xyz 0 1
|  5>  C       -0.3223799167     1.4722832174     0.0326225116
|  6>  C        0.0888587553     0.0121227077    -0.0381662117
|  7>  O        1.0618779225    -0.1482782384    -1.1125872102
|  8>  C        2.1132201958    -0.7824581704    -0.5567574734
|  9>  N        2.0964382001    -1.0816435363     0.6760241788
| 10>  C        0.8132954647    -0.6033066471     1.1967705545
| 11>  C        0.9127368491     0.1772862759     2.5342276387
| 12>  O        0.0950173068    -0.7896558260     3.2194660648
| 13>  C        0.0267832206    -1.6268474352     2.0512489407
| 14>  H        0.5264318756     2.1095913082     0.2975225558
| 15>  H       -0.7083614358     1.7983481504    -0.9367457859
| 16>  H       -1.1106050334     1.6123517292     0.7782344909
| 17>  H       -0.7744773501    -0.6058815958    -0.3115429034
| 18>  H        2.9281605013    -0.9911968940    -1.2414454862
| 19>  H        1.9354922689     0.2131145018     2.9256478246
| 20>  H        0.4726201424     1.1800152891     2.5630606966
| 21>  H       -1.0091557635    -1.8123361849     1.7360798430
| 22>  H        0.5489757263    -2.5811096116     2.1849898710
| 23> *
| 24>
| 25>                          ****END OF INPUT****

CARTESIAN COORDINATES (ANGSTROEM)
---------------------------------
  C     -0.322380    1.472283    0.032623
  C      0.088859    0.012123   -0.038166
  O      1.061878   -0.148278   -1.112587
  C      2.113220   -0.782458   -0.556757
  N      2.096438   -1.081644    0.676024
  C      0.813295   -0.603307    1.196771
  C      0.912737    0.177286    2.534228
  O      0.095017   -0.789656    3.219466
  C      0.026783   -1.626847    2.051249
  H      0.526432    2.109591    0.297523
  H     -0.708361    1.798348   -0.936746
  H     -1.110605    1.612352    0.778234
  H     -0.774477   -0.605882   -0.311543
  H      2.928161   -0.991197   -1.241445
  H      1.935492    0.213115    2.925648
  H      0.472620    1.180015    2.563061
  H     -1.009156   -1.812336    1.736080
  H      0.548976   -2.581110    2.184990

 Total Charge           Charge          ....    0
 Multiplicity           Mult            ....    1
 Number of Electrons    NEL             ....   68
 Basis Dimension        Dim             ....  333

ORBITAL ENERGIES
----------------

  NO   OCC          E(Eh)            E(eV)
   0   2.0000     -20.602515      -560.6229
   1   2.0000     -20.550615      -559.2107
   2   2.0000     -15.554581      -423.2617
   3   2.0000     -11.340464      -308.5897
   4   2.0000     -11.307699      -307.6981
   5   2.0000     -11.280844      -306.9674
   6   2.0000     -11.280172      -306.9491
   7   2.0000     -11.279055      -306.9187
   8   2.0000     -11.235919      -305.7449
   9   2.0000      -1.447642       -39.3923
  10   2.0000      -1.382657       -37.6240
  11   2.0000      -1.221603       -33.2415
  12   2.0000      -1.076582       -29.2953
  13   2.0000      -0.981143       -26.6983
  14   2.0000      -0.940685       -25.5974
  15   2.0000      -0.888334       -24.1728
  16   2.0000      -0.810818       -22.0635
  17   2.0000      -0.767591       -20.8872
  18   2.0000      -0.716852       -19.5065
  19   2.0000      -0.686180       -18.6719
  20   2.0000      -0.667236       -18.1564
  21   2.0000      -0.648455       -17.6454
  22   2.0000      -0.609181       -16.5767
  23   2.0000      -0.599281       -16.3073
  24   2.0000      -0.585561       -15.9339
  25   2.0000      -0.562252       -15.2997
  26   2.0000      -0.545098       -14.8329
  27   2.0000      -0.534666       -14.5490
  28   2.0000      -0.516512       -14.0550
  29   2.0000      -0.496482       -13.5100
  30   2.0000      -0.469032       -12.7630
  31   2.0000      -0.440658       -11.9909
  32   2.0000      -0.418717       -11.3939
  33   2.0000      -0.381634       -10.3848
  34   0.0000       0.133379         3.6294
  35   0.0000       0.155985         4.2446
  36   0.0000       0.157379         4.2825
  37   0.0000       0.165366         4.4998
  38   0.0000       0.178016         4.8441

MULLIKEN ATOMIC CHARGES
-----------------------
   0 C :   -0.437358
   1 C :    0.067758
   2 O :   -0.266382
   3 C :    0.102668
   4 N :   -0.295833
   5 C :    0.140977
   6 C :   -0.041628
   7 O :   -0.326933
   8 C :   -0.049080
   9 H :    0.143077
  10 H :    0.152647
  11 H :    0.146430
  12 H :    0.107351
  13 H :    0.149196
  14 H :    0.107530
  15 H :    0.103073
  16 H :    0.090191
  17 H :    0.106315
Sum of atomic charges:    0.0000000

LOEWDIN ATOMIC CHARGES
----------------------
   0 C :   -0.290471
   1 C :   -0.245997
   2 O :    0.236338
   3 C :   -0.342687
   4 N :    0.100122
   5 C :   -0.270932
   6 C :   -0.230300
   7 O :    0.114780
   8 C :   -0.231570
   9 H :    0.130042
  10 H :    0.131423
  11 H :    0.132722
  12 H :    0.146040
  13 H :    0.135502
  14 H :    0.125030
  15 H :    0.118429
  16 H :    0.117111
  17 H :    0.124419

  Mayer bond orders larger than 0.1
B(  0-C ,  1-C ) :   0.9100 B(  0-C ,  9-H ) :   0.9352 B(  0-C , 10-H ) :   0.9318
B(  0-C , 11-H ) :   0.9309 B(  1-C ,  2-O ) :   0.8438 B(  1-C ,  5-C ) :   0.8968
B(  1-C , 12-H ) :   0.9198 B(  2-O ,  3-C ) :   1.0865 B(  3-C ,  4-N ) :   1.7908
B(  3-C , 13-H ) :   0.9218 B(  4-N ,  5-C ) :   0.9535 B(  5-C ,  6-C ) :   0.9436
B(  5-C ,  8-C ) :   0.9466 B(  6-C ,  7-O ) :   0.9743 B(  6-C , 14-H ) :   0.8998
B(  6-C , 15-H ) :   0.9035 B(  7-O ,  8-C ) :   0.9737 B(  8-C , 16-H ) :   0.9080
B(  8-C , 17-H ) :   0.8971

MP2 TOTAL ENERGY:     -438.354004080 Eh
FINAL SINGLE POINT ENERGY      -438.354004080437

DIPOLE MOMENT
-------------
                                X             Y             Z
Electronic contribution:      3.27982      -3.44864      -0.70806
Nuclear contribution   :     -3.62681       3.87704      -0.06143
                        -----------------------------------------
Total Dipole Moment    :     -0.34699       0.42840      -0.76949
                        -----------------------------------------
Magnitude (a.u.)       :      0.94660
Magnitude (Debye)      :      2.40606

                             ****ORCA TERMINATED NORMALLY****
TOTAL RUN TIME: 0 days 0 hours 17 minutes 26 seconds 78 msec
