                         Program Version 3.0.3 - RELEASE   -
|  1> ! RI-MP2 RIJK def2-TZVP def2-TZVP/C def2-TZVP/JK TIGHTSCF
|  2> % maxcore 2000
|  3> % mp2 density relaxed end
|  4> *xyz 0 1
|  5>  C       -0.1116503497     0.8150962451     0.5510841663
|  6>  N        0.1721582835    -0.5216978981     0.0653703265
|  7>  C        0.7402357478    -0.7601218686    -1.1342312409
|  8>  O        1.0571268061     0.1048341660    -1.9432656224
|  9>  C        0.9686976183    -2.2416526730    -1.4997096041
| 10>  O        1.6844332852    -2.2963654739    -2.7014227041
| 11>  C        1.7375162264    -3.0242241629    -0.4292192635
| 12>  O        0.8964696105    -3.2084322197     0.6979821410
| 13>  C        1.5184311041    -3.9281927569     1.7411183300
| 14>  H        0.0851937604     1.5148727663    -0.2614635596
| 15>  H       -1.1591767140     0.9037820587     0.8571816201
| 16>  H        0.5245155503     1.0762693173     1.4046958065
| 17>  H        0.0521687040    -1.3207154557     0.6738263407
| 18>  H       -0.0217147381    -2.7159432028    -1.6048557182
| 19>  H        1.7358148966    -1.3660183698    -2.9876433100
| 20>  H        2.0295099436    -3.9945338050    -0.8559932772
| 21>  H        2.6582213104    -2.4883024002    -0.1497028365
| 22>  H        1.8222089589    -4.9308285327     1.4067794178
| 23>  H        2.4088886060    -3.4050056843     2.1207200705
| 24>  H        0.7907348096    -4.0285818797     2.5496181371
| 25> *
| 26>
| 27>                          ****END OF INPUT****

CARTESIAN COORDINATES (ANGSTROEM)
---------------------------------
  C     -0.111650    0.815096    0.551084
  N      0.172158   -0.521698    0.065370
  C      0.740236   -0.760122   -1.134231
  O      1.057127    0.104834   -1.943266
  C      0.968698   -2.241653   -1.499710
  O      1.684433   -2.296365   -2.701423
  C      1.737516   -3.024224   -0.429219
  O      0.896470   -3.208432    0.697982
  C      1.518431   -3.928193    1.741118
  H      0.085194    1.514873   -0.261464
  H     -1.159177    0.903782    0.857182
  H      0.524516    1.076269    1.404696
  H      0.052169   -1.320715    0.673826
  H     -0.021715   -2.715943   -1.604856
  H      1.735815   -1.366018   -2.987643
  H      2.029510   -3.994534   -0.855993
  H      2.658221   -2.488302   -0.149703
  H      1.822209   -4.930829    1.406779
  H      2.408889   -3.405006    2.120720
  H      0.790735   -4.028582    2.549618

 Total Charge           Charge          ....    0
 Multiplicity           Mult            ....    1
 Number of Electrons    NEL             ....   72
 Basis Dimension        Dim             ....  345

ORBITAL ENERGIES
----------------

  NO   OCC          E(Eh)            E(eV)
   0   2.0000     -20.580393      -560.0210
   1   2.0000     -20.549380      -559.1770
   2   2.0000     -20.525956      -558.5396
   3   2.0000     -15.585601      -424.1058
   4   2.0000     -11.351725      -308.8961
   5   2.0000     -11.295379      -307.3629
   6   2.0000     -11.291557      -307.2589
   7   2.0000     -11.289484      -307.2025
   8   2.0000     -11.262374      -306.4648
   9   2.0000      -1.405987       -38.2589
  10   2.0000      -1.394764       -37.9534
  11   2.0000      -1.352179       -36.7947
  12   2.0000      -1.236233       -33.6396
  13   2.0000      -1.039103       -28.2754
  14   2.0000      -0.966111       -26.2892
  15   2.0000      -0.923390       -25.1267
  16   2.0000      -0.859170       -23.3792
  17   2.0000      -0.788244       -21.4492
  18   2.0000      -0.750100       -20.4113
  19   2.0000      -0.693976       -18.8841
  20   2.0000      -0.677575       -18.4377
  21   2.0000      -0.662239       -18.0204
  22   2.0000      -0.645020       -17.5519
  23   2.0000      -0.634622       -17.2689
  24   2.0000      -0.625111       -17.0101
  25   2.0000      -0.606903       -16.5147
  26   2.0000      -0.566062       -15.4033
  27   2.0000      -0.563050       -15.3214
  28   2.0000      -0.549055       -14.9406
  29   2.0000      -0.533008       -14.5039
  30   2.0000      -0.520442       -14.1619
  31   2.0000      -0.503919       -13.7123
  32   2.0000      -0.451830       -12.2949
  33   2.0000      -0.447557       -12.1786
  34   2.0000      -0.428921       -11.6715
  35   2.0000      -0.396633       -10.7929
  36   0.0000       0.126340         3.4379
  37   0.0000       0.151060         4.1106
  38   0.0000       0.162854         4.4315
  39   0.0000       0.175325         4.7708
  40   0.0000       0.188671         5.1340

MULLIKEN ATOMIC CHARGES
-----------------------
   0 C :   -0.294408
   1 N :   -0.305482
   2 C :    0.248109
   3 O :   -0.421484
   4 C :    0.097561
   5 O :   -0.483715
   6 C :   -0.043684
   7 O :   -0.349970
   8 C :   -0.213954
   9 H :    0.176244
  10 H :    0.139233
  11 H :    0.135345
  12 H :    0.258705
  13 H :    0.100338
  14 H :    0.343282
  15 H :    0.121864
  16 H :    0.106596
  17 H :    0.124074
  18 H :    0.120229
  19 H :    0.141117
Sum of atomic charges:    0.0000000

LOEWDIN ATOMIC CHARGES
----------------------
   0 C :   -0.307516
   1 N :    0.098505
   2 C :   -0.444121
   3 O :    0.056085
   4 C :   -0.333301
   5 O :   -0.005641
   6 C :   -0.300275
   7 O :    0.117517
   8 C :   -0.354984
   9 H :    0.134052
  10 H :    0.117014
  11 H :    0.115739
  12 H :    0.190565
  13 H :    0.148062
  14 H :    0.186666
  15 H :    0.130204
  16 H :    0.125648
  17 H :    0.107475
  18 H :    0.104244
  19 H :    0.114064

  Mayer bond orders larger than 0.1
B(  0-C ,  1-N ) :   0.8530 B(  0-C ,  9-H ) :   0.9287 B(  0-C , 10-H ) :   0.9352
B(  0-C , 11-H ) :   0.9347 B(  1-N ,  2-C ) :   1.2374 B(  1-N , 12-H ) :   0.8439
B(  2-C ,  3-O ) :   1.7982 B(  2-C ,  4-C ) :   0.9304 B(  4-C ,  5-O ) :   1.0903
B(  4-C ,  6-C ) :   0.8888 B(  4-C , 13-H ) :   0.9184 B(  5-O , 14-H ) :   0.7870
B(  6-C ,  7-O ) :   0.8853 B(  6-C , 15-H ) :   0.9183 B(  6-C , 16-H ) :   0.9197
B(  7-O ,  8-C ) :   0.8979 B(  8-C , 17-H ) :   0.9359 B(  8-C , 18-H ) :   0.9374
B(  8-C , 19-H ) :   0.9387

MP2 TOTAL ENERGY:     -476.696162824 Eh
FINAL SINGLE POINT ENERGY      -476.696162823888

DIPOLE MOMENT
-------------
                                X             Y             Z
Electronic contribution:     -0.40796       1.73090      -6.51861
Nuclear contribution   :      0.18695      -2.07838       8.22031
                        -----------------------------------------
Total Dipole Moment    :     -0.22100      -0.34748       1.70170
                        -----------------------------------------
Magnitude (a.u.)       :      1.75082
Magnitude (Debye)      :      4.45023

                             ****ORCA TERMINATED NORMALLY****
TOTAL RUN TIME: 0 days 0 hours 15 minutes 43 seconds 105 msec
