                         Program Version 3.0.3 - RELEASE   -
|  1> ! RI-MP2 RIJK def2-TZVP def2-TZVP/C def2-TZVP/JK TIGHTSCF
|  2> % maxcore 2000
|  3> % mp2 density relaxed end
|  4> *xyz 0 1
|  5>  C       -0.0083161690     1.4397309495    -0.0391796298
|  6>  N        0.0097326008    -0.0179766420    -0.0069962888
|  7>  N       -0.0554914017    -0.6611599017    -1.1919378624
|  8>  C       -0.0412250184    -1.9484714582    -1.2032072517
|  9>  C        0.0421038040    -2.7877508621    -0.0064771717
| 10>  N        0.0624026124    -4.0621486923     0.0734897580
| 11>  N        0.1039528295    -2.0264654547     1.1572930755
| 12>  C        0.0934511569    -0.6502305733     1.2337940468
| 13>  O        0.1506468724    -0.0307344701     2.2735694073
| 14>  H        0.9052400547     1.8440866506     0.4038674087
| 15>  H       -0.0826452740     1.7333515355    -1.0846931065
| 16>  H       -0.8620738765     1.8239865779     0.5243516497
| 17>  H       -0.0952667902    -2.4264532356    -2.1753276263
| 18>  H        0.0106191315    -4.4786983352    -0.8546131197
| 19>  H        0.1642081377    -2.5186207883     2.0384005210
| 20> *
| 21>
| 22>                          ****END OF INPUT****

CARTESIAN COORDINATES (ANGSTROEM)
---------------------------------
  C     -0.008316    1.439731   -0.039180
  N      0.009733   -0.017977   -0.006996
  N     -0.055491   -0.661160   -1.191938
  C     -0.041225   -1.948471   -1.203207
  C      0.042104   -2.787751   -0.006477
  N      0.062403   -4.062149    0.073490
  N      0.103953   -2.026465    1.157293
  C      0.093451   -0.650231    1.233794
  O      0.150647   -0.030734    2.273569
  H      0.905240    1.844087    0.403867
  H     -0.082645    1.733352   -1.084693
  H     -0.862074    1.823987    0.524352
  H     -0.095267   -2.426453   -2.175328
  H      0.010619   -4.478698   -0.854613
  H      0.164208   -2.518621    2.038401

 Total Charge           Charge          ....    0
 Multiplicity           Mult            ....    1
 Number of Electrons    NEL             ....   66
 Basis Dimension        Dim             ....  315

ORBITAL ENERGIES
----------------

  NO   OCC          E(Eh)            E(eV)
   0   2.0000     -20.538375      -558.8776
   1   2.0000     -15.660245      -426.1369
   2   2.0000     -15.649616      -425.8477
   3   2.0000     -15.624485      -425.1638
   4   2.0000     -15.557140      -423.3313
   5   2.0000     -11.407362      -310.4101
   6   2.0000     -11.354355      -308.9677
   7   2.0000     -11.304347      -307.6069
   8   2.0000     -11.274042      -306.7823
   9   2.0000      -1.440091       -39.1869
  10   2.0000      -1.370883       -37.3036
  11   2.0000      -1.300460       -35.3873
  12   2.0000      -1.199360       -32.6362
  13   2.0000      -1.162038       -31.6207
  14   2.0000      -0.975321       -26.5398
  15   2.0000      -0.952250       -25.9120
  16   2.0000      -0.885217       -24.0880
  17   2.0000      -0.793464       -21.5913
  18   2.0000      -0.765677       -20.8351
  19   2.0000      -0.691789       -18.8245
  20   2.0000      -0.689785       -18.7700
  21   2.0000      -0.662064       -18.0157
  22   2.0000      -0.651272       -17.7220
  23   2.0000      -0.612135       -16.6570
  24   2.0000      -0.600579       -16.3426
  25   2.0000      -0.574492       -15.6327
  26   2.0000      -0.547410       -14.8958
  27   2.0000      -0.533937       -14.5292
  28   2.0000      -0.521995       -14.2042
  29   2.0000      -0.462768       -12.5926
  30   2.0000      -0.446678       -12.1547
  31   2.0000      -0.412156       -11.2153
  32   2.0000      -0.358119        -9.7449
  33   0.0000       0.073788         2.0079
  34   0.0000       0.133457         3.6316
  35   0.0000       0.151428         4.1206
  36   0.0000       0.164799         4.4844
  37   0.0000       0.165277         4.4974

MULLIKEN ATOMIC CHARGES
-----------------------
   0 C :   -0.301963
   1 N :    0.022765
   2 N :   -0.170697
   3 C :   -0.117965
   4 C :    0.158558
   5 N :   -0.369438
   6 N :   -0.268228
   7 C :    0.295606
   8 O :   -0.355453
   9 H :    0.152349
  10 H :    0.165825
  11 H :    0.152777
  12 H :    0.150184
  13 H :    0.219683
  14 H :    0.265999
Sum of atomic charges:   -0.0000000

LOEWDIN ATOMIC CHARGES
----------------------
   0 C :   -0.272207
   1 N :    0.137972
   2 N :    0.104283
   3 C :   -0.223824
   4 C :   -0.378257
   5 N :   -0.062942
   6 N :    0.195523
   7 C :   -0.499693
   8 O :    0.090480
   9 H :    0.125823
  10 H :    0.128805
  11 H :    0.125992
  12 H :    0.148253
  13 H :    0.167403
  14 H :    0.212388

  Mayer bond orders larger than 0.1
B(  0-C ,  1-N ) :   0.8641 B(  0-C ,  9-H ) :   0.9317 B(  0-C , 10-H ) :   0.9243
B(  0-C , 11-H ) :   0.9316 B(  1-N ,  2-N ) :   0.9316 B(  1-N ,  7-C ) :   1.0690
B(  2-N ,  3-C ) :   1.7081 B(  3-C ,  4-C ) :   1.0006 B(  3-C , 12-H ) :   0.9289
B(  4-C ,  5-N ) :   1.9121 B(  4-C ,  6-N ) :   1.0346 B(  5-N , 13-H ) :   0.8628
B(  6-N ,  7-C ) :   1.1078 B(  6-N , 14-H ) :   0.8455 B(  7-C ,  8-O ) :   1.9504

MP2 TOTAL ENERGY:     -449.423715478 Eh
FINAL SINGLE POINT ENERGY      -449.423715477737

DIPOLE MOMENT
-------------
                                X             Y             Z
Electronic contribution:      0.12817      -2.59692       1.63693
Nuclear contribution   :     -0.19190       2.78115      -2.63730
                        -----------------------------------------
Total Dipole Moment    :     -0.06373       0.18423      -1.00036
                        -----------------------------------------
Magnitude (a.u.)       :      1.01918
Magnitude (Debye)      :      2.59055

                             ****ORCA TERMINATED NORMALLY****
TOTAL RUN TIME: 0 days 0 hours 15 minutes 47 seconds 542 msec
