                         Program Version 3.0.3 - RELEASE   -
|  1> ! RI-MP2 RIJK def2-TZVP def2-TZVP/C def2-TZVP/JK TIGHTSCF
|  2> % maxcore 2000
|  3> % mp2 density relaxed end
|  4> *xyz 0 1
|  5>  C        0.1229451329     1.5479047040    -0.1890859021
|  6>  C        0.0751657090     0.0196712168    -0.1917271452
|  7>  C       -1.3431429209    -0.5474539675     0.0234169768
|  8>  C       -2.2563213646    -0.1733670952    -1.0564682356
|  9>  N       -2.9653465297     0.1143326433    -1.9233833635
| 10>  C       -1.3373153489    -2.0869216502     0.2661793272
| 11>  C       -2.6580136672    -2.8098391089     0.1378468584
| 12>  O       -0.3131587017    -2.6374624764     0.5798427687
| 13>  H        1.1482944391     1.8973743522    -0.3388269127
| 14>  H       -0.4954316136     1.9719237454    -0.9863464499
| 15>  H       -0.2317601088     1.9562763442     0.7638607580
| 16>  H        0.4677683180    -0.3736573854    -1.1351271502
| 17>  H        0.7038175325    -0.3945485747     0.5998876947
| 18>  H       -1.7591547097    -0.1202192799     0.9500394576
| 19>  H       -3.4457158698    -2.2877554894     0.6914683137
| 20>  H       -2.9714343685    -2.8233493745    -0.9114913329
| 21>  H       -2.5517417481    -3.8313640538     0.5033051268
| 22> *
| 23>
| 24>                          ****END OF INPUT****

CARTESIAN COORDINATES (ANGSTROEM)
---------------------------------
  C      0.122945    1.547905   -0.189086
  C      0.075166    0.019671   -0.191727
  C     -1.343143   -0.547454    0.023417
  C     -2.256321   -0.173367   -1.056468
  N     -2.965347    0.114333   -1.923383
  C     -1.337315   -2.086922    0.266179
  C     -2.658014   -2.809839    0.137847
  O     -0.313159   -2.637462    0.579843
  H      1.148294    1.897374   -0.338827
  H     -0.495432    1.971924   -0.986346
  H     -0.231760    1.956276    0.763861
  H      0.467768   -0.373657   -1.135127
  H      0.703818   -0.394549    0.599888
  H     -1.759155   -0.120219    0.950039
  H     -3.445716   -2.287755    0.691468
  H     -2.971434   -2.823349   -0.911491
  H     -2.551742   -3.831364    0.503305

 Total Charge           Charge          ....    0
 Multiplicity           Mult            ....    1
 Number of Electrons    NEL             ....   60
 Basis Dimension        Dim             ....  302

ORBITAL ENERGIES
----------------

  NO   OCC          E(Eh)            E(eV)
   0   2.0000     -20.571028      -559.7661
   1   2.0000     -15.582560      -424.0230
   2   2.0000     -11.361251      -309.1554
   3   2.0000     -11.301955      -307.5418
   4   2.0000     -11.285609      -307.0970
   5   2.0000     -11.251347      -306.1647
   6   2.0000     -11.250346      -306.1375
   7   2.0000     -11.231608      -305.6276
   8   2.0000      -1.418156       -38.5900
   9   2.0000      -1.233045       -33.5529
  10   2.0000      -1.117838       -30.4179
  11   2.0000      -1.038245       -28.2521
  12   2.0000      -0.983078       -26.7509
  13   2.0000      -0.854292       -23.2465
  14   2.0000      -0.790381       -21.5074
  15   2.0000      -0.719193       -19.5702
  16   2.0000      -0.685570       -18.6553
  17   2.0000      -0.652317       -17.7504
  18   2.0000      -0.617561       -16.8047
  19   2.0000      -0.616303       -16.7705
  20   2.0000      -0.587952       -15.9990
  21   2.0000      -0.582422       -15.8485
  22   2.0000      -0.566677       -15.4201
  23   2.0000      -0.528213       -14.3734
  24   2.0000      -0.522822       -14.2267
  25   2.0000      -0.518809       -14.1175
  26   2.0000      -0.506456       -13.7814
  27   2.0000      -0.490943       -13.3592
  28   2.0000      -0.465276       -12.6608
  29   2.0000      -0.426062       -11.5937
  30   0.0000       0.105410         2.8684
  31   0.0000       0.130655         3.5553
  32   0.0000       0.143553         3.9063
  33   0.0000       0.160332         4.3629
  34   0.0000       0.167111         4.5473

MULLIKEN ATOMIC CHARGES
-----------------------
   0 C :   -0.402344
   1 C :   -0.214804
   2 C :    0.029806
   3 C :   -0.210249
   4 N :   -0.054609
   5 C :    0.190145
   6 C :   -0.404343
   7 O :   -0.264998
   8 H :    0.144120
   9 H :    0.151497
  10 H :    0.124165
  11 H :    0.128162
  12 H :    0.150121
  13 H :    0.147752
  14 H :    0.153210
  15 H :    0.171839
  16 H :    0.160531
Sum of atomic charges:    0.0000000

LOEWDIN ATOMIC CHARGES
----------------------
   0 C :   -0.310299
   1 C :   -0.247997
   2 C :   -0.218963
   3 C :   -0.175804
   4 N :    0.065378
   5 C :   -0.310693
   6 C :   -0.269429
   7 O :    0.174306
   8 H :    0.126519
   9 H :    0.128392
  10 H :    0.122850
  11 H :    0.147331
  12 H :    0.149186
  13 H :    0.191272
  14 H :    0.141647
  15 H :    0.149439
  16 H :    0.136865

  Mayer bond orders larger than 0.1
B(  0-C ,  1-C ) :   0.9160 B(  0-C ,  8-H ) :   0.9406 B(  0-C ,  9-H ) :   0.9337
B(  0-C , 10-H ) :   0.9344 B(  1-C ,  2-C ) :   0.8982 B(  1-C , 11-H ) :   0.9247
B(  1-C , 12-H ) :   0.9284 B(  2-C ,  3-C ) :   0.8943 B(  2-C ,  5-C ) :   0.8347
B(  2-C , 13-H ) :   0.8885 B(  3-C ,  4-N ) :   2.8601 B(  5-C ,  6-C ) :   0.9395
B(  5-C ,  7-O ) :   1.9899 B(  6-C , 14-H ) :   0.9182 B(  6-C , 15-H ) :   0.9011
B(  6-C , 16-H ) :   0.9315

MP2 TOTAL ENERGY:     -363.278983326 Eh
FINAL SINGLE POINT ENERGY      -363.278983325691

DIPOLE MOMENT
-------------
                                X             Y             Z
Electronic contribution:     -2.29969      -3.27108      -1.56014
Nuclear contribution   :      2.41978       3.30722       2.38462
                        -----------------------------------------
Total Dipole Moment    :      0.12010       0.03614       0.82448
                        -----------------------------------------
Magnitude (a.u.)       :      0.83396
Magnitude (Debye)      :      2.11976

                             ****ORCA TERMINATED NORMALLY****
TOTAL RUN TIME: 0 days 0 hours 11 minutes 46 seconds 238 msec
