                         Program Version 3.0.3 - RELEASE   -
|  1> ! RI-MP2 RIJK def2-TZVP def2-TZVP/C def2-TZVP/JK TIGHTSCF
|  2> % maxcore 2000
|  3> % mp2 density relaxed end
|  4> *xyz 0 1
|  5>  N       -0.2314490873    -1.1125044624    -0.0991906431
|  6>  C       -0.1268099235     0.0376984750    -0.0986823276
|  7>  C        0.0193175844     1.4901893378    -0.0764790908
|  8>  C        1.5009694774     1.9540924762     0.0340738072
|  9>  C        2.2584416584     1.5538750655    -1.1545190430
| 10>  N        2.8488287530     1.2848195916    -2.1107125893
| 11>  C        1.5626318877     3.4657290977     0.2558185470
| 12>  C        2.7352066332     4.2798332643    -0.1384420559
| 13>  N        1.4515573340     4.4182946102    -0.8527526506
| 14>  H       -0.4379190685     1.9170591785    -0.9744783387
| 15>  H       -0.5301631065     1.8858982698     0.7839593972
| 16>  H        1.9493074244     1.4551375183     0.9019995632
| 17>  H        1.0037012302     3.7634678293     1.1413921635
| 18>  H        3.0192273480     5.1346180357     0.4675153926
| 19>  H        3.5553120723     3.7823652131    -0.6478196677
| 20>  H        1.5129517129     3.9346085594    -1.7474992439
| 21> *
| 22>
| 23>                          ****END OF INPUT****

CARTESIAN COORDINATES (ANGSTROEM)
---------------------------------
  N     -0.231449   -1.112504   -0.099191
  C     -0.126810    0.037698   -0.098682
  C      0.019318    1.490189   -0.076479
  C      1.500969    1.954092    0.034074
  C      2.258442    1.553875   -1.154519
  N      2.848829    1.284820   -2.110713
  C      1.562632    3.465729    0.255819
  C      2.735207    4.279833   -0.138442
  N      1.451557    4.418295   -0.852753
  H     -0.437919    1.917059   -0.974478
  H     -0.530163    1.885898    0.783959
  H      1.949307    1.455138    0.902000
  H      1.003701    3.763468    1.141392
  H      3.019227    5.134618    0.467515
  H      3.555312    3.782365   -0.647820
  H      1.512952    3.934609   -1.747499

 Total Charge           Charge          ....    0
 Multiplicity           Mult            ....    1
 Number of Electrons    NEL             ....   64
 Basis Dimension        Dim             ....  321

ORBITAL ENERGIES
----------------

  NO   OCC          E(Eh)            E(eV)
   0   2.0000     -15.597568      -424.4314
   1   2.0000     -15.589024      -424.1989
   2   2.0000     -15.588388      -424.1816
   3   2.0000     -11.329937      -308.3033
   4   2.0000     -11.318717      -307.9980
   5   2.0000     -11.305806      -307.6466
   6   2.0000     -11.297508      -307.4208
   7   2.0000     -11.291234      -307.2501
   8   2.0000     -11.283767      -307.0469
   9   2.0000      -1.299636       -35.3649
  10   2.0000      -1.246150       -33.9095
  11   2.0000      -1.236426       -33.6449
  12   2.0000      -1.137189       -30.9445
  13   2.0000      -0.999670       -27.2024
  14   2.0000      -0.917934       -24.9783
  15   2.0000      -0.866714       -23.5845
  16   2.0000      -0.749198       -20.3867
  17   2.0000      -0.738105       -20.0849
  18   2.0000      -0.709049       -19.2942
  19   2.0000      -0.665971       -18.1220
  20   2.0000      -0.642026       -17.4704
  21   2.0000      -0.617831       -16.8120
  22   2.0000      -0.583689       -15.8830
  23   2.0000      -0.573729       -15.6120
  24   2.0000      -0.559362       -15.2210
  25   2.0000      -0.519768       -14.1436
  26   2.0000      -0.512609       -13.9488
  27   2.0000      -0.493132       -13.4188
  28   2.0000      -0.485110       -13.2005
  29   2.0000      -0.477139       -12.9836
  30   2.0000      -0.467906       -12.7324
  31   2.0000      -0.422054       -11.4847
  32   0.0000       0.103779         2.8240
  33   0.0000       0.129546         3.5251
  34   0.0000       0.137490         3.7413
  35   0.0000       0.147920         4.0251
  36   0.0000       0.150933         4.1071

MULLIKEN ATOMIC CHARGES
-----------------------
   0 N :   -0.039919
   1 C :   -0.184553
   2 C :   -0.125644
   3 C :    0.066283
   4 C :   -0.256065
   5 N :   -0.029600
   6 C :   -0.065109
   7 C :   -0.173656
   8 N :   -0.364366
   9 H :    0.178345
  10 H :    0.172099
  11 H :    0.157670
  12 H :    0.136986
  13 H :    0.134935
  14 H :    0.158331
  15 H :    0.234261
Sum of atomic charges:    0.0000000

LOEWDIN ATOMIC CHARGES
----------------------
   0 N :    0.076318
   1 C :   -0.188304
   2 C :   -0.198051
   3 C :   -0.216701
   4 C :   -0.173494
   5 N :    0.083918
   6 C :   -0.254006
   7 C :   -0.246939
   8 N :   -0.002102
   9 H :    0.173752
  10 H :    0.171714
  11 H :    0.189148
  12 H :    0.150833
  13 H :    0.129389
  14 H :    0.132605
  15 H :    0.171919

  Mayer bond orders larger than 0.1
B(  0-N ,  1-C ) :   2.8626 B(  1-C ,  2-C ) :   0.9408 B(  2-C ,  3-C ) :   0.8706
B(  2-C ,  9-H ) :   0.8956 B(  2-C , 10-H ) :   0.9070 B(  3-C ,  4-C ) :   0.9060
B(  3-C ,  6-C ) :   0.9084 B(  3-C , 11-H ) :   0.8929 B(  4-C ,  5-N ) :   2.8411
B(  6-C ,  7-C ) :   0.9500 B(  6-C ,  8-N ) :   0.9208 B(  6-C , 12-H ) :   0.9109
B(  7-C ,  8-N ) :   0.9183 B(  7-C , 13-H ) :   0.9243 B(  7-C , 14-H ) :   0.9110
B(  8-N , 15-H ) :   0.8745

MP2 TOTAL ENERGY:     -396.234307995 Eh
FINAL SINGLE POINT ENERGY      -396.234307994975

DIPOLE MOMENT
-------------
                                X             Y             Z
Electronic contribution:     -0.73571      -6.14449      -1.90583
Nuclear contribution   :      0.63360       7.51014       3.01745
                        -----------------------------------------
Total Dipole Moment    :     -0.10211       1.36566       1.11163
                        -----------------------------------------
Magnitude (a.u.)       :      1.76385
Magnitude (Debye)      :      4.48334

                             ****ORCA TERMINATED NORMALLY****
TOTAL RUN TIME: 0 days 0 hours 14 minutes 52 seconds 897 msec
