                         Program Version 3.0.3 - RELEASE   -
|  1> ! RI-MP2 RIJK def2-TZVP def2-TZVP/C def2-TZVP/JK TIGHTSCF
|  2> % maxcore 2000
|  3> % mp2 density relaxed end
|  4> *xyz 0 1
|  5>  N        0.0338798896    -1.0983510196    -0.0299069548
|  6>  C       -0.0052633542     0.0574786779     0.0089979824
|  7>  C       -0.0570415160     1.4935787941     0.0620162447
|  8>  C       -0.7552437451     2.4023372327     1.0974376916
|  9>  C       -0.1052458738     3.3813084843     0.1018093332
| 10>  C        1.1664438949     2.4807088908    -0.0886366357
| 11>  C        1.0513362859     2.5077676700    -1.6243539826
| 12>  C       -0.4082733825     2.4625458331    -1.1345536173
| 13>  H       -1.8478763513     2.3623616415     1.1145413153
| 14>  H       -0.3468085046     2.3796755957     2.1115401672
| 15>  H       -0.1172258088     4.4701647629     0.1009383802
| 16>  H        2.0523140192     2.4690496758     0.5468924242
| 17>  H        1.3685663616     3.4306841580    -2.1179979222
| 18>  H        1.4195893614     1.6307397950    -2.1635600661
| 19>  H       -1.3372405761     2.4299533077    -1.7044278001
| 20> *
| 21>
| 22>                          ****END OF INPUT****

CARTESIAN COORDINATES (ANGSTROEM)
---------------------------------
  N      0.033880   -1.098351   -0.029907
  C     -0.005263    0.057479    0.008998
  C     -0.057042    1.493579    0.062016
  C     -0.755244    2.402337    1.097438
  C     -0.105246    3.381308    0.101809
  C      1.166444    2.480709   -0.088637
  C      1.051336    2.507768   -1.624354
  C     -0.408273    2.462546   -1.134554
  H     -1.847876    2.362362    1.114541
  H     -0.346809    2.379676    2.111540
  H     -0.117226    4.470165    0.100938
  H      2.052314    2.469050    0.546892
  H      1.368566    3.430684   -2.117998
  H      1.419589    1.630740   -2.163560
  H     -1.337241    2.429953   -1.704428

 Total Charge           Charge          ....    0
 Multiplicity           Mult            ....    1
 Number of Electrons    NEL             ....   56
 Basis Dimension        Dim             ....  290

ORBITAL ENERGIES
----------------

  NO   OCC          E(Eh)            E(eV)
   0   2.0000     -15.568706      -423.6460
   1   2.0000     -11.293214      -307.3040
   2   2.0000     -11.272434      -306.7385
   3   2.0000     -11.272366      -306.7367
   4   2.0000     -11.270181      -306.6772
   5   2.0000     -11.266390      -306.5741
   6   2.0000     -11.253411      -306.2209
   7   2.0000     -11.245552      -306.0070
   8   2.0000      -1.274159       -34.6716
   9   2.0000      -1.211439       -32.9649
  10   2.0000      -1.030799       -28.0495
  11   2.0000      -0.942458       -25.6456
  12   2.0000      -0.889752       -24.2114
  13   2.0000      -0.857847       -23.3432
  14   2.0000      -0.768703       -20.9175
  15   2.0000      -0.710349       -19.3296
  16   2.0000      -0.657651       -17.8956
  17   2.0000      -0.624068       -16.9818
  18   2.0000      -0.619816       -16.8661
  19   2.0000      -0.564530       -15.3617
  20   2.0000      -0.516440       -14.0530
  21   2.0000      -0.516103       -14.0439
  22   2.0000      -0.480090       -13.0639
  23   2.0000      -0.478602       -13.0234
  24   2.0000      -0.460382       -12.5276
  25   2.0000      -0.456185       -12.4134
  26   2.0000      -0.433646       -11.8001
  27   2.0000      -0.419984       -11.4283
  28   0.0000       0.134625         3.6633
  29   0.0000       0.143876         3.9151
  30   0.0000       0.146729         3.9927
  31   0.0000       0.155918         4.2427
  32   0.0000       0.185650         5.0518

MULLIKEN ATOMIC CHARGES
-----------------------
   0 N :   -0.028099
   1 C :   -0.282780
   2 C :    0.105620
   3 C :   -0.182067
   4 C :   -0.148238
   5 C :   -0.085437
   6 C :   -0.230100
   7 C :   -0.085436
   8 H :    0.126979
   9 H :    0.126978
  10 H :    0.142056
  11 H :    0.142229
  12 H :    0.122534
  13 H :    0.133531
  14 H :    0.142230
Sum of atomic charges:   -0.0000000

LOEWDIN ATOMIC CHARGES
----------------------
   0 N :    0.070555
   1 C :   -0.154911
   2 C :   -0.168930
   3 C :   -0.157195
   4 C :   -0.131309
   5 C :   -0.098891
   6 C :   -0.194153
   7 C :   -0.098890
   8 H :    0.134522
   9 H :    0.134522
  10 H :    0.131267
  11 H :    0.133808
  12 H :    0.131664
  13 H :    0.134133
  14 H :    0.133808

  Mayer bond orders larger than 0.1
B(  0-N ,  1-C ) :   2.8997 B(  1-C ,  2-C ) :   0.8837 B(  2-C ,  3-C ) :   0.8689
B(  2-C ,  5-C ) :   0.8231 B(  2-C ,  7-C ) :   0.8231 B(  3-C ,  4-C ) :   0.9311
B(  3-C ,  8-H ) :   0.9252 B(  3-C ,  9-H ) :   0.9252 B(  4-C ,  5-C ) :   0.8660
B(  4-C ,  7-C ) :   0.8660 B(  4-C , 10-H ) :   0.9036 B(  5-C ,  6-C ) :   0.9290
B(  5-C , 11-H ) :   0.8970 B(  6-C ,  7-C ) :   0.9290 B(  6-C , 12-H ) :   0.9289
B(  6-C , 13-H ) :   0.9181 B(  7-C , 14-H ) :   0.8970

MP2 TOTAL ENERGY:     -324.874369156 Eh
FINAL SINGLE POINT ENERGY      -324.874369155828

DIPOLE MOMENT
-------------
                                X             Y             Z
Electronic contribution:     -0.35170      -4.96751       0.61577
Nuclear contribution   :      0.34732       6.63289      -0.63807
                        -----------------------------------------
Total Dipole Moment    :     -0.00438       1.66538      -0.02230
                        -----------------------------------------
Magnitude (a.u.)       :      1.66553
Magnitude (Debye)      :      4.23345

                             ****ORCA TERMINATED NORMALLY****
TOTAL RUN TIME: 0 days 0 hours 12 minutes 43 seconds 802 msec
