                         Program Version 3.0.3 - RELEASE   -
|  1> ! RI-MP2 RIJK def2-TZVP def2-TZVP/C def2-TZVP/JK TIGHTSCF
|  2> % maxcore 2000
|  3> % mp2 density relaxed end
|  4> *xyz 0 1
|  5>  C        0.1856495653     1.6101741232     0.0287389952
|  6>  C        0.0238710436     0.0865116831    -0.0489510036
|  7>  O       -1.3522418131    -0.2583343795    -0.1350403244
|  8>  C        0.7637120965    -0.5029233292    -1.2574854281
|  9>  C        2.1845238710    -0.7899131769    -0.7672765902
| 10>  O        3.1344222243    -1.0388513752    -1.4617426864
| 11>  C        2.1914089602    -0.7115920063     0.7660466324
| 12>  C        0.7059760037    -0.6381205120     1.1420023548
| 13>  O        0.3995125546     0.0435016324     2.3461373637
| 14>  H        1.2369712152     1.9146564483     0.0053332631
| 15>  H       -0.3226120096     2.0671218088    -0.8245136778
| 16>  H       -0.2495202388     1.9980776432     0.9530879372
| 17>  H       -1.7757551167     0.0717597160     0.6658633067
| 18>  H        0.2992863439    -1.4584892569    -1.5328620593
| 19>  H        0.7628933833     0.1298307637    -2.1476635199
| 20>  H        2.7404081570    -1.5509300626     1.2009730015
| 21>  H        2.7057493248     0.2095264373     1.0672140265
| 22>  H        0.2815192036    -1.6533941595     1.1613724565
| 23>  H        0.6972981412    -0.4930791278     3.0866317521
| 24> *
| 25>
| 26>                          ****END OF INPUT****

CARTESIAN COORDINATES (ANGSTROEM)
---------------------------------
  C      0.185650    1.610174    0.028739
  C      0.023871    0.086512   -0.048951
  O     -1.352242   -0.258334   -0.135040
  C      0.763712   -0.502923   -1.257485
  C      2.184524   -0.789913   -0.767277
  O      3.134422   -1.038851   -1.461743
  C      2.191409   -0.711592    0.766047
  C      0.705976   -0.638121    1.142002
  O      0.399513    0.043502    2.346137
  H      1.236971    1.914656    0.005333
  H     -0.322612    2.067122   -0.824514
  H     -0.249520    1.998078    0.953088
  H     -1.775755    0.071760    0.665863
  H      0.299286   -1.458489   -1.532862
  H      0.762893    0.129831   -2.147664
  H      2.740408   -1.550930    1.200973
  H      2.705749    0.209526    1.067214
  H      0.281519   -1.653394    1.161372
  H      0.697298   -0.493079    3.086632

 Total Charge           Charge          ....    0
 Multiplicity           Mult            ....    1
 Number of Electrons    NEL             ....   70
 Basis Dimension        Dim             ....  339

ORBITAL ENERGIES
----------------

  NO   OCC          E(Eh)            E(eV)
   0   2.0000     -20.579450      -559.9953
   1   2.0000     -20.563603      -559.5641
   2   2.0000     -20.549915      -559.1916
   3   2.0000     -11.336807      -308.4902
   4   2.0000     -11.300570      -307.5042
   5   2.0000     -11.298194      -307.4395
   6   2.0000     -11.244372      -305.9749
   7   2.0000     -11.237791      -305.7958
   8   2.0000     -11.223961      -305.4195
   9   2.0000      -1.396152       -37.9912
  10   2.0000      -1.390504       -37.8375
  11   2.0000      -1.367939       -37.2235
  12   2.0000      -1.127457       -30.6797
  13   2.0000      -1.010009       -27.4837
  14   2.0000      -0.970192       -26.4003
  15   2.0000      -0.906706       -24.6727
  16   2.0000      -0.790132       -21.5006
  17   2.0000      -0.753392       -20.5008
  18   2.0000      -0.724309       -19.7094
  19   2.0000      -0.692828       -18.8528
  20   2.0000      -0.653144       -17.7729
  21   2.0000      -0.646965       -17.6048
  22   2.0000      -0.626654       -17.0521
  23   2.0000      -0.613038       -16.6816
  24   2.0000      -0.599176       -16.3044
  25   2.0000      -0.582390       -15.8476
  26   2.0000      -0.562996       -15.3199
  27   2.0000      -0.550826       -14.9887
  28   2.0000      -0.538275       -14.6472
  29   2.0000      -0.519224       -14.1288
  30   2.0000      -0.500670       -13.6239
  31   2.0000      -0.474718       -12.9177
  32   2.0000      -0.466005       -12.6807
  33   2.0000      -0.437892       -11.9157
  34   2.0000      -0.405896       -11.0450
  35   0.0000       0.114012         3.1024
  36   0.0000       0.129867         3.5339
  37   0.0000       0.147089         4.0025
  38   0.0000       0.160106         4.3567
  39   0.0000       0.168390         4.5821

MULLIKEN ATOMIC CHARGES
-----------------------
   0 C :   -0.462523
   1 C :    0.268492
   2 O :   -0.461752
   3 C :   -0.207586
   4 C :    0.094439
   5 O :   -0.260169
   6 C :   -0.252303
   7 C :   -0.008113
   8 O :   -0.466618
   9 H :    0.127637
  10 H :    0.148041
  11 H :    0.147812
  12 H :    0.322974
  13 H :    0.147716
  14 H :    0.148256
  15 H :    0.142427
  16 H :    0.148143
  17 H :    0.099619
  18 H :    0.323508
Sum of atomic charges:    0.0000000

LOEWDIN ATOMIC CHARGES
----------------------
   0 C :   -0.270406
   1 C :   -0.382117
   2 O :    0.009100
   3 C :   -0.178200
   4 C :   -0.307909
   5 O :    0.156715
   6 C :   -0.213348
   7 C :   -0.316646
   8 O :   -0.013955
   9 H :    0.129840
  10 H :    0.130735
  11 H :    0.129689
  12 H :    0.181610
  13 H :    0.165887
  14 H :    0.153010
  15 H :    0.145593
  16 H :    0.158298
  17 H :    0.143618
  18 H :    0.178486

  Mayer bond orders larger than 0.1
B(  0-C ,  1-C ) :   0.9450 B(  0-C ,  9-H ) :   0.9201 B(  0-C , 10-H ) :   0.9387
B(  0-C , 11-H ) :   0.9230 B(  1-C ,  2-O ) :   0.9549 B(  1-C ,  3-C ) :   0.8532
B(  1-C ,  7-C ) :   0.8581 B(  2-O , 12-H ) :   0.8367 B(  3-C ,  4-C ) :   0.9097
B(  3-C ,  6-C ) :  -0.1098 B(  3-C , 13-H ) :   0.8955 B(  3-C , 14-H ) :   0.9109
B(  4-C ,  5-O ) :   2.0428 B(  4-C ,  6-C ) :   0.8684 B(  6-C ,  7-C ) :   0.8941
B(  6-C , 15-H ) :   0.9023 B(  6-C , 16-H ) :   0.8993 B(  7-C ,  8-O ) :   1.0073
B(  7-C , 17-H ) :   0.9439 B(  8-O , 18-H ) :   0.8423

MP2 TOTAL ENERGY:     -459.469823368 Eh
FINAL SINGLE POINT ENERGY      -459.469823368364

DIPOLE MOMENT
-------------
                                X             Y             Z
Electronic contribution:      1.90141      -3.28573      -1.26002
Nuclear contribution   :     -2.24699       3.32562       2.40712
                        -----------------------------------------
Total Dipole Moment    :     -0.34557       0.03989       1.14709
                        -----------------------------------------
Magnitude (a.u.)       :      1.19868
Magnitude (Debye)      :      3.04681

                             ****ORCA TERMINATED NORMALLY****
TOTAL RUN TIME: 0 days 0 hours 17 minutes 58 seconds 88 msec
