                         Program Version 3.0.3 - RELEASE   -
|  1> ! RI-MP2 RIJK def2-TZVP def2-TZVP/C def2-TZVP/JK TIGHTSCF
|  2> % maxcore 2000
|  3> % mp2 density relaxed end
|  4> *xyz 0 1
|  5>  O       -0.0423711599     1.4920658295    -0.1513294076
|  6>  C       -0.0200104868     0.0935760500    -0.1052505279
|  7>  C       -1.3611285570    -0.6121676096    -0.1612709690
|  8>  C       -1.8027292967    -0.7501672113    -1.5866867188
|  9>  N       -0.8172013749    -1.7431702749    -0.9654753703
| 10>  C        0.2961817978    -0.7177868038    -1.3877795125
| 11>  C       -0.6970075114    -0.1950942334    -2.4290526465
| 12>  O       -0.6086092464     0.2364132899    -3.5399037608
| 13>  H        0.8493076283     1.8271443145    -0.0128228352
| 14>  H        0.5597181041    -0.2895411973     0.7443536771
| 15>  H       -2.0624446096    -0.7793260490     0.6485418964
| 16>  H       -2.8116393104    -1.0327144239    -1.8577885487
| 17>  H        1.2923765728    -1.0598307908    -1.6558094861
| 18> *
| 19>
| 20>                          ****END OF INPUT****

CARTESIAN COORDINATES (ANGSTROEM)
---------------------------------
  O     -0.042371    1.492066   -0.151329
  C     -0.020010    0.093576   -0.105251
  C     -1.361129   -0.612168   -0.161271
  C     -1.802729   -0.750167   -1.586687
  N     -0.817201   -1.743170   -0.965475
  C      0.296182   -0.717787   -1.387780
  C     -0.697008   -0.195094   -2.429053
  O     -0.608609    0.236413   -3.539904
  H      0.849308    1.827144   -0.012823
  H      0.559718   -0.289541    0.744354
  H     -2.062445   -0.779326    0.648542
  H     -2.811639   -1.032714   -1.857789
  H      1.292377   -1.059831   -1.655809

 Total Charge           Charge          ....    0
 Multiplicity           Mult            ....    1
 Number of Electrons    NEL             ....   58
 Basis Dimension        Dim             ....  278

ORBITAL ENERGIES
----------------

  NO   OCC          E(Eh)            E(eV)
   0   2.0000     -20.586217      -560.1794
   1   2.0000     -20.558159      -559.4159
   2   2.0000     -15.605274      -424.6411
   3   2.0000     -11.347844      -308.7905
   4   2.0000     -11.323236      -308.1209
   5   2.0000     -11.296332      -307.3888
   6   2.0000     -11.291551      -307.2587
   7   2.0000     -11.290497      -307.2300
   8   2.0000      -1.411705       -38.4144
   9   2.0000      -1.396866       -38.0107
  10   2.0000      -1.338241       -36.4154
  11   2.0000      -1.015909       -27.6443
  12   2.0000      -0.980652       -26.6849
  13   2.0000      -0.928305       -25.2605
  14   2.0000      -0.784161       -21.3381
  15   2.0000      -0.760249       -20.6874
  16   2.0000      -0.725656       -19.7461
  17   2.0000      -0.710969       -19.3464
  18   2.0000      -0.658060       -17.9067
  19   2.0000      -0.652842       -17.7647
  20   2.0000      -0.607455       -16.5297
  21   2.0000      -0.595489       -16.2041
  22   2.0000      -0.546351       -14.8670
  23   2.0000      -0.536096       -14.5879
  24   2.0000      -0.484610       -13.1869
  25   2.0000      -0.480164       -13.0659
  26   2.0000      -0.454866       -12.3775
  27   2.0000      -0.424676       -11.5560
  28   2.0000      -0.406292       -11.0558
  29   0.0000       0.111955         3.0465
  30   0.0000       0.143438         3.9031
  31   0.0000       0.154207         4.1962
  32   0.0000       0.170022         4.6265
  33   0.0000       0.176305         4.7975

MULLIKEN ATOMIC CHARGES
-----------------------
   0 O :   -0.440339
   1 C :   -0.001652
   2 C :   -0.037434
   3 C :   -0.151122
   4 N :   -0.213796
   5 C :   -0.012759
   6 C :    0.203548
   7 O :   -0.254300
   8 H :    0.324753
   9 H :    0.108923
  10 H :    0.149296
  11 H :    0.161995
  12 H :    0.162889
Sum of atomic charges:   -0.0000000

LOEWDIN ATOMIC CHARGES
----------------------
   0 O :    0.005643
   1 C :   -0.317511
   2 C :   -0.183767
   3 C :   -0.148763
   4 N :    0.172168
   5 C :   -0.138679
   6 C :   -0.309504
   7 O :    0.168482
   8 H :    0.181849
   9 H :    0.143083
  10 H :    0.142793
  11 H :    0.146287
  12 H :    0.137919

  Mayer bond orders larger than 0.1
B(  0-O ,  1-C ) :   1.1794 B(  0-O ,  8-H ) :   0.8372 B(  1-C ,  2-C ) :   0.9138
B(  1-C ,  5-C ) :   0.8862 B(  1-C ,  9-H ) :   0.9403 B(  2-C ,  3-C ) :   0.8451
B(  2-C ,  4-N ) :   0.8594 B(  2-C , 10-H ) :   0.9062 B(  3-C ,  4-N ) :   0.8821
B(  3-C ,  5-C ) :  -0.1278 B(  3-C ,  6-C ) :   0.9392 B(  3-C , 11-H ) :   0.9002
B(  4-N ,  5-C ) :   0.8904 B(  5-C ,  6-C ) :   0.8913 B(  5-C , 12-H ) :   0.8897
B(  6-C ,  7-O ) :   2.0445

MP2 TOTAL ENERGY:     -397.900388906 Eh
FINAL SINGLE POINT ENERGY      -397.900388905793

DIPOLE MOMENT
-------------
                                X             Y             Z
Electronic contribution:     -0.36767       0.19325      -2.78875
Nuclear contribution   :      0.80213      -0.20166       4.01429
                        -----------------------------------------
Total Dipole Moment    :      0.43446      -0.00842       1.22554
                        -----------------------------------------
Magnitude (a.u.)       :      1.30030
Magnitude (Debye)      :      3.30510

                             ****ORCA TERMINATED NORMALLY****
TOTAL RUN TIME: 0 days 0 hours 10 minutes 39 seconds 829 msec
