                         Program Version 3.0.3 - RELEASE   -
|  1> ! RI-MP2 RIJK def2-TZVP def2-TZVP/C def2-TZVP/JK TIGHTSCF
|  2> % maxcore 2000
|  3> % mp2 density relaxed end
|  4> *xyz 0 1
|  5>  C       -0.1600020761     1.4639043091     0.0398333241
|  6>  C        0.0560616233    -0.0447130291     0.0244582576
|  7>  C        0.9248979525    -0.5186401060    -1.1442256118
|  8>  C        2.1654185073    -0.4408753188    -0.3389609474
|  9>  C        1.2255454250    -0.5396815762     0.9271863623
| 10>  C        1.2367406943    -2.0497647781     0.6496379660
| 11>  N        1.6612315627    -1.7768372193    -0.7654780542
| 12>  H        0.7882925435     1.9999295452    -0.0775752292
| 13>  H       -0.8226886257     1.7768215488    -0.7744050155
| 14>  H       -0.6171558643     1.7850536264     0.9817699861
| 15>  H       -0.8980546183    -0.5672834937     0.1718157659
| 16>  H        0.7823802294    -0.3537616351    -2.2049571606
| 17>  H        3.1655171989    -0.0762641567    -0.5316340354
| 18>  H        1.3816305918    -0.1130963548     1.9171309802
| 19>  H        2.0474199184    -2.5854643305     1.1503073156
| 20>  H        0.2979264273    -2.6062113612     0.7622159762
| 21> *
| 22>
| 23>                          ****END OF INPUT****

CARTESIAN COORDINATES (ANGSTROEM)
---------------------------------
  C     -0.160002    1.463904    0.039833
  C      0.056062   -0.044713    0.024458
  C      0.924898   -0.518640   -1.144226
  C      2.165419   -0.440875   -0.338961
  C      1.225545   -0.539682    0.927186
  C      1.236741   -2.049765    0.649638
  N      1.661232   -1.776837   -0.765478
  H      0.788293    1.999930   -0.077575
  H     -0.822689    1.776822   -0.774405
  H     -0.617156    1.785054    0.981770
  H     -0.898055   -0.567283    0.171816
  H      0.782380   -0.353762   -2.204957
  H      3.165517   -0.076264   -0.531634
  H      1.381631   -0.113096    1.917131
  H      2.047420   -2.585464    1.150307
  H      0.297926   -2.606211    0.762216

 Total Charge           Charge          ....    0
 Multiplicity           Mult            ....    1
 Number of Electrons    NEL             ....   52
 Basis Dimension        Dim             ....  271

ORBITAL ENERGIES
----------------

  NO   OCC          E(Eh)            E(eV)
   0   2.0000     -15.558057      -423.3563
   1   2.0000     -11.259245      -306.3796
   2   2.0000     -11.256272      -306.2987
   3   2.0000     -11.251435      -306.1671
   4   2.0000     -11.241373      -305.8933
   5   2.0000     -11.237705      -305.7935
   6   2.0000     -11.220292      -305.3197
   7   2.0000      -1.312114       -35.7044
   8   2.0000      -1.058792       -28.8112
   9   2.0000      -0.985052       -26.8046
  10   2.0000      -0.928664       -25.2702
  11   2.0000      -0.858530       -23.3618
  12   2.0000      -0.762756       -20.7556
  13   2.0000      -0.725913       -19.7531
  14   2.0000      -0.693796       -18.8791
  15   2.0000      -0.625191       -17.0123
  16   2.0000      -0.616092       -16.7647
  17   2.0000      -0.587187       -15.9782
  18   2.0000      -0.558485       -15.1972
  19   2.0000      -0.529026       -14.3955
  20   2.0000      -0.504990       -13.7415
  21   2.0000      -0.466235       -12.6869
  22   2.0000      -0.447697       -12.1825
  23   2.0000      -0.430166       -11.7054
  24   2.0000      -0.410311       -11.1651
  25   2.0000      -0.367065        -9.9883
  26   0.0000       0.139609         3.7990
  27   0.0000       0.161450         4.3933
  28   0.0000       0.170673         4.6442
  29   0.0000       0.181315         4.9338
  30   0.0000       0.191396         5.2081

MULLIKEN ATOMIC CHARGES
-----------------------
   0 C :   -0.442387
   1 C :   -0.006122
   2 C :   -0.083537
   3 C :   -0.164811
   4 C :   -0.095311
   5 C :   -0.102911
   6 N :   -0.232598
   7 H :    0.134853
   8 H :    0.134776
   9 H :    0.132633
  10 H :    0.094216
  11 H :    0.131484
  12 H :    0.143166
  13 H :    0.131681
  14 H :    0.121009
  15 H :    0.103860
Sum of atomic charges:   -0.0000000

LOEWDIN ATOMIC CHARGES
----------------------
   0 C :   -0.287344
   1 C :   -0.227002
   2 C :   -0.197921
   3 C :   -0.172359
   4 C :   -0.166983
   5 C :   -0.234546
   6 N :    0.119762
   7 H :    0.128925
   8 H :    0.125382
   9 H :    0.124250
  10 H :    0.139907
  11 H :    0.136021
  12 H :    0.128545
  13 H :    0.131944
  14 H :    0.132029
  15 H :    0.119389

  Mayer bond orders larger than 0.1
B(  0-C ,  1-C ) :   0.8907 B(  0-C ,  7-H ) :   0.9373 B(  0-C ,  8-H ) :   0.9398
B(  0-C ,  9-H ) :   0.9367 B(  1-C ,  2-C ) :   0.8757 B(  1-C ,  4-C ) :   0.8951
B(  1-C , 10-H ) :   0.9114 B(  2-C ,  3-C ) :   0.8981 B(  2-C ,  6-N ) :   0.9022
B(  2-C , 11-H ) :   0.9348 B(  3-C ,  4-C ) :   0.9106 B(  3-C ,  6-N ) :   0.8873
B(  3-C , 12-H ) :   0.9022 B(  4-C ,  5-C ) :   0.9351 B(  4-C , 13-H ) :   0.9118
B(  5-C ,  6-N ) :   0.9115 B(  5-C , 14-H ) :   0.9350 B(  5-C , 15-H ) :   0.9188

MP2 TOTAL ENERGY:     -288.052008328 Eh
FINAL SINGLE POINT ENERGY      -288.052008328228

DIPOLE MOMENT
-------------
                                X             Y             Z
Electronic contribution:      2.44068      -3.28711      -1.47188
Nuclear contribution   :     -2.67046       3.84372       1.96308
                        -----------------------------------------
Total Dipole Moment    :     -0.22978       0.55661       0.49121
                        -----------------------------------------
Magnitude (a.u.)       :      0.77710
Magnitude (Debye)      :      1.97524

                             ****ORCA TERMINATED NORMALLY****
TOTAL RUN TIME: 0 days 0 hours 9 minutes 42 seconds 259 msec
