                         Program Version 3.0.3 - RELEASE   -
|  1> ! RI-MP2 RIJK def2-TZVP def2-TZVP/C def2-TZVP/JK TIGHTSCF
|  2> % maxcore 2000
|  3> % mp2 density relaxed end
|  4> *xyz 0 1
|  5>  O       -0.0915242640    -0.0122418398     0.0047347803
|  6>  C        0.0322217095     1.1722851926     0.0081279077
|  7>  O       -1.1922572508     1.9285236851     0.0294634586
|  8>  C       -1.1864190354     3.2668565449     0.0368664941
|  9>  C       -0.0146101186     3.9597558103     0.0246448523
| 10>  C        1.1750195725     3.1816125954     0.0043180779
| 11>  N        1.2153612302     1.8809665610    -0.0034085329
| 12>  C       -2.4732177313     3.8632502327     0.0577520258
| 13>  C       -3.5602255333     4.3780495666     0.0754818656
| 14>  H       -0.0017384341     5.0392840718     0.0304234049
| 15>  H        2.1380016025     3.6922893653    -0.0058366026
| 16>  H       -4.5233926272     4.8278991241     0.0912547783
| 17> *
| 18>
| 19>                          ****END OF INPUT****

CARTESIAN COORDINATES (ANGSTROEM)
---------------------------------
  O     -0.091524   -0.012242    0.004735
  C      0.032222    1.172285    0.008128
  O     -1.192257    1.928524    0.029463
  C     -1.186419    3.266857    0.036866
  C     -0.014610    3.959756    0.024645
  C      1.175020    3.181613    0.004318
  N      1.215361    1.880967   -0.003409
  C     -2.473218    3.863250    0.057752
  C     -3.560226    4.378050    0.075482
  H     -0.001738    5.039284    0.030423
  H      2.138002    3.692289   -0.005837
  H     -4.523393    4.827899    0.091255

 Total Charge           Charge          ....    0
 Multiplicity           Mult            ....    1
 Number of Electrons    NEL             ....   62
 Basis Dimension        Dim             ....  297

ORBITAL ENERGIES
----------------

  NO   OCC          E(Eh)            E(eV)
   0   2.0000     -20.650509      -561.9289
   1   2.0000     -20.546677      -559.1035
   2   2.0000     -15.588448      -424.1832
   3   2.0000     -11.419425      -310.7384
   4   2.0000     -11.390809      -309.9597
   5   2.0000     -11.341392      -308.6150
   6   2.0000     -11.286018      -307.1082
   7   2.0000     -11.278283      -306.8977
   8   2.0000     -11.269989      -306.6720
   9   2.0000      -1.497745       -40.7557
  10   2.0000      -1.396320       -37.9958
  11   2.0000      -1.269178       -34.5361
  12   2.0000      -1.132571       -30.8188
  13   2.0000      -1.063889       -28.9499
  14   2.0000      -0.957596       -26.0575
  15   2.0000      -0.919356       -25.0170
  16   2.0000      -0.811642       -22.0859
  17   2.0000      -0.764683       -20.8081
  18   2.0000      -0.743630       -20.2352
  19   2.0000      -0.698000       -18.9936
  20   2.0000      -0.684397       -18.6234
  21   2.0000      -0.664637       -18.0857
  22   2.0000      -0.644466       -17.5368
  23   2.0000      -0.587915       -15.9980
  24   2.0000      -0.556866       -15.1531
  25   2.0000      -0.506722       -13.7886
  26   2.0000      -0.486745       -13.2450
  27   2.0000      -0.458941       -12.4884
  28   2.0000      -0.452136       -12.3033
  29   2.0000      -0.445743       -12.1293
  30   2.0000      -0.362970        -9.8769
  31   0.0000       0.023399         0.6367
  32   0.0000       0.121472         3.3054
  33   0.0000       0.131355         3.5743
  34   0.0000       0.140850         3.8327
  35   0.0000       0.146306         3.9812

MULLIKEN ATOMIC CHARGES
-----------------------
   0 O :   -0.246218
   1 C :    0.279887
   2 O :   -0.178642
   3 C :    0.060445
   4 C :   -0.208990
   5 C :    0.002481
   6 N :   -0.225801
   7 C :    0.043875
   8 C :   -0.049162
   9 H :    0.161599
  10 H :    0.147920
  11 H :    0.212604
Sum of atomic charges:    0.0000000

LOEWDIN ATOMIC CHARGES
----------------------
   0 O :    0.162241
   1 C :   -0.492869
   2 O :    0.349793
   3 C :   -0.230337
   4 C :   -0.134687
   5 C :   -0.174463
   6 N :    0.143738
   7 C :   -0.050084
   8 C :   -0.020442
   9 H :    0.162442
  10 H :    0.148678
  11 H :    0.135991

  Mayer bond orders larger than 0.1
B(  0-O ,  1-C ) :   2.0642 B(  1-C ,  2-O ) :   0.9232 B(  1-C ,  6-N ) :   1.1354
B(  2-O ,  3-C ) :   1.1547 B(  3-C ,  4-C ) :   1.5132 B(  3-C ,  7-C ) :   1.1671
B(  3-C ,  8-C ) :  -0.1626 B(  4-C ,  5-C ) :   1.1220 B(  4-C ,  9-H ) :   0.9149
B(  5-C ,  6-N ) :   1.6018 B(  5-C , 10-H ) :   0.9391 B(  7-C ,  8-C ) :   2.5657
B(  8-C , 11-H ) :   0.8723

MP2 TOTAL ENERGY:     -434.753021614 Eh
FINAL SINGLE POINT ENERGY      -434.753021613719

DIPOLE MOMENT
-------------
                                X             Y             Z
Electronic contribution:     -0.09829      -3.23695      -0.01759
Nuclear contribution   :     -0.40893       5.49428       0.03611
                        -----------------------------------------
Total Dipole Moment    :     -0.50722       2.25733       0.01852
                        -----------------------------------------
Magnitude (a.u.)       :      2.31369
Magnitude (Debye)      :      5.88094

                             ****ORCA TERMINATED NORMALLY****
TOTAL RUN TIME: 0 days 0 hours 12 minutes 22 seconds 571 msec
