                         Program Version 3.0.3 - RELEASE   -
|  1> ! RI-MP2 RIJK def2-TZVP def2-TZVP/C def2-TZVP/JK TIGHTSCF
|  2> % maxcore 2000
|  3> % mp2 density relaxed end
|  4> *xyz 0 1
|  5>  C        0.5186914547     0.5557816063    -0.5149873197
|  6>  O       -0.0483173223    -0.5406688909     0.1649230605
|  7>  C       -1.4478817710    -0.4390526610     0.3223009477
|  8>  C       -2.2736784237    -0.8320422090    -0.9409293733
|  9>  C       -2.5390747447    -2.2352561249    -0.3082275946
| 10>  C       -3.9872768950    -2.7126996670    -0.3092569037
| 11>  C       -1.5951956096    -3.2842250916    -0.9103146537
| 12>  O       -1.5415001720    -4.4920957321    -0.1661363579
| 13>  C       -1.9921081341    -1.6886445809     1.0478251435
| 14>  H        1.5968958272     0.3855395708    -0.5642362638
| 15>  H        0.1312483270     0.6589627209    -1.5398578055
| 16>  H        0.3307853669     1.5012429585     0.0181118859
| 17>  H       -1.7008533693     0.5347494720     0.7666765086
| 18>  H       -3.1852270512    -0.2376999312    -1.0524309849
| 19>  H       -1.7306533236    -0.8193361282    -1.8913568705
| 20>  H       -4.3322524920    -2.9426836248    -1.3250740262
| 21>  H       -4.1122679666    -3.6133123845     0.3042134956
| 22>  H       -4.6554294479    -1.9500092026     0.1040851322
| 23>  H       -1.8816496326    -3.4721638614    -1.9591664340
| 24>  H       -0.5747574454    -2.8908109780    -0.9104402629
| 25>  H       -2.3902584840    -4.9354555597    -0.2552316595
| 26>  H       -1.2384708657    -2.3033392550     1.5436071471
| 27>  H       -2.7835055052    -1.4449285458     1.7617803388
| 28> *
| 29>
| 30>                          ****END OF INPUT****

CARTESIAN COORDINATES (ANGSTROEM)
---------------------------------
  C      0.518691    0.555782   -0.514987
  O     -0.048317   -0.540669    0.164923
  C     -1.447882   -0.439053    0.322301
  C     -2.273678   -0.832042   -0.940929
  C     -2.539075   -2.235256   -0.308228
  C     -3.987277   -2.712700   -0.309257
  C     -1.595196   -3.284225   -0.910315
  O     -1.541500   -4.492096   -0.166136
  C     -1.992108   -1.688645    1.047825
  H      1.596896    0.385540   -0.564236
  H      0.131248    0.658963   -1.539858
  H      0.330785    1.501243    0.018112
  H     -1.700853    0.534749    0.766677
  H     -3.185227   -0.237700   -1.052431
  H     -1.730653   -0.819336   -1.891357
  H     -4.332252   -2.942684   -1.325074
  H     -4.112268   -3.613312    0.304213
  H     -4.655429   -1.950009    0.104085
  H     -1.881650   -3.472164   -1.959166
  H     -0.574757   -2.890811   -0.910440
  H     -2.390258   -4.935456   -0.255232
  H     -1.238471   -2.303339    1.543607
  H     -2.783506   -1.444929    1.761780

 Total Charge           Charge          ....    0
 Multiplicity           Mult            ....    1
 Number of Electrons    NEL             ....   72
 Basis Dimension        Dim             ....  363

ORBITAL ENERGIES
----------------

  NO   OCC          E(Eh)            E(eV)
   0   2.0000     -20.553705      -559.2948
   1   2.0000     -20.549159      -559.1711
   2   2.0000     -11.276567      -306.8510
   3   2.0000     -11.269339      -306.6543
   4   2.0000     -11.265058      -306.5378
   5   2.0000     -11.232195      -305.6436
   6   2.0000     -11.220459      -305.3242
   7   2.0000     -11.218929      -305.2826
   8   2.0000     -11.212141      -305.0979
   9   2.0000      -1.375370       -37.4257
  10   2.0000      -1.353394       -36.8277
  11   2.0000      -1.133397       -30.8413
  12   2.0000      -0.996477       -27.1155
  13   2.0000      -0.929407       -25.2904
  14   2.0000      -0.918801       -25.0019
  15   2.0000      -0.901864       -24.5410
  16   2.0000      -0.809375       -22.0242
  17   2.0000      -0.729129       -19.8406
  18   2.0000      -0.682676       -18.5766
  19   2.0000      -0.677457       -18.4345
  20   2.0000      -0.654109       -17.7992
  21   2.0000      -0.632382       -17.2080
  22   2.0000      -0.613092       -16.6831
  23   2.0000      -0.604290       -16.4436
  24   2.0000      -0.580763       -15.8034
  25   2.0000      -0.569570       -15.4988
  26   2.0000      -0.546758       -14.8780
  27   2.0000      -0.534110       -14.5339
  28   2.0000      -0.518867       -14.1191
  29   2.0000      -0.500742       -13.6259
  30   2.0000      -0.482437       -13.1278
  31   2.0000      -0.473182       -12.8759
  32   2.0000      -0.443659       -12.0726
  33   2.0000      -0.434030       -11.8106
  34   2.0000      -0.420172       -11.4335
  35   2.0000      -0.395928       -10.7738
  36   0.0000       0.129361         3.5201
  37   0.0000       0.148025         4.0280
  38   0.0000       0.164629         4.4798
  39   0.0000       0.174621         4.7517
  40   0.0000       0.185854         5.0573

MULLIKEN ATOMIC CHARGES
-----------------------
   0 C :   -0.221419
   1 O :   -0.307639
   2 C :    0.069086
   3 C :   -0.323173
   4 C :    0.179365
   5 C :   -0.462470
   6 C :   -0.096521
   7 O :   -0.473556
   8 C :   -0.228002
   9 H :    0.142439
  10 H :    0.109161
  11 H :    0.112743
  12 H :    0.078686
  13 H :    0.114952
  14 H :    0.122295
  15 H :    0.134338
  16 H :    0.126591
  17 H :    0.131543
  18 H :    0.103654
  19 H :    0.133149
  20 H :    0.312648
  21 H :    0.124809
  22 H :    0.117320
Sum of atomic charges:    0.0000000

LOEWDIN ATOMIC CHARGES
----------------------
   0 C :   -0.358573
   1 O :    0.156959
   2 C :   -0.299377
   3 C :   -0.184677
   4 C :   -0.292195
   5 C :   -0.285326
   6 C :   -0.310244
   7 O :   -0.040755
   8 C :   -0.174874
   9 H :    0.113936
  10 H :    0.100384
  11 H :    0.102207
  12 H :    0.122800
  13 H :    0.135706
  14 H :    0.133370
  15 H :    0.125961
  16 H :    0.122223
  17 H :    0.126807
  18 H :    0.119150
  19 H :    0.138367
  20 H :    0.169747
  21 H :    0.142136
  22 H :    0.136269

  Mayer bond orders larger than 0.1
B(  0-C ,  1-O ) :   0.9110 B(  0-C ,  9-H ) :   0.9409 B(  0-C , 10-H ) :   0.9315
B(  0-C , 11-H ) :   0.9362 B(  1-O ,  2-C ) :   0.9622 B(  2-C ,  3-C ) :   0.9441
B(  2-C ,  8-C ) :   0.9431 B(  2-C , 12-H ) :   0.9304 B(  3-C ,  4-C ) :   0.8793
B(  3-C , 13-H ) :   0.9014 B(  3-C , 14-H ) :   0.9214 B(  4-C ,  5-C ) :   0.8660
B(  4-C ,  6-C ) :   0.9085 B(  4-C ,  8-C ) :   0.9142 B(  5-C , 15-H ) :   0.9368
B(  5-C , 16-H ) :   0.9445 B(  5-C , 17-H ) :   0.9333 B(  6-C ,  7-O ) :   0.9380
B(  6-C , 18-H ) :   0.9419 B(  6-C , 19-H ) :   0.9185 B(  7-O , 20-H ) :   0.8492
B(  8-C , 21-H ) :   0.9060 B(  8-C , 22-H ) :   0.9135

MP2 TOTAL ENERGY:     -424.701652484 Eh
FINAL SINGLE POINT ENERGY      -424.701652484208

DIPOLE MOMENT
-------------
                                X             Y             Z
Electronic contribution:      2.73983      -2.38705       1.78050
Nuclear contribution   :     -3.46124       2.98123      -2.21902
                        -----------------------------------------
Total Dipole Moment    :     -0.72141       0.59418      -0.43852
                        -----------------------------------------
Magnitude (a.u.)       :      1.03237
Magnitude (Debye)      :      2.62408

                             ****ORCA TERMINATED NORMALLY****
TOTAL RUN TIME: 0 days 0 hours 31 minutes 2 seconds 517 msec
