                         Program Version 3.0.3 - RELEASE   -
|  1> ! RI-MP2 RIJK def2-TZVP def2-TZVP/C def2-TZVP/JK TIGHTSCF
|  2> % maxcore 2000
|  3> % mp2 density relaxed end
|  4> *xyz 0 1
|  5>  O       -0.1040506708     0.2331376648     0.6269227720
|  6>  C       -0.0861990372     1.3820726391     0.2657468832
|  7>  C       -1.3034341445     2.3026388795     0.1493959201
|  8>  C       -0.8162377969     3.5187075772    -0.6482470005
|  9>  C        0.7031167188     3.6139279142    -0.3489962905
| 10>  C        1.0695252940     4.2758832094     0.9626634695
| 11>  C        1.8675368937     3.5177224577     1.7143242523
| 12>  C        2.1952699644     2.1982649171     1.0545651809
| 13>  C        1.1870845747     2.1584458527    -0.1203997506
| 14>  H       -2.1556602093     1.7744852417    -0.2840020522
| 15>  H       -1.5853457067     2.5807333063     1.1729547927
| 16>  H       -0.9662039598     3.3492987744    -1.7201934852
| 17>  H       -1.3455827365     4.4407111374    -0.3918406229
| 18>  H        1.2173855625     4.1137083456    -1.1791558517
| 19>  H        0.7294538453     5.2742671564     1.2188094334
| 20>  H        2.2799318076     3.8057000798     2.6753456890
| 21>  H        3.2346148916     2.1827120277     0.7009216771
| 22>  H        2.0759297761     1.3308345869     1.7129042654
| 23>  H        1.6071204132     1.6849319522    -1.0131691719
| 24> *
| 25>
| 26>                          ****END OF INPUT****

CARTESIAN COORDINATES (ANGSTROEM)
---------------------------------
  O     -0.104051    0.233138    0.626923
  C     -0.086199    1.382073    0.265747
  C     -1.303434    2.302639    0.149396
  C     -0.816238    3.518708   -0.648247
  C      0.703117    3.613928   -0.348996
  C      1.069525    4.275883    0.962663
  C      1.867537    3.517722    1.714324
  C      2.195270    2.198265    1.054565
  C      1.187085    2.158446   -0.120400
  H     -2.155660    1.774485   -0.284002
  H     -1.585346    2.580733    1.172955
  H     -0.966204    3.349299   -1.720193
  H     -1.345583    4.440711   -0.391841
  H      1.217386    4.113708   -1.179156
  H      0.729454    5.274267    1.218809
  H      2.279932    3.805700    2.675346
  H      3.234615    2.182712    0.700922
  H      2.075930    1.330835    1.712904
  H      1.607120    1.684932   -1.013169

 Total Charge           Charge          ....    0
 Multiplicity           Mult            ....    1
 Number of Electrons    NEL             ....   66
 Basis Dimension        Dim             ....  339

ORBITAL ENERGIES
----------------

  NO   OCC          E(Eh)            E(eV)
   0   2.0000     -20.540103      -558.9246
   1   2.0000     -11.323251      -308.1213
   2   2.0000     -11.241325      -305.8920
   3   2.0000     -11.238354      -305.8112
   4   2.0000     -11.234902      -305.7172
   5   2.0000     -11.234277      -305.7002
   6   2.0000     -11.233420      -305.6769
   7   2.0000     -11.232924      -305.6634
   8   2.0000     -11.230470      -305.5966
   9   2.0000      -1.384876       -37.6844
  10   2.0000      -1.164620       -31.6909
  11   2.0000      -1.070744       -29.1364
  12   2.0000      -0.989582       -26.9279
  13   2.0000      -0.954991       -25.9866
  14   2.0000      -0.891628       -24.2624
  15   2.0000      -0.794050       -21.6072
  16   2.0000      -0.738701       -20.1011
  17   2.0000      -0.721570       -19.6349
  18   2.0000      -0.686600       -18.6833
  19   2.0000      -0.658351       -17.9146
  20   2.0000      -0.636841       -17.3293
  21   2.0000      -0.606058       -16.4917
  22   2.0000      -0.577053       -15.7024
  23   2.0000      -0.559923       -15.2363
  24   2.0000      -0.546708       -14.8767
  25   2.0000      -0.536564       -14.6007
  26   2.0000      -0.506741       -13.7891
  27   2.0000      -0.499000       -13.5785
  28   2.0000      -0.481148       -13.0927
  29   2.0000      -0.472904       -12.8684
  30   2.0000      -0.468256       -12.7419
  31   2.0000      -0.392234       -10.6732
  32   2.0000      -0.356118        -9.6905
  33   0.0000       0.126674         3.4470
  34   0.0000       0.129608         3.5268
  35   0.0000       0.149723         4.0742
  36   0.0000       0.165303         4.4981
  37   0.0000       0.168789         4.5930

MULLIKEN ATOMIC CHARGES
-----------------------
   0 O :   -0.271321
   1 C :    0.085635
   2 C :   -0.228384
   3 C :   -0.244639
   4 C :    0.011416
   5 C :   -0.231462
   6 C :   -0.184852
   7 C :   -0.193489
   8 C :   -0.030133
   9 H :    0.142712
  10 H :    0.137941
  11 H :    0.123283
  12 H :    0.124326
  13 H :    0.111364
  14 H :    0.127132
  15 H :    0.128908
  16 H :    0.120492
  17 H :    0.144543
  18 H :    0.126527
Sum of atomic charges:    0.0000000

LOEWDIN ATOMIC CHARGES
----------------------
   0 O :    0.153903
   1 C :   -0.285952
   2 C :   -0.225665
   3 C :   -0.229246
   4 C :   -0.199409
   5 C :   -0.141027
   6 C :   -0.152292
   7 C :   -0.211378
   8 C :   -0.168063
   9 H :    0.146185
  10 H :    0.157626
  11 H :    0.139136
  12 H :    0.136367
  13 H :    0.153342
  14 H :    0.138598
  15 H :    0.137550
  16 H :    0.142410
  17 H :    0.146349
  18 H :    0.161567

  Mayer bond orders larger than 0.1
B(  0-O ,  1-C ) :   2.0378 B(  1-C ,  2-C ) :   0.9167 B(  1-C ,  8-C ) :   0.8623
B(  2-C ,  3-C ) :   0.9361 B(  2-C ,  9-H ) :   0.9188 B(  2-C , 10-H ) :   0.9045
B(  3-C ,  4-C ) :   0.8679 B(  3-C , 11-H ) :   0.9301 B(  3-C , 12-H ) :   0.9261
B(  4-C ,  5-C ) :   0.9133 B(  4-C ,  8-C ) :   0.9178 B(  4-C , 13-H ) :   0.9035
B(  5-C ,  6-C ) :   1.7815 B(  5-C , 14-H ) :   0.9244 B(  6-C ,  7-C ) :   0.9466
B(  6-C , 15-H ) :   0.9303 B(  7-C ,  8-C ) :   0.9157 B(  7-C , 16-H ) :   0.9113
B(  7-C , 17-H ) :   0.9206 B(  8-C , 18-H ) :   0.8999

MP2 TOTAL ENERGY:     -385.257121529 Eh
FINAL SINGLE POINT ENERGY      -385.257121528707

DIPOLE MOMENT
-------------
                                X             Y             Z
Electronic contribution:      0.04290      -3.75422       0.75681
Nuclear contribution   :      0.05881       4.78011      -1.07106
                        -----------------------------------------
Total Dipole Moment    :      0.10171       1.02589      -0.31425
                        -----------------------------------------
Magnitude (a.u.)       :      1.07775
Magnitude (Debye)      :      2.73943

                             ****ORCA TERMINATED NORMALLY****
TOTAL RUN TIME: 0 days 0 hours 19 minutes 55 seconds 893 msec
