                         Program Version 3.0.3 - RELEASE   -
|  1> ! RI-MP2 RIJK def2-TZVP def2-TZVP/C def2-TZVP/JK TIGHTSCF
|  2> % maxcore 2000
|  3> % mp2 density relaxed end
|  4> *xyz 0 1
|  5>  C       -0.0534162341     1.5849765890     0.0791811437
|  6>  C       -0.0016304840     0.0439097824     0.0325586250
|  7>  C        0.7355841541    -0.5312746820     1.2627919182
|  8>  C       -1.3780184165    -0.4809750779     0.0431125665
|  9>  N       -2.4531060165    -0.9016105831     0.0919613177
| 10>  C        0.6561594716    -0.4389684751    -1.3083420156
| 11>  O       -0.0741441104     0.0139886943    -2.4069070343
| 12>  C        2.1069375537     0.0035889176    -1.4330751025
| 13>  O        2.4746886703     0.6683106603    -2.3711199327
| 14>  H        0.9607230309     1.9941266710     0.1312278608
| 15>  H       -0.5435834402     1.9727694621    -0.8149590589
| 16>  H       -0.6051314072     1.9248870188     0.9587006382
| 17>  H        0.1710431208    -0.3128415706     2.1722185000
| 18>  H        0.8481195830    -1.6169848442     1.1905028203
| 19>  H        1.7260164769    -0.0806579535     1.3692194234
| 20>  H        0.6705950552    -1.5432447851    -1.2806434473
| 21>  H        0.5535860084     0.5056873932    -2.9610253406
| 22>  H        2.8120235440    -0.3314157371    -0.6496923618
| 23> *
| 24>
| 25>                          ****END OF INPUT****

CARTESIAN COORDINATES (ANGSTROEM)
---------------------------------
  C     -0.053416    1.584977    0.079181
  C     -0.001630    0.043910    0.032559
  C      0.735584   -0.531275    1.262792
  C     -1.378018   -0.480975    0.043113
  N     -2.453106   -0.901611    0.091961
  C      0.656159   -0.438968   -1.308342
  O     -0.074144    0.013989   -2.406907
  C      2.106938    0.003589   -1.433075
  O      2.474689    0.668311   -2.371120
  H      0.960723    1.994127    0.131228
  H     -0.543583    1.972769   -0.814959
  H     -0.605131    1.924887    0.958701
  H      0.171043   -0.312842    2.172219
  H      0.848120   -1.616985    1.190503
  H      1.726016   -0.080658    1.369219
  H      0.670595   -1.543245   -1.280643
  H      0.553586    0.505687   -2.961025
  H      2.812024   -0.331416   -0.649692

 Total Charge           Charge          ....    0
 Multiplicity           Mult            ....    1
 Number of Electrons    NEL             ....   68
 Basis Dimension        Dim             ....  333

ORBITAL ENERGIES
----------------

  NO   OCC          E(Eh)            E(eV)
   0   2.0000     -20.598205      -560.5057
   1   2.0000     -20.578446      -559.9680
   2   2.0000     -15.571056      -423.7100
   3   2.0000     -11.367420      -309.3232
   4   2.0000     -11.328750      -308.2710
   5   2.0000     -11.311510      -307.8018
   6   2.0000     -11.272222      -306.7328
   7   2.0000     -11.260608      -306.4167
   8   2.0000     -11.249527      -306.1152
   9   2.0000      -1.445042       -39.3216
  10   2.0000      -1.388885       -37.7935
  11   2.0000      -1.222929       -33.2776
  12   2.0000      -1.137950       -30.9652
  13   2.0000      -0.998261       -27.1641
  14   2.0000      -0.974551       -26.5189
  15   2.0000      -0.898634       -24.4531
  16   2.0000      -0.812133       -22.0993
  17   2.0000      -0.753205       -20.4957
  18   2.0000      -0.718022       -19.5384
  19   2.0000      -0.704321       -19.1655
  20   2.0000      -0.654982       -17.8230
  21   2.0000      -0.650141       -17.6912
  22   2.0000      -0.599216       -16.3055
  23   2.0000      -0.585839       -15.9415
  24   2.0000      -0.575497       -15.6601
  25   2.0000      -0.570817       -15.5327
  26   2.0000      -0.560647       -15.2560
  27   2.0000      -0.548331       -14.9209
  28   2.0000      -0.543562       -14.7911
  29   2.0000      -0.531342       -14.4585
  30   2.0000      -0.485077       -13.1996
  31   2.0000      -0.463048       -12.6002
  32   2.0000      -0.458151       -12.4669
  33   2.0000      -0.446876       -12.1601
  34   0.0000       0.091092         2.4787
  35   0.0000       0.119679         3.2566
  36   0.0000       0.146025         3.9735
  37   0.0000       0.149888         4.0786
  38   0.0000       0.165223         4.4959

MULLIKEN ATOMIC CHARGES
-----------------------
   0 C :   -0.460621
   1 C :    0.242961
   2 C :   -0.435703
   3 C :   -0.223106
   4 N :   -0.044092
   5 C :    0.060355
   6 O :   -0.467935
   7 C :    0.090282
   8 O :   -0.279969
   9 H :    0.141864
  10 H :    0.172471
  11 H :    0.155463
  12 H :    0.162118
  13 H :    0.154599
  14 H :    0.142121
  15 H :    0.131177
  16 H :    0.337028
  17 H :    0.120986
Sum of atomic charges:    0.0000000

LOEWDIN ATOMIC CHARGES
----------------------
   0 C :   -0.241960
   1 C :   -0.292773
   2 C :   -0.244350
   3 C :   -0.150065
   4 N :    0.072062
   5 C :   -0.321065
   6 O :    0.025118
   7 C :   -0.264172
   8 O :    0.139675
   9 H :    0.130204
  10 H :    0.139291
  11 H :    0.135670
  12 H :    0.139030
  13 H :    0.134324
  14 H :    0.127156
  15 H :    0.162303
  16 H :    0.186116
  17 H :    0.123436

  Mayer bond orders larger than 0.1
B(  0-C ,  1-C ) :   0.8748 B(  0-C ,  9-H ) :   0.9222 B(  0-C , 10-H ) :   0.9322
B(  0-C , 11-H ) :   0.9290 B(  1-C ,  2-C ) :   0.8955 B(  1-C ,  3-C ) :   0.8874
B(  1-C ,  5-C ) :   0.8099 B(  2-C , 12-H ) :   0.9284 B(  2-C , 13-H ) :   0.9290
B(  2-C , 14-H ) :   0.9286 B(  3-C ,  4-N ) :   2.8860 B(  5-C ,  6-O ) :   1.0952
B(  5-C ,  7-C ) :   0.8518 B(  5-C , 15-H ) :   0.9281 B(  6-O , 16-H ) :   0.8000
B(  7-C ,  8-O ) :   1.9183 B(  7-C , 17-H ) :   0.9374

MP2 TOTAL ENERGY:     -438.392598502 Eh
FINAL SINGLE POINT ENERGY      -438.392598502016

DIPOLE MOMENT
-------------
                                X             Y             Z
Electronic contribution:     -2.22253      -1.93207      -5.33806
Nuclear contribution   :      3.84027       2.16229       6.10261
                        -----------------------------------------
Total Dipole Moment    :      1.61775       0.23022       0.76455
                        -----------------------------------------
Magnitude (a.u.)       :      1.80406
Magnitude (Debye)      :      4.58556

                             ****ORCA TERMINATED NORMALLY****
TOTAL RUN TIME: 0 days 0 hours 19 minutes 13 seconds 598 msec
