                         Program Version 3.0.3 - RELEASE   -
|  1> ! RI-MP2 RIJK def2-TZVP def2-TZVP/C def2-TZVP/JK TIGHTSCF
|  2> % maxcore 2000
|  3> % mp2 density relaxed end
|  4> *xyz 0 1
|  5>  O        0.0344377291     1.4110321892    -0.0160830434
|  6>  C       -0.0001112967    -0.0050603256    -0.0364575302
|  7>  C       -1.4290189357    -0.4785322682     0.0019018551
|  8>  C       -2.4789297538     0.3555566356     0.0501552854
|  9>  C       -3.9110630554    -0.0976801367     0.0569711520
| 10>  C       -4.0678904773    -1.5272847386    -0.4751078474
| 11>  C       -3.0392906643    -2.4611797875     0.1711122827
| 12>  C       -1.6139071135    -1.9496113423     0.0079191210
| 13>  O       -0.6628819307    -2.7060638823    -0.0712594052
| 14>  H        0.9550018997     1.6845370403    -0.0440509265
| 15>  H        0.4824233720    -0.4128375318    -0.9380808401
| 16>  H        0.5416872809    -0.4388201003     0.8185217748
| 17>  H       -2.2863506518     1.4237674846     0.0888761277
| 18>  H       -4.3000515638    -0.0310336029     1.0856242048
| 19>  H       -4.5198193036     0.6018343105    -0.5279564546
| 20>  H       -5.0841505680    -1.8946152624    -0.2998995066
| 21>  H       -3.9150146641    -1.5206369005    -1.5614686780
| 22>  H       -3.2321119578    -2.5340274088     1.2519363913
| 23>  H       -3.0835454654    -3.4779442022    -0.2275947927
| 24> *
| 25>
| 26>                          ****END OF INPUT****

CARTESIAN COORDINATES (ANGSTROEM)
---------------------------------
  O      0.034438    1.411032   -0.016083
  C     -0.000111   -0.005060   -0.036458
  C     -1.429019   -0.478532    0.001902
  C     -2.478930    0.355557    0.050155
  C     -3.911063   -0.097680    0.056971
  C     -4.067890   -1.527285   -0.475108
  C     -3.039291   -2.461180    0.171112
  C     -1.613907   -1.949611    0.007919
  O     -0.662882   -2.706064   -0.071259
  H      0.955002    1.684537   -0.044051
  H      0.482423   -0.412838   -0.938081
  H      0.541687   -0.438820    0.818522
  H     -2.286351    1.423767    0.088876
  H     -4.300052   -0.031034    1.085624
  H     -4.519819    0.601834   -0.527956
  H     -5.084151   -1.894615   -0.299900
  H     -3.915015   -1.520637   -1.561469
  H     -3.232112   -2.534027    1.251936
  H     -3.083545   -3.477944   -0.227595

 Total Charge           Charge          ....    0
 Multiplicity           Mult            ....    1
 Number of Electrons    NEL             ....   68
 Basis Dimension        Dim             ....  339

ORBITAL ENERGIES
----------------

  NO   OCC          E(Eh)            E(eV)
   0   2.0000     -20.560870      -559.4897
   1   2.0000     -20.536183      -558.8180
   2   2.0000     -11.324441      -308.1537
   3   2.0000     -11.279942      -306.9428
   4   2.0000     -11.251254      -306.1622
   5   2.0000     -11.241627      -305.9002
   6   2.0000     -11.237659      -305.7923
   7   2.0000     -11.235335      -305.7290
   8   2.0000     -11.234968      -305.7190
   9   2.0000      -1.379010       -37.5248
  10   2.0000      -1.366304       -37.1790
  11   2.0000      -1.132622       -30.8202
  12   2.0000      -1.046723       -28.4828
  13   2.0000      -0.993664       -27.0390
  14   2.0000      -0.919007       -25.0074
  15   2.0000      -0.828616       -22.5478
  16   2.0000      -0.821514       -22.3545
  17   2.0000      -0.702454       -19.1148
  18   2.0000      -0.687952       -18.7201
  19   2.0000      -0.667129       -18.1535
  20   2.0000      -0.638048       -17.3622
  21   2.0000      -0.625214       -17.0129
  22   2.0000      -0.622540       -16.9402
  23   2.0000      -0.588487       -16.0135
  24   2.0000      -0.579331       -15.7644
  25   2.0000      -0.573179       -15.5970
  26   2.0000      -0.533318       -14.5123
  27   2.0000      -0.521184       -14.1821
  28   2.0000      -0.497461       -13.5366
  29   2.0000      -0.482841       -13.1388
  30   2.0000      -0.479671       -13.0525
  31   2.0000      -0.454559       -12.3692
  32   2.0000      -0.402524       -10.9532
  33   2.0000      -0.360215        -9.8020
  34   0.0000       0.098536         2.6813
  35   0.0000       0.127808         3.4778
  36   0.0000       0.138906         3.7798
  37   0.0000       0.164810         4.4847
  38   0.0000       0.170022         4.6265

MULLIKEN ATOMIC CHARGES
-----------------------
   0 O :   -0.471269
   1 C :   -0.052209
   2 C :   -0.059287
   3 C :   -0.151274
   4 C :   -0.176084
   5 C :   -0.236886
   6 C :   -0.199291
   7 C :    0.151556
   8 O :   -0.304309
   9 H :    0.319297
  10 H :    0.118009
  11 H :    0.116830
  12 H :    0.163028
  13 H :    0.126033
  14 H :    0.134517
  15 H :    0.129152
  16 H :    0.123253
  17 H :    0.126076
  18 H :    0.142858
Sum of atomic charges:   -0.0000000

LOEWDIN ATOMIC CHARGES
----------------------
   0 O :   -0.041521
   1 C :   -0.302789
   2 C :   -0.156122
   3 C :   -0.091450
   4 C :   -0.250705
   5 C :   -0.253643
   6 C :   -0.222064
   7 C :   -0.293556
   8 O :    0.139465
   9 H :    0.175515
  10 H :    0.131342
  11 H :    0.130546
  12 H :    0.154509
  13 H :    0.150541
  14 H :    0.145928
  15 H :    0.137395
  16 H :    0.143204
  17 H :    0.155300
  18 H :    0.148104

  Mayer bond orders larger than 0.1
B(  0-O ,  1-C ) :   1.0122 B(  0-O ,  2-C ) :  -0.1011 B(  0-O ,  9-H ) :   0.8470
B(  1-C ,  2-C ) :   0.9333 B(  1-C , 10-H ) :   0.9254 B(  1-C , 11-H ) :   0.9246
B(  2-C ,  3-C ) :   1.6765 B(  2-C ,  7-C ) :   0.9398 B(  3-C ,  4-C ) :   0.9227
B(  3-C , 12-H ) :   0.9105 B(  4-C ,  5-C ) :   0.9300 B(  4-C , 13-H ) :   0.9045
B(  4-C , 14-H ) :   0.9315 B(  5-C ,  6-C ) :   0.8958 B(  5-C , 15-H ) :   0.9341
B(  5-C , 16-H ) :   0.9325 B(  6-C ,  7-C ) :   0.9532 B(  6-C , 17-H ) :   0.9055
B(  6-C , 18-H ) :   0.9271 B(  7-C ,  8-O ) :   1.9838

MP2 TOTAL ENERGY:     -422.353091097 Eh
FINAL SINGLE POINT ENERGY      -422.353091097115

DIPOLE MOMENT
-------------
                                X             Y             Z
Electronic contribution:      5.05148      -0.77367       0.06495
Nuclear contribution   :     -5.53142       1.35406      -0.00235
                        -----------------------------------------
Total Dipole Moment    :     -0.47994       0.58039       0.06260
                        -----------------------------------------
Magnitude (a.u.)       :      0.75572
Magnitude (Debye)      :      1.92089

                             ****ORCA TERMINATED NORMALLY****
TOTAL RUN TIME: 0 days 0 hours 17 minutes 21 seconds 786 msec
