                         Program Version 3.0.3 - RELEASE   -
|  1> ! RI-MP2 RIJK def2-TZVP def2-TZVP/C def2-TZVP/JK TIGHTSCF
|  2> % maxcore 2000
|  3> % mp2 density relaxed end
|  4> *xyz 0 1
|  5>  C        0.1476282691     1.2853805585     0.2646535523
|  6>  O       -0.1247768785     0.0993287863    -0.4682152068
|  7>  C       -1.1891758598    -0.6174966955    -0.0374172840
|  8>  N       -1.5051262728    -1.6809406403    -0.6246930442
|  9>  C       -2.6490470450    -2.4931404333    -0.1970551781
| 10>  C       -3.5887148987    -2.5894234551    -1.4143224792
| 11>  C       -2.0877405570    -3.8901854247     0.1302562196
| 12>  C       -3.4318882611    -1.9565259449     1.0155352960
| 13>  H        1.0218904401     1.7417748623    -0.2013830218
| 14>  H       -0.6907617764     1.9919294031     0.2183042394
| 15>  H        0.3762706433     1.0686478921     1.3158475952
| 16>  H       -1.6968174899    -0.1736163636     0.8286957757
| 17>  H       -3.0408134322    -2.9577559380    -2.2853706327
| 18>  H       -4.4229697843    -3.2684187510    -1.2092442169
| 19>  H       -3.9988901186    -1.6057907722    -1.6644410401
| 20>  H       -1.4157307216    -3.8440487830     0.9931606513
| 21>  H       -2.8972117770    -4.5905261522     0.3612448796
| 22>  H       -1.5193648512    -4.2767432128    -0.7195125318
| 23>  H       -3.8606662357    -0.9680706349     0.8179304388
| 24>  H       -4.2599289158    -2.6317886407     1.2508634797
| 25>  H       -2.8012840568    -1.8870451201     1.9085254482
| 26> *
| 27>
| 28>                          ****END OF INPUT****

CARTESIAN COORDINATES (ANGSTROEM)
---------------------------------
  C      0.147628    1.285381    0.264654
  O     -0.124777    0.099329   -0.468215
  C     -1.189176   -0.617497   -0.037417
  N     -1.505126   -1.680941   -0.624693
  C     -2.649047   -2.493140   -0.197055
  C     -3.588715   -2.589423   -1.414322
  C     -2.087741   -3.890185    0.130256
  C     -3.431888   -1.956526    1.015535
  H      1.021890    1.741775   -0.201383
  H     -0.690762    1.991929    0.218304
  H      0.376271    1.068648    1.315848
  H     -1.696817   -0.173616    0.828696
  H     -3.040813   -2.957756   -2.285371
  H     -4.422970   -3.268419   -1.209244
  H     -3.998890   -1.605791   -1.664441
  H     -1.415731   -3.844049    0.993161
  H     -2.897212   -4.590526    0.361245
  H     -1.519365   -4.276743   -0.719513
  H     -3.860666   -0.968071    0.817930
  H     -4.259929   -2.631789    1.250863
  H     -2.801284   -1.887045    1.908525

 Total Charge           Charge          ....    0
 Multiplicity           Mult            ....    1
 Number of Electrons    NEL             ....   64
 Basis Dimension        Dim             ....  326

ORBITAL ENERGIES
----------------

  NO   OCC          E(Eh)            E(eV)
   0   2.0000     -20.584387      -560.1296
   1   2.0000     -15.534499      -422.7152
   2   2.0000     -11.323734      -308.1345
   3   2.0000     -11.289764      -307.2101
   4   2.0000     -11.263431      -306.4935
   5   2.0000     -11.216000      -305.2029
   6   2.0000     -11.205286      -304.9113
   7   2.0000     -11.205270      -304.9109
   8   2.0000      -1.417898       -38.5830
   9   2.0000      -1.219769       -33.1916
  10   2.0000      -1.061866       -28.8948
  11   2.0000      -0.954967       -25.9860
  12   2.0000      -0.936112       -25.4729
  13   2.0000      -0.925434       -25.1823
  14   2.0000      -0.829554       -22.5733
  15   2.0000      -0.760270       -20.6880
  16   2.0000      -0.692131       -18.8338
  17   2.0000      -0.658135       -17.9088
  18   2.0000      -0.653561       -17.7843
  19   2.0000      -0.602641       -16.3987
  20   2.0000      -0.602386       -16.3918
  21   2.0000      -0.592266       -16.1164
  22   2.0000      -0.544907       -14.8277
  23   2.0000      -0.544742       -14.8232
  24   2.0000      -0.516778       -14.0622
  25   2.0000      -0.515259       -14.0209
  26   2.0000      -0.510498       -13.8914
  27   2.0000      -0.509962       -13.8768
  28   2.0000      -0.472333       -12.8528
  29   2.0000      -0.470738       -12.8094
  30   2.0000      -0.397951       -10.8288
  31   2.0000      -0.375480       -10.2173
  32   0.0000       0.128478         3.4961
  33   0.0000       0.149298         4.0626
  34   0.0000       0.152300         4.1443
  35   0.0000       0.180383         4.9085
  36   0.0000       0.193806         5.2737

MULLIKEN ATOMIC CHARGES
-----------------------
   0 C :   -0.244639
   1 O :   -0.232958
   2 C :    0.052794
   3 N :   -0.200431
   4 C :    0.179292
   5 C :   -0.378670
   6 C :   -0.378592
   7 C :   -0.442936
   8 H :    0.150388
   9 H :    0.130003
  10 H :    0.130019
  11 H :    0.070117
  12 H :    0.139347
  13 H :    0.118002
  14 H :    0.121562
  15 H :    0.121575
  16 H :    0.117984
  17 H :    0.139332
  18 H :    0.134320
  19 H :    0.139115
  20 H :    0.134378
Sum of atomic charges:   -0.0000000

LOEWDIN ATOMIC CHARGES
----------------------
   0 C :   -0.340546
   1 O :    0.210901
   2 C :   -0.360525
   3 N :    0.137275
   4 C :   -0.392595
   5 C :   -0.270287
   6 C :   -0.270289
   7 C :   -0.287596
   8 H :    0.118554
   9 H :    0.106477
  10 H :    0.106479
  11 H :    0.115106
  12 H :    0.128782
  13 H :    0.123083
  14 H :    0.123480
  15 H :    0.123484
  16 H :    0.123081
  17 H :    0.128781
  18 H :    0.123109
  19 H :    0.130123
  20 H :    0.123123

  Mayer bond orders larger than 0.1
B(  0-C ,  1-O ) :   0.8781 B(  0-C ,  8-H ) :   0.9392 B(  0-C ,  9-H ) :   0.9359
B(  0-C , 10-H ) :   0.9359 B(  1-O ,  2-C ) :   1.0685 B(  2-C ,  3-N ) :   1.8932
B(  2-C , 11-H ) :   0.9317 B(  3-N ,  4-C ) :   0.8575 B(  4-C ,  5-C ) :   0.9120
B(  4-C ,  6-C ) :   0.9120 B(  4-C ,  7-C ) :   0.8878 B(  5-C , 12-H ) :   0.9352
B(  5-C , 13-H ) :   0.9321 B(  5-C , 14-H ) :   0.9322 B(  6-C , 15-H ) :   0.9322
B(  6-C , 16-H ) :   0.9321 B(  6-C , 17-H ) :   0.9352 B(  7-C , 18-H ) :   0.9373
B(  7-C , 19-H ) :   0.9299 B(  7-C , 20-H ) :   0.9374

MP2 TOTAL ENERGY:     -365.639995187 Eh
FINAL SINGLE POINT ENERGY      -365.639995186880

DIPOLE MOMENT
-------------
                                X             Y             Z
Electronic contribution:      5.21792       3.06871      -2.48542
Nuclear contribution   :     -5.53443      -2.39617       3.35813
                        -----------------------------------------
Total Dipole Moment    :     -0.31651       0.67254       0.87271
                        -----------------------------------------
Magnitude (a.u.)       :      1.14634
Magnitude (Debye)      :      2.91377

                             ****ORCA TERMINATED NORMALLY****
TOTAL RUN TIME: 0 days 0 hours 13 minutes 32 seconds 849 msec
