                         Program Version 3.0.3 - RELEASE   -
|  1> ! RI-MP2 RIJK def2-TZVP def2-TZVP/C def2-TZVP/JK TIGHTSCF
|  2> % maxcore 2000
|  3> % mp2 density relaxed end
|  4> *xyz 0 1
|  5>  O       -0.0038665522     1.3695299690     0.2341619363
|  6>  C       -0.0206147018    -0.0175512748     0.0295060142
|  7>  C       -1.4756842037    -0.5355433737    -0.0028902060
|  8>  C       -1.5520836419    -2.0533803958    -0.2492114088
|  9>  O       -0.3160276668    -2.6704968605     0.1281513082
| 10>  C        0.5939759802    -2.7959998885    -0.9014661518
| 11>  O        0.8516327322    -1.6113253396    -1.6864419106
| 12>  C        0.7216019038    -0.3377268116    -1.2724086240
| 13>  O        1.1445845616     0.5518122861    -1.9689235416
| 14>  H        0.4183251815     1.7409103348    -0.5567687131
| 15>  H        0.5050521241    -0.5178178545     0.8526242014
| 16>  H       -1.9222887841    -0.2724172654     0.9597420681
| 17>  H       -2.0293208298     0.0115248298    -0.7724508529
| 18>  H       -2.3273050242    -2.5190767743     0.3637023813
| 19>  H       -1.7717697525    -2.2795274700    -1.3002418338
| 20>  H        1.5370481958    -3.1214163334    -0.4523938303
| 21>  H        0.2618701878    -3.5172358976    -1.6605224666
| 22> *
| 23>
| 24>                          ****END OF INPUT****

CARTESIAN COORDINATES (ANGSTROEM)
---------------------------------
  O     -0.003867    1.369530    0.234162
  C     -0.020615   -0.017551    0.029506
  C     -1.475684   -0.535543   -0.002890
  C     -1.552084   -2.053380   -0.249211
  O     -0.316028   -2.670497    0.128151
  C      0.593976   -2.796000   -0.901466
  O      0.851633   -1.611325   -1.686442
  C      0.721602   -0.337727   -1.272409
  O      1.144585    0.551812   -1.968924
  H      0.418325    1.740910   -0.556769
  H      0.505052   -0.517818    0.852624
  H     -1.922289   -0.272417    0.959742
  H     -2.029321    0.011525   -0.772451
  H     -2.327305   -2.519077    0.363702
  H     -1.771770   -2.279527   -1.300242
  H      1.537048   -3.121416   -0.452394
  H      0.261870   -3.517236   -1.660522

 Total Charge           Charge          ....    0
 Multiplicity           Mult            ....    1
 Number of Electrons    NEL             ....   70
 Basis Dimension        Dim             ....  327

ORBITAL ENERGIES
----------------

  NO   OCC          E(Eh)            E(eV)
   0   2.0000     -20.617390      -561.0277
   1   2.0000     -20.595935      -560.4439
   2   2.0000     -20.559041      -559.4399
   3   2.0000     -20.556285      -559.3649
   4   2.0000     -11.395231      -310.0800
   5   2.0000     -11.369368      -309.3762
   6   2.0000     -11.309874      -307.7573
   7   2.0000     -11.306269      -307.6592
   8   2.0000     -11.248179      -306.0785
   9   2.0000      -1.483835       -40.3772
  10   2.0000      -1.424292       -38.7569
  11   2.0000      -1.383014       -37.6337
  12   2.0000      -1.356529       -36.9130
  13   2.0000      -1.084030       -29.4979
  14   2.0000      -0.981085       -26.6967
  15   2.0000      -0.961970       -26.1765
  16   2.0000      -0.847847       -23.0711
  17   2.0000      -0.796636       -21.6776
  18   2.0000      -0.752790       -20.4845
  19   2.0000      -0.734748       -19.9935
  20   2.0000      -0.711424       -19.3588
  21   2.0000      -0.663543       -18.0559
  22   2.0000      -0.660047       -17.9608
  23   2.0000      -0.636819       -17.3287
  24   2.0000      -0.623545       -16.9675
  25   2.0000      -0.621882       -16.9223
  26   2.0000      -0.577435       -15.7128
  27   2.0000      -0.572226       -15.5711
  28   2.0000      -0.540989       -14.7211
  29   2.0000      -0.521513       -14.1911
  30   2.0000      -0.505878       -13.7656
  31   2.0000      -0.484673       -13.1886
  32   2.0000      -0.469092       -12.7646
  33   2.0000      -0.456094       -12.4110
  34   2.0000      -0.440513       -11.9870
  35   0.0000       0.132776         3.6130
  36   0.0000       0.140137         3.8133
  37   0.0000       0.156531         4.2594
  38   0.0000       0.171821         4.6755
  39   0.0000       0.177189         4.8216

MULLIKEN ATOMIC CHARGES
-----------------------
   0 O :   -0.473326
   1 C :    0.031402
   2 C :   -0.183913
   3 C :   -0.106720
   4 O :   -0.308135
   5 C :    0.081327
   6 O :   -0.224817
   7 C :    0.255550
   8 O :   -0.319865
   9 H :    0.340320
  10 H :    0.125820
  11 H :    0.137801
  12 H :    0.120063
  13 H :    0.135952
  14 H :    0.128196
  15 H :    0.134604
  16 H :    0.125740
Sum of atomic charges:    0.0000000

LOEWDIN ATOMIC CHARGES
----------------------
   0 O :   -0.002106
   1 C :   -0.336016
   2 C :   -0.240945
   3 C :   -0.288338
   4 O :    0.172311
   5 C :   -0.368221
   6 O :    0.257300
   7 C :   -0.459225
   8 O :    0.126782
   9 H :    0.184817
  10 H :    0.154552
  11 H :    0.146131
  12 H :    0.145629
  13 H :    0.131760
  14 H :    0.128668
  15 H :    0.126409
  16 H :    0.120493

  Mayer bond orders larger than 0.1
B(  0-O ,  1-C ) :   1.0904 B(  0-O ,  9-H ) :   0.7981 B(  1-C ,  2-C ) :   0.8681
B(  1-C ,  7-C ) :   0.9430 B(  1-C , 10-H ) :   0.9164 B(  2-C ,  3-C ) :   0.9048
B(  2-C , 11-H ) :   0.9223 B(  2-C , 12-H ) :   0.9171 B(  3-C ,  4-O ) :   0.8713
B(  3-C , 13-H ) :   0.9298 B(  3-C , 14-H ) :   0.9386 B(  4-O ,  5-C ) :   1.0001
B(  5-C ,  6-O ) :   0.8404 B(  5-C , 15-H ) :   0.9301 B(  5-C , 16-H ) :   0.9354
B(  6-O ,  7-C ) :   1.1345 B(  7-C ,  8-O ) :   1.9137

MP2 TOTAL ENERGY:     -495.361751288 Eh
FINAL SINGLE POINT ENERGY      -495.361751287543

DIPOLE MOMENT
-------------
                                X             Y             Z
Electronic contribution:      4.36126       1.94482      -2.15982
Nuclear contribution   :     -5.01058      -3.14779       2.35650
                        -----------------------------------------
Total Dipole Moment    :     -0.64932      -1.20298       0.19668
                        -----------------------------------------
Magnitude (a.u.)       :      1.38111
Magnitude (Debye)      :      3.51050

                             ****ORCA TERMINATED NORMALLY****
TOTAL RUN TIME: 0 days 0 hours 15 minutes 12 seconds 935 msec
