                         Program Version 3.0.3 - RELEASE   -
|  1> ! RI-MP2 RIJK def2-TZVP def2-TZVP/C def2-TZVP/JK TIGHTSCF
|  2> % maxcore 2000
|  3> % mp2 density relaxed end
|  4> *xyz 0 1
|  5>  C        0.7661388972     1.4009314607    -0.2547648634
|  6>  C        0.0448813503     0.0670651869    -0.0318758036
|  7>  C        0.2758549305    -0.9709862168    -1.1610175676
|  8>  C        1.4402832443    -1.8617333234    -0.6594647575
|  9>  C        2.7517724414    -1.4566330552    -1.1474874417
| 10>  C        3.8267596375    -1.1076995878    -1.5573747462
| 11>  C        1.3683189701    -1.7101128742     0.8883689903
| 12>  O        1.9340296217    -2.3930007827     1.7080509057
| 13>  N        0.5394196693    -0.6538416746     1.1338891815
| 14>  H        1.8329410598     1.2399446162    -0.4344854045
| 15>  H        0.3423657578     1.9231625554    -1.1188326327
| 16>  H        0.6577498661     2.0534012436     0.6180133190
| 17>  H       -1.0281093858     0.2583082698     0.0860040653
| 18>  H       -0.6190386209    -1.5874164576    -1.2793994051
| 19>  H        0.4919939557    -0.4950886408    -2.1181456972
| 20>  H        1.2778609763    -2.9162753493    -0.9013099505
| 21>  H        4.7835562721    -0.8146281704    -1.9127331587
| 22>  H        0.4424888564    -0.3069559801     2.0758136569
| 23> *
| 24>
| 25>                          ****END OF INPUT****

CARTESIAN COORDINATES (ANGSTROEM)
---------------------------------
  C      0.766139    1.400931   -0.254765
  C      0.044881    0.067065   -0.031876
  C      0.275855   -0.970986   -1.161018
  C      1.440283   -1.861733   -0.659465
  C      2.751772   -1.456633   -1.147487
  C      3.826760   -1.107700   -1.557375
  C      1.368319   -1.710113    0.888369
  O      1.934030   -2.393001    1.708051
  N      0.539420   -0.653842    1.133889
  H      1.832941    1.239945   -0.434485
  H      0.342366    1.923163   -1.118833
  H      0.657750    2.053401    0.618013
  H     -1.028109    0.258308    0.086004
  H     -0.619039   -1.587416   -1.279399
  H      0.491994   -0.495089   -2.118146
  H      1.277861   -2.916275   -0.901310
  H      4.783556   -0.814628   -1.912733
  H      0.442489   -0.306956    2.075814

 Total Charge           Charge          ....    0
 Multiplicity           Mult            ....    1
 Number of Electrons    NEL             ....   66
 Basis Dimension        Dim             ....  333

ORBITAL ENERGIES
----------------

  NO   OCC          E(Eh)            E(eV)
   0   2.0000     -20.519773      -558.3714
   1   2.0000     -15.585699      -424.1084
   2   2.0000     -11.353058      -308.9324
   3   2.0000     -11.287644      -307.1524
   4   2.0000     -11.274794      -306.8027
   5   2.0000     -11.250760      -306.1487
   6   2.0000     -11.241906      -305.9078
   7   2.0000     -11.229075      -305.5587
   8   2.0000     -11.228578      -305.5451
   9   2.0000      -1.385982       -37.7145
  10   2.0000      -1.258014       -34.2323
  11   2.0000      -1.098342       -29.8874
  12   2.0000      -1.042244       -28.3609
  13   2.0000      -1.002886       -27.2899
  14   2.0000      -0.918906       -25.0047
  15   2.0000      -0.829920       -22.5833
  16   2.0000      -0.809035       -22.0150
  17   2.0000      -0.729344       -19.8465
  18   2.0000      -0.696637       -18.9564
  19   2.0000      -0.677591       -18.4382
  20   2.0000      -0.644508       -17.5380
  21   2.0000      -0.604118       -16.4389
  22   2.0000      -0.598423       -16.2839
  23   2.0000      -0.582886       -15.8611
  24   2.0000      -0.569561       -15.4985
  25   2.0000      -0.560397       -15.2492
  26   2.0000      -0.540177       -14.6990
  27   2.0000      -0.503973       -13.7138
  28   2.0000      -0.494150       -13.4465
  29   2.0000      -0.434992       -11.8367
  30   2.0000      -0.399345       -10.8667
  31   2.0000      -0.390717       -10.6319
  32   2.0000      -0.381149       -10.3716
  33   0.0000       0.120494         3.2788
  34   0.0000       0.144297         3.9265
  35   0.0000       0.156495         4.2584
  36   0.0000       0.162885         4.4323
  37   0.0000       0.168616         4.5883

MULLIKEN ATOMIC CHARGES
-----------------------
   0 C :   -0.427521
   1 C :    0.058247
   2 C :   -0.239861
   3 C :   -0.056104
   4 C :   -0.125794
   5 C :   -0.151626
   6 C :    0.208346
   7 O :   -0.324104
   8 N :   -0.308420
   9 H :    0.154727
  10 H :    0.128192
  11 H :    0.127122
  12 H :    0.110370
  13 H :    0.135426
  14 H :    0.142783
  15 H :    0.137893
  16 H :    0.191426
  17 H :    0.238896
Sum of atomic charges:    0.0000000

LOEWDIN ATOMIC CHARGES
----------------------
   0 C :   -0.292954
   1 C :   -0.291315
   2 C :   -0.183215
   3 C :   -0.193657
   4 C :   -0.085150
   5 C :   -0.093066
   6 C :   -0.417622
   7 O :    0.100551
   8 N :    0.149226
   9 H :    0.131827
  10 H :    0.126483
  11 H :    0.122700
  12 H :    0.144339
  13 H :    0.143598
  14 H :    0.146270
  15 H :    0.177908
  16 H :    0.127630
  17 H :    0.186447

  Mayer bond orders larger than 0.1
B(  0-C ,  1-C ) :   0.9153 B(  0-C ,  9-H ) :   0.9302 B(  0-C , 10-H ) :   0.9327
B(  0-C , 11-H ) :   0.9364 B(  1-C ,  2-C ) :   0.9130 B(  1-C ,  8-N ) :   0.8593
B(  1-C , 12-H ) :   0.9353 B(  2-C ,  3-C ) :   0.8635 B(  2-C , 13-H ) :   0.9227
B(  2-C , 14-H ) :   0.9318 B(  3-C ,  4-C ) :   1.1748 B(  3-C ,  6-C ) :   0.8273
B(  3-C , 15-H ) :   0.9044 B(  4-C ,  5-C ) :   2.5657 B(  5-C , 16-H ) :   0.8950
B(  6-C ,  7-O ) :   2.0248 B(  6-C ,  8-N ) :   1.1844 B(  8-N , 17-H ) :   0.8635

MP2 TOTAL ENERGY:     -401.268437954 Eh
FINAL SINGLE POINT ENERGY      -401.268437954304

DIPOLE MOMENT
-------------
                                X             Y             Z
Electronic contribution:      3.20714      -6.19946       3.31936
Nuclear contribution   :     -4.15094       7.31562      -4.03083
                        -----------------------------------------
Total Dipole Moment    :     -0.94380       1.11615      -0.71147
                        -----------------------------------------
Magnitude (a.u.)       :      1.62565
Magnitude (Debye)      :      4.13207

                             ****ORCA TERMINATED NORMALLY****
TOTAL RUN TIME: 0 days 0 hours 17 minutes 56 seconds 937 msec
