                         Program Version 3.0.3 - RELEASE   -
|  1> ! RI-MP2 RIJK def2-TZVP def2-TZVP/C def2-TZVP/JK TIGHTSCF
|  2> % maxcore 2000
|  3> % mp2 density relaxed end
|  4> *xyz 0 1
|  5>  C        0.1638531646     1.5870202818     0.1296770054
|  6>  C        0.1151413799     0.0720193059     0.0583110864
|  7>  C       -1.2238507711    -0.4531865588    -0.4361952307
|  8>  C        1.3182882161    -0.7577067195    -0.3483357087
|  9>  C        2.7152104643    -0.1496606006    -0.3515730266
| 10>  C        3.0609430489     0.2494193459     1.1067758824
| 11>  O        3.2698665721     1.6619644551     1.1456284052
| 12>  C        1.8778623217    -0.2325516864     2.0011492844
| 13>  C        0.8082180844    -0.8079454801     1.0815416327
| 14>  H        1.1231536043     1.9716811190     0.4776241941
| 15>  H       -0.0318267956     2.0198938923    -0.8591522841
| 16>  H       -0.6165671321     1.9605331495     0.8045586656
| 17>  H       -1.4462176486    -0.0770067841    -1.4419928370
| 18>  H       -1.2394068443    -1.5469751048    -0.4792722304
| 19>  H       -2.0397072675    -0.1339744755     0.2235251098
| 20>  H        1.1377890921    -1.5853061111    -1.0275624960
| 21>  H        3.4323281978    -0.8876686242    -0.7239801310
| 22>  H        2.8076358625     0.7341959919    -0.9908103110
| 23>  H        3.9893254279    -0.2462979084     1.4231712797
| 24>  H        3.4600107515     1.9072065102     2.0567459493
| 25>  H        2.2173271820    -1.0107918713     2.6931871767
| 26>  H        1.5133674913     0.6001097503     2.6151987089
| 27>  H        0.2573362477    -1.6711376870     1.4427632849
| 28> *
| 29>
| 30>                          ****END OF INPUT****

CARTESIAN COORDINATES (ANGSTROEM)
---------------------------------
  C      0.163853    1.587020    0.129677
  C      0.115141    0.072019    0.058311
  C     -1.223851   -0.453187   -0.436195
  C      1.318288   -0.757707   -0.348336
  C      2.715210   -0.149661   -0.351573
  C      3.060943    0.249419    1.106776
  O      3.269867    1.661964    1.145628
  C      1.877862   -0.232552    2.001149
  C      0.808218   -0.807945    1.081542
  H      1.123154    1.971681    0.477624
  H     -0.031827    2.019894   -0.859152
  H     -0.616567    1.960533    0.804559
  H     -1.446218   -0.077007   -1.441993
  H     -1.239407   -1.546975   -0.479272
  H     -2.039707   -0.133974    0.223525
  H      1.137789   -1.585306   -1.027562
  H      3.432328   -0.887669   -0.723980
  H      2.807636    0.734196   -0.990810
  H      3.989325   -0.246298    1.423171
  H      3.460011    1.907207    2.056746
  H      2.217327   -1.010792    2.693187
  H      1.513367    0.600110    2.615199
  H      0.257336   -1.671138    1.442763

 Total Charge           Charge          ....    0
 Multiplicity           Mult            ....    1
 Number of Electrons    NEL             ....   70
 Basis Dimension        Dim             ....  363

ORBITAL ENERGIES
----------------

  NO   OCC          E(Eh)            E(eV)
   0   2.0000     -20.552165      -559.2528
   1   2.0000     -11.277743      -306.8830
   2   2.0000     -11.229068      -305.5585
   3   2.0000     -11.221139      -305.3427
   4   2.0000     -11.218976      -305.2839
   5   2.0000     -11.217726      -305.2498
   6   2.0000     -11.215359      -305.1854
   7   2.0000     -11.209965      -305.0387
   8   2.0000     -11.200390      -304.7781
   9   2.0000      -1.357767       -36.9467
  10   2.0000      -1.168350       -31.7924
  11   2.0000      -1.037369       -28.2282
  12   2.0000      -0.964196       -26.2371
  13   2.0000      -0.952328       -25.9142
  14   2.0000      -0.924063       -25.1450
  15   2.0000      -0.802127       -21.8270
  16   2.0000      -0.761255       -20.7148
  17   2.0000      -0.712717       -19.3940
  18   2.0000      -0.692944       -18.8560
  19   2.0000      -0.666556       -18.1379
  20   2.0000      -0.610539       -16.6136
  21   2.0000      -0.596695       -16.2369
  22   2.0000      -0.576510       -15.6876
  23   2.0000      -0.572847       -15.5880
  24   2.0000      -0.549243       -14.9457
  25   2.0000      -0.537383       -14.6229
  26   2.0000      -0.522890       -14.2286
  27   2.0000      -0.520013       -14.1503
  28   2.0000      -0.511685       -13.9237
  29   2.0000      -0.486832       -13.2474
  30   2.0000      -0.466530       -12.6949
  31   2.0000      -0.455739       -12.4013
  32   2.0000      -0.430685       -11.7195
  33   2.0000      -0.378657       -10.3038
  34   2.0000      -0.374554       -10.1921
  35   0.0000       0.131664         3.5828
  36   0.0000       0.149597         4.0707
  37   0.0000       0.163736         4.4555
  38   0.0000       0.177576         4.8321
  39   0.0000       0.179744         4.8911

MULLIKEN ATOMIC CHARGES
-----------------------
   0 C :   -0.419610
   1 C :    0.108420
   2 C :   -0.427710
   3 C :   -0.161806
   4 C :   -0.221012
   5 C :    0.071646
   6 O :   -0.475735
   7 C :   -0.273743
   8 C :   -0.125094
   9 H :    0.170266
  10 H :    0.122807
  11 H :    0.120300
  12 H :    0.130202
  13 H :    0.126083
  14 H :    0.129008
  15 H :    0.118508
  16 H :    0.123740
  17 H :    0.127530
  18 H :    0.091706
  19 H :    0.312176
  20 H :    0.120435
  21 H :    0.113476
  22 H :    0.118406
Sum of atomic charges:    0.0000000

LOEWDIN ATOMIC CHARGES
----------------------
   0 C :   -0.267967
   1 C :   -0.257631
   2 C :   -0.266396
   3 C :   -0.168787
   4 C :   -0.211421
   5 C :   -0.314644
   6 O :   -0.033635
   7 C :   -0.224378
   8 C :   -0.171042
   9 H :    0.133140
  10 H :    0.127566
  11 H :    0.126177
  12 H :    0.125595
  13 H :    0.126068
  14 H :    0.125199
  15 H :    0.143588
  16 H :    0.140637
  17 H :    0.146881
  18 H :    0.129460
  19 H :    0.170499
  20 H :    0.139183
  21 H :    0.138649
  22 H :    0.143259

  Mayer bond orders larger than 0.1
B(  0-C ,  1-C ) :   0.9135 B(  0-C ,  9-H ) :   0.9217 B(  0-C , 10-H ) :   0.9354
B(  0-C , 11-H ) :   0.9352 B(  1-C ,  2-C ) :   0.8772 B(  1-C ,  3-C ) :   0.8676
B(  1-C ,  8-C ) :   0.8665 B(  2-C , 12-H ) :   0.9437 B(  2-C , 13-H ) :   0.9321
B(  2-C , 14-H ) :   0.9436 B(  3-C ,  4-C ) :   0.9555 B(  3-C ,  8-C ) :   0.8426
B(  3-C , 15-H ) :   0.9258 B(  4-C ,  5-C ) :   0.9272 B(  4-C , 16-H ) :   0.9229
B(  4-C , 17-H ) :   0.9231 B(  5-C ,  6-O ) :   0.9311 B(  5-C ,  7-C ) :   0.9470
B(  5-C , 18-H ) :   0.9372 B(  6-O , 19-H ) :   0.8459 B(  7-C ,  8-C ) :   0.9390
B(  7-C , 20-H ) :   0.9132 B(  7-C , 21-H ) :   0.9265 B(  8-C , 22-H ) :   0.9252

MP2 TOTAL ENERGY:     -387.623111179 Eh
FINAL SINGLE POINT ENERGY      -387.623111179188

DIPOLE MOMENT
-------------
                                X             Y             Z
Electronic contribution:      4.42353       0.09333       1.27146
Nuclear contribution   :     -4.32579      -0.43445      -0.77214
                        -----------------------------------------
Total Dipole Moment    :      0.09774      -0.34112       0.49933
                        -----------------------------------------
Magnitude (a.u.)       :      0.61258
Magnitude (Debye)      :      1.55704

                             ****ORCA TERMINATED NORMALLY****
TOTAL RUN TIME: 0 days 0 hours 21 minutes 20 seconds 229 msec
