                         Program Version 3.0.3 - RELEASE   -
|  1> ! RI-MP2 RIJK def2-TZVP def2-TZVP/C def2-TZVP/JK TIGHTSCF
|  2> % maxcore 2000
|  3> % mp2 density relaxed end
|  4> *xyz 0 1
|  5>  C       -0.2700901814     1.5016629203     0.2490511519
|  6>  C       -0.0185744564     0.0209695556     0.0648498519
|  7>  C        0.5424768164    -0.6020710372    -1.2011680667
|  8>  C        1.1061172056     0.1944156761    -2.3557682216
|  9>  O        1.9987398213     1.2559866211    -1.9880723068
| 10>  C        2.8457641427     1.1601012622    -0.9270744754
| 11>  O        3.7706585921     1.9259885719    -0.8217072122
| 12>  N        2.5570270604     0.1913444693    -0.0011021415
| 13>  C        1.3681604475    -0.6069942439     0.0470290896
| 14>  H        0.4575302842     2.1226661370    -0.2741644242
| 15>  H       -1.2615348051     1.7677577905    -0.1328333768
| 16>  H       -0.2442849571     1.7683209284     1.3110120584
| 17>  H       -0.7617323687    -0.6073948103     0.5513570922
| 18>  H        0.1080306294    -1.5447748874    -1.5207279137
| 19>  H        1.6454993656    -0.4895583843    -3.0244428993
| 20>  H        0.3200814025     0.6803895686    -2.9418113088
| 21>  H        3.1056976560     0.2858932156     0.8392232496
| 22>  H        1.5190816050    -1.5384755535     0.5826515435
| 23> *
| 24>
| 25>                          ****END OF INPUT****

CARTESIAN COORDINATES (ANGSTROEM)
---------------------------------
  C     -0.270090    1.501663    0.249051
  C     -0.018574    0.020970    0.064850
  C      0.542477   -0.602071   -1.201168
  C      1.106117    0.194416   -2.355768
  O      1.998740    1.255987   -1.988072
  C      2.845764    1.160101   -0.927074
  O      3.770659    1.925989   -0.821707
  N      2.557027    0.191344   -0.001102
  C      1.368160   -0.606994    0.047029
  H      0.457530    2.122666   -0.274164
  H     -1.261535    1.767758   -0.132833
  H     -0.244285    1.768321    1.311012
  H     -0.761732   -0.607395    0.551357
  H      0.108031   -1.544775   -1.520728
  H      1.645499   -0.489558   -3.024443
  H      0.320081    0.680390   -2.941811
  H      3.105698    0.285893    0.839223
  H      1.519082   -1.538476    0.582652

 Total Charge           Charge          ....    0
 Multiplicity           Mult            ....    1
 Number of Electrons    NEL             ....   68
 Basis Dimension        Dim             ....  333

ORBITAL ENERGIES
----------------

  NO   OCC          E(Eh)            E(eV)
   0   2.0000     -20.596297      -560.4537
   1   2.0000     -20.513333      -558.1962
   2   2.0000     -15.593693      -424.3260
   3   2.0000     -11.398688      -310.1741
   4   2.0000     -11.307275      -307.6866
   5   2.0000     -11.289332      -307.1983
   6   2.0000     -11.254806      -306.2588
   7   2.0000     -11.251515      -306.1693
   8   2.0000     -11.228117      -305.5326
   9   2.0000      -1.455910       -39.6173
  10   2.0000      -1.352158       -36.7941
  11   2.0000      -1.255683       -34.1689
  12   2.0000      -1.149667       -31.2840
  13   2.0000      -1.005689       -27.3662
  14   2.0000      -0.964205       -26.2373
  15   2.0000      -0.882831       -24.0230
  16   2.0000      -0.811819       -22.0907
  17   2.0000      -0.757044       -20.6002
  18   2.0000      -0.727395       -19.7934
  19   2.0000      -0.705053       -19.1855
  20   2.0000      -0.676451       -18.4072
  21   2.0000      -0.653223       -17.7751
  22   2.0000      -0.618657       -16.8345
  23   2.0000      -0.612324       -16.6622
  24   2.0000      -0.595176       -16.1956
  25   2.0000      -0.568396       -15.4668
  26   2.0000      -0.561889       -15.2898
  27   2.0000      -0.536037       -14.5863
  28   2.0000      -0.513040       -13.9605
  29   2.0000      -0.481970       -13.1151
  30   2.0000      -0.461250       -12.5513
  31   2.0000      -0.446698       -12.1553
  32   2.0000      -0.418699       -11.3934
  33   2.0000      -0.373316       -10.1584
  34   0.0000       0.118190         3.2161
  35   0.0000       0.150783         4.1030
  36   0.0000       0.154099         4.1932
  37   0.0000       0.163517         4.4495
  38   0.0000       0.195866         5.3298

MULLIKEN ATOMIC CHARGES
-----------------------
   0 C :   -0.423032
   1 C :   -0.082010
   2 C :   -0.166370
   3 C :   -0.046758
   4 O :   -0.250761
   5 C :    0.325310
   6 O :   -0.339747
   7 N :   -0.356735
   8 C :   -0.013609
   9 H :    0.165512
  10 H :    0.136901
  11 H :    0.135841
  12 H :    0.125887
  13 H :    0.138778
  14 H :    0.126665
  15 H :    0.131047
  16 H :    0.253483
  17 H :    0.139599
Sum of atomic charges:    0.0000000

LOEWDIN ATOMIC CHARGES
----------------------
   0 C :   -0.288882
   1 C :   -0.208809
   2 C :   -0.201369
   3 C :   -0.258353
   4 O :    0.246113
   5 C :   -0.596458
   6 O :    0.086012
   7 N :    0.127564
   8 C :   -0.229479
   9 H :    0.135076
  10 H :    0.129763
  11 H :    0.128865
  12 H :    0.152980
  13 H :    0.156071
  14 H :    0.136346
  15 H :    0.137813
  16 H :    0.200794
  17 H :    0.145955

  Mayer bond orders larger than 0.1
B(  0-C ,  1-C ) :   0.9071 B(  0-C ,  9-H ) :   0.9285 B(  0-C , 10-H ) :   0.9358
B(  0-C , 11-H ) :   0.9343 B(  1-C ,  2-C ) :   0.8488 B(  1-C ,  8-C ) :   0.8623
B(  1-C , 12-H ) :   0.9221 B(  2-C ,  3-C ) :   0.9590 B(  2-C ,  8-C ) :   0.8874
B(  2-C , 13-H ) :   0.9146 B(  3-C ,  4-O ) :   0.8673 B(  3-C , 14-H ) :   0.9306
B(  3-C , 15-H ) :   0.9322 B(  4-O ,  5-C ) :   1.0638 B(  5-C ,  6-O ) :   2.0128
B(  5-C ,  7-N ) :   1.1403 B(  7-N ,  8-C ) :   0.9222 B(  7-N , 16-H ) :   0.8646
B(  8-C , 17-H ) :   0.9278

MP2 TOTAL ENERGY:     -438.395392409 Eh
FINAL SINGLE POINT ENERGY      -438.395392408715

DIPOLE MOMENT
-------------
                                X             Y             Z
Electronic contribution:      7.24467       1.27503      -1.79079
Nuclear contribution   :     -8.65139      -2.73225       2.24482
                        -----------------------------------------
Total Dipole Moment    :     -1.40672      -1.45721       0.45404
                        -----------------------------------------
Magnitude (a.u.)       :      2.07569
Magnitude (Debye)      :      5.27598

                             ****ORCA TERMINATED NORMALLY****
TOTAL RUN TIME: 0 days 0 hours 17 minutes 24 seconds 158 msec
