                         Program Version 3.0.3 - RELEASE   -
|  1> ! RI-MP2 RIJK def2-TZVP def2-TZVP/C def2-TZVP/JK TIGHTSCF
|  2> % maxcore 2000
|  3> % mp2 density relaxed end
|  4> *xyz 0 1
|  5>  O       -0.0131695163    -0.0285472041    -0.1837046443
|  6>  C       -0.0425380507     1.1627887717    -0.0189189632
|  7>  C       -1.2824971649     2.0658923537     0.0857562187
|  8>  C       -0.6531800059     3.3764294473     0.5812545581
|  9>  C        0.0815096210     3.0432779766     1.9212910199
| 10>  N        1.4625495708     2.7358407072     1.4413252962
| 11>  C        1.7217484302     4.0139210746     0.6597615063
| 12>  C        0.6297139942     3.5294067331    -0.2992830950
| 13>  C        1.1494920021     2.1089454434     0.0555300972
| 14>  H       -1.7245113515     2.1712928324    -0.9139105738
| 15>  H       -2.0426550861     1.6370435748     0.7436791864
| 16>  H       -1.3219424178     4.2369719379     0.6050129936
| 17>  H        0.1239797220     3.8775041305     2.6249306875
| 18>  H       -0.3462013428     2.1791810937     2.4375506482
| 19>  H        1.5802173179     4.9374886368     1.2292769216
| 20>  H        2.7247855716     3.9899469542     0.2276246532
| 21>  H        0.5008661945     3.8842257417    -1.3235953328
| 22>  H        2.0639938216     1.7410725845    -0.4060649877
| 23> *
| 24>
| 25>                          ****END OF INPUT****

CARTESIAN COORDINATES (ANGSTROEM)
---------------------------------
  O     -0.013170   -0.028547   -0.183705
  C     -0.042538    1.162789   -0.018919
  C     -1.282497    2.065892    0.085756
  C     -0.653180    3.376429    0.581255
  C      0.081510    3.043278    1.921291
  N      1.462550    2.735841    1.441325
  C      1.721748    4.013921    0.659762
  C      0.629714    3.529407   -0.299283
  C      1.149492    2.108945    0.055530
  H     -1.724511    2.171293   -0.913911
  H     -2.042655    1.637044    0.743679
  H     -1.321942    4.236972    0.605013
  H      0.123980    3.877504    2.624931
  H     -0.346201    2.179181    2.437551
  H      1.580217    4.937489    1.229277
  H      2.724786    3.989947    0.227625
  H      0.500866    3.884226   -1.323595
  H      2.063994    1.741073   -0.406065

 Total Charge           Charge          ....    0
 Multiplicity           Mult            ....    1
 Number of Electrons    NEL             ....   66
 Basis Dimension        Dim             ....  333

ORBITAL ENERGIES
----------------

  NO   OCC          E(Eh)            E(eV)
   0   2.0000     -20.552901      -559.2729
   1   2.0000     -15.575996      -423.8444
   2   2.0000     -11.332370      -308.3695
   3   2.0000     -11.272276      -306.7342
   4   2.0000     -11.266628      -306.5805
   5   2.0000     -11.261330      -306.4364
   6   2.0000     -11.252759      -306.2031
   7   2.0000     -11.250380      -306.1384
   8   2.0000     -11.242594      -305.9265
   9   2.0000      -1.394891       -37.9569
  10   2.0000      -1.291855       -35.1532
  11   2.0000      -1.090364       -29.6703
  12   2.0000      -1.011512       -27.5246
  13   2.0000      -0.969941       -26.3934
  14   2.0000      -0.915175       -24.9032
  15   2.0000      -0.815266       -22.1845
  16   2.0000      -0.771292       -20.9879
  17   2.0000      -0.743376       -20.2283
  18   2.0000      -0.695225       -18.9180
  19   2.0000      -0.667527       -18.1643
  20   2.0000      -0.654094       -17.7988
  21   2.0000      -0.618420       -16.8281
  22   2.0000      -0.593567       -16.1518
  23   2.0000      -0.568021       -15.4566
  24   2.0000      -0.555434       -15.1141
  25   2.0000      -0.526360       -14.3230
  26   2.0000      -0.517060       -14.0699
  27   2.0000      -0.498318       -13.5599
  28   2.0000      -0.488873       -13.3029
  29   2.0000      -0.474157       -12.9025
  30   2.0000      -0.464110       -12.6291
  31   2.0000      -0.397404       -10.8139
  32   2.0000      -0.384362       -10.4590
  33   0.0000       0.120511         3.2793
  34   0.0000       0.131836         3.5875
  35   0.0000       0.154913         4.2154
  36   0.0000       0.162352         4.4178
  37   0.0000       0.166309         4.5255

MULLIKEN ATOMIC CHARGES
-----------------------
   0 O :   -0.247241
   1 C :    0.051241
   2 C :   -0.238582
   3 C :   -0.086674
   4 C :   -0.173208
   5 N :   -0.183690
   6 C :   -0.186215
   7 C :   -0.086683
   8 C :   -0.027550
   9 H :    0.137094
  10 H :    0.143792
  11 H :    0.130756
  12 H :    0.129331
  13 H :    0.128800
  14 H :    0.122173
  15 H :    0.127549
  16 H :    0.126017
  17 H :    0.133090
Sum of atomic charges:   -0.0000000

LOEWDIN ATOMIC CHARGES
----------------------
   0 O :    0.165407
   1 C :   -0.298281
   2 C :   -0.206141
   3 C :   -0.210971
   4 C :   -0.241855
   5 N :    0.108094
   6 C :   -0.228644
   7 C :   -0.178991
   8 C :   -0.166907
   9 H :    0.154449
  10 H :    0.146941
  11 H :    0.142740
  12 H :    0.130844
  13 H :    0.136271
  14 H :    0.124054
  15 H :    0.135868
  16 H :    0.136619
  17 H :    0.150503

  Mayer bond orders larger than 0.1
B(  0-O ,  1-C ) :   2.0619 B(  1-C ,  2-C ) :   0.9353 B(  1-C ,  8-C ) :   0.8497
B(  2-C ,  3-C ) :   0.9086 B(  2-C ,  8-C ) :  -0.1402 B(  2-C ,  9-H ) :   0.8914
B(  2-C , 10-H ) :   0.9074 B(  3-C ,  4-C ) :   0.9315 B(  3-C ,  7-C ) :   0.8476
B(  3-C , 11-H ) :   0.9008 B(  4-C ,  5-N ) :   0.9164 B(  4-C , 12-H ) :   0.9346
B(  4-C , 13-H ) :   0.9227 B(  5-N ,  6-C ) :   0.9075 B(  5-N ,  8-C ) :   0.8799
B(  6-C ,  7-C ) :   0.9420 B(  6-C , 14-H ) :   0.9204 B(  6-C , 15-H ) :   0.9250
B(  7-C ,  8-C ) :   0.8965 B(  7-C , 16-H ) :   0.9104 B(  8-C , 17-H ) :   0.9164

MP2 TOTAL ENERGY:     -401.250145712 Eh
FINAL SINGLE POINT ENERGY      -401.250145712365

DIPOLE MOMENT
-------------
                                X             Y             Z
Electronic contribution:      0.92737      -4.96131      -1.15069
Nuclear contribution   :     -1.35560       6.37858       0.89499
                        -----------------------------------------
Total Dipole Moment    :     -0.42824       1.41727      -0.25570
                        -----------------------------------------
Magnitude (a.u.)       :      1.50248
Magnitude (Debye)      :      3.81899

                             ****ORCA TERMINATED NORMALLY****
TOTAL RUN TIME: 0 days 0 hours 20 minutes 20 seconds 170 msec
