                         Program Version 3.0.3 - RELEASE   -
|  1> ! RI-MP2 RIJK def2-TZVP def2-TZVP/C def2-TZVP/JK TIGHTSCF
|  2> % maxcore 2000
|  3> % mp2 density relaxed end
|  4> *xyz 0 1
|  5>  O       -0.6371904856     1.2744569491     0.8880866245
|  6>  C       -0.1013862911     0.1398080403     0.2111972112
|  7>  C        0.7774505525    -0.7488926336     1.1293566814
|  8>  C        0.0501116091    -2.1105615902     1.2435768167
|  9>  C       -1.4385755389    -1.7835692149     0.9813260020
| 10>  C       -2.1187709420    -1.2496907056     2.1554484500
| 11>  C       -2.6785929969    -0.8242759702     3.1309261273
| 12>  C       -1.3189431978    -0.7431812932    -0.1770514355
| 13>  O       -2.4724505544    -0.0171416526    -0.4798192341
| 14>  H        0.0669746589     1.9121643820     1.0318879182
| 15>  H        0.4349408891     0.4670854591    -0.6885300784
| 16>  H        1.7994265848    -0.8599086014     0.7571012354
| 17>  H        0.8301292897    -0.2655959153     2.1090623913
| 18>  H        0.3988714676    -2.7962967552     0.4635426045
| 19>  H        0.2112533456    -2.5987530166     2.2063159866
| 20>  H       -1.9860347198    -2.6648787774     0.6309349022
| 21>  H       -3.1772990490    -0.4445335217     3.9877859081
| 22>  H       -1.0549129357    -1.3126451041    -1.0763069787
| 23>  H       -2.4933663561     0.7209502514     0.1437197872
| 24> *
| 25>
| 26>                          ****END OF INPUT****

CARTESIAN COORDINATES (ANGSTROEM)
---------------------------------
  O     -0.637190    1.274457    0.888087
  C     -0.101386    0.139808    0.211197
  C      0.777451   -0.748893    1.129357
  C      0.050112   -2.110562    1.243577
  C     -1.438576   -1.783569    0.981326
  C     -2.118771   -1.249691    2.155448
  C     -2.678593   -0.824276    3.130926
  C     -1.318943   -0.743181   -0.177051
  O     -2.472451   -0.017142   -0.479819
  H      0.066975    1.912164    1.031888
  H      0.434941    0.467085   -0.688530
  H      1.799427   -0.859909    0.757101
  H      0.830129   -0.265596    2.109062
  H      0.398871   -2.796297    0.463543
  H      0.211253   -2.598753    2.206316
  H     -1.986035   -2.664879    0.630935
  H     -3.177299   -0.444534    3.987786
  H     -1.054913   -1.312645   -1.076307
  H     -2.493366    0.720950    0.143720

 Total Charge           Charge          ....    0
 Multiplicity           Mult            ....    1
 Number of Electrons    NEL             ....   68
 Basis Dimension        Dim             ....  339

ORBITAL ENERGIES
----------------

  NO   OCC          E(Eh)            E(eV)
   0   2.0000     -20.566111      -559.6323
   1   2.0000     -20.545715      -559.0773
   2   2.0000     -11.287553      -307.1499
   3   2.0000     -11.284266      -307.0605
   4   2.0000     -11.250774      -306.1491
   5   2.0000     -11.234883      -305.7167
   6   2.0000     -11.229600      -305.5729
   7   2.0000     -11.225654      -305.4656
   8   2.0000     -11.213580      -305.1370
   9   2.0000      -1.384122       -37.6639
  10   2.0000      -1.349366       -36.7181
  11   2.0000      -1.129078       -30.7238
  12   2.0000      -1.028853       -27.9965
  13   2.0000      -0.961965       -26.1764
  14   2.0000      -0.954220       -25.9656
  15   2.0000      -0.824595       -22.4384
  16   2.0000      -0.800821       -21.7915
  17   2.0000      -0.725263       -19.7354
  18   2.0000      -0.711112       -19.3503
  19   2.0000      -0.684930       -18.6379
  20   2.0000      -0.650153       -17.6916
  21   2.0000      -0.640397       -17.4261
  22   2.0000      -0.606815       -16.5123
  23   2.0000      -0.585056       -15.9202
  24   2.0000      -0.561032       -15.2665
  25   2.0000      -0.548836       -14.9346
  26   2.0000      -0.531616       -14.4660
  27   2.0000      -0.506438       -13.7809
  28   2.0000      -0.490832       -13.3562
  29   2.0000      -0.472342       -12.8531
  30   2.0000      -0.446209       -12.1420
  31   2.0000      -0.432832       -11.7780
  32   2.0000      -0.377989       -10.2856
  33   2.0000      -0.372221       -10.1286
  34   0.0000       0.124063         3.3759
  35   0.0000       0.140086         3.8119
  36   0.0000       0.159199         4.3320
  37   0.0000       0.166459         4.5296
  38   0.0000       0.178777         4.8648

MULLIKEN ATOMIC CHARGES
-----------------------
   0 O :   -0.495037
   1 C :    0.034466
   2 C :   -0.238635
   3 C :   -0.278397
   4 C :    0.054614
   5 C :   -0.111412
   6 C :   -0.214335
   7 C :    0.040293
   8 O :   -0.468148
   9 H :    0.321856
  10 H :    0.097360
  11 H :    0.120544
  12 H :    0.121020
  13 H :    0.124478
  14 H :    0.135122
  15 H :    0.122493
  16 H :    0.185101
  17 H :    0.105382
  18 H :    0.343233
Sum of atomic charges:   -0.0000000

LOEWDIN ATOMIC CHARGES
----------------------
   0 O :   -0.024527
   1 C :   -0.310860
   2 C :   -0.236318
   3 C :   -0.216831
   4 C :   -0.219958
   5 C :   -0.087156
   6 C :   -0.102359
   7 C :   -0.304086
   8 O :    0.008723
   9 H :    0.176267
  10 H :    0.130765
  11 H :    0.132933
  12 H :    0.144657
  13 H :    0.139227
  14 H :    0.140672
  15 H :    0.167973
  16 H :    0.125277
  17 H :    0.150192
  18 H :    0.185410

  Mayer bond orders larger than 0.1
B(  0-O ,  1-C ) :   0.9861 B(  0-O ,  9-H ) :   0.8434 B(  1-C ,  2-C ) :   0.9021
B(  1-C ,  7-C ) :   0.9168 B(  1-C , 10-H ) :   0.9378 B(  2-C ,  3-C ) :   0.9372
B(  2-C , 11-H ) :   0.9208 B(  2-C , 12-H ) :   0.9161 B(  3-C ,  4-C ) :   0.8511
B(  3-C , 13-H ) :   0.9275 B(  3-C , 14-H ) :   0.9226 B(  4-C ,  5-C ) :   1.1177
B(  4-C ,  7-C ) :   0.8312 B(  4-C ,  8-O ) :  -0.1064 B(  4-C , 15-H ) :   0.9186
B(  5-C ,  6-C ) :   2.5793 B(  6-C , 16-H ) :   0.8961 B(  7-C ,  8-O ) :   1.0448
B(  7-C , 17-H ) :   0.9363 B(  8-O , 18-H ) :   0.8142

MP2 TOTAL ENERGY:     -422.298811074 Eh
FINAL SINGLE POINT ENERGY      -422.298811073599

DIPOLE MOMENT
-------------
                                X             Y             Z
Electronic contribution:     -4.30126       1.82964       0.19107
Nuclear contribution   :      5.49528      -1.69058       0.00065
                        -----------------------------------------
Total Dipole Moment    :      1.19402       0.13906       0.19172
                        -----------------------------------------
Magnitude (a.u.)       :      1.21729
Magnitude (Debye)      :      3.09410

                             ****ORCA TERMINATED NORMALLY****
TOTAL RUN TIME: 0 days 0 hours 18 minutes 22 seconds 401 msec
