                         Program Version 3.0.3 - RELEASE   -
|  1> ! RI-MP2 RIJK def2-TZVP def2-TZVP/C def2-TZVP/JK TIGHTSCF
|  2> % maxcore 2000
|  3> % mp2 density relaxed end
|  4> *xyz 0 1
|  5>  O        0.0410583167     0.2096565421    -0.7566847349
|  6>  C       -0.0146463806     1.2632896711    -0.1691946468
|  7>  C       -1.2751814504     1.9207674068     0.4065110490
|  8>  C       -0.8217907887     3.2524605243     0.9829710140
|  9>  C        0.1420983635     3.2265619320     2.1397063792
| 10>  C        0.6739884880     3.4201354600     0.7401110465
| 11>  C        1.1629349478     2.1853392925     0.0474566750
| 12>  C        2.5106751888     1.5605118920     0.1997520195
| 13>  N        2.1641476846     2.2654521152    -1.0319802236
| 14>  H       -1.9919618756     2.0500726926    -0.4123992137
| 15>  H       -1.7474663538     1.2510971087     1.1337648135
| 16>  H       -1.4857275961     4.1032377854     0.8893747800
| 17>  H        0.1525643387     4.0847462958     2.8023994683
| 18>  H        0.3352549242     2.2790214719     2.6361897806
| 19>  H        1.1032052835     4.3711511990     0.4508836383
| 20>  H        3.2416929061     2.0608809070     0.8286824292
| 21>  H        2.5580725624     0.4750059865     0.1797885267
| 22>  H        1.9105220608     1.5763384870    -1.7408440708
| 23> *
| 24>
| 25>                          ****END OF INPUT****

CARTESIAN COORDINATES (ANGSTROEM)
---------------------------------
  O      0.041058    0.209657   -0.756685
  C     -0.014646    1.263290   -0.169195
  C     -1.275181    1.920767    0.406511
  C     -0.821791    3.252461    0.982971
  C      0.142098    3.226562    2.139706
  C      0.673988    3.420135    0.740111
  C      1.162935    2.185339    0.047457
  C      2.510675    1.560512    0.199752
  N      2.164148    2.265452   -1.031980
  H     -1.991962    2.050073   -0.412399
  H     -1.747466    1.251097    1.133765
  H     -1.485728    4.103238    0.889375
  H      0.152564    4.084746    2.802399
  H      0.335255    2.279021    2.636190
  H      1.103205    4.371151    0.450884
  H      3.241693    2.060881    0.828682
  H      2.558073    0.475006    0.179789
  H      1.910522    1.576338   -1.740844

 Total Charge           Charge          ....    0
 Multiplicity           Mult            ....    1
 Number of Electrons    NEL             ....   66
 Basis Dimension        Dim             ....  333

ORBITAL ENERGIES
----------------

  NO   OCC          E(Eh)            E(eV)
   0   2.0000     -20.552913      -559.2732
   1   2.0000     -15.571461      -423.7210
   2   2.0000     -11.337212      -308.5012
   3   2.0000     -11.274905      -306.8058
   4   2.0000     -11.265759      -306.5569
   5   2.0000     -11.248410      -306.0848
   6   2.0000     -11.246461      -306.0318
   7   2.0000     -11.245045      -305.9932
   8   2.0000     -11.240205      -305.8615
   9   2.0000      -1.398478       -38.0545
  10   2.0000      -1.276406       -34.7328
  11   2.0000      -1.179919       -32.1072
  12   2.0000      -1.015056       -27.6211
  13   2.0000      -0.945447       -25.7269
  14   2.0000      -0.883579       -24.0434
  15   2.0000      -0.830790       -22.6069
  16   2.0000      -0.794182       -21.6108
  17   2.0000      -0.739367       -20.1192
  18   2.0000      -0.701049       -19.0765
  19   2.0000      -0.675636       -18.3850
  20   2.0000      -0.643809       -17.5189
  21   2.0000      -0.622696       -16.9444
  22   2.0000      -0.601111       -16.3571
  23   2.0000      -0.580499       -15.7962
  24   2.0000      -0.562391       -15.3034
  25   2.0000      -0.536439       -14.5972
  26   2.0000      -0.521867       -14.2007
  27   2.0000      -0.499010       -13.5788
  28   2.0000      -0.489657       -13.3243
  29   2.0000      -0.437450       -11.9036
  30   2.0000      -0.424811       -11.5597
  31   2.0000      -0.408160       -11.1066
  32   2.0000      -0.380656       -10.3582
  33   0.0000       0.117285         3.1915
  34   0.0000       0.142919         3.8890
  35   0.0000       0.156704         4.2641
  36   0.0000       0.162682         4.4268
  37   0.0000       0.167606         4.5608

MULLIKEN ATOMIC CHARGES
-----------------------
   0 O :   -0.293464
   1 C :    0.142515
   2 C :   -0.224733
   3 C :   -0.094238
   4 C :   -0.307854
   5 C :   -0.067324
   6 C :    0.071114
   7 C :   -0.201255
   8 N :   -0.377754
   9 H :    0.146660
  10 H :    0.143879
  11 H :    0.136070
  12 H :    0.137874
  13 H :    0.135748
  14 H :    0.147211
  15 H :    0.129766
  16 H :    0.143007
  17 H :    0.232780
Sum of atomic charges:   -0.0000000

LOEWDIN ATOMIC CHARGES
----------------------
   0 O :    0.149016
   1 C :   -0.275643
   2 C :   -0.198174
   3 C :   -0.190155
   4 C :   -0.196217
   5 C :   -0.153493
   6 C :   -0.261238
   7 C :   -0.224876
   8 N :    0.029812
   9 H :    0.158326
  10 H :    0.153670
  11 H :    0.145257
  12 H :    0.136942
  13 H :    0.137761
  14 H :    0.152405
  15 H :    0.130715
  16 H :    0.129990
  17 H :    0.175902

  Mayer bond orders larger than 0.1
B(  0-O ,  1-C ) :   1.9827 B(  1-C ,  2-C ) :   0.9497 B(  1-C ,  6-C ) :   0.9453
B(  2-C ,  3-C ) :   0.9056 B(  2-C ,  9-H ) :   0.9035 B(  2-C , 10-H ) :   0.9059
B(  3-C ,  4-C ) :   0.8845 B(  3-C ,  5-C ) :   0.8591 B(  3-C , 11-H ) :   0.9248
B(  4-C ,  5-C ) :   0.8686 B(  4-C , 12-H ) :   0.9306 B(  4-C , 13-H ) :   0.9229
B(  5-C ,  6-C ) :   0.8387 B(  5-C , 14-H ) :   0.9247 B(  6-C ,  7-C ) :   0.9001
B(  6-C ,  8-N ) :   0.8730 B(  7-C ,  8-N ) :   0.9640 B(  7-C , 15-H ) :   0.9176
B(  7-C , 16-H ) :   0.9106 B(  8-N , 17-H ) :   0.8638

MP2 TOTAL ENERGY:     -401.248081724 Eh
FINAL SINGLE POINT ENERGY      -401.248081724319

DIPOLE MOMENT
-------------
                                X             Y             Z
Electronic contribution:      0.24593      -2.58328      -3.39672
Nuclear contribution   :     -0.53715       3.04689       4.10060
                        -----------------------------------------
Total Dipole Moment    :     -0.29121       0.46361       0.70388
                        -----------------------------------------
Magnitude (a.u.)       :      0.89173
Magnitude (Debye)      :      2.26660

                             ****ORCA TERMINATED NORMALLY****
TOTAL RUN TIME: 0 days 0 hours 18 minutes 5 seconds 190 msec
