                         Program Version 3.0.3 - RELEASE   -
|  1> ! RI-MP2 RIJK def2-TZVP def2-TZVP/C def2-TZVP/JK TIGHTSCF
|  2> % maxcore 2000
|  3> % mp2 density relaxed end
|  4> *xyz 0 1
|  5>  C       -0.0198121451     1.5200250919    -0.0814130276
|  6>  C       -0.0087856975     0.0140025523     0.0165169899
|  7>  C        1.2572362146    -0.7537796774    -0.2011737802
|  8>  C        0.6242388741    -0.7374550942     1.1931636774
|  9>  C        1.3456010077    -0.1248142099     2.3671661085
| 10>  C       -0.2473949793    -1.9260861025     1.4598576075
| 11>  O       -0.2319774445    -2.5890167931     2.4693127818
| 12>  C       -1.2147810287    -2.1113595379     0.2824673262
| 13>  C       -1.2893129577    -0.7271302046    -0.3890186665
| 14>  H        0.9260571366     1.9577083050     0.2501820352
| 15>  H       -0.1828933629     1.8369529958    -1.1183609385
| 16>  H       -0.8231647872     1.9513100935     0.5265870421
| 17>  H        1.2513920980    -1.6699236892    -0.7836518768
| 18>  H        2.1770543653    -0.1837121843    -0.2878328540
| 19>  H        1.9711660716     0.7189320481     2.0635586769
| 20>  H        0.6395281244     0.2280831508     3.1257777634
| 21>  H        1.9869212804    -0.8718108222     2.8446092763
| 22>  H       -0.8120613789    -2.8787191923    -0.3890288047
| 23>  H       -2.1747527970    -2.4831058723     0.6450281399
| 24>  H       -2.1561315055    -0.1734624426    -0.0096988911
| 25>  H       -1.3963011784    -0.7836676651    -1.4778740558
| 26> *
| 27>
| 28>                          ****END OF INPUT****

CARTESIAN COORDINATES (ANGSTROEM)
---------------------------------
  C     -0.019812    1.520025   -0.081413
  C     -0.008786    0.014003    0.016517
  C      1.257236   -0.753780   -0.201174
  C      0.624239   -0.737455    1.193164
  C      1.345601   -0.124814    2.367166
  C     -0.247395   -1.926086    1.459858
  O     -0.231977   -2.589017    2.469313
  C     -1.214781   -2.111360    0.282467
  C     -1.289313   -0.727130   -0.389019
  H      0.926057    1.957708    0.250182
  H     -0.182893    1.836953   -1.118361
  H     -0.823165    1.951310    0.526587
  H      1.251392   -1.669924   -0.783652
  H      2.177054   -0.183712   -0.287833
  H      1.971166    0.718932    2.063559
  H      0.639528    0.228083    3.125778
  H      1.986921   -0.871811    2.844609
  H     -0.812061   -2.878719   -0.389029
  H     -2.174753   -2.483106    0.645028
  H     -2.156132   -0.173462   -0.009699
  H     -1.396301   -0.783668   -1.477874

 Total Charge           Charge          ....    0
 Multiplicity           Mult            ....    1
 Number of Electrons    NEL             ....   68
 Basis Dimension        Dim             ....  351

ORBITAL ENERGIES
----------------

  NO   OCC          E(Eh)            E(eV)
   0   2.0000     -20.535520      -558.7999
   1   2.0000     -11.321269      -308.0674
   2   2.0000     -11.253570      -306.2252
   3   2.0000     -11.244124      -305.9682
   4   2.0000     -11.239729      -305.8486
   5   2.0000     -11.237737      -305.7944
   6   2.0000     -11.234783      -305.7140
   7   2.0000     -11.229060      -305.5583
   8   2.0000     -11.220234      -305.3181
   9   2.0000      -1.379885       -37.5486
  10   2.0000      -1.194661       -32.5084
  11   2.0000      -1.045340       -28.4451
  12   2.0000      -1.005632       -27.3646
  13   2.0000      -0.956817       -26.0363
  14   2.0000      -0.896890       -24.4056
  15   2.0000      -0.850021       -23.1302
  16   2.0000      -0.757433       -20.6108
  17   2.0000      -0.703150       -19.1337
  18   2.0000      -0.668540       -18.1919
  19   2.0000      -0.642193       -17.4750
  20   2.0000      -0.621066       -16.9001
  21   2.0000      -0.594719       -16.1831
  22   2.0000      -0.586384       -15.9563
  23   2.0000      -0.582958       -15.8631
  24   2.0000      -0.564498       -15.3608
  25   2.0000      -0.547245       -14.8913
  26   2.0000      -0.539317       -14.6756
  27   2.0000      -0.535675       -14.5765
  28   2.0000      -0.521402       -14.1881
  29   2.0000      -0.485780       -13.2188
  30   2.0000      -0.480020       -13.0620
  31   2.0000      -0.425002       -11.5649
  32   2.0000      -0.399862       -10.8808
  33   2.0000      -0.381841       -10.3904
  34   0.0000       0.126139         3.4324
  35   0.0000       0.143161         3.8956
  36   0.0000       0.150617         4.0985
  37   0.0000       0.163515         4.4495
  38   0.0000       0.175115         4.7651

MULLIKEN ATOMIC CHARGES
-----------------------
   0 C :   -0.410056
   1 C :    0.094666
   2 C :   -0.319732
   3 C :    0.077822
   4 C :   -0.399028
   5 C :    0.101521
   6 O :   -0.281662
   7 C :   -0.225469
   8 C :   -0.247781
   9 H :    0.129643
  10 H :    0.139381
  11 H :    0.134503
  12 H :    0.137267
  13 H :    0.136865
  14 H :    0.125552
  15 H :    0.136121
  16 H :    0.151404
  17 H :    0.137866
  18 H :    0.140086
  19 H :    0.120972
  20 H :    0.120060
Sum of atomic charges:    0.0000000

LOEWDIN ATOMIC CHARGES
----------------------
   0 C :   -0.262631
   1 C :   -0.226284
   2 C :   -0.150335
   3 C :   -0.192608
   4 C :   -0.259381
   5 C :   -0.285045
   6 O :    0.147492
   7 C :   -0.214095
   8 C :   -0.201606
   9 H :    0.128708
  10 H :    0.131164
  11 H :    0.129402
  12 H :    0.138023
  13 H :    0.142844
  14 H :    0.126256
  15 H :    0.132386
  16 H :    0.137012
  17 H :    0.149977
  18 H :    0.146950
  19 H :    0.143751
  20 H :    0.138021

  Mayer bond orders larger than 0.1
B(  0-C ,  1-C ) :   0.9003 B(  0-C ,  9-H ) :   0.9331 B(  0-C , 10-H ) :   0.9388
B(  0-C , 11-H ) :   0.9368 B(  1-C ,  2-C ) :   0.8986 B(  1-C ,  3-C ) :   0.7537
B(  1-C ,  8-C ) :   0.9152 B(  2-C ,  3-C ) :   0.8319 B(  2-C , 12-H ) :   0.9087
B(  2-C , 13-H ) :   0.9274 B(  3-C ,  4-C ) :   0.9061 B(  3-C ,  5-C ) :   0.8938
B(  3-C ,  7-C ) :  -0.1334 B(  4-C , 14-H ) :   0.9386 B(  4-C , 15-H ) :   0.9333
B(  4-C , 16-H ) :   0.9323 B(  5-C ,  6-O ) :   2.0544 B(  5-C ,  7-C ) :   0.9431
B(  7-C ,  8-C ) :   0.9285 B(  7-C , 17-H ) :   0.9126 B(  7-C , 18-H ) :   0.9140
B(  8-C , 19-H ) :   0.9266 B(  8-C , 20-H ) :   0.9223

MP2 TOTAL ENERGY:     -386.449137283 Eh
FINAL SINGLE POINT ENERGY      -386.449137283105

DIPOLE MOMENT
-------------
                                X             Y             Z
Electronic contribution:     -1.01080      -6.21788       3.09439
Nuclear contribution   :      1.03723       7.01528      -4.05410
                        -----------------------------------------
Total Dipole Moment    :      0.02643       0.79740      -0.95971
                        -----------------------------------------
Magnitude (a.u.)       :      1.24803
Magnitude (Debye)      :      3.17224

                             ****ORCA TERMINATED NORMALLY****
TOTAL RUN TIME: 0 days 0 hours 21 minutes 23 seconds 213 msec
