                         Program Version 3.0.3 - RELEASE   -
|  1> ! RI-MP2 RIJK def2-TZVP def2-TZVP/C def2-TZVP/JK TIGHTSCF
|  2> % maxcore 2000
|  3> % mp2 density relaxed end
|  4> *xyz 0 1
|  5>  O       -0.0309525851    -0.0654615932    -0.0209639508
|  6>  C       -0.0257856205     1.1432648057    -0.0307590607
|  7>  N       -1.1224893440     1.9892183402    -0.0875806796
|  8>  C       -0.6731214350     3.3402135098     0.2594369822
|  9>  C       -0.0058718462     3.2715061149     1.6747116799
| 10>  N        1.3935947259     2.9163324694     1.3010647050
| 11>  C        1.6719644614     4.0836677209     0.3687525977
| 12>  C        0.6418132367     3.4529885661    -0.5721766923
| 13>  C        1.1568038359     2.1029984363    -0.0173867760
| 14>  H       -2.0230362946     1.6365956854     0.2046669311
| 15>  H       -1.4429245565     4.0920231996     0.0922089802
| 16>  H       -0.0039194126     4.2181632627     2.2205925007
| 17>  H       -0.4597531340     2.4995884113     2.3001531318
| 18>  H        1.4927912142     5.0716201932     0.8028208460
| 19>  H        2.6932105681     4.0217893119    -0.0139339985
| 20>  H        0.5389339697     3.6662029600    -1.6365476761
| 21>  H        2.0970806163     1.6952960459    -0.3791860505
| 22> *
| 23>
| 24>                          ****END OF INPUT****

CARTESIAN COORDINATES (ANGSTROEM)
---------------------------------
  O     -0.030953   -0.065462   -0.020964
  C     -0.025786    1.143265   -0.030759
  N     -1.122489    1.989218   -0.087581
  C     -0.673121    3.340214    0.259437
  C     -0.005872    3.271506    1.674712
  N      1.393595    2.916332    1.301065
  C      1.671964    4.083668    0.368753
  C      0.641813    3.452989   -0.572177
  C      1.156804    2.102998   -0.017387
  H     -2.023036    1.636596    0.204667
  H     -1.442925    4.092023    0.092209
  H     -0.003919    4.218163    2.220593
  H     -0.459753    2.499588    2.300153
  H      1.492791    5.071620    0.802821
  H      2.693211    4.021789   -0.013934
  H      0.538934    3.666203   -1.636548
  H      2.097081    1.695296   -0.379186

 Total Charge           Charge          ....    0
 Multiplicity           Mult            ....    1
 Number of Electrons    NEL             ....   66
 Basis Dimension        Dim             ....  327

ORBITAL ENERGIES
----------------

  NO   OCC          E(Eh)            E(eV)
   0   2.0000     -20.528792      -558.6168
   1   2.0000     -15.584586      -424.0781
   2   2.0000     -15.581519      -423.9947
   3   2.0000     -11.350893      -308.8735
   4   2.0000     -11.289654      -307.2071
   5   2.0000     -11.279203      -306.9227
   6   2.0000     -11.271367      -306.7095
   7   2.0000     -11.264958      -306.5351
   8   2.0000     -11.258027      -306.3465
   9   2.0000      -1.390324       -37.8326
  10   2.0000      -1.310406       -35.6580
  11   2.0000      -1.224236       -33.3131
  12   2.0000      -1.022715       -27.8295
  13   2.0000      -0.996318       -27.1112
  14   2.0000      -0.958895       -26.0929
  15   2.0000      -0.837176       -22.7807
  16   2.0000      -0.789667       -21.4879
  17   2.0000      -0.776948       -21.1418
  18   2.0000      -0.701698       -19.0942
  19   2.0000      -0.687112       -18.6973
  20   2.0000      -0.656808       -17.8727
  21   2.0000      -0.648595       -17.6492
  22   2.0000      -0.604741       -16.4558
  23   2.0000      -0.569530       -15.4977
  24   2.0000      -0.558175       -15.1887
  25   2.0000      -0.536278       -14.5929
  26   2.0000      -0.522214       -14.2102
  27   2.0000      -0.505211       -13.7475
  28   2.0000      -0.498445       -13.5634
  29   2.0000      -0.483052       -13.1445
  30   2.0000      -0.422575       -11.4988
  31   2.0000      -0.409405       -11.1405
  32   2.0000      -0.376217       -10.2374
  33   0.0000       0.130347         3.5469
  34   0.0000       0.145508         3.9595
  35   0.0000       0.154663         4.2086
  36   0.0000       0.162690         4.4270
  37   0.0000       0.169156         4.6030

MULLIKEN ATOMIC CHARGES
-----------------------
   0 O :   -0.307456
   1 C :    0.108895
   2 N :   -0.287483
   3 C :   -0.058775
   4 C :   -0.140091
   5 N :   -0.188220
   6 C :   -0.197392
   7 C :   -0.068403
   8 C :   -0.025270
   9 H :    0.239645
  10 H :    0.143196
  11 H :    0.129205
  12 H :    0.126104
  13 H :    0.124119
  14 H :    0.129667
  15 H :    0.130030
  16 H :    0.142230
Sum of atomic charges:    0.0000000

LOEWDIN ATOMIC CHARGES
----------------------
   0 O :    0.105236
   1 C :   -0.426588
   2 N :    0.127484
   3 C :   -0.238085
   4 C :   -0.252577
   5 N :    0.107587
   6 C :   -0.230156
   7 C :   -0.179129
   8 C :   -0.155497
   9 H :    0.182186
  10 H :    0.140444
  11 H :    0.131278
  12 H :    0.134463
  13 H :    0.123907
  14 H :    0.137790
  15 H :    0.139126
  16 H :    0.152532

  Mayer bond orders larger than 0.1
B(  0-O ,  1-C ) :   2.0299 B(  1-C ,  2-N ) :   1.1700 B(  1-C ,  8-C ) :   0.8813
B(  2-N ,  3-C ) :   0.8952 B(  2-N ,  8-C ) :  -0.1027 B(  2-N ,  9-H ) :   0.8558
B(  3-C ,  4-C ) :   0.9506 B(  3-C ,  7-C ) :   0.8834 B(  3-C , 10-H ) :   0.9069
B(  4-C ,  5-N ) :   0.9255 B(  4-C , 11-H ) :   0.9402 B(  4-C , 12-H ) :   0.9084
B(  5-N ,  6-C ) :   0.9117 B(  5-N ,  8-C ) :   0.8712 B(  6-C ,  7-C ) :   0.9498
B(  6-C , 13-H ) :   0.9211 B(  6-C , 14-H ) :   0.9227 B(  7-C ,  8-C ) :   0.8890
B(  7-C , 15-H ) :   0.9067 B(  8-C , 16-H ) :   0.9290

MP2 TOTAL ENERGY:     -417.306401660 Eh
FINAL SINGLE POINT ENERGY      -417.306401659762

DIPOLE MOMENT
-------------
                                X             Y             Z
Electronic contribution:     -0.87528      -5.13757      -1.09102
Nuclear contribution   :      0.32209       6.83954       0.91875
                        -----------------------------------------
Total Dipole Moment    :     -0.55319       1.70197      -0.17227
                        -----------------------------------------
Magnitude (a.u.)       :      1.79789
Magnitude (Debye)      :      4.56986

                             ****ORCA TERMINATED NORMALLY****
TOTAL RUN TIME: 0 days 0 hours 21 minutes 42 seconds 667 msec
