                         Program Version 3.0.3 - RELEASE   -
|  1> ! RI-MP2 RIJK def2-TZVP def2-TZVP/C def2-TZVP/JK TIGHTSCF
|  2> % maxcore 2000
|  3> % mp2 density relaxed end
|  4> *xyz 0 1
|  5>  C       -0.4033568168     1.4956231491     0.2194455337
|  6>  O       -0.1453862754     0.1079141832     0.1511093155
|  7>  C       -1.3081949988    -0.7202230584     0.1468328348
|  8>  C       -0.8941021160    -2.0026782540    -0.5754936089
|  9>  O       -0.4554480076    -1.7207481155    -1.8875464228
| 10>  C       -1.8821121534    -0.9640649961     1.5616386898
| 11>  C       -0.9730585301    -1.7938282724     2.4682299091
| 12>  C        0.1829411301    -1.0693422519     3.1273282004
| 13>  O       -1.1736461251    -2.9760079335     2.6330310465
| 14>  H        0.5596992697     2.0058034844     0.1422509475
| 15>  H       -1.0498973492     1.8239453772    -0.6071321671
| 16>  H       -0.8766884842     1.7868207972     1.1676979346
| 17>  H       -2.0869425113    -0.2289674196    -0.4561941036
| 18>  H       -0.1183640219    -2.5200193794     0.0089397260
| 19>  H       -1.7515819617    -2.6774015341    -0.6535803292
| 20>  H        0.2177240597    -1.0363806647    -1.7923977505
| 21>  H       -2.0964999363     0.0045784695     2.0272624824
| 22>  H       -2.8256247736    -1.5073478043     1.4574602214
| 23>  H       -0.1943362440    -0.2759507477     3.7834571198
| 24>  H        0.7826704047    -1.7708852730     3.7082569854
| 25>  H        0.7920531914    -0.5838611359     2.3579998052
| 26> *
| 27>
| 28>                          ****END OF INPUT****

CARTESIAN COORDINATES (ANGSTROEM)
---------------------------------
  C     -0.403357    1.495623    0.219446
  O     -0.145386    0.107914    0.151109
  C     -1.308195   -0.720223    0.146833
  C     -0.894102   -2.002678   -0.575494
  O     -0.455448   -1.720748   -1.887546
  C     -1.882112   -0.964065    1.561639
  C     -0.973059   -1.793828    2.468230
  C      0.182941   -1.069342    3.127328
  O     -1.173646   -2.976008    2.633031
  H      0.559699    2.005803    0.142251
  H     -1.049897    1.823945   -0.607132
  H     -0.876688    1.786821    1.167698
  H     -2.086943   -0.228967   -0.456194
  H     -0.118364   -2.520019    0.008940
  H     -1.751582   -2.677402   -0.653580
  H      0.217724   -1.036381   -1.792398
  H     -2.096500    0.004578    2.027262
  H     -2.825625   -1.507348    1.457460
  H     -0.194336   -0.275951    3.783457
  H      0.782670   -1.770885    3.708257
  H      0.792053   -0.583861    2.358000

 Total Charge           Charge          ....    0
 Multiplicity           Mult            ....    1
 Number of Electrons    NEL             ....   72
 Basis Dimension        Dim             ....  351

ORBITAL ENERGIES
----------------

  NO   OCC          E(Eh)            E(eV)
   0   2.0000     -20.577598      -559.9449
   1   2.0000     -20.552376      -559.2586
   2   2.0000     -20.546216      -559.0910
   3   2.0000     -11.333528      -308.4010
   4   2.0000     -11.301437      -307.5277
   5   2.0000     -11.290396      -307.2273
   6   2.0000     -11.276065      -306.8373
   7   2.0000     -11.246172      -306.0239
   8   2.0000     -11.232246      -305.6449
   9   2.0000      -1.401152       -38.1273
  10   2.0000      -1.389540       -37.8113
  11   2.0000      -1.355780       -36.8926
  12   2.0000      -1.078733       -29.3538
  13   2.0000      -1.011743       -27.5309
  14   2.0000      -0.957682       -26.0598
  15   2.0000      -0.923222       -25.1222
  16   2.0000      -0.830914       -22.6103
  17   2.0000      -0.743272       -20.2255
  18   2.0000      -0.708728       -19.2855
  19   2.0000      -0.692395       -18.8410
  20   2.0000      -0.665414       -18.1068
  21   2.0000      -0.645725       -17.5711
  22   2.0000      -0.635281       -17.2869
  23   2.0000      -0.628904       -17.1133
  24   2.0000      -0.609281       -16.5794
  25   2.0000      -0.589753       -16.0480
  26   2.0000      -0.578426       -15.7398
  27   2.0000      -0.564015       -15.3476
  28   2.0000      -0.543723       -14.7954
  29   2.0000      -0.537552       -14.6275
  30   2.0000      -0.501687       -13.6516
  31   2.0000      -0.499045       -13.5797
  32   2.0000      -0.494781       -13.4637
  33   2.0000      -0.453183       -12.3317
  34   2.0000      -0.432637       -11.7726
  35   2.0000      -0.410539       -11.1713
  36   0.0000       0.116510         3.1704
  37   0.0000       0.141692         3.8556
  38   0.0000       0.156018         4.2455
  39   0.0000       0.160026         4.3545
  40   0.0000       0.168781         4.5928

MULLIKEN ATOMIC CHARGES
-----------------------
   0 C :   -0.223874
   1 O :   -0.359704
   2 C :    0.020653
   3 C :    0.002894
   4 O :   -0.478400
   5 C :   -0.225776
   6 C :    0.194612
   7 C :   -0.423973
   8 O :   -0.282978
   9 H :    0.146403
  10 H :    0.129772
  11 H :    0.116599
  12 H :    0.097622
  13 H :    0.116299
  14 H :    0.120040
  15 H :    0.323840
  16 H :    0.132512
  17 H :    0.142869
  18 H :    0.135592
  19 H :    0.148522
  20 H :    0.166477
Sum of atomic charges:    0.0000000

LOEWDIN ATOMIC CHARGES
----------------------
   0 C :   -0.358090
   1 O :    0.142472
   2 C :   -0.330936
   3 C :   -0.326072
   4 O :   -0.042660
   5 C :   -0.216323
   6 C :   -0.353162
   7 C :   -0.282207
   8 O :    0.147701
   9 H :    0.115943
  10 H :    0.107528
  11 H :    0.102319
  12 H :    0.143340
  13 H :    0.125683
  14 H :    0.136979
  15 H :    0.176036
  16 H :    0.146645
  17 H :    0.156678
  18 H :    0.136051
  19 H :    0.131887
  20 H :    0.140188

  Mayer bond orders larger than 0.1
B(  0-C ,  1-O ) :   0.8882 B(  0-C ,  9-H ) :   0.9395 B(  0-C , 10-H ) :   0.9338
B(  0-C , 11-H ) :   0.9350 B(  1-O ,  2-C ) :   0.8683 B(  2-C ,  3-C ) :   0.9498
B(  2-C ,  5-C ) :   0.8907 B(  2-C , 12-H ) :   0.9282 B(  3-C ,  4-O ) :   0.9257
B(  3-C , 13-H ) :   0.9154 B(  3-C , 14-H ) :   0.9226 B(  4-O , 15-H ) :   0.8311
B(  5-C ,  6-C ) :   0.8751 B(  5-C , 16-H ) :   0.9163 B(  5-C , 17-H ) :   0.9225
B(  6-C ,  7-C ) :   0.9186 B(  6-C ,  8-O ) :   2.0066 B(  7-C , 18-H ) :   0.9087
B(  7-C , 19-H ) :   0.9346 B(  7-C , 20-H ) :   0.9067

MP2 TOTAL ENERGY:     -460.633594031 Eh
FINAL SINGLE POINT ENERGY      -460.633594030576

DIPOLE MOMENT
-------------
                                X             Y             Z
Electronic contribution:     -0.49750      -5.51980      -0.79254
Nuclear contribution   :      0.45551       7.16037       1.14387
                        -----------------------------------------
Total Dipole Moment    :     -0.04198       1.64057       0.35133
                        -----------------------------------------
Magnitude (a.u.)       :      1.67829
Magnitude (Debye)      :      4.26587

                             ****ORCA TERMINATED NORMALLY****
TOTAL RUN TIME: 0 days 0 hours 18 minutes 30 seconds 323 msec
