                         Program Version 3.0.3 - RELEASE   -
|  1> ! RI-MP2 RIJK def2-TZVP def2-TZVP/C def2-TZVP/JK TIGHTSCF
|  2> % maxcore 2000
|  3> % mp2 density relaxed end
|  4> *xyz 0 1
|  5>  N        0.0138156813     1.3216659159     0.1056835633
|  6>  C       -0.0258726414    -0.0362657952     0.0485398696
|  7>  N       -1.0864717176    -0.7651902595     0.0397442593
|  8>  C       -0.5587707822    -2.1629519788     0.0072361656
|  9>  C        0.7251692399    -2.0733040265     0.8675823332
| 10>  C        1.2272238976    -0.9134137386    -0.0057707138
| 11>  O        1.2137000992    -1.5051625731    -1.3368947198
| 12>  C        0.0941442919    -2.3166352100    -1.3746427903
| 13>  O       -0.2196474754    -2.9465650913    -2.3372100624
| 14>  H        0.8374091788     1.7851146040    -0.2414027754
| 15>  H       -0.8579626783     1.7999366809    -0.0703456647
| 16>  H       -1.3130734628    -2.9102954255     0.2339044843
| 17>  H        0.5149227608    -1.7930211098     1.9009737213
| 18>  H        1.3815156304    -2.9465170488     0.8230934568
| 19>  H        2.2061430278    -0.4724520735     0.1720613531
| 20> *
| 21>
| 22>                          ****END OF INPUT****

CARTESIAN COORDINATES (ANGSTROEM)
---------------------------------
  N      0.013816    1.321666    0.105684
  C     -0.025873   -0.036266    0.048540
  N     -1.086472   -0.765190    0.039744
  C     -0.558771   -2.162952    0.007236
  C      0.725169   -2.073304    0.867582
  C      1.227224   -0.913414   -0.005771
  O      1.213700   -1.505163   -1.336895
  C      0.094144   -2.316635   -1.374643
  O     -0.219647   -2.946565   -2.337210
  H      0.837409    1.785115   -0.241403
  H     -0.857963    1.799937   -0.070346
  H     -1.313073   -2.910295    0.233904
  H      0.514923   -1.793021    1.900974
  H      1.381516   -2.946517    0.823093
  H      2.206143   -0.472452    0.172061

 Total Charge           Charge          ....    0
 Multiplicity           Mult            ....    1
 Number of Electrons    NEL             ....   66
 Basis Dimension        Dim             ....  315

ORBITAL ENERGIES
----------------

  NO   OCC          E(Eh)            E(eV)
   0   2.0000     -20.607577      -560.7607
   1   2.0000     -20.546844      -559.1080
   2   2.0000     -15.601523      -424.5390
   3   2.0000     -15.553008      -423.2189
   4   2.0000     -11.378032      -309.6120
   5   2.0000     -11.335942      -308.4667
   6   2.0000     -11.329423      -308.2893
   7   2.0000     -11.287459      -307.1474
   8   2.0000     -11.261253      -306.4343
   9   2.0000      -1.464504       -39.8512
  10   2.0000      -1.376182       -37.4478
  11   2.0000      -1.295473       -35.2516
  12   2.0000      -1.209821       -32.9209
  13   2.0000      -1.056033       -28.7361
  14   2.0000      -1.001014       -27.2390
  15   2.0000      -0.861829       -23.4516
  16   2.0000      -0.827360       -22.5136
  17   2.0000      -0.766464       -20.8565
  18   2.0000      -0.748969       -20.3805
  19   2.0000      -0.712228       -19.3807
  20   2.0000      -0.686652       -18.6848
  21   2.0000      -0.662584       -18.0298
  22   2.0000      -0.636832       -17.3291
  23   2.0000      -0.603511       -16.4224
  24   2.0000      -0.581704       -15.8290
  25   2.0000      -0.557550       -15.1717
  26   2.0000      -0.542719       -14.7681
  27   2.0000      -0.537940       -14.6381
  28   2.0000      -0.523943       -14.2572
  29   2.0000      -0.478058       -13.0086
  30   2.0000      -0.451457       -12.2848
  31   2.0000      -0.420531       -11.4432
  32   2.0000      -0.372023       -10.1233
  33   0.0000       0.116120         3.1598
  34   0.0000       0.138607         3.7717
  35   0.0000       0.147664         4.0181
  36   0.0000       0.164055         4.4642
  37   0.0000       0.174288         4.7426

MULLIKEN ATOMIC CHARGES
-----------------------
   0 N :   -0.497583
   1 C :    0.098923
   2 N :   -0.249946
   3 C :    0.045114
   4 C :   -0.311435
   5 C :    0.085761
   6 O :   -0.242898
   7 C :    0.206220
   8 O :   -0.259758
   9 H :    0.266031
  10 H :    0.269897
  11 H :    0.147982
  12 H :    0.142801
  13 H :    0.147382
  14 H :    0.151509
Sum of atomic charges:    0.0000000

LOEWDIN ATOMIC CHARGES
----------------------
   0 N :   -0.020479
   1 C :   -0.354298
   2 N :    0.106402
   3 C :   -0.227424
   4 C :   -0.195133
   5 C :   -0.229829
   6 O :    0.251340
   7 C :   -0.427039
   8 O :    0.156065
   9 H :    0.176584
  10 H :    0.180422
  11 H :    0.148283
  12 H :    0.147369
  13 H :    0.145082
  14 H :    0.142656

  Mayer bond orders larger than 0.1
B(  0-N ,  1-C ) :   1.1396 B(  0-N ,  9-H ) :   0.8669 B(  0-N , 10-H ) :   0.8595
B(  1-C ,  2-N ) :   1.8125 B(  1-C ,  5-C ) :   0.9235 B(  2-N ,  3-C ) :   0.9104
B(  3-C ,  4-C ) :   0.9267 B(  3-C ,  7-C ) :   0.9025 B(  3-C , 11-H ) :   0.9152
B(  4-C ,  5-C ) :   0.9527 B(  4-C , 12-H ) :   0.9123 B(  4-C , 13-H ) :   0.9231
B(  5-C ,  6-O ) :   0.8364 B(  5-C , 14-H ) :   0.9003 B(  6-O ,  7-C ) :   1.0733
B(  7-C ,  8-O ) :   2.0564

MP2 TOTAL ENERGY:     -453.256764411 Eh
FINAL SINGLE POINT ENERGY      -453.256764411013

DIPOLE MOMENT
-------------
                                X             Y             Z
Electronic contribution:     -0.79826      -1.62369      -3.96957
Nuclear contribution   :      1.65218       2.78877       5.26063
                        -----------------------------------------
Total Dipole Moment    :      0.85393       1.16508       1.29106
                        -----------------------------------------
Magnitude (a.u.)       :      1.93738
Magnitude (Debye)      :      4.92442

                             ****ORCA TERMINATED NORMALLY****
TOTAL RUN TIME: 0 days 0 hours 15 minutes 58 seconds 600 msec
