                         Program Version 3.0.3 - RELEASE   -
|  1> ! RI-MP2 RIJK def2-TZVP def2-TZVP/C def2-TZVP/JK TIGHTSCF
|  2> % maxcore 2000
|  3> % mp2 density relaxed end
|  4> *xyz 0 1
|  5>  C       -0.0162311781     1.4330504798     0.0488116609
|  6>  C       -0.0513999079    -0.0637012622     0.0365821063
|  7>  C        0.4764654513    -1.0462996192    -0.9833951624
|  8>  C        1.1791204189    -0.9510988445     0.3520538405
|  9>  C        0.5106393689    -2.2030265935     0.9533650949
| 10>  C       -0.4456413451    -2.1115078803    -0.3105991654
| 11>  C       -1.1941925242    -0.9892211557     0.5221289141
| 12>  C       -0.6670758130    -1.6762843101     1.7951397490
| 13>  O       -1.0905188271    -1.8806169889     2.8946833355
| 14>  H        0.9308149190     1.8007289689    -0.3613655637
| 15>  H       -0.8263313908     1.8588530172    -0.5536532215
| 16>  H       -0.1127891637     1.8267759825     1.0672401556
| 17>  H        0.8379397853    -0.9067663703    -1.9932381307
| 18>  H        2.1414767295    -0.5210171035     0.5963499045
| 19>  H        1.1055314826    -3.0702716953     1.2290830008
| 20>  H       -0.9451694462    -2.9670333629    -0.7543062769
| 21>  H       -2.2315037195    -0.6924081320     0.3844477585
| 22> *
| 23>
| 24>                          ****END OF INPUT****

CARTESIAN COORDINATES (ANGSTROEM)
---------------------------------
  C     -0.016231    1.433050    0.048812
  C     -0.051400   -0.063701    0.036582
  C      0.476465   -1.046300   -0.983395
  C      1.179120   -0.951099    0.352054
  C      0.510639   -2.203027    0.953365
  C     -0.445641   -2.111508   -0.310599
  C     -1.194193   -0.989221    0.522129
  C     -0.667076   -1.676284    1.795140
  O     -1.090519   -1.880617    2.894683
  H      0.930815    1.800729   -0.361366
  H     -0.826331    1.858853   -0.553653
  H     -0.112789    1.826776    1.067240
  H      0.837940   -0.906766   -1.993238
  H      2.141477   -0.521017    0.596350
  H      1.105531   -3.070272    1.229083
  H     -0.945169   -2.967033   -0.754306
  H     -2.231504   -0.692408    0.384448

 Total Charge           Charge          ....    0
 Multiplicity           Mult            ....    1
 Number of Electrons    NEL             ....   64
 Basis Dimension        Dim             ....  327

ORBITAL ENERGIES
----------------

  NO   OCC          E(Eh)            E(eV)
   0   2.0000     -20.545590      -559.0739
   1   2.0000     -11.326828      -308.2187
   2   2.0000     -11.260465      -306.4128
   3   2.0000     -11.258577      -306.3615
   4   2.0000     -11.250394      -306.1388
   5   2.0000     -11.249376      -306.1111
   6   2.0000     -11.247829      -306.0690
   7   2.0000     -11.246949      -306.0450
   8   2.0000     -11.232006      -305.6384
   9   2.0000      -1.389655       -37.8144
  10   2.0000      -1.266875       -34.4734
  11   2.0000      -1.048502       -28.5312
  12   2.0000      -0.995216       -27.0812
  13   2.0000      -0.942947       -25.6589
  14   2.0000      -0.883215       -24.0335
  15   2.0000      -0.762797       -20.7568
  16   2.0000      -0.745960       -20.2986
  17   2.0000      -0.718031       -19.5386
  18   2.0000      -0.691759       -18.8237
  19   2.0000      -0.650356       -17.6971
  20   2.0000      -0.617525       -16.8037
  21   2.0000      -0.613235       -16.6870
  22   2.0000      -0.576539       -15.6884
  23   2.0000      -0.560091       -15.2409
  24   2.0000      -0.556437       -15.1414
  25   2.0000      -0.542460       -14.7611
  26   2.0000      -0.484885       -13.1944
  27   2.0000      -0.464153       -12.6303
  28   2.0000      -0.461012       -12.5448
  29   2.0000      -0.415303       -11.3010
  30   2.0000      -0.387416       -10.5421
  31   2.0000      -0.355999        -9.6872
  32   0.0000       0.131298         3.5728
  33   0.0000       0.148288         4.0351
  34   0.0000       0.160852         4.3770
  35   0.0000       0.167072         4.5463
  36   0.0000       0.175388         4.7725

MULLIKEN ATOMIC CHARGES
-----------------------
   0 C :   -0.424517
   1 C :    0.004818
   2 C :   -0.186318
   3 C :   -0.182466
   4 C :   -0.075574
   5 C :   -0.081861
   6 C :   -0.057147
   7 C :    0.106526
   8 O :   -0.253619
   9 H :    0.135455
  10 H :    0.139396
  11 H :    0.144881
  12 H :    0.147154
  13 H :    0.144107
  14 H :    0.143969
  15 H :    0.155411
  16 H :    0.139785
Sum of atomic charges:   -0.0000000

LOEWDIN ATOMIC CHARGES
----------------------
   0 C :   -0.270318
   1 C :   -0.179082
   2 C :   -0.115851
   3 C :   -0.114882
   4 C :   -0.117846
   5 C :   -0.079515
   6 C :   -0.096483
   7 C :   -0.274066
   8 O :    0.158849
   9 H :    0.133877
  10 H :    0.129590
  11 H :    0.132765
  12 H :    0.133687
  13 H :    0.140490
  14 H :    0.141094
  15 H :    0.135045
  16 H :    0.142647

  Mayer bond orders larger than 0.1
B(  0-C ,  1-C ) :   0.8811 B(  0-C ,  9-H ) :   0.9364 B(  0-C , 10-H ) :   0.9438
B(  0-C , 11-H ) :   0.9350 B(  1-C ,  2-C ) :   0.8420 B(  1-C ,  3-C ) :   0.8681
B(  1-C ,  6-C ) :   0.8486 B(  2-C ,  3-C ) :   0.8310 B(  2-C ,  5-C ) :   0.9179
B(  2-C , 12-H ) :   0.9080 B(  3-C ,  4-C ) :   0.8496 B(  3-C , 13-H ) :   0.9274
B(  4-C ,  5-C ) :   0.8981 B(  4-C ,  6-C ) :  -0.1063 B(  4-C ,  7-C ) :   0.8859
B(  4-C , 14-H ) :   0.9069 B(  5-C ,  6-C ) :   0.9031 B(  5-C , 15-H ) :   0.9141
B(  6-C ,  7-C ) :   0.8646 B(  6-C , 16-H ) :   0.9084 B(  7-C ,  8-O ) :   2.0495

MP2 TOTAL ENERGY:     -383.949895897 Eh
FINAL SINGLE POINT ENERGY      -383.949895897433

DIPOLE MOMENT
-------------
                                X             Y             Z
Electronic contribution:     -1.59802      -4.90449       3.86778
Nuclear contribution   :      2.02004       5.23739      -5.00796
                        -----------------------------------------
Total Dipole Moment    :      0.42202       0.33290      -1.14018
                        -----------------------------------------
Magnitude (a.u.)       :      1.26053
Magnitude (Debye)      :      3.20401

                             ****ORCA TERMINATED NORMALLY****
TOTAL RUN TIME: 0 days 0 hours 17 minutes 57 seconds 971 msec
