                         Program Version 3.0.3 - RELEASE   -
|  1> ! RI-MP2 RIJK def2-TZVP def2-TZVP/C def2-TZVP/JK TIGHTSCF
|  2> % maxcore 2000
|  3> % mp2 density relaxed end
|  4> *xyz 0 1
|  5>  C       -0.1714769192     1.5316032153    -0.0381745891
|  6>  C        0.0052441049     0.0190980468    -0.0056056371
|  7>  C        1.1416630615    -0.6023359438    -0.8772591917
|  8>  C        2.1202250707    -0.2734666110     0.2840890212
|  9>  C        0.8688722322    -0.5762452909     1.1851456582
| 10>  C        0.7355906477    -0.1576251107     2.6258954383
| 11>  C        0.6993924386    -2.0580557235     0.8681188928
| 12>  O        0.4573870557    -2.9592082299     1.6268371304
| 13>  C        0.9038908312    -2.1085628529    -0.6623227519
| 14>  H        0.7665513126     2.0795423151     0.0851418997
| 15>  H       -0.6082259243     1.8384301514    -0.9949324753
| 16>  H       -0.8530030106     1.8594721424     0.7538058201
| 17>  H       -0.9767663700    -0.4535997253    -0.1326435326
| 18>  H        1.3263411893    -0.2605883147    -1.8957916829
| 19>  H        3.0024681761    -0.9091784063     0.4078797366
| 20>  H        2.4182588142     0.7740686505     0.3298076268
| 21>  H        0.8347759332     0.9256606022     2.7444685410
| 22>  H       -0.2360120255    -0.4619499481     3.0287410909
| 23>  H        1.5035839033    -0.6396116116     3.2395878552
| 24>  H        0.0161172419    -2.5010441460    -1.1682956127
| 25>  H        1.7578115664    -2.7396412892    -0.9282799377
| 26> *
| 27>
| 28>                          ****END OF INPUT****

CARTESIAN COORDINATES (ANGSTROEM)
---------------------------------
  C     -0.171477    1.531603   -0.038175
  C      0.005244    0.019098   -0.005606
  C      1.141663   -0.602336   -0.877259
  C      2.120225   -0.273467    0.284089
  C      0.868872   -0.576245    1.185146
  C      0.735591   -0.157625    2.625895
  C      0.699392   -2.058056    0.868119
  O      0.457387   -2.959208    1.626837
  C      0.903891   -2.108563   -0.662323
  H      0.766551    2.079542    0.085142
  H     -0.608226    1.838430   -0.994932
  H     -0.853003    1.859472    0.753806
  H     -0.976766   -0.453600   -0.132644
  H      1.326341   -0.260588   -1.895792
  H      3.002468   -0.909178    0.407880
  H      2.418259    0.774069    0.329808
  H      0.834776    0.925661    2.744469
  H     -0.236012   -0.461950    3.028741
  H      1.503584   -0.639612    3.239588
  H      0.016117   -2.501044   -1.168296
  H      1.757812   -2.739641   -0.928280

 Total Charge           Charge          ....    0
 Multiplicity           Mult            ....    1
 Number of Electrons    NEL             ....   68
 Basis Dimension        Dim             ....  351

ORBITAL ENERGIES
----------------

  NO   OCC          E(Eh)            E(eV)
   0   2.0000     -20.540237      -558.9283
   1   2.0000     -11.322132      -308.0909
   2   2.0000     -11.248779      -306.0948
   3   2.0000     -11.247056      -306.0480
   4   2.0000     -11.245663      -306.0101
   5   2.0000     -11.238360      -305.8113
   6   2.0000     -11.235733      -305.7398
   7   2.0000     -11.226429      -305.4867
   8   2.0000     -11.217834      -305.2528
   9   2.0000      -1.384533       -37.6751
  10   2.0000      -1.200116       -32.6568
  11   2.0000      -1.020577       -27.7713
  12   2.0000      -1.005517       -27.3615
  13   2.0000      -0.947213       -25.7750
  14   2.0000      -0.881550       -23.9882
  15   2.0000      -0.863208       -23.4891
  16   2.0000      -0.751482       -20.4489
  17   2.0000      -0.696823       -18.9615
  18   2.0000      -0.672691       -18.3049
  19   2.0000      -0.662024       -18.0146
  20   2.0000      -0.618708       -16.8359
  21   2.0000      -0.598644       -16.2899
  22   2.0000      -0.586504       -15.9596
  23   2.0000      -0.572461       -15.5775
  24   2.0000      -0.552516       -15.0347
  25   2.0000      -0.545543       -14.8450
  26   2.0000      -0.533840       -14.5265
  27   2.0000      -0.521695       -14.1960
  28   2.0000      -0.511100       -13.9077
  29   2.0000      -0.493423       -13.4267
  30   2.0000      -0.451248       -12.2791
  31   2.0000      -0.443277       -12.0622
  32   2.0000      -0.430876       -11.7247
  33   2.0000      -0.379619       -10.3300
  34   0.0000       0.127518         3.4699
  35   0.0000       0.148345         4.0367
  36   0.0000       0.152023         4.1368
  37   0.0000       0.164608         4.4792
  38   0.0000       0.165672         4.5082

MULLIKEN ATOMIC CHARGES
-----------------------
   0 C :   -0.436557
   1 C :   -0.124186
   2 C :   -0.040975
   3 C :   -0.307110
   4 C :    0.134039
   5 C :   -0.413530
   6 C :    0.086305
   7 O :   -0.264513
   8 C :   -0.235692
   9 H :    0.128002
  10 H :    0.140824
  11 H :    0.142610
  12 H :    0.111768
  13 H :    0.131599
  14 H :    0.125759
  15 H :    0.128509
  16 H :    0.137962
  17 H :    0.142221
  18 H :    0.142423
  19 H :    0.133991
  20 H :    0.136552
Sum of atomic charges:   -0.0000000

LOEWDIN ATOMIC CHARGES
----------------------
   0 C :   -0.289085
   1 C :   -0.178094
   2 C :   -0.184019
   3 C :   -0.164390
   4 C :   -0.214278
   5 C :   -0.268595
   6 C :   -0.280780
   7 O :    0.154093
   8 C :   -0.197618
   9 H :    0.124244
  10 H :    0.128357
  11 H :    0.128101
  12 H :    0.148689
  13 H :    0.134461
  14 H :    0.131715
  15 H :    0.136540
  16 H :    0.127072
  17 H :    0.135376
  18 H :    0.135413
  19 H :    0.146368
  20 H :    0.146431

  Mayer bond orders larger than 0.1
B(  0-C ,  1-C ) :   0.8975 B(  0-C ,  9-H ) :   0.9341 B(  0-C , 10-H ) :   0.9372
B(  0-C , 11-H ) :   0.9402 B(  1-C ,  2-C ) :   0.8757 B(  1-C ,  4-C ) :   0.8367
B(  1-C , 12-H ) :   0.9253 B(  2-C ,  3-C ) :   0.9010 B(  2-C ,  8-C ) :   0.8920
B(  2-C , 13-H ) :   0.9070 B(  3-C ,  4-C ) :   0.8863 B(  3-C , 14-H ) :   0.9197
B(  3-C , 15-H ) :   0.9201 B(  4-C ,  5-C ) :   0.8492 B(  4-C ,  6-C ) :   0.8414
B(  4-C ,  8-C ) :  -0.1432 B(  5-C , 16-H ) :   0.9500 B(  5-C , 17-H ) :   0.9354
B(  5-C , 18-H ) :   0.9343 B(  6-C ,  7-O ) :   2.0778 B(  6-C ,  8-C ) :   0.9528
B(  8-C , 19-H ) :   0.9055 B(  8-C , 20-H ) :   0.9065

MP2 TOTAL ENERGY:     -386.436699428 Eh
FINAL SINGLE POINT ENERGY      -386.436699427761

DIPOLE MOMENT
-------------
                                X             Y             Z
Electronic contribution:      0.13033      -7.45598       0.72018
Nuclear contribution   :      0.04912       8.44768      -1.39293
                        -----------------------------------------
Total Dipole Moment    :      0.17945       0.99170      -0.67275
                        -----------------------------------------
Magnitude (a.u.)       :      1.21172
Magnitude (Debye)      :      3.07995

                             ****ORCA TERMINATED NORMALLY****
TOTAL RUN TIME: 0 days 0 hours 23 minutes 2 seconds 76 msec
