                         Program Version 3.0.3 - RELEASE   -
|  1> ! RI-MP2 RIJK def2-TZVP def2-TZVP/C def2-TZVP/JK TIGHTSCF
|  2> % maxcore 2000
|  3> % mp2 density relaxed end
|  4> *xyz 0 1
|  5>  O        0.0171875677     1.4206378338     0.0969585838
|  6>  C        0.0069840496     0.0065932845     0.0338144493
|  7>  C       -1.4061346892    -0.4727533870     0.0112885289
|  8>  C       -2.5369986951     0.2510576553     0.0475695792
|  9>  C       -3.7904787209    -0.5813378912    -0.0779811256
| 10>  C       -3.2753475482    -2.0238214779     0.0631785879
| 11>  O       -3.8527371880    -2.9363199540    -0.8360316787
| 12>  C       -1.7609249683    -1.8941306784    -0.1539024377
| 13>  O       -1.0437244420    -2.8245444035    -0.4600485746
| 14>  H        0.9325304493     1.7141132920     0.1032996747
| 15>  H        0.5194269700    -0.3721967148    -0.8654562805
| 16>  H        0.5278019285    -0.4446508020     0.8948989108
| 17>  H       -2.5579066827     1.3310973462     0.1323576347
| 18>  H       -4.5474842970    -0.3099792157     0.6647223361
| 19>  H       -4.2500425089    -0.4541195471    -1.0656435885
| 20>  H       -3.4187574836    -2.3539248013     1.1078157142
| 21>  H       -3.1619727314    -3.5883713988    -1.0232574038
| 22> *
| 23>
| 24>                          ****END OF INPUT****

CARTESIAN COORDINATES (ANGSTROEM)
---------------------------------
  O      0.017188    1.420638    0.096959
  C      0.006984    0.006593    0.033814
  C     -1.406135   -0.472753    0.011289
  C     -2.536999    0.251058    0.047570
  C     -3.790479   -0.581338   -0.077981
  C     -3.275348   -2.023821    0.063179
  O     -3.852737   -2.936320   -0.836032
  C     -1.760925   -1.894131   -0.153902
  O     -1.043724   -2.824544   -0.460049
  H      0.932530    1.714113    0.103300
  H      0.519427   -0.372197   -0.865456
  H      0.527802   -0.444651    0.894899
  H     -2.557907    1.331097    0.132358
  H     -4.547484   -0.309979    0.664722
  H     -4.250043   -0.454120   -1.065644
  H     -3.418757   -2.353925    1.107816
  H     -3.161973   -3.588371   -1.023257

 Total Charge           Charge          ....    0
 Multiplicity           Mult            ....    1
 Number of Electrons    NEL             ....   68
 Basis Dimension        Dim             ....  327

ORBITAL ENERGIES
----------------

  NO   OCC          E(Eh)            E(eV)
   0   2.0000     -20.572878      -559.8165
   1   2.0000     -20.562932      -559.5458
   2   2.0000     -20.552521      -559.2625
   3   2.0000     -11.334141      -308.4177
   4   2.0000     -11.296737      -307.3998
   5   2.0000     -11.295729      -307.3724
   6   2.0000     -11.267887      -306.6148
   7   2.0000     -11.247985      -306.0732
   8   2.0000     -11.246904      -306.0438
   9   2.0000      -1.401904       -38.1477
  10   2.0000      -1.378607       -37.5138
  11   2.0000      -1.364802       -37.1382
  12   2.0000      -1.154397       -31.4127
  13   2.0000      -1.020855       -27.7789
  14   2.0000      -0.937476       -25.5100
  15   2.0000      -0.911255       -24.7965
  16   2.0000      -0.797091       -21.6900
  17   2.0000      -0.742304       -20.1991
  18   2.0000      -0.711652       -19.3650
  19   2.0000      -0.691208       -18.8087
  20   2.0000      -0.685473       -18.6527
  21   2.0000      -0.647774       -17.6268
  22   2.0000      -0.636305       -17.3147
  23   2.0000      -0.606665       -16.5082
  24   2.0000      -0.577971       -15.7274
  25   2.0000      -0.563289       -15.3279
  26   2.0000      -0.557303       -15.1650
  27   2.0000      -0.549704       -14.9582
  28   2.0000      -0.525328       -14.2949
  29   2.0000      -0.515357       -14.0236
  30   2.0000      -0.471036       -12.8175
  31   2.0000      -0.456012       -12.4087
  32   2.0000      -0.410663       -11.1747
  33   2.0000      -0.374270       -10.1844
  34   0.0000       0.089448         2.4340
  35   0.0000       0.127341         3.4651
  36   0.0000       0.146403         3.9838
  37   0.0000       0.160884         4.3779
  38   0.0000       0.179264         4.8780

MULLIKEN ATOMIC CHARGES
-----------------------
   0 O :   -0.465938
   1 C :   -0.078728
   2 C :    0.001176
   3 C :   -0.170937
   4 C :   -0.134356
   5 C :    0.118339
   6 O :   -0.477812
   7 C :    0.094282
   8 O :   -0.314489
   9 H :    0.321179
  10 H :    0.127208
  11 H :    0.117926
  12 H :    0.163370
  13 H :    0.133690
  14 H :    0.134475
  15 H :    0.098151
  16 H :    0.332464
Sum of atomic charges:    0.0000000

LOEWDIN ATOMIC CHARGES
----------------------
   0 O :   -0.036304
   1 C :   -0.301911
   2 C :   -0.146625
   3 C :   -0.062186
   4 C :   -0.209092
   5 C :   -0.304260
   6 O :   -0.010889
   7 C :   -0.284799
   8 O :    0.130701
   9 H :    0.176906
  10 H :    0.134806
  11 H :    0.132185
  12 H :    0.148686
  13 H :    0.142056
  14 H :    0.155742
  15 H :    0.149396
  16 H :    0.185589

  Mayer bond orders larger than 0.1
B(  0-O ,  1-C ) :   1.0459 B(  0-O ,  2-C ) :  -0.1110 B(  0-O ,  9-H ) :   0.8454
B(  1-C ,  2-C ) :   0.9086 B(  1-C , 10-H ) :   0.9274 B(  1-C , 11-H ) :   0.9304
B(  2-C ,  3-C ) :   1.6281 B(  2-C ,  7-C ) :   0.9104 B(  3-C ,  4-C ) :   0.9235
B(  3-C , 12-H ) :   0.9103 B(  4-C ,  5-C ) :   0.9116 B(  4-C , 13-H ) :   0.9247
B(  4-C , 14-H ) :   0.8806 B(  5-C ,  6-O ) :   1.0100 B(  5-C ,  7-C ) :   0.9503
B(  5-C , 15-H ) :   0.9073 B(  6-O , 16-H ) :   0.8210 B(  7-C ,  8-O ) :   1.9789

MP2 TOTAL ENERGY:     -458.252780386 Eh
FINAL SINGLE POINT ENERGY      -458.252780386474

DIPOLE MOMENT
-------------
                                X             Y             Z
Electronic contribution:      0.95504      -2.58039      -0.69871
Nuclear contribution   :     -0.46172       3.42881       1.12147
                        -----------------------------------------
Total Dipole Moment    :      0.49332       0.84842       0.42276
                        -----------------------------------------
Magnitude (a.u.)       :      1.06860
Magnitude (Debye)      :      2.71617

                             ****ORCA TERMINATED NORMALLY****
TOTAL RUN TIME: 0 days 0 hours 16 minutes 5 seconds 984 msec
