                         Program Version 3.0.3 - RELEASE   -
|  1> ! RI-MP2 RIJK def2-TZVP def2-TZVP/C def2-TZVP/JK TIGHTSCF
|  2> % maxcore 2000
|  3> % mp2 density relaxed end
|  4> *xyz 0 1
|  5>  O        0.0654115699     1.3510015452    -0.3348434367
|  6>  C        0.0789689644    -0.0108582665     0.0443511038
|  7>  C       -1.3008668772    -0.5795449849     0.0520116845
|  8>  C       -2.0163386355    -1.8753471475     0.1191678382
|  9>  C       -2.8497530154    -1.3414490563     1.2805107703
| 10>  N       -2.4558442396     0.0669948533     0.8507206785
| 11>  C       -3.1668236228     0.1459347326    -0.4662713555
| 12>  O       -4.0185730088     0.8965672441    -0.8170374047
| 13>  C       -2.2917912666    -0.8957425550    -1.0643578428
| 14>  H       -0.5097435076     1.8123679906     0.2874949008
| 15>  H        0.6991727649    -0.5414042193    -0.6855496746
| 16>  H        0.5396013351    -0.1509483618     1.0346691044
| 17>  H       -1.6433041369    -2.8729255732    -0.0827364148
| 18>  H       -3.9304584939    -1.5167797446     1.2959352222
| 19>  H       -2.4170030266    -1.5698604841     2.2570176367
| 20>  H       -2.1037208235    -1.1673014027    -2.0941309704
| 21> *
| 22>
| 23>                          ****END OF INPUT****

CARTESIAN COORDINATES (ANGSTROEM)
---------------------------------
  O      0.065412    1.351002   -0.334843
  C      0.078969   -0.010858    0.044351
  C     -1.300867   -0.579545    0.052012
  C     -2.016339   -1.875347    0.119168
  C     -2.849753   -1.341449    1.280511
  N     -2.455844    0.066995    0.850721
  C     -3.166824    0.145935   -0.466271
  O     -4.018573    0.896567   -0.817037
  C     -2.291791   -0.895743   -1.064358
  H     -0.509744    1.812368    0.287495
  H      0.699173   -0.541404   -0.685550
  H      0.539601   -0.150948    1.034669
  H     -1.643304   -2.872926   -0.082736
  H     -3.930458   -1.516780    1.295935
  H     -2.417003   -1.569860    2.257018
  H     -2.103721   -1.167301   -2.094131

 Total Charge           Charge          ....    0
 Multiplicity           Mult            ....    1
 Number of Electrons    NEL             ....   66
 Basis Dimension        Dim             ....  321

ORBITAL ENERGIES
----------------

  NO   OCC          E(Eh)            E(eV)
   0   2.0000     -20.569807      -559.7329
   1   2.0000     -20.555970      -559.3564
   2   2.0000     -15.587640      -424.1613
   3   2.0000     -11.366021      -309.2852
   4   2.0000     -11.305095      -307.6273
   5   2.0000     -11.301721      -307.5355
   6   2.0000     -11.290458      -307.2290
   7   2.0000     -11.283185      -307.0311
   8   2.0000     -11.270978      -306.6989
   9   2.0000      -1.416151       -38.5354
  10   2.0000      -1.378080       -37.4995
  11   2.0000      -1.328796       -36.1584
  12   2.0000      -1.073290       -29.2057
  13   2.0000      -0.999765       -27.2050
  14   2.0000      -0.986655       -26.8483
  15   2.0000      -0.860440       -23.4138
  16   2.0000      -0.775322       -21.0976
  17   2.0000      -0.729266       -19.8443
  18   2.0000      -0.724893       -19.7253
  19   2.0000      -0.691563       -18.8184
  20   2.0000      -0.674555       -18.3556
  21   2.0000      -0.659696       -17.9512
  22   2.0000      -0.622196       -16.9308
  23   2.0000      -0.618390       -16.8272
  24   2.0000      -0.579957       -15.7814
  25   2.0000      -0.558819       -15.2062
  26   2.0000      -0.543924       -14.8009
  27   2.0000      -0.500927       -13.6309
  28   2.0000      -0.490190       -13.3387
  29   2.0000      -0.453676       -12.3451
  30   2.0000      -0.443646       -12.0722
  31   2.0000      -0.415944       -11.3184
  32   2.0000      -0.398515       -10.8442
  33   0.0000       0.125747         3.4217
  34   0.0000       0.145813         3.9678
  35   0.0000       0.153973         4.1898
  36   0.0000       0.166400         4.5280
  37   0.0000       0.174734         4.7547

MULLIKEN ATOMIC CHARGES
-----------------------
   0 O :   -0.460723
   1 C :    0.030737
   2 C :    0.032944
   3 C :   -0.174981
   4 C :   -0.128329
   5 N :   -0.226312
   6 C :    0.174509
   7 O :   -0.230538
   8 C :   -0.165846
   9 H :    0.332303
  10 H :    0.117510
  11 H :    0.117202
  12 H :    0.147721
  13 H :    0.133381
  14 H :    0.133665
  15 H :    0.166755
Sum of atomic charges:    0.0000000

LOEWDIN ATOMIC CHARGES
----------------------
   0 O :   -0.027913
   1 C :   -0.312252
   2 C :   -0.188854
   3 C :   -0.139467
   4 C :   -0.205614
   5 N :    0.146191
   6 C :   -0.364177
   7 O :    0.179278
   8 C :   -0.101815
   9 H :    0.183731
  10 H :    0.141377
  11 H :    0.130270
  12 H :    0.144257
  13 H :    0.129129
  14 H :    0.136112
  15 H :    0.149746

  Mayer bond orders larger than 0.1
B(  0-O ,  1-C ) :   0.9284 B(  0-O ,  9-H ) :   0.8302 B(  1-C ,  2-C ) :   0.8723
B(  1-C , 10-H ) :   0.9182 B(  1-C , 11-H ) :   0.9360 B(  2-C ,  3-C ) :   0.8098
B(  2-C ,  5-N ) :   0.8887 B(  2-C ,  8-C ) :   0.7717 B(  3-C ,  4-C ) :   0.9853
B(  3-C ,  8-C ) :   0.8101 B(  3-C , 12-H ) :   0.9163 B(  4-C ,  5-N ) :   0.9304
B(  4-C , 13-H ) :   0.9257 B(  4-C , 14-H ) :   0.9157 B(  5-N ,  6-C ) :   0.8622
B(  6-C ,  7-O ) :   2.0812 B(  6-C ,  8-C ) :   0.9565 B(  8-C , 15-H ) :   0.8901

MP2 TOTAL ENERGY:     -437.110615595 Eh
FINAL SINGLE POINT ENERGY      -437.110615594841

DIPOLE MOMENT
-------------
                                X             Y             Z
Electronic contribution:     -3.41881       2.73564      -1.71963
Nuclear contribution   :      4.10973      -4.34122       2.13444
                        -----------------------------------------
Total Dipole Moment    :      0.69091      -1.60558       0.41481
                        -----------------------------------------
Magnitude (a.u.)       :      1.79648
Magnitude (Debye)      :      4.56628

                             ****ORCA TERMINATED NORMALLY****
TOTAL RUN TIME: 0 days 0 hours 16 minutes 58 seconds 844 msec
