                         Program Version 3.0.3 - RELEASE   -
|  1> ! RI-MP2 RIJK def2-TZVP def2-TZVP/C def2-TZVP/JK TIGHTSCF
|  2> % maxcore 2000
|  3> % mp2 density relaxed end
|  4> *xyz 0 1
|  5>  C        0.0761716144     1.6011796949     0.1431123700
|  6>  C       -0.0081176140     0.0911710857     0.1056096542
|  7>  C        1.2013474082    -0.7412407990    -0.2965547644
|  8>  C        0.7092061125    -0.7543797572     1.1163755816
|  9>  O        1.5222436354    -0.0576033484     2.0765738140
| 10>  C        1.4509468894    -0.8083094666     3.2007308409
| 11>  N        0.7577882590    -1.8676764478     3.2148871888
| 12>  C        0.1546946906    -1.9818192483     1.8681662840
| 13>  C       -1.3686933506    -2.0620759108     1.9669590382
| 14>  H        1.0479513246     1.9315793142     0.5178661293
| 15>  H       -0.0680640755     2.0232217498    -0.8569651912
| 16>  H       -0.6923773519     2.0229163350     0.7996734744
| 17>  H       -0.9702717744    -0.2995517964    -0.2160014025
| 18>  H        1.0539829465    -1.6331923272    -0.8983470019
| 19>  H        2.1274538707    -0.2090866831    -0.4892874809
| 20>  H        2.0243663973    -0.4170875167     4.0340065582
| 21>  H        0.5260626786    -2.9066717088     1.4081958666
| 22>  H       -1.7800511748    -1.1443195363     2.3978287872
| 23>  H       -1.8222470099    -2.2175516549     0.9829084500
| 24>  H       -1.6507332459    -2.8995966481     2.6100781037
| 25> *
| 26>
| 27>                          ****END OF INPUT****

CARTESIAN COORDINATES (ANGSTROEM)
---------------------------------
  C      0.076172    1.601180    0.143112
  C     -0.008118    0.091171    0.105610
  C      1.201347   -0.741241   -0.296555
  C      0.709206   -0.754380    1.116376
  O      1.522244   -0.057603    2.076574
  C      1.450947   -0.808309    3.200731
  N      0.757788   -1.867676    3.214887
  C      0.154695   -1.981819    1.868166
  C     -1.368693   -2.062076    1.966959
  H      1.047951    1.931579    0.517866
  H     -0.068064    2.023222   -0.856965
  H     -0.692377    2.022916    0.799673
  H     -0.970272   -0.299552   -0.216001
  H      1.053983   -1.633192   -0.898347
  H      2.127454   -0.209087   -0.489287
  H      2.024366   -0.417088    4.034007
  H      0.526063   -2.906672    1.408196
  H     -1.780051   -1.144320    2.397829
  H     -1.822247   -2.217552    0.982908
  H     -1.650733   -2.899597    2.610078

 Total Charge           Charge          ....    0
 Multiplicity           Mult            ....    1
 Number of Electrons    NEL             ....   68
 Basis Dimension        Dim             ....  345

ORBITAL ENERGIES
----------------

  NO   OCC          E(Eh)            E(eV)
   0   2.0000     -20.595737      -560.4385
   1   2.0000     -15.545037      -423.0020
   2   2.0000     -11.329340      -308.2870
   3   2.0000     -11.296244      -307.3864
   4   2.0000     -11.267108      -306.5936
   5   2.0000     -11.240048      -305.8573
   6   2.0000     -11.229919      -305.5816
   7   2.0000     -11.220693      -305.3306
   8   2.0000     -11.217808      -305.2521
   9   2.0000      -1.441044       -39.2128
  10   2.0000      -1.213688       -33.0261
  11   2.0000      -1.156940       -31.4819
  12   2.0000      -1.021488       -27.7961
  13   2.0000      -0.967104       -26.3162
  14   2.0000      -0.898285       -24.4436
  15   2.0000      -0.812051       -22.0970
  16   2.0000      -0.809597       -22.0303
  17   2.0000      -0.754032       -20.5183
  18   2.0000      -0.710910       -19.3448
  19   2.0000      -0.652568       -17.7573
  20   2.0000      -0.638729       -17.3807
  21   2.0000      -0.621199       -16.9037
  22   2.0000      -0.598493       -16.2858
  23   2.0000      -0.575450       -15.6588
  24   2.0000      -0.567016       -15.4293
  25   2.0000      -0.544553       -14.8180
  26   2.0000      -0.532780       -14.4977
  27   2.0000      -0.519041       -14.1238
  28   2.0000      -0.504437       -13.7264
  29   2.0000      -0.494231       -13.4487
  30   2.0000      -0.449254       -12.2248
  31   2.0000      -0.440868       -11.9966
  32   2.0000      -0.406888       -11.0720
  33   2.0000      -0.361841        -9.8462
  34   0.0000       0.134264         3.6535
  35   0.0000       0.152852         4.1593
  36   0.0000       0.167590         4.5604
  37   0.0000       0.175322         4.7708
  38   0.0000       0.177273         4.8238

MULLIKEN ATOMIC CHARGES
-----------------------
   0 C :   -0.419047
   1 C :   -0.067795
   2 C :   -0.314392
   3 C :    0.129558
   4 O :   -0.264533
   5 C :    0.089009
   6 N :   -0.284842
   7 C :    0.090460
   8 C :   -0.417233
   9 H :    0.143521
  10 H :    0.136132
  11 H :    0.134030
  12 H :    0.123135
  13 H :    0.134893
  14 H :    0.135900
  15 H :    0.144618
  16 H :    0.105029
  17 H :    0.132236
  18 H :    0.121501
  19 H :    0.147820
Sum of atomic charges:   -0.0000000

LOEWDIN ATOMIC CHARGES
----------------------
   0 C :   -0.290581
   1 C :   -0.213181
   2 C :   -0.185706
   3 C :   -0.245373
   4 O :    0.264658
   5 C :   -0.342942
   6 N :    0.084829
   7 C :   -0.259997
   8 C :   -0.287674
   9 H :    0.130696
  10 H :    0.126338
  11 H :    0.127047
  12 H :    0.150786
  13 H :    0.135414
  14 H :    0.142097
  15 H :    0.133778
  16 H :    0.150941
  17 H :    0.126914
  18 H :    0.122095
  19 H :    0.129860

  Mayer bond orders larger than 0.1
B(  0-C ,  1-C ) :   0.9022 B(  0-C ,  9-H ) :   0.9306 B(  0-C , 10-H ) :   0.9391
B(  0-C , 11-H ) :   0.9405 B(  1-C ,  2-C ) :   0.9006 B(  1-C ,  3-C ) :   0.8377
B(  1-C , 12-H ) :   0.9150 B(  2-C ,  3-C ) :   0.8790 B(  2-C , 13-H ) :   0.9195
B(  2-C , 14-H ) :   0.9166 B(  3-C ,  4-O ) :   0.8836 B(  3-C ,  7-C ) :   0.9002
B(  4-O ,  5-C ) :   1.0630 B(  5-C ,  6-N ) :   1.8358 B(  5-C , 15-H ) :   0.9225
B(  6-N ,  7-C ) :   0.9214 B(  7-C ,  8-C ) :   0.8965 B(  7-C , 16-H ) :   0.9135
B(  8-C , 17-H ) :   0.9355 B(  8-C , 18-H ) :   0.9356 B(  8-C , 19-H ) :   0.9332

MP2 TOTAL ENERGY:     -402.458171912 Eh
FINAL SINGLE POINT ENERGY      -402.458171911626

DIPOLE MOMENT
-------------
                                X             Y             Z
Electronic contribution:      5.07224      -1.65984       5.01883
Nuclear contribution   :     -5.23469       1.93017      -5.66042
                        -----------------------------------------
Total Dipole Moment    :     -0.16245       0.27033      -0.64159
                        -----------------------------------------
Magnitude (a.u.)       :      0.71492
Magnitude (Debye)      :      1.81718

                             ****ORCA TERMINATED NORMALLY****
TOTAL RUN TIME: 0 days 0 hours 18 minutes 45 seconds 722 msec
