                         Program Version 3.0.3 - RELEASE   -
|  1> ! RI-MP2 RIJK def2-TZVP def2-TZVP/C def2-TZVP/JK TIGHTSCF
|  2> % maxcore 2000
|  3> % mp2 density relaxed end
|  4> *xyz 0 1
|  5>  C       -0.0565235822     1.4299210859     0.0880744984
|  6>  O       -0.0236021279     0.0111836071     0.0245880932
|  7>  C        0.6158819417    -0.6091564773     1.0428676876
|  8>  C        0.7537200681    -1.9707550341     1.1618162652
|  9>  C        0.2979676242    -3.1005404297     0.3076590064
| 10>  N        1.4685618779    -2.1152554329     2.3466644498
| 11>  C        1.7151788803    -0.8788047332     2.8590596439
| 12>  C        2.4650713302    -0.6436629891     4.1271560908
| 13>  N        1.2033707047     0.0592107590     2.0808933105
| 14>  H        0.9533571061     1.8542619372     0.0820509987
| 15>  H       -0.6029215826     1.7566019387    -0.7989122735
| 16>  H       -0.5686183868     1.7782582878     0.9916174257
| 17>  H        1.1313001951    -3.7035644799    -0.0765973660
| 18>  H       -0.3829006901    -3.7816331478     0.8351148976
| 19>  H       -0.2406025983    -2.6960502452    -0.5523033094
| 20>  H        1.7530724650    -2.9915082167     2.7513738021
| 21>  H        3.4949907954    -1.0165630311     4.0722325042
| 22>  H        2.5004058764     0.4300023327     4.3159303271
| 23>  H        1.9847919628    -1.1283904116     4.9855543979
| 24> *
| 25>
| 26>                          ****END OF INPUT****

CARTESIAN COORDINATES (ANGSTROEM)
---------------------------------
  C     -0.056524    1.429921    0.088074
  O     -0.023602    0.011184    0.024588
  C      0.615882   -0.609156    1.042868
  C      0.753720   -1.970755    1.161816
  C      0.297968   -3.100540    0.307659
  N      1.468562   -2.115255    2.346664
  C      1.715179   -0.878805    2.859060
  C      2.465071   -0.643663    4.127156
  N      1.203371    0.059211    2.080893
  H      0.953357    1.854262    0.082051
  H     -0.602922    1.756602   -0.798912
  H     -0.568618    1.778258    0.991617
  H      1.131300   -3.703564   -0.076597
  H     -0.382901   -3.781633    0.835115
  H     -0.240603   -2.696050   -0.552303
  H      1.753072   -2.991508    2.751374
  H      3.494991   -1.016563    4.072233
  H      2.500406    0.430002    4.315930
  H      1.984792   -1.128390    4.985554

 Total Charge           Charge          ....    0
 Multiplicity           Mult            ....    1
 Number of Electrons    NEL             ....   68
 Basis Dimension        Dim             ....  339

ORBITAL ENERGIES
----------------

  NO   OCC          E(Eh)            E(eV)
   0   2.0000     -20.563608      -559.5642
   1   2.0000     -15.604193      -424.6117
   2   2.0000     -15.531960      -422.6461
   3   2.0000     -11.297570      -307.4225
   4   2.0000     -11.286510      -307.1215
   5   2.0000     -11.262022      -306.4552
   6   2.0000     -11.238987      -305.8284
   7   2.0000     -11.236664      -305.7652
   8   2.0000     -11.225429      -305.4594
   9   2.0000      -1.397609       -38.0309
  10   2.0000      -1.324833       -36.0505
  11   2.0000      -1.156785       -31.4777
  12   2.0000      -1.052694       -28.6453
  13   2.0000      -0.988109       -26.8878
  14   2.0000      -0.945111       -25.7178
  15   2.0000      -0.877671       -23.8826
  16   2.0000      -0.812976       -22.1222
  17   2.0000      -0.763083       -20.7645
  18   2.0000      -0.702767       -19.1233
  19   2.0000      -0.650927       -17.7126
  20   2.0000      -0.646978       -17.6052
  21   2.0000      -0.610600       -16.6153
  22   2.0000      -0.609771       -16.5927
  23   2.0000      -0.573972       -15.6186
  24   2.0000      -0.570728       -15.5303
  25   2.0000      -0.565713       -15.3938
  26   2.0000      -0.540203       -14.6997
  27   2.0000      -0.532119       -14.4797
  28   2.0000      -0.529023       -14.3954
  29   2.0000      -0.496206       -13.5024
  30   2.0000      -0.476030       -12.9534
  31   2.0000      -0.431176       -11.7329
  32   2.0000      -0.384078       -10.4513
  33   2.0000      -0.275696        -7.5021
  34   0.0000       0.122785         3.3412
  35   0.0000       0.155349         4.2273
  36   0.0000       0.163561         4.4507
  37   0.0000       0.168261         4.5786
  38   0.0000       0.177411         4.8276

MULLIKEN ATOMIC CHARGES
-----------------------
   0 C :   -0.196247
   1 O :   -0.310713
   2 C :    0.215607
   3 C :    0.076251
   4 C :   -0.435698
   5 N :   -0.289313
   6 C :    0.211540
   7 C :   -0.446191
   8 N :   -0.337316
   9 H :    0.124290
  10 H :    0.134540
  11 H :    0.124220
  12 H :    0.139294
  13 H :    0.139133
  14 H :    0.167455
  15 H :    0.241499
  16 H :    0.139938
  17 H :    0.162429
  18 H :    0.139283
Sum of atomic charges:    0.0000000

LOEWDIN ATOMIC CHARGES
----------------------
   0 C :   -0.329164
   1 O :    0.210466
   2 C :   -0.362480
   3 C :   -0.246170
   4 C :   -0.285222
   5 N :    0.209230
   6 C :   -0.351385
   7 C :   -0.282325
   8 N :    0.114705
   9 H :    0.108497
  10 H :    0.110473
  11 H :    0.108486
  12 H :    0.127998
  13 H :    0.127997
  14 H :    0.144441
  15 H :    0.193355
  16 H :    0.129393
  17 H :    0.142501
  18 H :    0.129206

  Mayer bond orders larger than 0.1
B(  0-C ,  1-O ) :   0.8674 B(  0-C ,  9-H ) :   0.9382 B(  0-C , 10-H ) :   0.9361
B(  0-C , 11-H ) :   0.9382 B(  1-O ,  2-C ) :   1.0832 B(  2-C ,  3-C ) :   1.4858
B(  2-C ,  8-N ) :   1.2372 B(  3-C ,  4-C ) :   0.8358 B(  3-C ,  5-N ) :   1.0924
B(  4-C , 12-H ) :   0.9376 B(  4-C , 13-H ) :   0.9376 B(  4-C , 14-H ) :   0.9468
B(  5-N ,  6-C ) :   1.1915 B(  5-N , 15-H ) :   0.8681 B(  6-C ,  7-C ) :   0.8561
B(  6-C ,  8-N ) :   1.5591 B(  7-C , 16-H ) :   0.9341 B(  7-C , 17-H ) :   0.9526
B(  7-C , 18-H ) :   0.9355

MP2 TOTAL ENERGY:     -418.541081963 Eh
FINAL SINGLE POINT ENERGY      -418.541081963435

DIPOLE MOMENT
-------------
                                X             Y             Z
Electronic contribution:     -0.38085      -0.01098      -0.63265
Nuclear contribution   :      0.71459      -0.90378       1.11581
                        -----------------------------------------
Total Dipole Moment    :      0.33374      -0.91476       0.48316
                        -----------------------------------------
Magnitude (a.u.)       :      1.08702
Magnitude (Debye)      :      2.76298

                             ****ORCA TERMINATED NORMALLY****
TOTAL RUN TIME: 0 days 0 hours 17 minutes 9 seconds 652 msec
