                         Program Version 3.0.3 - RELEASE   -
|  1> ! RI-MP2 RIJK def2-TZVP def2-TZVP/C def2-TZVP/JK TIGHTSCF
|  2> % maxcore 2000
|  3> % mp2 density relaxed end
|  4> *xyz 0 1
|  5>  C       -0.0811457602     1.5369253008    -0.0464440993
|  6>  C       -0.0165999113     0.0181875358    -0.0164379761
|  7>  C        1.3040166210    -0.6345069918    -0.5567436877
|  8>  O        1.9393195947    -0.2829167381     0.7186774637
|  9>  C        0.6155962103    -0.6499903486     1.2649100202
| 10>  C        0.4295609913    -0.2136690259     2.6929573614
| 11>  O        1.3960127037    -0.8256350477     3.5300790774
| 12>  C        0.5459235129    -2.1426474887     0.8883684737
| 13>  C        1.0149228435    -2.1304679209    -0.3605482518
| 14>  H        0.8576731966     1.9744977384     0.3000079491
| 15>  H       -0.2734609331     1.8909345514    -1.0651952642
| 16>  H       -0.8946567319     1.9096650521     0.5855051138
| 17>  H       -0.9448399395    -0.4380349285    -0.3698697571
| 18>  H        1.8370424598    -0.2803636677    -1.4387174057
| 19>  H        0.4763983732     0.8836173999     2.7565257760
| 20>  H       -0.5549644770    -0.5286086359     3.0566501480
| 21>  H        2.2491497483    -0.7000090421     3.0974280149
| 22>  H        0.1908973304    -2.9477337413     1.5142153644
| 23>  H        1.1507308573    -2.9253366110    -1.0789145206
| 24> *
| 25>
| 26>                          ****END OF INPUT****

CARTESIAN COORDINATES (ANGSTROEM)
---------------------------------
  C     -0.081146    1.536925   -0.046444
  C     -0.016600    0.018188   -0.016438
  C      1.304017   -0.634507   -0.556744
  O      1.939320   -0.282917    0.718677
  C      0.615596   -0.649990    1.264910
  C      0.429561   -0.213669    2.692957
  O      1.396013   -0.825635    3.530079
  C      0.545924   -2.142647    0.888368
  C      1.014923   -2.130468   -0.360548
  H      0.857673    1.974498    0.300008
  H     -0.273461    1.890935   -1.065195
  H     -0.894657    1.909665    0.585505
  H     -0.944840   -0.438035   -0.369870
  H      1.837042   -0.280364   -1.438717
  H      0.476398    0.883617    2.756526
  H     -0.554964   -0.528609    3.056650
  H      2.249150   -0.700009    3.097428
  H      0.190897   -2.947734    1.514215
  H      1.150731   -2.925337   -1.078915

 Total Charge           Charge          ....    0
 Multiplicity           Mult            ....    1
 Number of Electrons    NEL             ....   68
 Basis Dimension        Dim             ....  339

ORBITAL ENERGIES
----------------

  NO   OCC          E(Eh)            E(eV)
   0   2.0000     -20.554341      -559.3120
   1   2.0000     -20.550702      -559.2130
   2   2.0000     -11.299406      -307.4725
   3   2.0000     -11.298094      -307.4368
   4   2.0000     -11.280338      -306.9536
   5   2.0000     -11.249077      -306.1029
   6   2.0000     -11.236262      -305.7542
   7   2.0000     -11.234442      -305.7047
   8   2.0000     -11.221007      -305.3391
   9   2.0000      -1.395731       -37.9798
  10   2.0000      -1.356750       -36.9191
  11   2.0000      -1.102008       -29.9872
  12   2.0000      -1.030035       -28.0287
  13   2.0000      -0.997287       -27.1376
  14   2.0000      -0.901964       -24.5437
  15   2.0000      -0.874496       -23.7962
  16   2.0000      -0.752971       -20.4894
  17   2.0000      -0.741069       -20.1655
  18   2.0000      -0.713449       -19.4139
  19   2.0000      -0.676810       -18.4169
  20   2.0000      -0.657805       -17.8998
  21   2.0000      -0.621845       -16.9213
  22   2.0000      -0.584395       -15.9022
  23   2.0000      -0.574292       -15.6273
  24   2.0000      -0.565043       -15.3756
  25   2.0000      -0.551575       -15.0091
  26   2.0000      -0.539925       -14.6921
  27   2.0000      -0.532004       -14.4766
  28   2.0000      -0.500490       -13.6190
  29   2.0000      -0.481141       -13.0925
  30   2.0000      -0.450580       -12.2609
  31   2.0000      -0.431829       -11.7507
  32   2.0000      -0.423575       -11.5261
  33   2.0000      -0.355084        -9.6623
  34   0.0000       0.129717         3.5298
  35   0.0000       0.138238         3.7617
  36   0.0000       0.161171         4.3857
  37   0.0000       0.167829         4.5669
  38   0.0000       0.177121         4.8197

MULLIKEN ATOMIC CHARGES
-----------------------
   0 C :   -0.472646
   1 C :    0.042348
   2 C :    0.021543
   3 O :   -0.336132
   4 C :    0.096123
   5 C :   -0.008176
   6 O :   -0.470563
   7 C :   -0.213201
   8 C :   -0.185244
   9 H :    0.158864
  10 H :    0.138037
  11 H :    0.136579
  12 H :    0.112731
  13 H :    0.141697
  14 H :    0.118384
  15 H :    0.112008
  16 H :    0.329728
  17 H :    0.137850
  18 H :    0.140072
Sum of atomic charges:   -0.0000000

LOEWDIN ATOMIC CHARGES
----------------------
   0 C :   -0.298445
   1 C :   -0.180708
   2 C :   -0.212849
   3 O :    0.154473
   4 C :   -0.273202
   5 C :   -0.306077
   6 O :   -0.036706
   7 C :   -0.102362
   8 C :   -0.127702
   9 H :    0.131579
  10 H :    0.127225
  11 H :    0.126124
  12 H :    0.145466
  13 H :    0.132290
  14 H :    0.126874
  15 H :    0.137395
  16 H :    0.182283
  17 H :    0.139752
  18 H :    0.134591

  Mayer bond orders larger than 0.1
B(  0-C ,  1-C ) :   0.8850 B(  0-C ,  9-H ) :   0.9392 B(  0-C , 10-H ) :   0.9342
B(  0-C , 11-H ) :   0.9348 B(  1-C ,  2-C ) :   0.9280 B(  1-C ,  4-C ) :   0.8560
B(  1-C , 12-H ) :   0.9052 B(  2-C ,  3-O ) :   0.9013 B(  2-C ,  8-C ) :   0.9557
B(  2-C , 13-H ) :   0.8978 B(  3-O ,  4-C ) :   0.8679 B(  4-C ,  5-C ) :   0.8943
B(  4-C ,  7-C ) :   0.9369 B(  5-C ,  6-O ) :   0.9329 B(  5-C , 14-H ) :   0.9461
B(  5-C , 15-H ) :   0.9203 B(  6-O , 16-H ) :   0.8318 B(  7-C ,  8-C ) :   1.7536
B(  7-C , 17-H ) :   0.9372 B(  8-C , 18-H ) :   0.9294

MP2 TOTAL ENERGY:     -422.274877845 Eh
FINAL SINGLE POINT ENERGY      -422.274877844536

DIPOLE MOMENT
-------------
                                X             Y             Z
Electronic contribution:      3.24623      -3.94250       1.28871
Nuclear contribution   :     -3.81449       4.08232      -2.12292
                        -----------------------------------------
Total Dipole Moment    :     -0.56826       0.13983      -0.83421
                        -----------------------------------------
Magnitude (a.u.)       :      1.01901
Magnitude (Debye)      :      2.59011

                             ****ORCA TERMINATED NORMALLY****
TOTAL RUN TIME: 0 days 0 hours 17 minutes 12 seconds 435 msec
