                         Program Version 3.0.3 - RELEASE   -
|  1> ! RI-MP2 RIJK def2-TZVP def2-TZVP/C def2-TZVP/JK TIGHTSCF
|  2> % maxcore 2000
|  3> % mp2 density relaxed end
|  4> *xyz 0 1
|  5>  O        0.2412748181     1.1616851905    -0.5615031117
|  6>  C        0.0722363873    -0.2191655421    -0.2661458488
|  7>  C       -1.3857051170    -0.5760523046     0.0339985698
|  8>  C       -2.3514473711    -0.1685853718    -1.1120622540
|  9>  C       -3.3380426943    -1.3465150916    -1.2542929196
| 10>  C       -2.4897373724    -2.5745552099    -0.9340892478
| 11>  O       -1.6468934738    -2.9745699156    -2.0233498969
| 12>  C       -1.6092917576    -2.1170036570     0.2562120050
| 13>  O       -0.4296796238    -2.8840031256     0.3583756820
| 14>  H        0.0203233655     1.6597173394     0.2321101567
| 15>  H        0.4132607926    -0.7507309972    -1.1618763484
| 16>  H        0.7198738705    -0.5425793443     0.5584221371
| 17>  H       -1.6716804050    -0.0484844226     0.9531295160
| 18>  H       -2.8602754709     0.7793350550    -0.9246449500
| 19>  H       -1.7837721565    -0.0172224815    -2.0395325804
| 20>  H       -4.1379027271    -1.2652480115    -0.5087939080
| 21>  H       -3.8134855537    -1.4130500286    -2.2372160074
| 22>  H       -3.0763009070    -3.4636377759    -0.6891447573
| 23>  H       -1.3828667026    -2.1870157690    -2.5116016845
| 24>  H       -2.1686949739    -2.2658214695     1.1870554909
| 25>  H       -0.2705627073    -3.2202471766    -0.5362026629
| 26> *
| 27>
| 28>                          ****END OF INPUT****

CARTESIAN COORDINATES (ANGSTROEM)
---------------------------------
  O      0.241275    1.161685   -0.561503
  C      0.072236   -0.219166   -0.266146
  C     -1.385705   -0.576052    0.033999
  C     -2.351447   -0.168585   -1.112062
  C     -3.338043   -1.346515   -1.254293
  C     -2.489737   -2.574555   -0.934089
  O     -1.646893   -2.974570   -2.023350
  C     -1.609292   -2.117004    0.256212
  O     -0.429680   -2.884003    0.358376
  H      0.020323    1.659717    0.232110
  H      0.413261   -0.750731   -1.161876
  H      0.719874   -0.542579    0.558422
  H     -1.671680   -0.048484    0.953130
  H     -2.860275    0.779335   -0.924645
  H     -1.783772   -0.017222   -2.039533
  H     -4.137903   -1.265248   -0.508794
  H     -3.813486   -1.413050   -2.237216
  H     -3.076301   -3.463638   -0.689145
  H     -1.382867   -2.187016   -2.511602
  H     -2.168695   -2.265821    1.187055
  H     -0.270563   -3.220247   -0.536203

 Total Charge           Charge          ....    0
 Multiplicity           Mult            ....    1
 Number of Electrons    NEL             ....   72
 Basis Dimension        Dim             ....  351

ORBITAL ENERGIES
----------------

  NO   OCC          E(Eh)            E(eV)
   0   2.0000     -20.573698      -559.8388
   1   2.0000     -20.555644      -559.3475
   2   2.0000     -20.548537      -559.1541
   3   2.0000     -11.286799      -307.1294
   4   2.0000     -11.280881      -306.9684
   5   2.0000     -11.273101      -306.7567
   6   2.0000     -11.233927      -305.6907
   7   2.0000     -11.232291      -305.6462
   8   2.0000     -11.231276      -305.6185
   9   2.0000      -1.387861       -37.7656
  10   2.0000      -1.359488       -36.9936
  11   2.0000      -1.349449       -36.7204
  12   2.0000      -1.118467       -30.4350
  13   2.0000      -1.003399       -27.3039
  14   2.0000      -0.957544       -26.0561
  15   2.0000      -0.889866       -24.2145
  16   2.0000      -0.812728       -22.1154
  17   2.0000      -0.777785       -21.1646
  18   2.0000      -0.722153       -19.6508
  19   2.0000      -0.683552       -18.6004
  20   2.0000      -0.672684       -18.3047
  21   2.0000      -0.659633       -17.9495
  22   2.0000      -0.630022       -17.1438
  23   2.0000      -0.617301       -16.7976
  24   2.0000      -0.598532       -16.2869
  25   2.0000      -0.582205       -15.8426
  26   2.0000      -0.560941       -15.2640
  27   2.0000      -0.536844       -14.6083
  28   2.0000      -0.524969       -14.2851
  29   2.0000      -0.505806       -13.7637
  30   2.0000      -0.498783       -13.5726
  31   2.0000      -0.480869       -13.0851
  32   2.0000      -0.478161       -13.0114
  33   2.0000      -0.445134       -12.1127
  34   2.0000      -0.437704       -11.9105
  35   2.0000      -0.413495       -11.2518
  36   0.0000       0.120632         3.2826
  37   0.0000       0.136986         3.7276
  38   0.0000       0.143095         3.8938
  39   0.0000       0.164896         4.4870
  40   0.0000       0.184386         5.0174

MULLIKEN ATOMIC CHARGES
-----------------------
   0 O :   -0.471081
   1 C :   -0.031211
   2 C :   -0.082905
   3 C :   -0.318859
   4 C :   -0.222796
   5 C :    0.080881
   6 O :   -0.494267
   7 C :   -0.012028
   8 O :   -0.476755
   9 H :    0.312421
  10 H :    0.077563
  11 H :    0.133689
  12 H :    0.095666
  13 H :    0.125707
  14 H :    0.136722
  15 H :    0.120055
  16 H :    0.138502
  17 H :    0.121209
  18 H :    0.324457
  19 H :    0.106558
  20 H :    0.336472
Sum of atomic charges:    0.0000000

LOEWDIN ATOMIC CHARGES
----------------------
   0 O :   -0.048731
   1 C :   -0.332199
   2 C :   -0.242831
   3 C :   -0.239542
   4 C :   -0.247893
   5 C :   -0.314926
   6 O :   -0.023560
   7 C :   -0.301088
   8 O :   -0.012824
   9 H :    0.172604
  10 H :    0.124358
  11 H :    0.123682
  12 H :    0.146932
  13 H :    0.135408
  14 H :    0.138111
  15 H :    0.146344
  16 H :    0.138404
  17 H :    0.142189
  18 H :    0.175173
  19 H :    0.143214
  20 H :    0.177173

  Mayer bond orders larger than 0.1
B(  0-O ,  1-C ) :   0.9097 B(  0-O ,  9-H ) :   0.8485 B(  1-C ,  2-C ) :   0.9521
B(  1-C , 10-H ) :   0.9139 B(  1-C , 11-H ) :   0.9389 B(  2-C ,  3-C ) :   0.8700
B(  2-C ,  7-C ) :   0.8529 B(  2-C , 12-H ) :   0.9150 B(  3-C ,  4-C ) :   0.8848
B(  3-C , 13-H ) :   0.9269 B(  3-C , 14-H ) :   0.9429 B(  4-C ,  5-C ) :   0.9447
B(  4-C , 15-H ) :   0.9208 B(  4-C , 16-H ) :   0.9300 B(  5-C ,  6-O ) :   0.8558
B(  5-C ,  7-C ) :   0.9396 B(  5-C , 17-H ) :   0.9334 B(  6-O , 18-H ) :   0.8358
B(  7-C ,  8-O ) :   1.0121 B(  7-C , 19-H ) :   0.9396 B(  8-O , 20-H ) :   0.8106

MP2 TOTAL ENERGY:     -460.646862178 Eh
FINAL SINGLE POINT ENERGY      -460.646862178202

DIPOLE MOMENT
-------------
                                X             Y             Z
Electronic contribution:      2.34094      -2.19302       0.29119
Nuclear contribution   :     -3.16167       2.69964      -0.16269
                        -----------------------------------------
Total Dipole Moment    :     -0.82073       0.50662       0.12850
                        -----------------------------------------
Magnitude (a.u.)       :      0.97302
Magnitude (Debye)      :      2.47323

                             ****ORCA TERMINATED NORMALLY****
TOTAL RUN TIME: 0 days 0 hours 29 minutes 26 seconds 94 msec
