                         Program Version 3.0.3 - RELEASE   -
|  1> ! RI-MP2 RIJK def2-TZVP def2-TZVP/C def2-TZVP/JK TIGHTSCF
|  2> % maxcore 2000
|  3> % mp2 density relaxed end
|  4> *xyz 0 1
|  5>  O        0.2026144350     1.2291455975     0.1010075263
|  6>  C        0.0141279472    -0.1387677512    -0.1128738457
|  7>  C       -1.4414475843    -0.5348932745     0.0483374592
|  8>  O       -2.2731280326     0.3227790783     0.2780219798
|  9>  C       -1.8688476147    -1.9989497411    -0.0591609928
| 10>  O       -3.2549816762    -2.1035414858     0.1325805165
| 11>  C       -1.4545677257    -2.6100808732    -1.3857750856
| 12>  C       -0.1136881076    -3.2906854047    -1.5353744213
| 13>  C       -1.3791006994    -4.1081202785    -1.5072268097
| 14>  H       -0.6812643734     1.5924703433     0.2630890591
| 15>  H        0.3395296524    -0.4377691013    -1.1217783065
| 16>  H        0.6155363910    -0.7369143025     0.5904337459
| 17>  H       -1.3332675741    -2.5391465207     0.7436331198
| 18>  H       -3.5655083234    -1.2041605815     0.3199987700
| 19>  H       -1.8349312331    -2.0740637999    -2.2511380868
| 20>  H        0.4135376307    -3.1785824765    -2.4758509282
| 21>  H        0.5376004431    -3.3384368092    -0.6684745199
| 22>  H       -1.5863664068    -4.6954153785    -0.6192884034
| 23>  H       -1.7236202083    -4.5596388700    -2.4301445367
| 24> *
| 25>
| 26>                          ****END OF INPUT****

CARTESIAN COORDINATES (ANGSTROEM)
---------------------------------
  O      0.202614    1.229146    0.101008
  C      0.014128   -0.138768   -0.112874
  C     -1.441448   -0.534893    0.048337
  O     -2.273128    0.322779    0.278022
  C     -1.868848   -1.998950   -0.059161
  O     -3.254982   -2.103541    0.132581
  C     -1.454568   -2.610081   -1.385775
  C     -0.113688   -3.290685   -1.535374
  C     -1.379101   -4.108120   -1.507227
  H     -0.681264    1.592470    0.263089
  H      0.339530   -0.437769   -1.121778
  H      0.615536   -0.736914    0.590434
  H     -1.333268   -2.539147    0.743633
  H     -3.565508   -1.204161    0.319999
  H     -1.834931   -2.074064   -2.251138
  H      0.413538   -3.178582   -2.475851
  H      0.537600   -3.338437   -0.668475
  H     -1.586366   -4.695415   -0.619288
  H     -1.723620   -4.559639   -2.430145

 Total Charge           Charge          ....    0
 Multiplicity           Mult            ....    1
 Number of Electrons    NEL             ....   70
 Basis Dimension        Dim             ....  339

ORBITAL ENERGIES
----------------

  NO   OCC          E(Eh)            E(eV)
   0   2.0000     -20.582731      -560.0846
   1   2.0000     -20.564943      -559.6006
   2   2.0000     -20.561841      -559.5161
   3   2.0000     -11.356791      -309.0340
   4   2.0000     -11.311898      -307.8124
   5   2.0000     -11.304178      -307.6023
   6   2.0000     -11.252691      -306.2013
   7   2.0000     -11.245842      -306.0149
   8   2.0000     -11.241145      -305.8871
   9   2.0000      -1.437900       -39.1273
  10   2.0000      -1.378348       -37.5067
  11   2.0000      -1.363747       -37.1094
  12   2.0000      -1.164004       -31.6742
  13   2.0000      -1.034527       -28.1509
  14   2.0000      -0.951042       -25.8792
  15   2.0000      -0.842139       -22.9158
  16   2.0000      -0.823637       -22.4123
  17   2.0000      -0.781532       -21.2666
  18   2.0000      -0.752293       -20.4709
  19   2.0000      -0.705299       -19.1922
  20   2.0000      -0.684661       -18.6306
  21   2.0000      -0.674884       -18.3645
  22   2.0000      -0.649034       -17.6611
  23   2.0000      -0.628115       -17.0919
  24   2.0000      -0.610281       -16.6066
  25   2.0000      -0.577465       -15.7136
  26   2.0000      -0.554171       -15.0798
  27   2.0000      -0.538022       -14.6403
  28   2.0000      -0.535632       -14.5753
  29   2.0000      -0.532252       -14.4833
  30   2.0000      -0.472073       -12.8457
  31   2.0000      -0.468446       -12.7471
  32   2.0000      -0.456840       -12.4313
  33   2.0000      -0.436185       -11.8692
  34   2.0000      -0.422577       -11.4989
  35   0.0000       0.111750         3.0409
  36   0.0000       0.132906         3.6166
  37   0.0000       0.145680         3.9642
  38   0.0000       0.157351         4.2817
  39   0.0000       0.160623         4.3708

MULLIKEN ATOMIC CHARGES
-----------------------
   0 O :   -0.479516
   1 C :   -0.024531
   2 C :    0.167314
   3 O :   -0.353071
   4 C :    0.041157
   5 O :   -0.462043
   6 C :   -0.075171
   7 C :   -0.297958
   8 C :   -0.249646
   9 H :    0.337993
  10 H :    0.140962
  11 H :    0.120821
  12 H :    0.114005
  13 H :    0.336068
  14 H :    0.130665
  15 H :    0.140836
  16 H :    0.133807
  17 H :    0.139144
  18 H :    0.139163
Sum of atomic charges:    0.0000000

LOEWDIN ATOMIC CHARGES
----------------------
   0 O :   -0.030090
   1 C :   -0.329386
   2 C :   -0.296548
   3 O :    0.131386
   4 C :   -0.323311
   5 O :    0.003898
   6 C :   -0.211221
   7 C :   -0.229928
   8 C :   -0.213814
   9 H :    0.182304
  10 H :    0.143567
  11 H :    0.139501
  12 H :    0.157678
  13 H :    0.182227
  14 H :    0.152894
  15 H :    0.133841
  16 H :    0.133039
  17 H :    0.138358
  18 H :    0.135604

  Mayer bond orders larger than 0.1
B(  0-O ,  1-C ) :   1.0081 B(  0-O ,  9-H ) :   0.8085 B(  1-C ,  2-C ) :   0.9471
B(  1-C , 10-H ) :   0.9021 B(  1-C , 11-H ) :   0.9070 B(  2-C ,  3-O ) :   1.8172
B(  2-C ,  4-C ) :   0.9098 B(  4-C ,  5-O ) :   1.1251 B(  4-C ,  6-C ) :   0.8464
B(  4-C , 12-H ) :   0.9273 B(  5-O , 13-H ) :   0.8043 B(  6-C ,  7-C ) :   0.8718
B(  6-C ,  8-C ) :   0.8767 B(  6-C , 14-H ) :   0.9176 B(  7-C ,  8-C ) :   0.9023
B(  7-C , 15-H ) :   0.9278 B(  7-C , 16-H ) :   0.9243 B(  8-C , 17-H ) :   0.9288
B(  8-C , 18-H ) :   0.9316

MP2 TOTAL ENERGY:     -459.425756326 Eh
FINAL SINGLE POINT ENERGY      -459.425756326220

DIPOLE MOMENT
-------------
                                X             Y             Z
Electronic contribution:     -3.48152       6.03385       2.96052
Nuclear contribution   :      3.89420      -6.65378      -3.24335
                        -----------------------------------------
Total Dipole Moment    :      0.41268      -0.61993      -0.28283
                        -----------------------------------------
Magnitude (a.u.)       :      0.79663
Magnitude (Debye)      :      2.02487

                             ****ORCA TERMINATED NORMALLY****
TOTAL RUN TIME: 0 days 0 hours 15 minutes 52 seconds 410 msec
