                         Program Version 3.0.3 - RELEASE   -
|  1> ! RI-MP2 RIJK def2-TZVP def2-TZVP/C def2-TZVP/JK TIGHTSCF
|  2> % maxcore 2000
|  3> % mp2 density relaxed end
|  4> *xyz 0 1
|  5>  C        0.0438481277     1.5682534783     0.0653953640
|  6>  C       -0.0536214341     0.0387071550     0.0177695243
|  7>  C        0.5036547804    -0.5292545981    -1.2932256685
|  8>  C        0.6645173907    -0.5773996607     1.2124325262
|  9>  O        0.1211705532    -0.1004114946     2.4374936130
| 10>  C        0.0918647901    -1.1819057086     3.3629902690
| 11>  C        0.6993735048    -2.3584701272     2.5765059969
| 12>  O        0.4983518818    -1.9769501664     1.2268251254
| 13>  H        1.0868022480     1.8984731589    -0.0119860786
| 14>  H       -0.5057755489     2.0127564969    -0.7700486765
| 15>  H       -0.3668899950     1.9597919548     0.9987462027
| 16>  H       -1.1061318190    -0.2548860162     0.1173101010
| 17>  H        1.5645031184    -0.2769750850    -1.4104029912
| 18>  H        0.4097634445    -1.6172556334    -1.3247184726
| 19>  H       -0.0316738499    -0.1101326534    -2.1508280797
| 20>  H        1.7456283637    -0.3322070445     1.1839562934
| 21>  H        0.6713937412    -0.9346118925     4.2601909295
| 22>  H       -0.9464608928    -1.3757466699     3.6581236083
| 23>  H        1.7720196492    -2.4717689203     2.7963799986
| 24>  H        0.1988697058    -3.3134860831     2.7492121246
| 25> *
| 26>
| 27>                          ****END OF INPUT****

CARTESIAN COORDINATES (ANGSTROEM)
---------------------------------
  C      0.043848    1.568253    0.065395
  C     -0.053621    0.038707    0.017770
  C      0.503655   -0.529255   -1.293226
  C      0.664517   -0.577400    1.212433
  O      0.121171   -0.100411    2.437494
  C      0.091865   -1.181906    3.362990
  C      0.699374   -2.358470    2.576506
  O      0.498352   -1.976950    1.226825
  H      1.086802    1.898473   -0.011986
  H     -0.505776    2.012756   -0.770049
  H     -0.366890    1.959792    0.998746
  H     -1.106132   -0.254886    0.117310
  H      1.564503   -0.276975   -1.410403
  H      0.409763   -1.617256   -1.324718
  H     -0.031674   -0.110133   -2.150828
  H      1.745628   -0.332207    1.183956
  H      0.671394   -0.934612    4.260191
  H     -0.946461   -1.375747    3.658124
  H      1.772020   -2.471769    2.796380
  H      0.198870   -3.313486    2.749212

 Total Charge           Charge          ....    0
 Multiplicity           Mult            ....    1
 Number of Electrons    NEL             ....   64
 Basis Dimension        Dim             ....  320

ORBITAL ENERGIES
----------------

  NO   OCC          E(Eh)            E(eV)
   0   2.0000     -20.564694      -559.5938
   1   2.0000     -20.557207      -559.3900
   2   2.0000     -11.326045      -308.1974
   3   2.0000     -11.284030      -307.0541
   4   2.0000     -11.280944      -306.9701
   5   2.0000     -11.223998      -305.4205
   6   2.0000     -11.208119      -304.9884
   7   2.0000     -11.207412      -304.9692
   8   2.0000      -1.437789       -39.1242
   9   2.0000      -1.330392       -36.2018
  10   2.0000      -1.086233       -29.5579
  11   2.0000      -1.005953       -27.3734
  12   2.0000      -0.925844       -25.1935
  13   2.0000      -0.871050       -23.7025
  14   2.0000      -0.850655       -23.1475
  15   2.0000      -0.783345       -21.3159
  16   2.0000      -0.709022       -19.2935
  17   2.0000      -0.682943       -18.5838
  18   2.0000      -0.643149       -17.5010
  19   2.0000      -0.623053       -16.9541
  20   2.0000      -0.594932       -16.1889
  21   2.0000      -0.585685       -15.9373
  22   2.0000      -0.575453       -15.6589
  23   2.0000      -0.539641       -14.6844
  24   2.0000      -0.528996       -14.3947
  25   2.0000      -0.515426       -14.0255
  26   2.0000      -0.498887       -13.5754
  27   2.0000      -0.488860       -13.3026
  28   2.0000      -0.470669       -12.8076
  29   2.0000      -0.467425       -12.7193
  30   2.0000      -0.441549       -12.0152
  31   2.0000      -0.413772       -11.2593
  32   0.0000       0.143900         3.9157
  33   0.0000       0.153686         4.1820
  34   0.0000       0.168697         4.5905
  35   0.0000       0.185760         5.0548
  36   0.0000       0.193670         5.2700

MULLIKEN ATOMIC CHARGES
-----------------------
   0 C :   -0.413254
   1 C :    0.020728
   2 C :   -0.415051
   3 C :    0.174220
   4 O :   -0.314629
   5 C :   -0.030161
   6 C :   -0.089028
   7 O :   -0.300555
   8 H :    0.116241
   9 H :    0.130844
  10 H :    0.150372
  11 H :    0.079513
  12 H :    0.116672
  13 H :    0.149574
  14 H :    0.131144
  15 H :    0.061531
  16 H :    0.101419
  17 H :    0.100791
  18 H :    0.100255
  19 H :    0.129373
Sum of atomic charges:   -0.0000000

LOEWDIN ATOMIC CHARGES
----------------------
   0 C :   -0.291354
   1 C :   -0.291225
   2 C :   -0.291599
   3 C :   -0.374599
   4 O :    0.164135
   5 C :   -0.304946
   6 C :   -0.312787
   7 O :    0.183084
   8 H :    0.123037
   9 H :    0.123506
  10 H :    0.127814
  11 H :    0.155624
  12 H :    0.123125
  13 H :    0.127283
  14 H :    0.123704
  15 H :    0.125983
  16 H :    0.120953
  17 H :    0.120674
  18 H :    0.119010
  19 H :    0.128577

  Mayer bond orders larger than 0.1
B(  0-C ,  1-C ) :   0.9175 B(  0-C ,  8-H ) :   0.9286 B(  0-C ,  9-H ) :   0.9375
B(  0-C , 10-H ) :   0.9361 B(  1-C ,  2-C ) :   0.9179 B(  1-C ,  3-C ) :   0.9236
B(  1-C , 11-H ) :   0.9143 B(  2-C , 12-H ) :   0.9285 B(  2-C , 13-H ) :   0.9365
B(  2-C , 14-H ) :   0.9373 B(  3-C ,  4-O ) :   0.9628 B(  3-C ,  7-O ) :   0.9854
B(  3-C , 15-H ) :   0.9217 B(  4-O ,  5-C ) :   0.9384 B(  5-C ,  6-C ) :   0.9534
B(  5-C , 16-H ) :   0.9173 B(  5-C , 17-H ) :   0.9281 B(  6-C ,  7-O ) :   0.9312
B(  6-C , 18-H ) :   0.9356 B(  6-C , 19-H ) :   0.9228

MP2 TOTAL ENERGY:     -385.517151072 Eh
FINAL SINGLE POINT ENERGY      -385.517151071541

DIPOLE MOMENT
-------------
                                X             Y             Z
Electronic contribution:     -0.38354      -2.98466       4.45271
Nuclear contribution   :      0.54481       2.70057      -4.09487
                        -----------------------------------------
Total Dipole Moment    :      0.16127      -0.28408       0.35784
                        -----------------------------------------
Magnitude (a.u.)       :      0.48452
Magnitude (Debye)      :      1.23155

                             ****ORCA TERMINATED NORMALLY****
TOTAL RUN TIME: 0 days 0 hours 12 minutes 52 seconds 583 msec
