                         Program Version 3.0.3 - RELEASE   -
|  1> ! RI-MP2 RIJK def2-TZVP def2-TZVP/C def2-TZVP/JK TIGHTSCF
|  2> % maxcore 2000
|  3> % mp2 density relaxed end
|  4> *xyz 0 1
|  5>  N       -0.1188789545     1.2146597939    -0.7287235898
|  6>  C       -0.0380236855     0.1032484311    -0.1096660314
|  7>  C       -1.3274701242    -0.6736523721     0.1274673383
|  8>  N       -1.6427418792    -1.1407841268     1.4648070005
|  9>  C       -0.7830042293    -2.1870599193     1.9892827374
| 10>  C        0.6593963068    -1.7798329019     2.3325107038
| 11>  C        1.6011875731    -1.4015095719     1.2013694887
| 12>  O        2.7491296066    -1.7956469686     1.1743084398
| 13>  N        1.1904478247    -0.4902973651     0.2314018855
| 14>  H        0.8026166195     1.6328446982    -0.8821889999
| 15>  H       -2.1269772591    -0.0194577436    -0.2254335899
| 16>  H       -1.3037464955    -1.5522864647    -0.5322467179
| 17>  H       -1.7096375016    -0.3632580419     2.1132372836
| 18>  H       -1.2426752177    -2.5793843734     2.9033549906
| 19>  H       -0.7770157837    -3.0121415996     1.2659944477
| 20>  H        0.6259489393    -0.9184151541     3.0153881931
| 21>  H        1.1650094161    -2.5882562923     2.8665647044
| 22>  H        1.9876268944    -0.1596468780    -0.2993529643
| 23> *
| 24>
| 25>                          ****END OF INPUT****

CARTESIAN COORDINATES (ANGSTROEM)
---------------------------------
  N     -0.118879    1.214660   -0.728724
  C     -0.038024    0.103248   -0.109666
  C     -1.327470   -0.673652    0.127467
  N     -1.642742   -1.140784    1.464807
  C     -0.783004   -2.187060    1.989283
  C      0.659396   -1.779833    2.332511
  C      1.601188   -1.401510    1.201369
  O      2.749130   -1.795647    1.174308
  N      1.190448   -0.490297    0.231402
  H      0.802617    1.632845   -0.882189
  H     -2.126977   -0.019458   -0.225434
  H     -1.303746   -1.552286   -0.532247
  H     -1.709638   -0.363258    2.113237
  H     -1.242675   -2.579384    2.903355
  H     -0.777016   -3.012142    1.265994
  H      0.625949   -0.918415    3.015388
  H      1.165009   -2.588256    2.866565
  H      1.987627   -0.159647   -0.299353

 Total Charge           Charge          ....    0
 Multiplicity           Mult            ....    1
 Number of Electrons    NEL             ....   68
 Basis Dimension        Dim             ....  333

ORBITAL ENERGIES
----------------

  NO   OCC          E(Eh)            E(eV)
   0   2.0000     -20.540243      -558.9284
   1   2.0000     -15.610561      -424.7850
   2   2.0000     -15.565836      -423.5679
   3   2.0000     -15.551891      -423.1885
   4   2.0000     -11.373793      -309.4966
   5   2.0000     -11.336334      -308.4773
   6   2.0000     -11.277235      -306.8692
   7   2.0000     -11.275022      -306.8090
   8   2.0000     -11.254489      -306.2502
   9   2.0000      -1.407060       -38.2881
  10   2.0000      -1.291408       -35.1410
  11   2.0000      -1.228821       -33.4379
  12   2.0000      -1.179296       -32.0903
  13   2.0000      -1.055431       -28.7197
  14   2.0000      -0.971208       -26.4279
  15   2.0000      -0.893597       -24.3160
  16   2.0000      -0.835465       -22.7342
  17   2.0000      -0.779973       -21.2241
  18   2.0000      -0.740554       -20.1515
  19   2.0000      -0.691211       -18.8088
  20   2.0000      -0.660979       -17.9861
  21   2.0000      -0.644081       -17.5263
  22   2.0000      -0.631419       -17.1818
  23   2.0000      -0.615291       -16.7429
  24   2.0000      -0.598486       -16.2856
  25   2.0000      -0.576554       -15.6888
  26   2.0000      -0.544921       -14.8281
  27   2.0000      -0.530754       -14.4426
  28   2.0000      -0.522584       -14.2202
  29   2.0000      -0.486659       -13.2427
  30   2.0000      -0.464988       -12.6530
  31   2.0000      -0.438230       -11.9248
  32   2.0000      -0.392004       -10.6670
  33   2.0000      -0.387306       -10.5391
  34   0.0000       0.104295         2.8380
  35   0.0000       0.140405         3.8206
  36   0.0000       0.143641         3.9087
  37   0.0000       0.156142         4.2488
  38   0.0000       0.164651         4.4804

MULLIKEN ATOMIC CHARGES
-----------------------
   0 N :   -0.328218
   1 C :    0.047895
   2 C :   -0.086474
   3 N :   -0.329032
   4 C :   -0.171772
   5 C :   -0.219701
   6 C :    0.217434
   7 O :   -0.322734
   8 N :   -0.285604
   9 H :    0.198647
  10 H :    0.156498
  11 H :    0.131383
  12 H :    0.205598
  13 H :    0.143457
  14 H :    0.128981
  15 H :    0.129048
  16 H :    0.144252
  17 H :    0.240343
Sum of atomic charges:    0.0000000

LOEWDIN ATOMIC CHARGES
----------------------
   0 N :   -0.045747
   1 C :   -0.361564
   2 C :   -0.273893
   3 N :   -0.010953
   4 C :   -0.312367
   5 C :   -0.237468
   6 C :   -0.427522
   7 O :    0.106342
   8 N :    0.143686
   9 H :    0.156557
  10 H :    0.151534
  11 H :    0.147785
  12 H :    0.171563
  13 H :    0.138858
  14 H :    0.139098
  15 H :    0.154350
  16 H :    0.157814
  17 H :    0.201926

  Mayer bond orders larger than 0.1
B(  0-N ,  1-C ) :   2.0749 B(  0-N ,  9-H ) :   0.8620 B(  1-C ,  2-C ) :   0.8811
B(  1-C ,  8-N ) :   1.0195 B(  2-C ,  3-N ) :   0.9625 B(  2-C , 10-H ) :   0.9293
B(  2-C , 11-H ) :   0.9299 B(  3-N ,  4-C ) :   0.9608 B(  3-N , 12-H ) :   0.8815
B(  4-C ,  5-C ) :   0.8826 B(  4-C , 13-H ) :   0.9352 B(  4-C , 14-H ) :   0.9332
B(  5-C ,  6-C ) :   0.9294 B(  5-C , 15-H ) :   0.9063 B(  5-C , 16-H ) :   0.9167
B(  6-C ,  7-O ) :   1.9948 B(  6-C ,  8-N ) :   1.0666 B(  8-N , 17-H ) :   0.8500

MP2 TOTAL ENERGY:     -434.579007472 Eh
FINAL SINGLE POINT ENERGY      -434.579007472208

DIPOLE MOMENT
-------------
                                X             Y             Z
Electronic contribution:      4.45154       1.33907      -1.92405
Nuclear contribution   :     -4.69679      -1.29732       2.33726
                        -----------------------------------------
Total Dipole Moment    :     -0.24524       0.04175       0.41321
                        -----------------------------------------
Magnitude (a.u.)       :      0.48232
Magnitude (Debye)      :      1.22595

                             ****ORCA TERMINATED NORMALLY****
TOTAL RUN TIME: 0 days 0 hours 19 minutes 42 seconds 299 msec
