                         Program Version 3.0.3 - RELEASE   -
|  1> ! RI-MP2 RIJK def2-TZVP def2-TZVP/C def2-TZVP/JK TIGHTSCF
|  2> % maxcore 2000
|  3> % mp2 density relaxed end
|  4> *xyz 0 1
|  5>  C        0.1529757710     1.4994616054    -0.1925419232
|  6>  C        0.0388914068     0.0011202196     0.0773228184
|  7>  C        0.4401947669    -0.8545322759    -1.1302031166
|  8>  O        0.5225391236    -0.4312222552    -2.2508410669
|  9>  N        0.7862336327    -0.4378157566     1.2486816042
| 10>  C        2.0984850221    -0.2972226572     1.5437605083
| 11>  N        2.3819176047    -0.8876206091     2.6896147283
| 12>  C        1.1766746991    -1.3962425306     3.0640343316
| 13>  N        0.1791837204    -1.1571515077     2.2280902738
| 14>  H        1.1873360253     1.7903055945    -0.3942537297
| 15>  H       -0.4352548881     1.7513083663    -1.0766695221
| 16>  H       -0.2149970390     2.0703038806     0.6624935979
| 17>  H       -1.0000712409    -0.2655856202     0.3062482205
| 18>  H        0.6413996143    -1.9189184323    -0.8798837322
| 19>  H        2.7914229765     0.2375456936     0.9118203537
| 20>  H        1.0284503345    -1.9547609954     3.9761112441
| 21> *
| 22>
| 23>                          ****END OF INPUT****

CARTESIAN COORDINATES (ANGSTROEM)
---------------------------------
  C      0.152976    1.499462   -0.192542
  C      0.038891    0.001120    0.077323
  C      0.440195   -0.854532   -1.130203
  O      0.522539   -0.431222   -2.250841
  N      0.786234   -0.437816    1.248682
  C      2.098485   -0.297223    1.543761
  N      2.381918   -0.887621    2.689615
  C      1.176675   -1.396243    3.064034
  N      0.179184   -1.157152    2.228090
  H      1.187336    1.790306   -0.394254
  H     -0.435255    1.751308   -1.076670
  H     -0.214997    2.070304    0.662494
  H     -1.000071   -0.265586    0.306248
  H      0.641400   -1.918918   -0.879884
  H      2.791423    0.237546    0.911820
  H      1.028450   -1.954761    3.976111

 Total Charge           Charge          ....    0
 Multiplicity           Mult            ....    1
 Number of Electrons    NEL             ....   66
 Basis Dimension        Dim             ....  321

ORBITAL ENERGIES
----------------

  NO   OCC          E(Eh)            E(eV)
   0   2.0000     -20.582433      -560.0765
   1   2.0000     -15.665531      -426.2808
   2   2.0000     -15.604904      -424.6310
   3   2.0000     -15.567701      -423.6187
   4   2.0000     -11.353971      -308.9573
   5   2.0000     -11.326601      -308.2125
   6   2.0000     -11.313836      -307.8651
   7   2.0000     -11.296090      -307.3822
   8   2.0000     -11.247613      -306.0631
   9   2.0000      -1.429455       -38.8974
  10   2.0000      -1.420503       -38.6539
  11   2.0000      -1.224369       -33.3168
  12   2.0000      -1.148420       -31.2501
  13   2.0000      -1.053342       -28.6629
  14   2.0000      -0.943915       -25.6852
  15   2.0000      -0.863295       -23.4915
  16   2.0000      -0.843758       -22.9598
  17   2.0000      -0.797558       -21.7026
  18   2.0000      -0.743684       -20.2367
  19   2.0000      -0.687122       -18.6975
  20   2.0000      -0.680531       -18.5182
  21   2.0000      -0.660970       -17.9859
  22   2.0000      -0.629344       -17.1253
  23   2.0000      -0.604577       -16.4514
  24   2.0000      -0.572096       -15.5675
  25   2.0000      -0.561186       -15.2707
  26   2.0000      -0.557665       -15.1748
  27   2.0000      -0.535993       -14.5851
  28   2.0000      -0.510483       -13.8909
  29   2.0000      -0.459892       -12.5143
  30   2.0000      -0.454566       -12.3694
  31   2.0000      -0.413843       -11.2612
  32   2.0000      -0.380022       -10.3409
  33   0.0000       0.103931         2.8281
  34   0.0000       0.129614         3.5270
  35   0.0000       0.135832         3.6962
  36   0.0000       0.155943         4.2434
  37   0.0000       0.167797         4.5660

MULLIKEN ATOMIC CHARGES
-----------------------
   0 C :   -0.390761
   1 C :   -0.014099
   2 C :    0.060803
   3 O :   -0.242446
   4 N :    0.097377
   5 C :   -0.003551
   6 N :   -0.306164
   7 C :    0.034906
   8 N :   -0.274014
   9 H :    0.135019
  10 H :    0.160210
  11 H :    0.155557
  12 H :    0.158514
  13 H :    0.114765
  14 H :    0.165562
  15 H :    0.148322
Sum of atomic charges:   -0.0000000

LOEWDIN ATOMIC CHARGES
----------------------
   0 C :   -0.274899
   1 C :   -0.275824
   2 C :   -0.268488
   3 O :    0.157084
   4 N :    0.206739
   5 C :   -0.300096
   6 N :    0.081403
   7 C :   -0.338724
   8 N :    0.040319
   9 H :    0.129789
  10 H :    0.139205
  11 H :    0.132551
  12 H :    0.176549
  13 H :    0.122249
  14 H :    0.139742
  15 H :    0.132400

  Mayer bond orders larger than 0.1
B(  0-C ,  1-C ) :   0.9294 B(  0-C ,  9-H ) :   0.9214 B(  0-C , 10-H ) :   0.9239
B(  0-C , 11-H ) :   0.9342 B(  1-C ,  2-C ) :   0.8523 B(  1-C ,  4-N ) :   0.8293
B(  1-C , 12-H ) :   0.8948 B(  2-C ,  3-O ) :   2.0105 B(  2-C , 13-H ) :   0.9424
B(  4-N ,  5-C ) :   1.2178 B(  4-N ,  8-N ) :   1.0078 B(  5-C ,  6-N ) :   1.4988
B(  5-C , 14-H ) :   0.9168 B(  6-N ,  7-C ) :   1.2978 B(  7-C ,  8-N ) :   1.4732
B(  7-C , 15-H ) :   0.9320

MP2 TOTAL ENERGY:     -433.373113290 Eh
FINAL SINGLE POINT ENERGY      -433.373113290120

DIPOLE MOMENT
-------------
                                X             Y             Z
Electronic contribution:      1.38582      -3.92967       1.46347
Nuclear contribution   :     -1.82332       4.35446      -1.68193
                        -----------------------------------------
Total Dipole Moment    :     -0.43750       0.42479      -0.21846
                        -----------------------------------------
Magnitude (a.u.)       :      0.64775
Magnitude (Debye)      :      1.64644

                             ****ORCA TERMINATED NORMALLY****
TOTAL RUN TIME: 0 days 0 hours 15 minutes 19 seconds 748 msec
