                         Program Version 3.0.3 - RELEASE   -
|  1> ! RI-MP2 RIJK def2-TZVP def2-TZVP/C def2-TZVP/JK TIGHTSCF
|  2> % maxcore 2000
|  3> % mp2 density relaxed end
|  4> *xyz 0 1
|  5>  O        0.0074294800     1.3657502288     0.1345274578
|  6>  C        0.0268472683    -0.0018556781     0.0003174679
|  7>  C       -0.2752738789    -0.8453382045     1.1894073360
|  8>  C       -1.1801590925    -1.0195707466    -0.0293386458
|  9>  C       -2.5724598405    -0.7387215410    -0.0100994826
| 10>  C       -3.7513829103    -0.4908229690    -0.0175744812
| 11>  C       -0.4440812945    -1.7899800793    -1.1058392667
| 12>  C       -0.1899311499    -0.9265826042    -2.3071647345
| 13>  C        0.7062205652    -0.7745152582    -1.0973734942
| 14>  H       -0.2043096208     1.7517568473    -0.7233740026
| 15>  H        0.3833883155    -1.6578289394     1.4858402842
| 16>  H       -0.7338124690    -0.3038941370     2.0105705394
| 17>  H       -4.7919143406    -0.2814650726    -0.0152794122
| 18>  H       -0.3412321184    -2.8684728888    -1.1327047863
| 19>  H        0.2650465321    -1.4221665105    -3.1594169336
| 20>  H       -0.9025448548    -0.1500180297    -2.5720237458
| 21>  H        1.7683526891    -0.9882069973    -1.1432432897
| 22> *
| 23>
| 24>                          ****END OF INPUT****

CARTESIAN COORDINATES (ANGSTROEM)
---------------------------------
  O      0.007429    1.365750    0.134527
  C      0.026847   -0.001856    0.000317
  C     -0.275274   -0.845338    1.189407
  C     -1.180159   -1.019571   -0.029339
  C     -2.572460   -0.738722   -0.010099
  C     -3.751383   -0.490823   -0.017574
  C     -0.444081   -1.789980   -1.105839
  C     -0.189931   -0.926583   -2.307165
  C      0.706221   -0.774515   -1.097373
  H     -0.204310    1.751757   -0.723374
  H      0.383388   -1.657829    1.485840
  H     -0.733812   -0.303894    2.010571
  H     -4.791914   -0.281465   -0.015279
  H     -0.341232   -2.868473   -1.132705
  H      0.265047   -1.422167   -3.159417
  H     -0.902545   -0.150018   -2.572024
  H      1.768353   -0.988207   -1.143243

 Total Charge           Charge          ....    0
 Multiplicity           Mult            ....    1
 Number of Electrons    NEL             ....   64
 Basis Dimension        Dim             ....  327

ORBITAL ENERGIES
----------------

  NO   OCC          E(Eh)            E(eV)
   0   2.0000     -20.577402      -559.9396
   1   2.0000     -11.308431      -307.7180
   2   2.0000     -11.261008      -306.4276
   3   2.0000     -11.250133      -306.1317
   4   2.0000     -11.246605      -306.0357
   5   2.0000     -11.242974      -305.9369
   6   2.0000     -11.241337      -305.8923
   7   2.0000     -11.233193      -305.6707
   8   2.0000     -11.218951      -305.2832
   9   2.0000      -1.392530       -37.8927
  10   2.0000      -1.229110       -33.4458
  11   2.0000      -1.089843       -29.6561
  12   2.0000      -1.023993       -27.8643
  13   2.0000      -0.901850       -24.5406
  14   2.0000      -0.863733       -23.5034
  15   2.0000      -0.816465       -22.2172
  16   2.0000      -0.774324       -21.0704
  17   2.0000      -0.745584       -20.2884
  18   2.0000      -0.692013       -18.8306
  19   2.0000      -0.664680       -18.0869
  20   2.0000      -0.661162       -17.9911
  21   2.0000      -0.624620       -16.9968
  22   2.0000      -0.575268       -15.6538
  23   2.0000      -0.559698       -15.2301
  24   2.0000      -0.531754       -14.4697
  25   2.0000      -0.518632       -14.1127
  26   2.0000      -0.493315       -13.4238
  27   2.0000      -0.438574       -11.9342
  28   2.0000      -0.429901       -11.6982
  29   2.0000      -0.408719       -11.1218
  30   2.0000      -0.374094       -10.1796
  31   2.0000      -0.333760        -9.0821
  32   0.0000       0.136223         3.7068
  33   0.0000       0.150704         4.1009
  34   0.0000       0.157278         4.2797
  35   0.0000       0.167675         4.5627
  36   0.0000       0.173750         4.7280

MULLIKEN ATOMIC CHARGES
-----------------------
   0 O :   -0.434023
   1 C :    0.138210
   2 C :   -0.240505
   3 C :   -0.078235
   4 C :   -0.072106
   5 C :   -0.145285
   6 C :   -0.090913
   7 C :   -0.287588
   8 C :   -0.133559
   9 H :    0.330015
  10 H :    0.138637
  11 H :    0.140677
  12 H :    0.188674
  13 H :    0.136237
  14 H :    0.133726
  15 H :    0.145747
  16 H :    0.130289
Sum of atomic charges:   -0.0000000

LOEWDIN ATOMIC CHARGES
----------------------
   0 O :    0.054274
   1 C :   -0.293828
   2 C :   -0.128209
   3 C :   -0.163506
   4 C :   -0.076573
   5 C :   -0.094755
   6 C :   -0.124371
   7 C :   -0.189356
   8 C :   -0.147951
   9 H :    0.190802
  10 H :    0.136996
  11 H :    0.152073
  12 H :    0.125995
  13 H :    0.142086
  14 H :    0.140432
  15 H :    0.135524
  16 H :    0.140368

  Mayer bond orders larger than 0.1
B(  0-O ,  1-C ) :   1.1282 B(  0-O ,  3-C ) :  -0.1335 B(  0-O ,  9-H ) :   0.8312
B(  1-C ,  2-C ) :   0.9227 B(  1-C ,  3-C ) :   0.7073 B(  1-C ,  8-C ) :   0.9536
B(  2-C ,  3-C ) :   0.8399 B(  2-C , 10-H ) :   0.9114 B(  2-C , 11-H ) :   0.9249
B(  3-C ,  4-C ) :   1.2702 B(  3-C ,  5-C ) :  -0.1460 B(  3-C ,  6-C ) :   0.9220
B(  4-C ,  5-C ) :   2.5680 B(  5-C , 12-H ) :   0.8861 B(  6-C ,  7-C ) :   0.8927
B(  6-C ,  8-C ) :   0.8249 B(  6-C , 13-H ) :   0.9158 B(  7-C ,  8-C ) :   0.8608
B(  7-C , 14-H ) :   0.9299 B(  7-C , 15-H ) :   0.9186 B(  8-C , 16-H ) :   0.9259

MP2 TOTAL ENERGY:     -383.926299386 Eh
FINAL SINGLE POINT ENERGY      -383.926299386496

DIPOLE MOMENT
-------------
                                X             Y             Z
Electronic contribution:     -1.53478       1.39316       1.62617
Nuclear contribution   :      1.77859      -1.57604      -2.18740
                        -----------------------------------------
Total Dipole Moment    :      0.24380      -0.18288      -0.56123
                        -----------------------------------------
Magnitude (a.u.)       :      0.63864
Magnitude (Debye)      :      1.62329

                             ****ORCA TERMINATED NORMALLY****
TOTAL RUN TIME: 0 days 0 hours 18 minutes 14 seconds 187 msec
