                         Program Version 3.0.3 - RELEASE   -
|  1> ! RI-MP2 RIJK def2-TZVP def2-TZVP/C def2-TZVP/JK TIGHTSCF
|  2> % maxcore 2000
|  3> % mp2 density relaxed end
|  4> *xyz 0 1
|  5>  O       -0.0007230632     1.3813519081     0.1727858156
|  6>  C        0.0891104689     0.0124923861     0.1072308612
|  7>  C        0.7724983688    -1.0034588019     1.0232588517
|  8>  N        0.0624406398    -1.9163032959     0.0265015652
|  9>  C       -1.1320775003    -0.9317285098    -0.0276240674
| 10>  C       -1.1089414940    -0.9656453181    -1.5701060565
| 11>  C       -1.6468780615     0.1538000897    -2.3218821064
| 12>  N       -2.0806256371     1.0253379644    -2.9450424060
| 13>  C        0.3657114402    -0.9312617430    -1.1204575759
| 14>  H        0.8679604610     1.7694635104     0.0184108816
| 15>  H        1.8628341886    -1.0912356680     0.9877786176
| 16>  H        0.4022882704    -1.1062689083     2.0473779116
| 17>  H       -1.9814221936    -1.0412207976     0.6461535498
| 18>  H       -1.4249318365    -1.9191048473    -2.0021334474
| 19>  H        1.2667623484    -1.0339601086    -1.7257390346
| 20> *
| 21>
| 22>                          ****END OF INPUT****

CARTESIAN COORDINATES (ANGSTROEM)
---------------------------------
  O     -0.000723    1.381352    0.172786
  C      0.089110    0.012492    0.107231
  C      0.772498   -1.003459    1.023259
  N      0.062441   -1.916303    0.026502
  C     -1.132078   -0.931729   -0.027624
  C     -1.108941   -0.965645   -1.570106
  C     -1.646878    0.153800   -2.321882
  N     -2.080626    1.025338   -2.945042
  C      0.365711   -0.931262   -1.120458
  H      0.867960    1.769464    0.018411
  H      1.862834   -1.091236    0.987779
  H      0.402288   -1.106269    2.047378
  H     -1.981422   -1.041221    0.646154
  H     -1.424932   -1.919105   -2.002133
  H      1.266762   -1.033960   -1.725739

 Total Charge           Charge          ....    0
 Multiplicity           Mult            ....    1
 Number of Electrons    NEL             ....   64
 Basis Dimension        Dim             ....  315

ORBITAL ENERGIES
----------------

  NO   OCC          E(Eh)            E(eV)
   0   2.0000     -20.592035      -560.3378
   1   2.0000     -15.597532      -424.4304
   2   2.0000     -15.570852      -423.7044
   3   2.0000     -11.331916      -308.3571
   4   2.0000     -11.306155      -307.6561
   5   2.0000     -11.305115      -307.6278
   6   2.0000     -11.294860      -307.3488
   7   2.0000     -11.278224      -306.8961
   8   2.0000     -11.273611      -306.7706
   9   2.0000      -1.413001       -38.4497
  10   2.0000      -1.343036       -36.5459
  11   2.0000      -1.218118       -33.1467
  12   2.0000      -1.082247       -29.4494
  13   2.0000      -0.944620       -25.7044
  14   2.0000      -0.917817       -24.9751
  15   2.0000      -0.911999       -24.8168
  16   2.0000      -0.768248       -20.9051
  17   2.0000      -0.740713       -20.1558
  18   2.0000      -0.716079       -19.4855
  19   2.0000      -0.683561       -18.6006
  20   2.0000      -0.651337       -17.7238
  21   2.0000      -0.622223       -16.9315
  22   2.0000      -0.592976       -16.1357
  23   2.0000      -0.562100       -15.2955
  24   2.0000      -0.539872       -14.6907
  25   2.0000      -0.511070       -13.9069
  26   2.0000      -0.488922       -13.3043
  27   2.0000      -0.484177       -13.1751
  28   2.0000      -0.460039       -12.5183
  29   2.0000      -0.444399       -12.0927
  30   2.0000      -0.432979       -11.7819
  31   2.0000      -0.419777       -11.4227
  32   0.0000       0.119031         3.2390
  33   0.0000       0.142640         3.8814
  34   0.0000       0.148664         4.0454
  35   0.0000       0.150449         4.0939
  36   0.0000       0.181293         4.9332

MULLIKEN ATOMIC CHARGES
-----------------------
   0 O :   -0.429864
   1 C :    0.100761
   2 C :   -0.131175
   3 N :   -0.212485
   4 C :   -0.035891
   5 C :    0.001314
   6 C :   -0.223224
   7 N :   -0.049261
   8 C :   -0.062509
   9 H :    0.331641
  10 H :    0.123369
  11 H :    0.127331
  12 H :    0.153533
  13 H :    0.152935
  14 H :    0.153525
Sum of atomic charges:    0.0000000

LOEWDIN ATOMIC CHARGES
----------------------
   0 O :    0.046409
   1 C :   -0.339732
   2 C :   -0.213309
   3 N :    0.146044
   4 C :   -0.114071
   5 C :   -0.180963
   6 C :   -0.167897
   7 N :    0.069007
   8 C :   -0.129621
   9 H :    0.188442
  10 H :    0.125262
  11 H :    0.128067
  12 H :    0.136087
  13 H :    0.173920
  14 H :    0.132357

  Mayer bond orders larger than 0.1
B(  0-O ,  1-C ) :   1.1123 B(  0-O ,  9-H ) :   0.8272 B(  1-C ,  2-C ) :   0.9570
B(  1-C ,  4-C ) :   0.9216 B(  1-C ,  8-C ) :   0.8998 B(  2-C ,  3-N ) :   0.9035
B(  2-C , 10-H ) :   0.9181 B(  2-C , 11-H ) :   0.9244 B(  3-N ,  4-C ) :   0.9145
B(  3-N ,  8-C ) :   0.9199 B(  4-C ,  5-C ) :   0.8895 B(  4-C , 12-H ) :   0.8770
B(  5-C ,  6-C ) :   0.9488 B(  5-C ,  8-C ) :   0.8925 B(  5-C , 13-H ) :   0.8828
B(  6-C ,  7-N ) :   2.8656 B(  8-C , 14-H ) :   0.8750

MP2 TOTAL ENERGY:     -416.018366356 Eh
FINAL SINGLE POINT ENERGY      -416.018366355625

DIPOLE MOMENT
-------------
                                X             Y             Z
Electronic contribution:     -2.45174       1.82043      -3.03735
Nuclear contribution   :      3.66371      -2.33373       3.90056
                        -----------------------------------------
Total Dipole Moment    :      1.21197      -0.51329       0.86321
                        -----------------------------------------
Magnitude (a.u.)       :      1.57400
Magnitude (Debye)      :      4.00079

                             ****ORCA TERMINATED NORMALLY****
TOTAL RUN TIME: 0 days 0 hours 14 minutes 15 seconds 856 msec
