                         Program Version 3.0.3 - RELEASE   -
|  1> ! RI-MP2 RIJK def2-TZVP def2-TZVP/C def2-TZVP/JK TIGHTSCF
|  2> % maxcore 2000
|  3> % mp2 density relaxed end
|  4> *xyz 0 1
|  5>  C       -0.1007416052     1.6546510787     0.1834065704
|  6>  C       -0.0223576913     0.1262359158     0.1073901515
|  7>  C       -1.3765951854    -0.5628284688    -0.0810920434
|  8>  C       -2.0959674930    -0.2790417898    -1.4118270272
|  9>  C       -3.1984169208    -1.3481508483    -1.4538443777
| 10>  C       -2.5886971837    -2.6258990027    -0.7885440977
| 11>  C       -3.5737639617    -3.2363688872     0.2205756235
| 12>  C       -2.2299512936    -3.6772587860    -1.8509054567
| 13>  C       -1.3012353916    -2.1025606726    -0.0733237170
| 14>  H        0.8879671800     2.0940584930     0.3494119977
| 15>  H       -0.5020962090     2.0838601838    -0.7403045969
| 16>  H       -0.7491073964     1.9766144693     1.0063163554
| 17>  H        0.6424022657    -0.1674368280    -0.7171040986
| 18>  H        0.4467803779    -0.2556886214     1.0237523499
| 19>  H       -2.0421528204    -0.2414415310     0.7349832160
| 20>  H       -2.4897580059     0.7384139647    -1.4918214651
| 21>  H       -1.3900277028    -0.4191968730    -2.2424947308
| 22>  H       -4.0608728036    -1.0032967529    -0.8712013371
| 23>  H       -3.5627103849    -1.5465847252    -2.4667937483
| 24>  H       -4.5214434433    -3.5009542214    -0.2627589400
| 25>  H       -3.1656649494    -4.1469997383     0.6739697177
| 26>  H       -3.7995038099    -2.5323131187     1.0293306915
| 27>  H       -1.5810939101    -3.2528398614    -2.6252192174
| 28>  H       -1.7003414074    -4.5265673819    -1.4039882303
| 29>  H       -3.1285076069    -4.0661764799    -2.3436015872
| 30>  H       -0.4103937494    -2.4168628088    -0.6324666451
| 31>  H       -1.1961539579    -2.5111079678     0.9371761025
| 32> *
| 33>
| 34>                          ****END OF INPUT****

CARTESIAN COORDINATES (ANGSTROEM)
---------------------------------
  C     -0.100742    1.654651    0.183407
  C     -0.022358    0.126236    0.107390
  C     -1.376595   -0.562828   -0.081092
  C     -2.095967   -0.279042   -1.411827
  C     -3.198417   -1.348151   -1.453844
  C     -2.588697   -2.625899   -0.788544
  C     -3.573764   -3.236369    0.220576
  C     -2.229951   -3.677259   -1.850905
  C     -1.301235   -2.102561   -0.073324
  H      0.887967    2.094058    0.349412
  H     -0.502096    2.083860   -0.740305
  H     -0.749107    1.976614    1.006316
  H      0.642402   -0.167437   -0.717104
  H      0.446780   -0.255689    1.023752
  H     -2.042153   -0.241442    0.734983
  H     -2.489758    0.738414   -1.491821
  H     -1.390028   -0.419197   -2.242495
  H     -4.060873   -1.003297   -0.871201
  H     -3.562710   -1.546585   -2.466794
  H     -4.521443   -3.500954   -0.262759
  H     -3.165665   -4.147000    0.673970
  H     -3.799504   -2.532313    1.029331
  H     -1.581094   -3.252840   -2.625219
  H     -1.700341   -4.526567   -1.403988
  H     -3.128508   -4.066176   -2.343602
  H     -0.410394   -2.416863   -0.632467
  H     -1.196154   -2.511108    0.937176

 Total Charge           Charge          ....    0
 Multiplicity           Mult            ....    1
 Number of Electrons    NEL             ....   72
 Basis Dimension        Dim             ....  387

ORBITAL ENERGIES
----------------

  NO   OCC          E(Eh)            E(eV)
   0   2.0000     -11.227102      -305.5050
   1   2.0000     -11.216106      -305.2058
   2   2.0000     -11.214222      -305.1545
   3   2.0000     -11.210155      -305.0438
   4   2.0000     -11.209061      -305.0140
   5   2.0000     -11.209036      -305.0134
   6   2.0000     -11.207492      -304.9714
   7   2.0000     -11.207039      -304.9590
   8   2.0000     -11.207008      -304.9582
   9   2.0000      -1.132244       -30.8099
  10   2.0000      -1.053863       -28.6771
  11   2.0000      -0.995632       -27.0925
  12   2.0000      -0.951947       -25.9038
  13   2.0000      -0.925103       -25.1733
  14   2.0000      -0.873083       -23.7578
  15   2.0000      -0.830381       -22.5958
  16   2.0000      -0.756198       -20.5772
  17   2.0000      -0.721921       -19.6445
  18   2.0000      -0.645264       -17.5585
  19   2.0000      -0.622210       -16.9312
  20   2.0000      -0.605194       -16.4682
  21   2.0000      -0.585214       -15.9245
  22   2.0000      -0.575998       -15.6737
  23   2.0000      -0.569691       -15.5021
  24   2.0000      -0.553490       -15.0612
  25   2.0000      -0.534801       -14.5527
  26   2.0000      -0.520067       -14.1518
  27   2.0000      -0.513520       -13.9736
  28   2.0000      -0.497996       -13.5512
  29   2.0000      -0.480708       -13.0807
  30   2.0000      -0.463598       -12.6151
  31   2.0000      -0.448663       -12.2087
  32   2.0000      -0.441402       -12.0112
  33   2.0000      -0.439282       -11.9535
  34   2.0000      -0.433750       -11.8029
  35   2.0000      -0.424773       -11.5587
  36   0.0000       0.130018         3.5380
  37   0.0000       0.147305         4.0084
  38   0.0000       0.154029         4.1913
  39   0.0000       0.168238         4.5780
  40   0.0000       0.186067         5.0631

MULLIKEN ATOMIC CHARGES
-----------------------
   0 C :   -0.400747
   1 C :   -0.190822
   2 C :   -0.057820
   3 C :   -0.270123
   4 C :   -0.245483
   5 C :    0.203733
   6 C :   -0.447492
   7 C :   -0.446756
   8 C :   -0.291071
   9 H :    0.133336
  10 H :    0.128516
  11 H :    0.121577
  12 H :    0.102329
  13 H :    0.111055
  14 H :    0.079785
  15 H :    0.124599
  16 H :    0.102139
  17 H :    0.111830
  18 H :    0.121078
  19 H :    0.130238
  20 H :    0.127918
  21 H :    0.129885
  22 H :    0.130011
  23 H :    0.129357
  24 H :    0.128294
  25 H :    0.114309
  26 H :    0.120326
Sum of atomic charges:    0.0000000

LOEWDIN ATOMIC CHARGES
----------------------
   0 C :   -0.319189
   1 C :   -0.276911
   2 C :   -0.253121
   3 C :   -0.236331
   4 C :   -0.212431
   5 C :   -0.301789
   6 C :   -0.280117
   7 C :   -0.279858
   8 C :   -0.190309
   9 H :    0.120060
  10 H :    0.119769
  11 H :    0.120344
  12 H :    0.136045
  13 H :    0.137580
  14 H :    0.152136
  15 H :    0.132347
  16 H :    0.138156
  17 H :    0.139398
  18 H :    0.134942
  19 H :    0.123831
  20 H :    0.122957
  21 H :    0.123322
  22 H :    0.123570
  23 H :    0.123804
  24 H :    0.122838
  25 H :    0.142291
  26 H :    0.136667

  Mayer bond orders larger than 0.1
B(  0-C ,  1-C ) :   0.9163 B(  0-C ,  9-H ) :   0.9423 B(  0-C , 10-H ) :   0.9410
B(  0-C , 11-H ) :   0.9386 B(  1-C ,  2-C ) :   0.9120 B(  1-C , 12-H ) :   0.9256
B(  1-C , 13-H ) :   0.9384 B(  2-C ,  3-C ) :   0.9284 B(  2-C ,  8-C ) :   0.9343
B(  2-C , 14-H ) :   0.9234 B(  3-C ,  4-C ) :   0.9543 B(  3-C , 15-H ) :   0.9299
B(  3-C , 16-H ) :   0.9177 B(  4-C ,  5-C ) :   0.8894 B(  4-C , 17-H ) :   0.9301
B(  4-C , 18-H ) :   0.9293 B(  5-C ,  6-C ) :   0.8912 B(  5-C ,  7-C ) :   0.8934
B(  5-C ,  8-C ) :   0.8951 B(  6-C , 19-H ) :   0.9409 B(  6-C , 20-H ) :   0.9399
B(  6-C , 21-H ) :   0.9358 B(  7-C , 22-H ) :   0.9361 B(  7-C , 23-H ) :   0.9406
B(  7-C , 24-H ) :   0.9390 B(  8-C , 25-H ) :   0.9268 B(  8-C , 26-H ) :   0.9238

MP2 TOTAL ENERGY:     -352.945209138 Eh
FINAL SINGLE POINT ENERGY      -352.945209138162

DIPOLE MOMENT
-------------
                                X             Y             Z
Electronic contribution:     -0.51364      -0.29978      -0.18004
Nuclear contribution   :      0.52440       0.32770       0.20366
                        -----------------------------------------
Total Dipole Moment    :      0.01076       0.02792       0.02361
                        -----------------------------------------
Magnitude (a.u.)       :      0.03812
Magnitude (Debye)      :      0.09689

                             ****ORCA TERMINATED NORMALLY****
TOTAL RUN TIME: 0 days 0 hours 35 minutes 29 seconds 908 msec
