                         Program Version 3.0.3 - RELEASE   -
|  1> ! RI-MP2 RIJK def2-TZVP def2-TZVP/C def2-TZVP/JK TIGHTSCF
|  2> % maxcore 2000
|  3> % mp2 density relaxed end
|  4> *xyz 0 1
|  5>  C       -0.2624141062     0.8999820735    -1.9680009698
|  6>  C       -0.0150189134    -0.2093482468    -0.9679056557
|  7>  C        1.3603078425    -0.4866234430    -0.3690535006
|  8>  C        2.5813574566     0.3291028894    -0.7256917761
|  9>  O        3.0566649778     0.0620710413    -2.0412286759
| 10>  C        0.2406579574     0.0107036063     0.5089671830
| 11>  C        0.2368510591     1.3836903319     1.1443288128
| 12>  O       -0.2389276863    -0.9919856375     1.3780605276
| 13>  H        0.2924040347     1.8113866735    -1.7331035063
| 14>  H        0.0442467751     0.5891567359    -2.9717154391
| 15>  H       -1.3252284454     1.1641064158    -2.0057530895
| 16>  H       -0.5867983474    -1.1134267019    -1.1633681887
| 17>  H        1.5744401677    -1.5421130285    -0.2122124064
| 18>  H        2.3690199843     1.4010401173    -0.7120062230
| 19>  H        3.3720841760     0.1532916045     0.0210333459
| 20>  H        3.2166664174    -0.8849565019    -2.1055433198
| 21>  H        0.6342390327     2.1585714503     0.4859586402
| 22>  H       -0.7876240147     1.6756504943     1.4081002231
| 23>  H        0.8288177996     1.3753760061     2.0648793485
| 24>  H       -1.1760090876    -0.8228693303     1.5293326399
| 25> *
| 26>
| 27>                          ****END OF INPUT****

CARTESIAN COORDINATES (ANGSTROEM)
---------------------------------
  C     -0.262414    0.899982   -1.968001
  C     -0.015019   -0.209348   -0.967906
  C      1.360308   -0.486623   -0.369054
  C      2.581357    0.329103   -0.725692
  O      3.056665    0.062071   -2.041229
  C      0.240658    0.010704    0.508967
  C      0.236851    1.383690    1.144329
  O     -0.238928   -0.991986    1.378061
  H      0.292404    1.811387   -1.733104
  H      0.044247    0.589157   -2.971715
  H     -1.325228    1.164106   -2.005753
  H     -0.586798   -1.113427   -1.163368
  H      1.574440   -1.542113   -0.212212
  H      2.369020    1.401040   -0.712006
  H      3.372084    0.153292    0.021033
  H      3.216666   -0.884957   -2.105543
  H      0.634239    2.158571    0.485959
  H     -0.787624    1.675650    1.408100
  H      0.828818    1.375376    2.064879
  H     -1.176009   -0.822869    1.529333

 Total Charge           Charge          ....    0
 Multiplicity           Mult            ....    1
 Number of Electrons    NEL             ....   64
 Basis Dimension        Dim             ....  320

ORBITAL ENERGIES
----------------

  NO   OCC          E(Eh)            E(eV)
   0   2.0000     -20.559433      -559.4506
   1   2.0000     -20.552073      -559.2503
   2   2.0000     -11.288768      -307.1830
   3   2.0000     -11.275787      -306.8298
   4   2.0000     -11.228860      -305.5528
   5   2.0000     -11.225347      -305.4572
   6   2.0000     -11.224268      -305.4279
   7   2.0000     -11.217178      -305.2349
   8   2.0000      -1.370226       -37.2857
   9   2.0000      -1.355158       -36.8757
  10   2.0000      -1.141564       -31.0635
  11   2.0000      -0.983653       -26.7666
  12   2.0000      -0.971929       -26.4475
  13   2.0000      -0.923639       -25.1335
  14   2.0000      -0.775675       -21.1072
  15   2.0000      -0.766191       -20.8491
  16   2.0000      -0.697742       -18.9865
  17   2.0000      -0.676877       -18.4187
  18   2.0000      -0.639182       -17.3930
  19   2.0000      -0.625098       -17.0098
  20   2.0000      -0.592755       -16.1297
  21   2.0000      -0.583025       -15.8649
  22   2.0000      -0.567930       -15.4542
  23   2.0000      -0.557691       -15.1755
  24   2.0000      -0.545725       -14.8499
  25   2.0000      -0.540010       -14.6944
  26   2.0000      -0.511371       -13.9151
  27   2.0000      -0.491503       -13.3745
  28   2.0000      -0.475527       -12.9398
  29   2.0000      -0.451724       -12.2920
  30   2.0000      -0.400189       -10.8897
  31   2.0000      -0.379015       -10.3135
  32   0.0000       0.126155         3.4328
  33   0.0000       0.143752         3.9117
  34   0.0000       0.163470         4.4482
  35   0.0000       0.172782         4.7016
  36   0.0000       0.183530         4.9941

MULLIKEN ATOMIC CHARGES
-----------------------
   0 C :   -0.377695
   1 C :   -0.133803
   2 C :   -0.168805
   3 C :   -0.010500
   4 O :   -0.474860
   5 C :    0.175378
   6 C :   -0.405868
   7 O :   -0.460808
   8 H :    0.113899
   9 H :    0.139710
  10 H :    0.130428
  11 H :    0.124126
  12 H :    0.124916
  13 H :    0.094747
  14 H :    0.114529
  15 H :    0.311692
  16 H :    0.119105
  17 H :    0.120957
  18 H :    0.147428
  19 H :    0.315424
Sum of atomic charges:    0.0000000

LOEWDIN ATOMIC CHARGES
----------------------
   0 C :   -0.290340
   1 C :   -0.203309
   2 C :   -0.192766
   3 C :   -0.324332
   4 O :   -0.051021
   5 C :   -0.349915
   6 C :   -0.273291
   7 O :    0.015197
   8 H :    0.123156
   9 H :    0.130310
  10 H :    0.124337
  11 H :    0.151921
  12 H :    0.154550
  13 H :    0.128366
  14 H :    0.122612
  15 H :    0.172097
  16 H :    0.125850
  17 H :    0.126570
  18 H :    0.131837
  19 H :    0.178171

  Mayer bond orders larger than 0.1
B(  0-C ,  1-C ) :   0.8974 B(  0-C ,  8-H ) :   0.9352 B(  0-C ,  9-H ) :   0.9313
B(  0-C , 10-H ) :   0.9377 B(  1-C ,  2-C ) :   0.8725 B(  1-C ,  5-C ) :   0.8846
B(  1-C , 11-H ) :   0.9286 B(  2-C ,  3-C ) :   0.9391 B(  2-C ,  5-C ) :   0.8383
B(  2-C , 12-H ) :   0.9093 B(  3-C ,  4-O ) :   0.9169 B(  3-C , 13-H ) :   0.9252
B(  3-C , 14-H ) :   0.9345 B(  4-O , 15-H ) :   0.8490 B(  5-C ,  6-C ) :   0.9445
B(  5-C ,  7-O ) :   0.9594 B(  6-C , 16-H ) :   0.9299 B(  6-C , 17-H ) :   0.9228
B(  6-C , 18-H ) :   0.9378 B(  7-O , 19-H ) :   0.8429

MP2 TOTAL ENERGY:     -385.493305024 Eh
FINAL SINGLE POINT ENERGY      -385.493305024411

DIPOLE MOMENT
-------------
                                X             Y             Z
Electronic contribution:      1.54914      -4.17916       0.94620
Nuclear contribution   :     -2.06790       4.19440      -0.73656
                        -----------------------------------------
Total Dipole Moment    :     -0.51875       0.01524       0.20964
                        -----------------------------------------
Magnitude (a.u.)       :      0.55972
Magnitude (Debye)      :      1.42269

                             ****ORCA TERMINATED NORMALLY****
TOTAL RUN TIME: 0 days 0 hours 12 minutes 49 seconds 329 msec
