                         Program Version 3.0.3 - RELEASE   -
|  1> ! RI-MP2 RIJK def2-TZVP def2-TZVP/C def2-TZVP/JK TIGHTSCF
|  2> % maxcore 2000
|  3> % mp2 density relaxed end
|  4> *xyz 0 1
|  5>  O        0.0035671120    -0.0066487780    -0.1022156629
|  6>  C       -0.0214087153     1.1923548583     0.0123458998
|  7>  C       -1.2669379956     2.1028611049     0.0635128917
|  8>  N       -0.7734836384     3.4273836197     0.4728958729
|  9>  C       -0.1518755719     3.3179433541     1.8500047876
| 10>  C        1.2164712976     3.1695815802     1.2115560058
| 11>  C        0.6090436373     3.5328842700    -0.1042545054
| 12>  C        1.1463829263     2.1334120592     0.0677320634
| 13>  H       -1.7059906899     2.1638077089    -0.9401304615
| 14>  H       -2.0313781823     1.7217408399     0.7449488363
| 15>  H       -0.2694607783     4.2637518819     2.3862009380
| 16>  H       -0.5355196355     2.4990795294     2.4689216048
| 17>  H        2.1788171393     3.4481220343     1.6236242881
| 18>  H        0.8719797634     4.2401380017    -0.8798820644
| 19>  H        2.0950625714     1.8281669555    -0.3549065243
| 20> *
| 21>
| 22>                          ****END OF INPUT****

CARTESIAN COORDINATES (ANGSTROEM)
---------------------------------
  O      0.003567   -0.006649   -0.102216
  C     -0.021409    1.192355    0.012346
  C     -1.266938    2.102861    0.063513
  N     -0.773484    3.427384    0.472896
  C     -0.151876    3.317943    1.850005
  C      1.216471    3.169582    1.211556
  C      0.609044    3.532884   -0.104255
  C      1.146383    2.133412    0.067732
  H     -1.705991    2.163808   -0.940130
  H     -2.031378    1.721741    0.744949
  H     -0.269461    4.263752    2.386201
  H     -0.535520    2.499080    2.468922
  H      2.178817    3.448122    1.623624
  H      0.871980    4.240138   -0.879882
  H      2.095063    1.828167   -0.354907

 Total Charge           Charge          ....    0
 Multiplicity           Mult            ....    1
 Number of Electrons    NEL             ....   58
 Basis Dimension        Dim             ....  290

ORBITAL ENERGIES
----------------

  NO   OCC          E(Eh)            E(eV)
   0   2.0000     -20.546382      -559.0955
   1   2.0000     -15.574509      -423.8039
   2   2.0000     -11.332194      -308.3647
   3   2.0000     -11.281641      -306.9891
   4   2.0000     -11.273680      -306.7724
   5   2.0000     -11.266599      -306.5798
   6   2.0000     -11.265668      -306.5544
   7   2.0000     -11.255165      -306.2686
   8   2.0000      -1.390700       -37.8429
   9   2.0000      -1.305710       -35.5302
  10   2.0000      -1.098277       -29.8856
  11   2.0000      -1.021225       -27.7889
  12   2.0000      -0.925183       -25.1755
  13   2.0000      -0.852194       -23.1894
  14   2.0000      -0.775396       -21.0996
  15   2.0000      -0.749847       -20.4044
  16   2.0000      -0.707027       -19.2392
  17   2.0000      -0.659220       -17.9383
  18   2.0000      -0.646671       -17.5968
  19   2.0000      -0.612903       -16.6780
  20   2.0000      -0.606877       -16.5140
  21   2.0000      -0.574065       -15.6211
  22   2.0000      -0.538486       -14.6529
  23   2.0000      -0.516030       -14.0419
  24   2.0000      -0.500715       -13.6252
  25   2.0000      -0.471044       -12.8178
  26   2.0000      -0.432925       -11.7805
  27   2.0000      -0.409540       -11.1441
  28   2.0000      -0.369555       -10.0561
  29   0.0000       0.132174         3.5966
  30   0.0000       0.147097         4.0027
  31   0.0000       0.159864         4.3501
  32   0.0000       0.163292         4.4434
  33   0.0000       0.179837         4.8936

MULLIKEN ATOMIC CHARGES
-----------------------
   0 O :   -0.272038
   1 C :    0.117663
   2 C :   -0.150619
   3 N :   -0.168021
   4 C :   -0.150117
   5 C :   -0.175075
   6 C :   -0.040024
   7 C :   -0.140034
   8 H :    0.139967
   9 H :    0.141566
  10 H :    0.129321
  11 H :    0.124351
  12 H :    0.145065
  13 H :    0.147543
  14 H :    0.150452
Sum of atomic charges:   -0.0000000

LOEWDIN ATOMIC CHARGES
----------------------
   0 O :    0.148380
   1 C :   -0.313421
   2 C :   -0.247446
   3 N :    0.113425
   4 C :   -0.212716
   5 C :   -0.161696
   6 C :   -0.168348
   7 C :   -0.145305
   8 H :    0.147853
   9 H :    0.141390
  10 H :    0.134859
  11 H :    0.126712
  12 H :    0.141597
  13 H :    0.136061
  14 H :    0.158654

  Mayer bond orders larger than 0.1
B(  0-O ,  1-C ) :   2.0305 B(  1-C ,  2-C ) :   0.9252 B(  1-C ,  7-C ) :   0.9352
B(  2-C ,  3-N ) :   0.9437 B(  2-C ,  7-C ) :  -0.1131 B(  2-C ,  8-H ) :   0.9000
B(  2-C ,  9-H ) :   0.9212 B(  3-N ,  4-C ) :   0.9072 B(  3-N ,  6-C ) :   0.9321
B(  4-C ,  5-C ) :   0.9824 B(  4-C , 10-H ) :   0.9190 B(  4-C , 11-H ) :   0.9312
B(  5-C ,  6-C ) :   0.8715 B(  5-C ,  7-C ) :   0.8003 B(  5-C , 12-H ) :   0.9163
B(  6-C ,  7-C ) :   0.8302 B(  6-C , 13-H ) :   0.9123 B(  7-C , 14-H ) :   0.9210

MP2 TOTAL ENERGY:     -362.011279600 Eh
FINAL SINGLE POINT ENERGY      -362.011279600091

DIPOLE MOMENT
-------------
                                X             Y             Z
Electronic contribution:      0.37494      -2.71582      -1.61768
Nuclear contribution   :      0.06530       3.61712       1.88110
                        -----------------------------------------
Total Dipole Moment    :      0.44023       0.90129       0.26342
                        -----------------------------------------
Magnitude (a.u.)       :      1.03707
Magnitude (Debye)      :      2.63603

                             ****ORCA TERMINATED NORMALLY****
TOTAL RUN TIME: 0 days 0 hours 13 minutes 48 seconds 949 msec
