                         Program Version 3.0.3 - RELEASE   -
|  1> ! RI-MP2 RIJK def2-TZVP def2-TZVP/C def2-TZVP/JK TIGHTSCF
|  2> % maxcore 2000
|  3> % mp2 density relaxed end
|  4> *xyz 0 1
|  5>  C        0.3038312523     1.3143298168    -0.0758848192
|  6>  C       -0.0715585278    -0.1879909740    -0.0327614665
|  7>  C        0.5380833430    -0.9877861777    -1.2341285139
|  8>  C        1.7774787182    -1.7394988741    -0.6825324185
|  9>  O        3.0315314394    -1.1541338769    -1.0385521410
| 10>  C        1.5526870280    -1.7180481618     0.8103821503
| 11>  C        0.5864114556    -0.8733942750     1.1613317423
| 12>  C       -1.5288328763    -0.3170525782     0.0249347693
| 13>  C       -2.7265623420    -0.4103651383     0.0788162999
| 14>  H        1.3877334061     1.4309571753    -0.1724406388
| 15>  H       -0.1757433852     1.8029968145    -0.9286385565
| 16>  H       -0.0183066197     1.8261443438     0.8355049309
| 17>  H       -0.1984069377    -1.7077301851    -1.5975279974
| 18>  H        0.8148349701    -0.3401813848    -2.0691684293
| 19>  H        1.8336796654    -2.7536247979    -1.0904820342
| 20>  H        3.1390120642    -0.3567410103    -0.5087887264
| 21>  H        2.1773258508    -2.2824123165     1.4938393318
| 22>  H        0.2734816623    -0.6439615249     2.1741150641
| 23>  H       -3.7835980068    -0.5009533650     0.1235251132
| 24> *
| 25>
| 26>                          ****END OF INPUT****

CARTESIAN COORDINATES (ANGSTROEM)
---------------------------------
  C      0.303831    1.314330   -0.075885
  C     -0.071559   -0.187991   -0.032761
  C      0.538083   -0.987786   -1.234129
  C      1.777479   -1.739499   -0.682532
  O      3.031531   -1.154134   -1.038552
  C      1.552687   -1.718048    0.810382
  C      0.586411   -0.873394    1.161332
  C     -1.528833   -0.317053    0.024935
  C     -2.726562   -0.410365    0.078816
  H      1.387733    1.430957   -0.172441
  H     -0.175743    1.802997   -0.928639
  H     -0.018307    1.826144    0.835505
  H     -0.198407   -1.707730   -1.597528
  H      0.814835   -0.340181   -2.069168
  H      1.833680   -2.753625   -1.090482
  H      3.139012   -0.356741   -0.508789
  H      2.177326   -2.282412    1.493839
  H      0.273482   -0.643962    2.174115
  H     -3.783598   -0.500953    0.123525

 Total Charge           Charge          ....    0
 Multiplicity           Mult            ....    1
 Number of Electrons    NEL             ....   66
 Basis Dimension        Dim             ....  339

ORBITAL ENERGIES
----------------

  NO   OCC          E(Eh)            E(eV)
   0   2.0000     -20.556011      -559.3575
   1   2.0000     -11.287227      -307.1411
   2   2.0000     -11.273381      -306.7643
   3   2.0000     -11.244520      -305.9790
   4   2.0000     -11.234215      -305.6985
   5   2.0000     -11.233651      -305.6832
   6   2.0000     -11.231758      -305.6317
   7   2.0000     -11.229705      -305.5758
   8   2.0000     -11.222941      -305.3917
   9   2.0000      -1.361340       -37.0439
  10   2.0000      -1.157305       -31.4919
  11   2.0000      -1.050062       -28.5737
  12   2.0000      -0.996155       -27.1068
  13   2.0000      -0.974392       -26.5146
  14   2.0000      -0.902475       -24.5576
  15   2.0000      -0.813011       -22.1232
  16   2.0000      -0.765938       -20.8422
  17   2.0000      -0.723491       -19.6872
  18   2.0000      -0.697127       -18.9698
  19   2.0000      -0.654300       -17.8044
  20   2.0000      -0.630605       -17.1596
  21   2.0000      -0.609768       -16.5926
  22   2.0000      -0.580607       -15.7991
  23   2.0000      -0.578095       -15.7308
  24   2.0000      -0.556842       -15.1524
  25   2.0000      -0.530949       -14.4479
  26   2.0000      -0.515317       -14.0225
  27   2.0000      -0.492912       -13.4128
  28   2.0000      -0.481124       -13.0921
  29   2.0000      -0.443583       -12.0705
  30   2.0000      -0.392849       -10.6900
  31   2.0000      -0.387544       -10.5456
  32   2.0000      -0.367882       -10.0106
  33   0.0000       0.131562         3.5800
  34   0.0000       0.132947         3.6177
  35   0.0000       0.154558         4.2057
  36   0.0000       0.164855         4.4859
  37   0.0000       0.173949         4.7334

MULLIKEN ATOMIC CHARGES
-----------------------
   0 C :   -0.398521
   1 C :    0.112434
   2 C :   -0.310358
   3 C :    0.135563
   4 O :   -0.461584
   5 C :   -0.221557
   6 C :   -0.178877
   7 C :   -0.075842
   8 C :   -0.158972
   9 H :    0.113799
  10 H :    0.145362
  11 H :    0.137881
  12 H :    0.142197
  13 H :    0.134739
  14 H :    0.111349
  15 H :    0.308358
  16 H :    0.134581
  17 H :    0.138195
  18 H :    0.191252
Sum of atomic charges:   -0.0000000

LOEWDIN ATOMIC CHARGES
----------------------
   0 C :   -0.243808
   1 C :   -0.263033
   2 C :   -0.162084
   3 C :   -0.313589
   4 O :   -0.026346
   5 C :   -0.142951
   6 C :   -0.089457
   7 C :   -0.067287
   8 C :   -0.096858
   9 H :    0.121410
  10 H :    0.131426
  11 H :    0.129784
  12 H :    0.149897
  13 H :    0.144119
  14 H :    0.144861
  15 H :    0.170087
  16 H :    0.141339
  17 H :    0.145672
  18 H :    0.126821

  Mayer bond orders larger than 0.1
B(  0-C ,  1-C ) :   0.9074 B(  0-C ,  9-H ) :   0.9293 B(  0-C , 10-H ) :   0.9317
B(  0-C , 11-H ) :   0.9328 B(  1-C ,  2-C ) :   0.8555 B(  1-C ,  6-C ) :   0.8844
B(  1-C ,  7-C ) :   1.1800 B(  1-C ,  8-C ) :  -0.1144 B(  2-C ,  3-C ) :   0.9269
B(  2-C , 12-H ) :   0.9212 B(  2-C , 13-H ) :   0.9250 B(  3-C ,  4-O ) :   0.9246
B(  3-C ,  5-C ) :   0.9524 B(  3-C , 14-H ) :   0.9347 B(  4-O , 15-H ) :   0.8444
B(  5-C ,  6-C ) :   1.7541 B(  5-C , 16-H ) :   0.9333 B(  6-C , 17-H ) :   0.9156
B(  7-C ,  8-C ) :   2.5689 B(  8-C , 18-H ) :   0.8832

MP2 TOTAL ENERGY:     -385.182997994 Eh
FINAL SINGLE POINT ENERGY      -385.182997993991

DIPOLE MOMENT
-------------
                                X             Y             Z
Electronic contribution:     -0.86568      -2.63009       0.69154
Nuclear contribution   :      0.60617       2.91405      -0.28126
                        -----------------------------------------
Total Dipole Moment    :     -0.25951       0.28396       0.41028
                        -----------------------------------------
Magnitude (a.u.)       :      0.56241
Magnitude (Debye)      :      1.42954

                             ****ORCA TERMINATED NORMALLY****
TOTAL RUN TIME: 0 days 0 hours 19 minutes 12 seconds 347 msec
