                         Program Version 3.0.3 - RELEASE   -
|  1> ! RI-MP2 RIJK def2-TZVP def2-TZVP/C def2-TZVP/JK TIGHTSCF
|  2> % maxcore 2000
|  3> % mp2 density relaxed end
|  4> *xyz 0 1
|  5>  O       -0.0008292154    -0.0512770014    -0.2514092218
|  6>  C       -0.0142356573     1.1397873676    -0.0315837059
|  7>  C       -1.3266421439     1.8973123186     0.1055853122
|  8>  C       -1.6120504919     2.8197698627    -1.1084049675
|  9>  C       -0.7371984653     4.0463293732    -1.2001303656
| 10>  C        0.5965422332     4.0646790980    -1.2182233192
| 11>  C        1.5069662695     2.8626811411    -1.1507177649
| 12>  C        1.2800727324     1.9331791460     0.0702264407
| 13>  H       -2.1196465132     1.1499720867     0.1898417061
| 14>  H       -1.3139056664     2.5045855034     1.0181040901
| 15>  H       -1.5262595662     2.2188244257    -2.0246313326
| 16>  H       -2.6592491468     3.1306264494    -1.0516624740
| 17>  H       -1.2597236435     4.9981090628    -1.2606079058
| 18>  H        1.0908577426     5.0304485973    -1.2924937430
| 19>  H        1.4129138450     2.2592583875    -2.0645017974
| 20>  H        2.5463723499     3.2022443889    -1.1222885018
| 21>  H        1.2753873317     2.5402158077     0.9829792160
| 22>  H        2.0953288157     1.2079682249     0.1326688943
| 23> *
| 24>
| 25>                          ****END OF INPUT****

CARTESIAN COORDINATES (ANGSTROEM)
---------------------------------
  O     -0.000829   -0.051277   -0.251409
  C     -0.014236    1.139787   -0.031584
  C     -1.326642    1.897312    0.105585
  C     -1.612050    2.819770   -1.108405
  C     -0.737198    4.046329   -1.200130
  C      0.596542    4.064679   -1.218223
  C      1.506966    2.862681   -1.150718
  C      1.280073    1.933179    0.070226
  H     -2.119647    1.149972    0.189842
  H     -1.313906    2.504586    1.018104
  H     -1.526260    2.218824   -2.024631
  H     -2.659249    3.130626   -1.051662
  H     -1.259724    4.998109   -1.260608
  H      1.090858    5.030449   -1.292494
  H      1.412914    2.259258   -2.064502
  H      2.546372    3.202244   -1.122289
  H      1.275387    2.540216    0.982979
  H      2.095329    1.207968    0.132669

 Total Charge           Charge          ....    0
 Multiplicity           Mult            ....    1
 Number of Electrons    NEL             ....   60
 Basis Dimension        Dim             ....  308

ORBITAL ENERGIES
----------------

  NO   OCC          E(Eh)            E(eV)
   0   2.0000     -20.540628      -558.9389
   1   2.0000     -11.323600      -308.1308
   2   2.0000     -11.243417      -305.9489
   3   2.0000     -11.243413      -305.9488
   4   2.0000     -11.237219      -305.7803
   5   2.0000     -11.237198      -305.7797
   6   2.0000     -11.235775      -305.7410
   7   2.0000     -11.234064      -305.6944
   8   2.0000      -1.383561       -37.6486
   9   2.0000      -1.119185       -30.4546
  10   2.0000      -1.047725       -28.5101
  11   2.0000      -1.022118       -27.8132
  12   2.0000      -0.897634       -24.4259
  13   2.0000      -0.881556       -23.9884
  14   2.0000      -0.734394       -19.9839
  15   2.0000      -0.723252       -19.6807
  16   2.0000      -0.674973       -18.3669
  17   2.0000      -0.651597       -17.7309
  18   2.0000      -0.640666       -17.4334
  19   2.0000      -0.611258       -16.6332
  20   2.0000      -0.581568       -15.8253
  21   2.0000      -0.575983       -15.6733
  22   2.0000      -0.536581       -14.6011
  23   2.0000      -0.529133       -14.3984
  24   2.0000      -0.513965       -13.9857
  25   2.0000      -0.511880       -13.9290
  26   2.0000      -0.480084       -13.0637
  27   2.0000      -0.468005       -12.7351
  28   2.0000      -0.401507       -10.9256
  29   2.0000      -0.358518        -9.7558
  30   0.0000       0.120647         3.2830
  31   0.0000       0.135575         3.6892
  32   0.0000       0.159966         4.3529
  33   0.0000       0.163372         4.4456
  34   0.0000       0.164534         4.4772

MULLIKEN ATOMIC CHARGES
-----------------------
   0 O :   -0.283880
   1 C :    0.146724
   2 C :   -0.178038
   3 C :   -0.209389
   4 C :   -0.190921
   5 C :   -0.190923
   6 C :   -0.209388
   7 C :   -0.178038
   8 H :    0.129394
   9 H :    0.119358
  10 H :    0.137417
  11 H :    0.136484
  12 H :    0.124274
  13 H :    0.124274
  14 H :    0.137417
  15 H :    0.136484
  16 H :    0.119358
  17 H :    0.129394
Sum of atomic charges:    0.0000000

LOEWDIN ATOMIC CHARGES
----------------------
   0 O :    0.147531
   1 C :   -0.329281
   2 C :   -0.222563
   3 C :   -0.243443
   4 C :   -0.179156
   5 C :   -0.179156
   6 C :   -0.243443
   7 C :   -0.222563
   8 H :    0.147577
   9 H :    0.147327
  10 H :    0.151410
  11 H :    0.145295
  12 H :    0.144429
  13 H :    0.144429
  14 H :    0.151410
  15 H :    0.145294
  16 H :    0.147327
  17 H :    0.147577

  Mayer bond orders larger than 0.1
B(  0-O ,  1-C ) :   2.0165 B(  1-C ,  2-C ) :   0.9214 B(  1-C ,  7-C ) :   0.9214
B(  2-C ,  3-C ) :   0.8779 B(  2-C ,  8-H ) :   0.9195 B(  2-C ,  9-H ) :   0.9084
B(  3-C ,  4-C ) :   0.9352 B(  3-C , 10-H ) :   0.9204 B(  3-C , 11-H ) :   0.9334
B(  4-C ,  5-C ) :   1.8049 B(  4-C , 12-H ) :   0.9283 B(  5-C ,  6-C ) :   0.9352
B(  5-C , 13-H ) :   0.9283 B(  6-C ,  7-C ) :   0.8779 B(  6-C , 14-H ) :   0.9204
B(  6-C , 15-H ) :   0.9334 B(  7-C , 16-H ) :   0.9084 B(  7-C , 17-H ) :   0.9195

MP2 TOTAL ENERGY:     -347.220781619 Eh
FINAL SINGLE POINT ENERGY      -347.220781619078

DIPOLE MOMENT
-------------
                                X             Y             Z
Electronic contribution:      0.06147      -3.84487       0.63117
Nuclear contribution   :     -0.07504       4.91236      -0.54893
                        -----------------------------------------
Total Dipole Moment    :     -0.01357       1.06750       0.08223
                        -----------------------------------------
Magnitude (a.u.)       :      1.07075
Magnitude (Debye)      :      2.72162

                             ****ORCA TERMINATED NORMALLY****
TOTAL RUN TIME: 0 days 0 hours 13 minutes 26 seconds 86 msec
