                         Program Version 3.0.3 - RELEASE   -
|  1> ! RI-MP2 RIJK def2-TZVP def2-TZVP/C def2-TZVP/JK TIGHTSCF
|  2> % maxcore 2000
|  3> % mp2 density relaxed end
|  4> *xyz 0 1
|  5>  C       -0.0928898851     1.5627814297    -0.0474090042
|  6>  C        0.0691568402     0.0359673202    -0.0402014010
|  7>  C        0.7242386709    -0.4234247159    -1.3490391352
|  8>  O       -0.1683128914    -0.0894811657    -2.4064404963
|  9>  C        0.7922073436    -0.5134144717     1.2403860494
| 10>  C        0.7492982159    -2.0626885099     1.2782153863
| 11>  C        2.2658156781    -0.0478058769     1.3348095258
| 12>  C        0.0704623647    -0.0324965762     2.4266725630
| 13>  C       -0.5137947091     0.3307518553     3.4132485061
| 14>  H        0.8780441254     2.0699133909    -0.0818419274
| 15>  H       -0.6537720842     1.8644512370    -0.9340529316
| 16>  H       -0.6245053121     1.9085409657     0.8415166493
| 17>  H       -0.9354339974    -0.4060828993    -0.0337420684
| 18>  H        1.6934649561     0.0820200081    -1.4834062575
| 19>  H        0.9125235426    -1.5057984238    -1.3373786743
| 20>  H        0.2595628082    -0.3081899526    -3.2390217020
| 21>  H        1.3747284223    -2.4983046529     0.4942588413
| 22>  H        1.1191449399    -2.4253331789     2.2410283773
| 23>  H       -0.2735176110    -2.4285550539     1.1502278284
| 24>  H        2.3446787287     1.0415023513     1.3444013783
| 25>  H        2.7192031827    -0.4234656322     2.2561828433
| 26>  H        2.8487086019    -0.4311950954     0.4917499595
| 27>  H       -1.0306762910     0.6581713971     4.2811592698
| 28> *
| 29>
| 30>                          ****END OF INPUT****

CARTESIAN COORDINATES (ANGSTROEM)
---------------------------------
  C     -0.092890    1.562781   -0.047409
  C      0.069157    0.035967   -0.040201
  C      0.724239   -0.423425   -1.349039
  O     -0.168313   -0.089481   -2.406440
  C      0.792207   -0.513414    1.240386
  C      0.749298   -2.062689    1.278215
  C      2.265816   -0.047806    1.334810
  C      0.070462   -0.032497    2.426673
  C     -0.513795    0.330752    3.413249
  H      0.878044    2.069913   -0.081842
  H     -0.653772    1.864451   -0.934053
  H     -0.624505    1.908541    0.841517
  H     -0.935434   -0.406083   -0.033742
  H      1.693465    0.082020   -1.483406
  H      0.912524   -1.505798   -1.337379
  H      0.259563   -0.308190   -3.239022
  H      1.374728   -2.498305    0.494259
  H      1.119145   -2.425333    2.241028
  H     -0.273518   -2.428555    1.150228
  H      2.344679    1.041502    1.344401
  H      2.719203   -0.423466    2.256183
  H      2.848709   -0.431195    0.491750
  H     -1.030676    0.658171    4.281159

 Total Charge           Charge          ....    0
 Multiplicity           Mult            ....    1
 Number of Electrons    NEL             ....   70
 Basis Dimension        Dim             ....  363

ORBITAL ENERGIES
----------------

  NO   OCC          E(Eh)            E(eV)
   0   2.0000     -20.556195      -559.3625
   1   2.0000     -11.275714      -306.8278
   2   2.0000     -11.264428      -306.5207
   3   2.0000     -11.231189      -305.6162
   4   2.0000     -11.226153      -305.4791
   5   2.0000     -11.221788      -305.3604
   6   2.0000     -11.221219      -305.3449
   7   2.0000     -11.214633      -305.1657
   8   2.0000     -11.201357      -304.8044
   9   2.0000      -1.360349       -37.0170
  10   2.0000      -1.128187       -30.6995
  11   2.0000      -1.027026       -27.9468
  12   2.0000      -0.995398       -27.0862
  13   2.0000      -0.940385       -25.5892
  14   2.0000      -0.915322       -24.9072
  15   2.0000      -0.854265       -23.2457
  16   2.0000      -0.772370       -21.0172
  17   2.0000      -0.714818       -19.4512
  18   2.0000      -0.693675       -18.8759
  19   2.0000      -0.649129       -17.6637
  20   2.0000      -0.633971       -17.2512
  21   2.0000      -0.611208       -16.6318
  22   2.0000      -0.587639       -15.9905
  23   2.0000      -0.578044       -15.7294
  24   2.0000      -0.549400       -14.9499
  25   2.0000      -0.542011       -14.7489
  26   2.0000      -0.531782       -14.4705
  27   2.0000      -0.520204       -14.1555
  28   2.0000      -0.507381       -13.8066
  29   2.0000      -0.472365       -12.8537
  30   2.0000      -0.465606       -12.6698
  31   2.0000      -0.459210       -12.4957
  32   2.0000      -0.441321       -12.0090
  33   2.0000      -0.380474       -10.3532
  34   2.0000      -0.379412       -10.3243
  35   0.0000       0.129362         3.5201
  36   0.0000       0.143608         3.9078
  37   0.0000       0.160308         4.3622
  38   0.0000       0.165626         4.5069
  39   0.0000       0.177454         4.8288

MULLIKEN ATOMIC CHARGES
-----------------------
   0 C :   -0.442446
   1 C :    0.013664
   2 C :   -0.116397
   3 O :   -0.465793
   4 C :    0.007573
   5 C :   -0.412777
   6 C :   -0.448498
   7 C :   -0.057435
   8 C :   -0.141361
   9 H :    0.112671
  10 H :    0.158546
  11 H :    0.152919
  12 H :    0.095410
  13 H :    0.104685
  14 H :    0.103511
  15 H :    0.315108
  16 H :    0.129113
  17 H :    0.142386
  18 H :    0.142061
  19 H :    0.145068
  20 H :    0.141764
  21 H :    0.133037
  22 H :    0.187193
Sum of atomic charges:    0.0000000

LOEWDIN ATOMIC CHARGES
----------------------
   0 C :   -0.285298
   1 C :   -0.232634
   2 C :   -0.324246
   3 O :   -0.045109
   4 C :   -0.284503
   5 C :   -0.251390
   6 C :   -0.249438
   7 C :   -0.069651
   8 C :   -0.101687
   9 H :    0.120721
  10 H :    0.130375
  11 H :    0.129967
  12 H :    0.163881
  13 H :    0.117471
  14 H :    0.117224
  15 H :    0.171788
  16 H :    0.120884
  17 H :    0.130847
  18 H :    0.130505
  19 H :    0.128863
  20 H :    0.131178
  21 H :    0.124299
  22 H :    0.125954

  Mayer bond orders larger than 0.1
B(  0-C ,  1-C ) :   0.9175 B(  0-C ,  9-H ) :   0.9324 B(  0-C , 10-H ) :   0.9347
B(  0-C , 11-H ) :   0.9360 B(  1-C ,  2-C ) :   0.8920 B(  1-C ,  4-C ) :   0.8882
B(  1-C , 12-H ) :   0.9132 B(  2-C ,  3-O ) :   1.0310 B(  2-C , 13-H ) :   0.9278
B(  2-C , 14-H ) :   0.9375 B(  3-O , 15-H ) :   0.8483 B(  4-C ,  5-C ) :   0.8982
B(  4-C ,  6-C ) :   0.8890 B(  4-C ,  7-C ) :   1.1612 B(  4-C ,  8-C ) :  -0.1116
B(  5-C , 16-H ) :   0.9318 B(  5-C , 17-H ) :   0.9338 B(  5-C , 18-H ) :   0.9337
B(  6-C , 19-H ) :   0.9354 B(  6-C , 20-H ) :   0.9339 B(  6-C , 21-H ) :   0.9332
B(  7-C ,  8-C ) :   2.5907 B(  8-C , 22-H ) :   0.8821

MP2 TOTAL ENERGY:     -387.583014848 Eh
FINAL SINGLE POINT ENERGY      -387.583014847945

DIPOLE MOMENT
-------------
                                X             Y             Z
Electronic contribution:     -3.44114       0.44112       1.07401
Nuclear contribution   :      4.04961      -0.74729      -1.36566
                        -----------------------------------------
Total Dipole Moment    :      0.60846      -0.30617      -0.29165
                        -----------------------------------------
Magnitude (a.u.)       :      0.74097
Magnitude (Debye)      :      1.88339

                             ****ORCA TERMINATED NORMALLY****
TOTAL RUN TIME: 0 days 0 hours 23 minutes 14 seconds 530 msec
