                         Program Version 3.0.3 - RELEASE   -
|  1> ! RI-MP2 RIJK def2-TZVP def2-TZVP/C def2-TZVP/JK TIGHTSCF
|  2> % maxcore 2000
|  3> % mp2 density relaxed end
|  4> *xyz 0 1
|  5>  N       -0.0853005409     1.2534200341     0.3350379791
|  6>  C        0.0938648858    -0.0186158024    -0.1177802374
|  7>  O        1.1397317441    -0.4553181436    -0.5546711730
|  8>  C       -1.1861037183    -0.8470425835    -0.0619370169
|  9>  C       -1.0394460683    -2.3676795517     0.1997942716
| 10>  N       -1.8269521009    -2.1558644642     1.4282049665
| 11>  C       -1.9393460930    -0.8019017676     1.2915302346
| 12>  O       -2.3934396377     0.0792238090     1.9792705609
| 13>  H        0.7324727065     1.8370585082     0.4154636261
| 14>  H       -0.8902929534     1.4646482402     0.9098270414
| 15>  H       -1.8257406822    -0.5898411099    -0.9099623644
| 16>  H       -1.5216315057    -3.0243378150    -0.5283741529
| 17>  H       -0.0075929861    -2.6818378222     0.3701884200
| 18>  H       -2.0498809299    -2.7644609614     2.2017669845
| 19> *
| 20>
| 21>                          ****END OF INPUT****

CARTESIAN COORDINATES (ANGSTROEM)
---------------------------------
  N     -0.085301    1.253420    0.335038
  C      0.093865   -0.018616   -0.117780
  O      1.139732   -0.455318   -0.554671
  C     -1.186104   -0.847043   -0.061937
  C     -1.039446   -2.367680    0.199794
  N     -1.826952   -2.155864    1.428205
  C     -1.939346   -0.801902    1.291530
  O     -2.393440    0.079224    1.979271
  H      0.732473    1.837059    0.415464
  H     -0.890293    1.464648    0.909827
  H     -1.825741   -0.589841   -0.909962
  H     -1.521632   -3.024338   -0.528374
  H     -0.007593   -2.681838    0.370188
  H     -2.049881   -2.764461    2.201767

 Total Charge           Charge          ....    0
 Multiplicity           Mult            ....    1
 Number of Electrons    NEL             ....   60
 Basis Dimension        Dim             ....  284

ORBITAL ENERGIES
----------------

  NO   OCC          E(Eh)            E(eV)
   0   2.0000     -20.546484      -559.0982
   1   2.0000     -20.530222      -558.6557
   2   2.0000     -15.603229      -424.5855
   3   2.0000     -15.584668      -424.0804
   4   2.0000     -11.372502      -309.4615
   5   2.0000     -11.365088      -309.2598
   6   2.0000     -11.293065      -307.2999
   7   2.0000     -11.272610      -306.7433
   8   2.0000      -1.408826       -38.3361
   9   2.0000      -1.392194       -37.8835
  10   2.0000      -1.286906       -35.0185
  11   2.0000      -1.218268       -33.1508
  12   2.0000      -1.041713       -28.3465
  13   2.0000      -0.920918       -25.0594
  14   2.0000      -0.854013       -23.2389
  15   2.0000      -0.773653       -21.0522
  16   2.0000      -0.729953       -19.8630
  17   2.0000      -0.698108       -18.9965
  18   2.0000      -0.693711       -18.8768
  19   2.0000      -0.673116       -18.3164
  20   2.0000      -0.637441       -17.3457
  21   2.0000      -0.594344       -16.1729
  22   2.0000      -0.578643       -15.7457
  23   2.0000      -0.563522       -15.3342
  24   2.0000      -0.553410       -15.0590
  25   2.0000      -0.527195       -14.3457
  26   2.0000      -0.451354       -12.2820
  27   2.0000      -0.429885       -11.6978
  28   2.0000      -0.420500       -11.4424
  29   2.0000      -0.417234       -11.3535
  30   0.0000       0.125736         3.4215
  31   0.0000       0.136784         3.7221
  32   0.0000       0.149889         4.0787
  33   0.0000       0.172933         4.7058
  34   0.0000       0.182827         4.9750

MULLIKEN ATOMIC CHARGES
-----------------------
   0 N :   -0.468279
   1 C :    0.206049
   2 O :   -0.342533
   3 C :   -0.063077
   4 C :   -0.121410
   5 N :   -0.317943
   6 C :    0.224381
   7 O :   -0.342642
   8 H :    0.259332
   9 H :    0.285150
  10 H :    0.153742
  11 H :    0.127084
  12 H :    0.155283
  13 H :    0.244863
Sum of atomic charges:    0.0000000

LOEWDIN ATOMIC CHARGES
----------------------
   0 N :   -0.004465
   1 C :   -0.466804
   2 O :    0.089462
   3 C :   -0.161706
   4 C :   -0.204734
   5 N :    0.131179
   6 C :   -0.431012
   7 O :    0.087631
   8 H :    0.174874
   9 H :    0.181102
  10 H :    0.169950
  11 H :    0.125810
  12 H :    0.135202
  13 H :    0.173511

  Mayer bond orders larger than 0.1
B(  0-N ,  1-C ) :   1.1829 B(  0-N ,  8-H ) :   0.8603 B(  0-N ,  9-H ) :   0.8409
B(  1-C ,  2-O ) :   1.9970 B(  1-C ,  3-C ) :   0.8772 B(  3-C ,  4-C ) :   0.9199
B(  3-C ,  6-C ) :   0.8436 B(  3-C , 10-H ) :   0.8853 B(  4-C ,  5-N ) :   0.8887
B(  4-C , 11-H ) :   0.9310 B(  4-C , 12-H ) :   0.9193 B(  5-N ,  6-C ) :   1.2071
B(  5-N , 13-H ) :   0.8568 B(  6-C ,  7-O ) :   1.9311

MP2 TOTAL ENERGY:     -415.251865804 Eh
FINAL SINGLE POINT ENERGY      -415.251865804489

DIPOLE MOMENT
-------------
                                X             Y             Z
Electronic contribution:     -0.20512       1.21333       1.07038
Nuclear contribution   :     -0.21204      -1.78951      -0.92796
                        -----------------------------------------
Total Dipole Moment    :     -0.41717      -0.57618       0.14241
                        -----------------------------------------
Magnitude (a.u.)       :      0.72546
Magnitude (Debye)      :      1.84397

                             ****ORCA TERMINATED NORMALLY****
TOTAL RUN TIME: 0 days 0 hours 10 minutes 7 seconds 695 msec
