                         Program Version 3.0.3 - RELEASE   -
|  1> ! RI-MP2 RIJK def2-TZVP def2-TZVP/C def2-TZVP/JK TIGHTSCF
|  2> % maxcore 2000
|  3> % mp2 density relaxed end
|  4> *xyz 0 1
|  5>  N       -0.2049528286     1.4066679901     0.3893328473
|  6>  C       -0.0389199251     0.0442224795     0.1265946506
|  7>  N       -1.0821470473    -0.7750380470     0.1259952145
|  8>  N       -0.5284594488    -2.0183197215    -0.0655377717
|  9>  C        0.8079249690    -1.9637908066    -0.1937680155
| 10>  O        1.5400499369    -3.0695387360    -0.4075264001
| 11>  C        1.1931645100    -0.6378013573    -0.0755041556
| 12>  C        2.6147422422    -0.1795072907    -0.1018815635
| 13>  O        3.4116837870    -1.0223444755    -0.9620904610
| 14>  H        0.3481301866     2.0009475188    -0.2152168528
| 15>  H       -1.1824058692     1.6659584796     0.3292359163
| 16>  H       -1.1195812184    -2.8270645507    -0.1371626383
| 17>  H        2.4420787864    -2.7478283094    -0.5855757521
| 18>  H        2.6993191960     0.8727582212    -0.4080000404
| 19>  H        3.1030715619    -0.2620572521     0.8764419809
| 20>  H        3.0846047515    -0.8938932825    -1.8603288886
| 21> *
| 22>
| 23>                          ****END OF INPUT****

CARTESIAN COORDINATES (ANGSTROEM)
---------------------------------
  N     -0.204953    1.406668    0.389333
  C     -0.038920    0.044222    0.126595
  N     -1.082147   -0.775038    0.125995
  N     -0.528459   -2.018320   -0.065538
  C      0.807925   -1.963791   -0.193768
  O      1.540050   -3.069539   -0.407526
  C      1.193165   -0.637801   -0.075504
  C      2.614742   -0.179507   -0.101882
  O      3.411684   -1.022344   -0.962090
  H      0.348130    2.000948   -0.215217
  H     -1.182406    1.665958    0.329236
  H     -1.119581   -2.827065   -0.137163
  H      2.442079   -2.747828   -0.585576
  H      2.699319    0.872758   -0.408000
  H      3.103072   -0.262057    0.876442
  H      3.084605   -0.893893   -1.860329

 Total Charge           Charge          ....    0
 Multiplicity           Mult            ....    1
 Number of Electrons    NEL             ....   68
 Basis Dimension        Dim             ....  321

ORBITAL ENERGIES
----------------

  NO   OCC          E(Eh)            E(eV)
   0   2.0000     -20.604720      -560.6829
   1   2.0000     -20.583617      -560.1087
   2   2.0000     -15.619639      -425.0320
   3   2.0000     -15.565530      -423.5596
   4   2.0000     -15.560287      -423.4169
   5   2.0000     -11.342872      -308.6552
   6   2.0000     -11.300589      -307.5047
   7   2.0000     -11.296121      -307.3831
   8   2.0000     -11.214026      -305.1492
   9   2.0000      -1.436838       -39.0984
  10   2.0000      -1.380490       -37.5650
  11   2.0000      -1.351675       -36.7809
  12   2.0000      -1.214271       -33.0420
  13   2.0000      -1.067219       -29.0405
  14   2.0000      -1.062160       -28.9028
  15   2.0000      -0.937410       -25.5082
  16   2.0000      -0.821373       -22.3507
  17   2.0000      -0.801260       -21.8034
  18   2.0000      -0.749359       -20.3911
  19   2.0000      -0.722940       -19.6722
  20   2.0000      -0.693900       -18.8820
  21   2.0000      -0.652107       -17.7447
  22   2.0000      -0.644837       -17.5469
  23   2.0000      -0.626524       -17.0486
  24   2.0000      -0.615380       -16.7454
  25   2.0000      -0.611800       -16.6479
  26   2.0000      -0.563894       -15.3443
  27   2.0000      -0.556895       -15.1539
  28   2.0000      -0.534146       -14.5348
  29   2.0000      -0.482048       -13.1172
  30   2.0000      -0.479136       -13.0379
  31   2.0000      -0.448012       -12.1910
  32   2.0000      -0.331268        -9.0143
  33   2.0000      -0.321481        -8.7479
  34   0.0000       0.117368         3.1937
  35   0.0000       0.140427         3.8212
  36   0.0000       0.155480         4.2308
  37   0.0000       0.176985         4.8160
  38   0.0000       0.189938         5.1685

MULLIKEN ATOMIC CHARGES
-----------------------
   0 N :   -0.526558
   1 C :    0.147779
   2 N :   -0.234814
   3 N :   -0.149720
   4 C :    0.207416
   5 O :   -0.428839
   6 C :   -0.218926
   7 C :    0.018360
   8 O :   -0.505314
   9 H :    0.241454
  10 H :    0.250778
  11 H :    0.256822
  12 H :    0.360544
  13 H :    0.113434
  14 H :    0.138295
  15 H :    0.329290
Sum of atomic charges:   -0.0000000

LOEWDIN ATOMIC CHARGES
----------------------
   0 N :   -0.090007
   1 C :   -0.370542
   2 N :    0.010043
   3 N :    0.137693
   4 C :   -0.365626
   5 O :    0.077040
   6 C :   -0.212684
   7 C :   -0.290800
   8 O :   -0.060627
   9 H :    0.164418
  10 H :    0.172048
  11 H :    0.188565
  12 H :    0.199870
  13 H :    0.124751
  14 H :    0.138233
  15 H :    0.177624

  Mayer bond orders larger than 0.1
B(  0-N ,  1-C ) :   1.0208 B(  0-N ,  9-H ) :   0.8748 B(  0-N , 10-H ) :   0.8754
B(  1-C ,  2-N ) :   1.6286 B(  1-C ,  6-C ) :   1.2073 B(  2-N ,  3-N ) :   0.9760
B(  2-N ,  4-C ) :   0.1030 B(  3-N ,  4-C ) :   1.2591 B(  3-N , 11-H ) :   0.8691
B(  4-C ,  5-O ) :   1.1412 B(  4-C ,  6-C ) :   1.3707 B(  5-O , 12-H ) :   0.7803
B(  6-C ,  7-C ) :   0.9193 B(  7-C ,  8-O ) :   0.8275 B(  7-C , 13-H ) :   0.9415
B(  7-C , 14-H ) :   0.9260 B(  8-O , 15-H ) :   0.8359

MP2 TOTAL ENERGY:     -470.475837884 Eh
FINAL SINGLE POINT ENERGY      -470.475837883875

DIPOLE MOMENT
-------------
                                X             Y             Z
Electronic contribution:     -2.48166      -3.67265       0.04161
Nuclear contribution   :      2.80396       4.02090      -0.84132
                        -----------------------------------------
Total Dipole Moment    :      0.32230       0.34826      -0.79970
                        -----------------------------------------
Magnitude (a.u.)       :      0.92988
Magnitude (Debye)      :      2.36358

                             ****ORCA TERMINATED NORMALLY****
TOTAL RUN TIME: 0 days 0 hours 16 minutes 49 seconds 344 msec
