                         Program Version 3.0.3 - RELEASE   -
|  1> ! RI-MP2 RIJK def2-TZVP def2-TZVP/C def2-TZVP/JK TIGHTSCF
|  2> % maxcore 2000
|  3> % mp2 density relaxed end
|  4> *xyz 0 1
|  5>  C        0.5485881315     1.5017121040     0.3120273080
|  6>  N        1.2114562364     0.3501849570    -0.3218696328
|  7>  C       -0.1728816023     0.2130667508     0.1412535391
|  8>  C       -0.4226274063    -0.7120689765     1.3062694798
|  9>  C        0.5204360286    -1.8053226637     1.5936830516
| 10>  O        0.5150058885    -0.6032079336     2.3792232050
| 11>  C       -1.8629062657    -0.8081044207     1.7289949971
| 12>  C       -2.2210121612    -1.2020377156     3.1095817246
| 13>  N       -2.4120277746     0.1920024459     2.6649522142
| 14>  H        0.9427369171     1.7540413503     1.2908675205
| 15>  H        0.2493097705     2.3448508242    -0.3043651757
| 16>  H        1.2312284601     0.4646405247    -1.3312321787
| 17>  H       -0.9613648375     0.1888843826    -0.6088575797
| 18>  H        0.1655281447    -2.6950668172     2.1103437212
| 19>  H        1.3938005523    -1.9197730600     0.9572919567
| 20>  H       -2.5463038627    -1.0615803729     0.9201432475
| 21>  H       -3.1374974591    -1.7556596339     3.2914261512
| 22>  H       -1.4049287236    -1.4068331946     3.7954626240
| 23>  H       -1.6396926467     0.7479149692     3.0287406266
| 24> *
| 25>
| 26>                          ****END OF INPUT****

CARTESIAN COORDINATES (ANGSTROEM)
---------------------------------
  C      0.548588    1.501712    0.312027
  N      1.211456    0.350185   -0.321870
  C     -0.172882    0.213067    0.141254
  C     -0.422627   -0.712069    1.306269
  C      0.520436   -1.805323    1.593683
  O      0.515006   -0.603208    2.379223
  C     -1.862906   -0.808104    1.728995
  C     -2.221012   -1.202038    3.109582
  N     -2.412028    0.192002    2.664952
  H      0.942737    1.754041    1.290868
  H      0.249310    2.344851   -0.304365
  H      1.231228    0.464641   -1.331232
  H     -0.961365    0.188884   -0.608858
  H      0.165528   -2.695067    2.110344
  H      1.393801   -1.919773    0.957292
  H     -2.546304   -1.061580    0.920143
  H     -3.137497   -1.755660    3.291426
  H     -1.404929   -1.406833    3.795463
  H     -1.639693    0.747915    3.028741

 Total Charge           Charge          ....    0
 Multiplicity           Mult            ....    1
 Number of Electrons    NEL             ....   68
 Basis Dimension        Dim             ....  339

ORBITAL ENERGIES
----------------

  NO   OCC          E(Eh)            E(eV)
   0   2.0000     -20.571760      -559.7861
   1   2.0000     -15.565251      -423.5520
   2   2.0000     -15.557048      -423.3288
   3   2.0000     -11.299711      -307.4808
   4   2.0000     -11.282486      -307.0121
   5   2.0000     -11.271217      -306.7054
   6   2.0000     -11.265171      -306.5409
   7   2.0000     -11.260328      -306.4091
   8   2.0000     -11.253423      -306.2212
   9   2.0000      -1.418448       -38.5979
  10   2.0000      -1.267435       -34.4886
  11   2.0000      -1.258542       -34.2467
  12   2.0000      -0.995647       -27.0929
  13   2.0000      -0.915661       -24.9164
  14   2.0000      -0.892584       -24.2885
  15   2.0000      -0.875408       -23.8211
  16   2.0000      -0.835906       -22.7461
  17   2.0000      -0.771295       -20.9880
  18   2.0000      -0.732327       -19.9276
  19   2.0000      -0.693407       -18.8686
  20   2.0000      -0.676232       -18.4012
  21   2.0000      -0.639465       -17.4007
  22   2.0000      -0.607169       -16.5219
  23   2.0000      -0.579873       -15.7791
  24   2.0000      -0.533730       -14.5235
  25   2.0000      -0.525421       -14.2974
  26   2.0000      -0.519742       -14.1429
  27   2.0000      -0.498355       -13.5609
  28   2.0000      -0.486382       -13.2351
  29   2.0000      -0.474944       -12.9239
  30   2.0000      -0.448161       -12.1951
  31   2.0000      -0.435269       -11.8443
  32   2.0000      -0.402762       -10.9597
  33   2.0000      -0.380716       -10.3598
  34   0.0000       0.133192         3.6243
  35   0.0000       0.150838         4.1045
  36   0.0000       0.164627         4.4797
  37   0.0000       0.167700         4.5633
  38   0.0000       0.192443         5.2366

MULLIKEN ATOMIC CHARGES
-----------------------
   0 C :   -0.192568
   1 N :   -0.380285
   2 C :   -0.041891
   3 C :    0.192226
   4 C :   -0.094416
   5 O :   -0.355661
   6 C :   -0.100646
   7 C :   -0.173464
   8 N :   -0.358463
   9 H :    0.137482
  10 H :    0.129265
  11 H :    0.221446
  12 H :    0.134568
  13 H :    0.120217
  14 H :    0.141040
  15 H :    0.123166
  16 H :    0.121904
  17 H :    0.147102
  18 H :    0.228979
Sum of atomic charges:    0.0000000

LOEWDIN ATOMIC CHARGES
----------------------
   0 C :   -0.251363
   1 N :   -0.006963
   2 C :   -0.244725
   3 C :   -0.317653
   4 C :   -0.220839
   5 O :    0.174333
   6 C :   -0.245907
   7 C :   -0.259209
   8 N :   -0.011927
   9 H :    0.131218
  10 H :    0.120561
  11 H :    0.166557
  12 H :    0.145881
  13 H :    0.121631
  14 H :    0.128356
  15 H :    0.147778
  16 H :    0.123763
  17 H :    0.128374
  18 H :    0.170135

  Mayer bond orders larger than 0.1
B(  0-C ,  1-N ) :   0.9514 B(  0-C ,  2-C ) :   0.9230 B(  0-C ,  9-H ) :   0.9097
B(  0-C , 10-H ) :   0.9251 B(  1-N ,  2-C ) :   0.8816 B(  1-N , 11-H ) :   0.8641
B(  2-C ,  3-C ) :   0.8833 B(  2-C , 12-H ) :   0.9307 B(  3-C ,  4-C ) :   0.9767
B(  3-C ,  5-O ) :   0.7997 B(  3-C ,  6-C ) :   0.9425 B(  4-C ,  5-O ) :   0.8999
B(  4-C , 13-H ) :   0.9111 B(  4-C , 14-H ) :   0.8996 B(  6-C ,  7-C ) :   0.9520
B(  6-C ,  8-N ) :   0.9303 B(  6-C , 15-H ) :   0.9162 B(  7-C ,  8-N ) :   0.9233
B(  7-C , 16-H ) :   0.9176 B(  7-C , 17-H ) :   0.9116 B(  8-N , 18-H ) :   0.8738

MP2 TOTAL ENERGY:     -418.418209374 Eh
FINAL SINGLE POINT ENERGY      -418.418209374338

DIPOLE MOMENT
-------------
                                X             Y             Z
Electronic contribution:      1.00783      -0.09528       0.44789
Nuclear contribution   :     -1.05113      -0.21459      -1.22628
                        -----------------------------------------
Total Dipole Moment    :     -0.04331      -0.30986      -0.77839
                        -----------------------------------------
Magnitude (a.u.)       :      0.83892
Magnitude (Debye)      :      2.13236

                             ****ORCA TERMINATED NORMALLY****
TOTAL RUN TIME: 0 days 0 hours 17 minutes 13 seconds 164 msec
