                         Program Version 3.0.3 - RELEASE   -
|  1> ! RI-MP2 RIJK def2-TZVP def2-TZVP/C def2-TZVP/JK TIGHTSCF
|  2> % maxcore 2000
|  3> % mp2 density relaxed end
|  4> *xyz 0 1
|  5>  C       -0.3336662339     1.3307527507    -0.8812834097
|  6>  C       -0.1003685021     0.0742798509    -0.0792697666
|  7>  C        1.1095480751    -0.7455433641    -0.2965052096
|  8>  O        0.9947256285     0.0918291709     0.8584627610
|  9>  C       -1.3142063405    -0.5795662988     0.4711789040
| 10>  N       -2.5107092521    -0.6165153786    -0.0753569021
| 11>  C       -3.2865850468    -1.3419459118     0.8000357796
| 12>  C       -2.5495583640    -1.7388971730     1.8850430231
| 13>  N       -1.2841532993    -1.2474621609     1.6588412978
| 14>  H        0.6082437471     1.7118251087    -1.2824429863
| 15>  H       -1.0225578870     1.1190436088    -1.7028666371
| 16>  H       -0.7895063049     2.1031943701    -0.2551155323
| 17>  H        1.0769626079    -1.8166225636    -0.1041269604
| 18>  H        1.8459295819    -0.4242124735    -1.0317976406
| 19>  H       -4.3295132376    -1.5343420139     0.5993416136
| 20>  H       -2.7960332731    -2.2997516997     2.7709329589
| 21>  H       -0.4836641692    -1.2767717421     2.2690505267
| 22> *
| 23>
| 24>                          ****END OF INPUT****

CARTESIAN COORDINATES (ANGSTROEM)
---------------------------------
  C     -0.333666    1.330753   -0.881283
  C     -0.100369    0.074280   -0.079270
  C      1.109548   -0.745543   -0.296505
  O      0.994726    0.091829    0.858463
  C     -1.314206   -0.579566    0.471179
  N     -2.510709   -0.616515   -0.075357
  C     -3.286585   -1.341946    0.800036
  C     -2.549558   -1.738897    1.885043
  N     -1.284153   -1.247462    1.658841
  H      0.608244    1.711825   -1.282443
  H     -1.022558    1.119044   -1.702867
  H     -0.789506    2.103194   -0.255116
  H      1.076963   -1.816623   -0.104127
  H      1.845930   -0.424212   -1.031798
  H     -4.329513   -1.534342    0.599342
  H     -2.796033   -2.299752    2.770933
  H     -0.483664   -1.276772    2.269051

 Total Charge           Charge          ....    0
 Multiplicity           Mult            ....    1
 Number of Electrons    NEL             ....   66
 Basis Dimension        Dim             ....  327

ORBITAL ENERGIES
----------------

  NO   OCC          E(Eh)            E(eV)
   0   2.0000     -20.582900      -560.0892
   1   2.0000     -15.615220      -424.9117
   2   2.0000     -15.543417      -422.9579
   3   2.0000     -11.312529      -307.8296
   4   2.0000     -11.299306      -307.4697
   5   2.0000     -11.295996      -307.3797
   6   2.0000     -11.258558      -306.3609
   7   2.0000     -11.241911      -305.9080
   8   2.0000     -11.226655      -305.4928
   9   2.0000      -1.427246       -38.8373
  10   2.0000      -1.339492       -36.4494
  11   2.0000      -1.166415       -31.7398
  12   2.0000      -1.050499       -28.5855
  13   2.0000      -0.989997       -26.9392
  14   2.0000      -0.922652       -25.1066
  15   2.0000      -0.861758       -23.4496
  16   2.0000      -0.814621       -22.1670
  17   2.0000      -0.787115       -21.4185
  18   2.0000      -0.737578       -20.0705
  19   2.0000      -0.674717       -18.3600
  20   2.0000      -0.643379       -17.5072
  21   2.0000      -0.612080       -16.6556
  22   2.0000      -0.606485       -16.5033
  23   2.0000      -0.594837       -16.1863
  24   2.0000      -0.573746       -15.6124
  25   2.0000      -0.562925       -15.3180
  26   2.0000      -0.537501       -14.6261
  27   2.0000      -0.528303       -14.3759
  28   2.0000      -0.467444       -12.7198
  29   2.0000      -0.455457       -12.3936
  30   2.0000      -0.436550       -11.8791
  31   2.0000      -0.399928       -10.8826
  32   2.0000      -0.313290        -8.5251
  33   0.0000       0.141199         3.8422
  34   0.0000       0.154713         4.2100
  35   0.0000       0.158057         4.3009
  36   0.0000       0.180428         4.9097
  37   0.0000       0.184393         5.0176

MULLIKEN ATOMIC CHARGES
-----------------------
   0 C :   -0.399405
   1 C :    0.129272
   2 C :   -0.072242
   3 O :   -0.352884
   4 C :    0.224850
   5 N :   -0.298350
   6 C :   -0.101201
   7 C :   -0.090011
   8 N :   -0.270494
   9 H :    0.133477
  10 H :    0.159912
  11 H :    0.139832
  12 H :    0.123344
  13 H :    0.123191
  14 H :    0.133516
  15 H :    0.150892
  16 H :    0.266301
Sum of atomic charges:   -0.0000000

LOEWDIN ATOMIC CHARGES
----------------------
   0 C :   -0.252494
   1 C :   -0.315205
   2 C :   -0.234817
   3 O :    0.154586
   4 C :   -0.293680
   5 N :    0.113879
   6 C :   -0.261051
   7 C :   -0.240717
   8 N :    0.209799
   9 H :    0.130067
  10 H :    0.141846
  11 H :    0.134912
  12 H :    0.122048
  13 H :    0.123179
  14 H :    0.132377
  15 H :    0.134748
  16 H :    0.200522

  Mayer bond orders larger than 0.1
B(  0-C ,  1-C ) :   0.9265 B(  0-C ,  9-H ) :   0.9329 B(  0-C , 10-H ) :   0.9292
B(  0-C , 11-H ) :   0.9329 B(  1-C ,  2-C ) :   0.9847 B(  1-C ,  3-O ) :   0.8772
B(  1-C ,  4-C ) :   0.9261 B(  2-C ,  3-O ) :   0.8730 B(  2-C , 12-H ) :   0.9058
B(  2-C , 13-H ) :   0.9173 B(  4-C ,  5-N ) :   1.5628 B(  4-C ,  8-N ) :   1.1559
B(  5-N ,  6-C ) :   1.2673 B(  6-C ,  7-C ) :   1.5128 B(  6-C , 14-H ) :   0.9412
B(  7-C ,  8-N ) :   1.1223 B(  7-C , 15-H ) :   0.9118 B(  8-N , 16-H ) :   0.8502

MP2 TOTAL ENERGY:     -417.324415937 Eh
FINAL SINGLE POINT ENERGY      -417.324415937073

DIPOLE MOMENT
-------------
                                X             Y             Z
Electronic contribution:     -1.27018      -2.06800       2.85848
Nuclear contribution   :      1.80512       1.55217      -2.43355
                        -----------------------------------------
Total Dipole Moment    :      0.53494      -0.51583       0.42493
                        -----------------------------------------
Magnitude (a.u.)       :      0.85604
Magnitude (Debye)      :      2.17589

                             ****ORCA TERMINATED NORMALLY****
TOTAL RUN TIME: 0 days 0 hours 16 minutes 17 seconds 884 msec
