                         Program Version 3.0.3 - RELEASE   -
|  1> ! RI-MP2 RIJK def2-TZVP def2-TZVP/C def2-TZVP/JK TIGHTSCF
|  2> % maxcore 2000
|  3> % mp2 density relaxed end
|  4> *xyz 0 1
|  5>  C       -0.0555619583     1.5002743765     0.1006375251
|  6>  O        1.2487551992     1.9377545033    -0.2986312939
|  7>  C        2.1312593434     0.8372437671    -0.6162875291
|  8>  C        1.2944121908    -0.3808944102    -0.3928608429
|  9>  C        0.0501159392     0.0140788926     0.0156761103
| 10>  N       -0.6844895700    -1.1000493963     0.2101433707
| 11>  N        0.0284255470    -2.2243893782    -0.0550739422
| 12>  C        1.2351619437    -1.7887505898    -0.4228363529
| 13>  H       -0.2740444768     1.8665262010     1.1149349992
| 14>  H       -0.8114263118     1.9250906290    -0.5767457743
| 15>  H        2.4769418984     0.9515278589    -1.6530155006
| 16>  H        3.0128492476     0.8932932107     0.0371989405
| 17>  H       -1.6394924175    -1.1942613051     0.5100083337
| 18>  H        1.9948448452    -2.5086113795    -0.6888394136
| 19> *
| 20>
| 21>                          ****END OF INPUT****

CARTESIAN COORDINATES (ANGSTROEM)
---------------------------------
  C     -0.055562    1.500274    0.100638
  O      1.248755    1.937755   -0.298631
  C      2.131259    0.837244   -0.616288
  C      1.294412   -0.380894   -0.392861
  C      0.050116    0.014079    0.015676
  N     -0.684490   -1.100049    0.210143
  N      0.028426   -2.224389   -0.055074
  C      1.235162   -1.788751   -0.422836
  H     -0.274044    1.866526    1.114935
  H     -0.811426    1.925091   -0.576746
  H      2.476942    0.951528   -1.653016
  H      3.012849    0.893293    0.037199
  H     -1.639492   -1.194261    0.510008
  H      1.994845   -2.508611   -0.688839

 Total Charge           Charge          ....    0
 Multiplicity           Mult            ....    1
 Number of Electrons    NEL             ....   58
 Basis Dimension        Dim             ....  284

ORBITAL ENERGIES
----------------

  NO   OCC          E(Eh)            E(eV)
   0   2.0000     -20.562679      -559.5389
   1   2.0000     -15.642846      -425.6635
   2   2.0000     -15.590347      -424.2349
   3   2.0000     -11.303921      -307.5953
   4   2.0000     -11.291131      -307.2473
   5   2.0000     -11.275140      -306.8122
   6   2.0000     -11.261841      -306.4503
   7   2.0000     -11.220175      -305.3165
   8   2.0000      -1.387362       -37.7520
   9   2.0000      -1.366948       -37.1966
  10   2.0000      -1.104524       -30.0556
  11   2.0000      -1.079343       -29.3704
  12   2.0000      -0.996913       -27.1274
  13   2.0000      -0.880038       -23.9471
  14   2.0000      -0.824020       -22.4227
  15   2.0000      -0.784082       -21.3360
  16   2.0000      -0.734150       -19.9772
  17   2.0000      -0.682327       -18.5671
  18   2.0000      -0.620562       -16.8864
  19   2.0000      -0.610842       -16.6219
  20   2.0000      -0.603066       -16.4102
  21   2.0000      -0.584804       -15.9133
  22   2.0000      -0.564253       -15.3541
  23   2.0000      -0.551976       -15.0200
  24   2.0000      -0.512362       -13.9421
  25   2.0000      -0.452155       -12.3038
  26   2.0000      -0.439263       -11.9530
  27   2.0000      -0.370256       -10.0752
  28   2.0000      -0.333304        -9.0697
  29   0.0000       0.128456         3.4955
  30   0.0000       0.147918         4.0251
  31   0.0000       0.152388         4.1467
  32   0.0000       0.169843         4.6217
  33   0.0000       0.192491         5.2379

MULLIKEN ATOMIC CHARGES
-----------------------
   0 C :   -0.008198
   1 O :   -0.323412
   2 C :   -0.007571
   3 C :   -0.072690
   4 C :    0.012747
   5 N :   -0.134514
   6 N :   -0.196207
   7 C :   -0.126016
   8 H :    0.114940
   9 H :    0.114965
  10 H :    0.115671
  11 H :    0.115643
  12 H :    0.259157
  13 H :    0.135485
Sum of atomic charges:   -0.0000000

LOEWDIN ATOMIC CHARGES
----------------------
   0 C :   -0.258722
   1 O :    0.138718
   2 C :   -0.242028
   3 C :   -0.174592
   4 C :   -0.225473
   5 N :    0.146947
   6 N :    0.024737
   7 C :   -0.249979
   8 H :    0.129035
   9 H :    0.129043
  10 H :    0.128940
  11 H :    0.128932
  12 H :    0.189234
  13 H :    0.135209

  Mayer bond orders larger than 0.1
B(  0-C ,  1-O ) :   0.9608 B(  0-C ,  4-C ) :   0.9641 B(  0-C ,  8-H ) :   0.9138
B(  0-C ,  9-H ) :   0.9138 B(  1-O ,  2-C ) :   0.9325 B(  2-C ,  3-C ) :   0.9670
B(  2-C , 10-H ) :   0.9161 B(  2-C , 11-H ) :   0.9161 B(  3-C ,  4-C ) :   1.3697
B(  3-C ,  7-C ) :   1.2422 B(  4-C ,  5-N ) :   1.1844 B(  4-C ,  6-N ) :   0.1028
B(  5-N ,  6-N ) :   1.0523 B(  5-N , 12-H ) :   0.8674 B(  6-N ,  7-C ) :   1.5409
B(  7-C , 13-H ) :   0.9414

MP2 TOTAL ENERGY:     -378.087077437 Eh
FINAL SINGLE POINT ENERGY      -378.087077436852

DIPOLE MOMENT
-------------
                                X             Y             Z
Electronic contribution:     -1.28790      -2.13437       0.33414
Nuclear contribution   :      0.80833       2.41129      -0.17197
                        -----------------------------------------
Total Dipole Moment    :     -0.47957       0.27691       0.16217
                        -----------------------------------------
Magnitude (a.u.)       :      0.57704
Magnitude (Debye)      :      1.46671

                             ****ORCA TERMINATED NORMALLY****
TOTAL RUN TIME: 0 days 0 hours 11 minutes 1 seconds 437 msec
