                         Program Version 3.0.3 - RELEASE   -
|  1> ! RI-MP2 RIJK def2-TZVP def2-TZVP/C def2-TZVP/JK TIGHTSCF
|  2> % maxcore 2000
|  3> % mp2 density relaxed end
|  4> *xyz 0 1
|  5>  C       -0.2080369170     1.4934117528    -0.0724573142
|  6>  N        0.0485699121     0.0700063044     0.0712924467
|  7>  C        1.3784692501    -0.4843859466    -0.1308186216
|  8>  C        2.6135147844     0.4184107610    -0.0603941740
|  9>  C        2.5967758365     0.9469035617     1.3569033878
| 10>  C        1.5973863495     0.4225175811     2.0742365962
| 11>  C        1.2689274197     0.6941815610     3.5060743428
| 12>  O        2.2524395862     1.5409509603     4.0711130799
| 13>  C        0.7530579922    -0.4881319286     1.2381324301
| 14>  H        0.5534462008     2.1540805594     0.3655176901
| 15>  H       -0.2916862053     1.7229835808    -1.1398404751
| 16>  H       -1.1706786600     1.7239984763     0.3958633656
| 17>  H        1.4155712303    -1.3702043014    -0.7590904031
| 18>  H        3.5220683687    -0.1610172437    -0.2682664045
| 19>  H        2.5887703143     1.2247103230    -0.8060137582
| 20>  H        3.2973934307     1.6849393036     1.7269342664
| 21>  H        0.2633372682     1.1475828763     3.5684145234
| 22>  H        1.2031240518    -0.2661700162     4.0489667227
| 23>  H        2.0095829240     1.7132683041     4.9849517375
| 24>  H        0.2758486727    -1.3557936893     1.6885322314
| 25> *
| 26>
| 27>                          ****END OF INPUT****

CARTESIAN COORDINATES (ANGSTROEM)
---------------------------------
  C     -0.208037    1.493412   -0.072457
  N      0.048570    0.070006    0.071292
  C      1.378469   -0.484386   -0.130819
  C      2.613515    0.418411   -0.060394
  C      2.596776    0.946904    1.356903
  C      1.597386    0.422518    2.074237
  C      1.268927    0.694182    3.506074
  O      2.252440    1.540951    4.071113
  C      0.753058   -0.488132    1.238132
  H      0.553446    2.154081    0.365518
  H     -0.291686    1.722984   -1.139840
  H     -1.170679    1.723998    0.395863
  H      1.415571   -1.370204   -0.759090
  H      3.522068   -0.161017   -0.268266
  H      2.588770    1.224710   -0.806014
  H      3.297393    1.684939    1.726934
  H      0.263337    1.147583    3.568415
  H      1.203124   -0.266170    4.048967
  H      2.009583    1.713268    4.984952
  H      0.275849   -1.355794    1.688532

 Total Charge           Charge          ....    0
 Multiplicity           Mult            ....    1
 Number of Electrons    NEL             ....   68
 Basis Dimension        Dim             ....  345

ORBITAL ENERGIES
----------------

  NO   OCC          E(Eh)            E(eV)
   0   2.0000     -20.561840      -559.5161
   1   2.0000     -15.552634      -423.2087
   2   2.0000     -11.286841      -307.1306
   3   2.0000     -11.254086      -306.2392
   4   2.0000     -11.252314      -306.1910
   5   2.0000     -11.236260      -305.7542
   6   2.0000     -11.228142      -305.5333
   7   2.0000     -11.227581      -305.5180
   8   2.0000     -11.218936      -305.2828
   9   2.0000      -1.367606       -37.2145
  10   2.0000      -1.273478       -34.6531
  11   2.0000      -1.093273       -29.7495
  12   2.0000      -1.000282       -27.2190
  13   2.0000      -0.976458       -26.5708
  14   2.0000      -0.896986       -24.4082
  15   2.0000      -0.823836       -22.4177
  16   2.0000      -0.774082       -21.0639
  17   2.0000      -0.715139       -19.4599
  18   2.0000      -0.700418       -19.0593
  19   2.0000      -0.677599       -18.4384
  20   2.0000      -0.640155       -17.4195
  21   2.0000      -0.624492       -16.9933
  22   2.0000      -0.591754       -16.1024
  23   2.0000      -0.574667       -15.6375
  24   2.0000      -0.569526       -15.4976
  25   2.0000      -0.546448       -14.8696
  26   2.0000      -0.524864       -14.2823
  27   2.0000      -0.512395       -13.9430
  28   2.0000      -0.494078       -13.4445
  29   2.0000      -0.467822       -12.7301
  30   2.0000      -0.444304       -12.0901
  31   2.0000      -0.424830       -11.5602
  32   2.0000      -0.370235       -10.0746
  33   2.0000      -0.330548        -8.9947
  34   0.0000       0.130056         3.5390
  35   0.0000       0.148616         4.0440
  36   0.0000       0.153558         4.1785
  37   0.0000       0.167908         4.5690
  38   0.0000       0.174512         4.7487

MULLIKEN ATOMIC CHARGES
-----------------------
   0 C :   -0.306867
   1 N :   -0.204798
   2 C :   -0.062239
   3 C :   -0.144864
   4 C :   -0.227005
   5 C :    0.005490
   6 C :   -0.119076
   7 O :   -0.461363
   8 C :   -0.063308
   9 H :    0.125899
  10 H :    0.136980
  11 H :    0.134089
  12 H :    0.126291
  13 H :    0.125002
  14 H :    0.127128
  15 H :    0.144751
  16 H :    0.112420
  17 H :    0.111696
  18 H :    0.315750
  19 H :    0.124023
Sum of atomic charges:   -0.0000000

LOEWDIN ATOMIC CHARGES
----------------------
   0 C :   -0.329164
   1 N :    0.115497
   2 C :   -0.213876
   3 C :   -0.227612
   4 C :   -0.127298
   5 C :   -0.169279
   6 C :   -0.313510
   7 O :   -0.035503
   8 C :   -0.188625
   9 H :    0.113194
  10 H :    0.119552
  11 H :    0.118030
  12 H :    0.136944
  13 H :    0.145933
  14 H :    0.145317
  15 H :    0.143040
  16 H :    0.126849
  17 H :    0.126577
  18 H :    0.174266
  19 H :    0.139669

  Mayer bond orders larger than 0.1
B(  0-C ,  1-N ) :   0.8841 B(  0-C ,  9-H ) :   0.9173 B(  0-C , 10-H ) :   0.9361
B(  0-C , 11-H ) :   0.9392 B(  1-N ,  2-C ) :   0.9190 B(  1-N ,  8-C ) :   0.9160
B(  2-C ,  3-C ) :   0.9321 B(  2-C ,  8-C ) :   0.8854 B(  2-C , 12-H ) :   0.9291
B(  3-C ,  4-C ) :   0.9357 B(  3-C , 13-H ) :   0.9070 B(  3-C , 14-H ) :   0.9064
B(  4-C ,  5-C ) :   1.7039 B(  4-C , 15-H ) :   0.9309 B(  5-C ,  6-C ) :   0.9132
B(  5-C ,  7-O ) :  -0.1184 B(  5-C ,  8-C ) :   0.8916 B(  6-C ,  7-O ) :   1.0595
B(  6-C , 16-H ) :   0.9326 B(  6-C , 17-H ) :   0.9327 B(  7-O , 18-H ) :   0.8473
B(  8-C , 19-H ) :   0.9215

MP2 TOTAL ENERGY:     -402.426116917 Eh
FINAL SINGLE POINT ENERGY      -402.426116917193

DIPOLE MOMENT
-------------
                                X             Y             Z
Electronic contribution:      1.19673      -1.84695       1.98321
Nuclear contribution   :     -1.23801       1.95197      -1.44979
                        -----------------------------------------
Total Dipole Moment    :     -0.04127       0.10502       0.53343
                        -----------------------------------------
Magnitude (a.u.)       :      0.54523
Magnitude (Debye)      :      1.38587

                             ****ORCA TERMINATED NORMALLY****
TOTAL RUN TIME: 0 days 0 hours 18 minutes 57 seconds 17 msec
