                         Program Version 3.0.3 - RELEASE   -
|  1> ! RI-MP2 RIJK def2-TZVP def2-TZVP/C def2-TZVP/JK TIGHTSCF
|  2> % maxcore 2000
|  3> % mp2 density relaxed end
|  4> *xyz 0 1
|  5>  C       -0.0416476233     1.6256019594     0.2063230477
|  6>  C        1.4565491140     1.3813497431    -0.0037920030
|  7>  O        1.7963932519     0.5363475746     1.1397046192
|  8>  C        0.6936896697    -0.4224471213     1.2158189766
|  9>  C       -0.0415000055     0.0716303540    -0.0105103439
| 10>  O       -1.1058555556    -0.5170446952    -0.7321250208
| 11>  C       -0.7921205870    -0.1355660353    -2.0215546004
| 12>  N        0.3430120809     0.3802408872    -2.2835617374
| 13>  C        1.1081660474     0.2710189012    -1.0296007430
| 14>  H       -0.3543455035     2.0107856126     1.1777997121
| 15>  H       -0.5198381124     2.1598409925    -0.6131766494
| 16>  H        2.2196759551     2.1483002832    -0.1108043087
| 17>  H        1.0738553837    -1.4444016272     1.1239717691
| 18>  H        0.1644289542    -0.3059537987     2.1669918442
| 19>  H       -1.5854504312    -0.3140728201    -2.7386300090
| 20>  H        1.8910975013    -0.4863651001    -1.1361014034
| 21> *
| 22>
| 23>                          ****END OF INPUT****

CARTESIAN COORDINATES (ANGSTROEM)
---------------------------------
  C     -0.041648    1.625602    0.206323
  C      1.456549    1.381350   -0.003792
  O      1.796393    0.536348    1.139705
  C      0.693690   -0.422447    1.215819
  C     -0.041500    0.071630   -0.010510
  O     -1.105856   -0.517045   -0.732125
  C     -0.792121   -0.135566   -2.021555
  N      0.343012    0.380241   -2.283562
  C      1.108166    0.271019   -1.029601
  H     -0.354346    2.010786    1.177800
  H     -0.519838    2.159841   -0.613177
  H      2.219676    2.148300   -0.110804
  H      1.073855   -1.444402    1.123972
  H      0.164429   -0.305954    2.166992
  H     -1.585450   -0.314073   -2.738630
  H      1.891098   -0.486365   -1.136101

 Total Charge           Charge          ....    0
 Multiplicity           Mult            ....    1
 Number of Electrons    NEL             ....   66
 Basis Dimension        Dim             ....  321

ORBITAL ENERGIES
----------------

  NO   OCC          E(Eh)            E(eV)
   0   2.0000     -20.613996      -560.9353
   1   2.0000     -20.566142      -559.6332
   2   2.0000     -15.566110      -423.5754
   3   2.0000     -11.348222      -308.8008
   4   2.0000     -11.309967      -307.7598
   5   2.0000     -11.301921      -307.5409
   6   2.0000     -11.294450      -307.3376
   7   2.0000     -11.268226      -306.6240
   8   2.0000     -11.237446      -305.7865
   9   2.0000      -1.456518       -39.6339
  10   2.0000      -1.387126       -37.7456
  11   2.0000      -1.229664       -33.4609
  12   2.0000      -1.119177       -30.4543
  13   2.0000      -0.994930       -27.0734
  14   2.0000      -0.934554       -25.4305
  15   2.0000      -0.856903       -23.3175
  16   2.0000      -0.791680       -21.5427
  17   2.0000      -0.787459       -21.4279
  18   2.0000      -0.712777       -19.3957
  19   2.0000      -0.688560       -18.7367
  20   2.0000      -0.678840       -18.4722
  21   2.0000      -0.649067       -17.6620
  22   2.0000      -0.611807       -16.6481
  23   2.0000      -0.590876       -16.0786
  24   2.0000      -0.568587       -15.4720
  25   2.0000      -0.551764       -15.0143
  26   2.0000      -0.528872       -14.3913
  27   2.0000      -0.523447       -14.2437
  28   2.0000      -0.498038       -13.5523
  29   2.0000      -0.470736       -12.8094
  30   2.0000      -0.426882       -11.6161
  31   2.0000      -0.411358       -11.1936
  32   2.0000      -0.390804       -10.6343
  33   0.0000       0.138287         3.7630
  34   0.0000       0.150708         4.1010
  35   0.0000       0.169404         4.6097
  36   0.0000       0.173645         4.7251
  37   0.0000       0.178989         4.8705

MULLIKEN ATOMIC CHARGES
-----------------------
   0 C :   -0.278536
   1 C :    0.059912
   2 O :   -0.318020
   3 C :   -0.052579
   4 C :    0.153358
   5 O :   -0.274816
   6 C :    0.111120
   7 N :   -0.267219
   8 C :   -0.055346
   9 H :    0.130715
  10 H :    0.142574
  11 H :    0.141912
  12 H :    0.121701
  13 H :    0.119066
  14 H :    0.148632
  15 H :    0.117524
Sum of atomic charges:    0.0000000

LOEWDIN ATOMIC CHARGES
----------------------
   0 C :   -0.173827
   1 C :   -0.237125
   2 O :    0.147604
   3 C :   -0.230091
   4 C :   -0.303397
   5 O :    0.251985
   6 C :   -0.304087
   7 N :    0.090937
   8 C :   -0.197408
   9 H :    0.134721
  10 H :    0.148557
  11 H :    0.132997
  12 H :    0.130121
  13 H :    0.126520
  14 H :    0.134128
  15 H :    0.148364

  Mayer bond orders larger than 0.1
B(  0-C ,  1-C ) :   0.9250 B(  0-C ,  4-C ) :   0.9206 B(  0-C ,  9-H ) :   0.9232
B(  0-C , 10-H ) :   0.8921 B(  1-C ,  2-O ) :   0.8991 B(  1-C ,  8-C ) :   0.8964
B(  1-C , 11-H ) :   0.9051 B(  2-O ,  3-C ) :   0.9250 B(  3-C ,  4-C ) :   0.9589
B(  3-C , 12-H ) :   0.9260 B(  3-C , 13-H ) :   0.9176 B(  4-C ,  5-O ) :   0.9041
B(  4-C ,  8-C ) :   0.8528 B(  5-O ,  6-C ) :   1.0232 B(  6-C ,  7-N ) :   1.8055
B(  6-C , 14-H ) :   0.9260 B(  7-N ,  8-C ) :   0.9220 B(  8-C , 15-H ) :   0.9301

MP2 TOTAL ENERGY:     -437.127548020 Eh
FINAL SINGLE POINT ENERGY      -437.127548019806

DIPOLE MOMENT
-------------
                                X             Y             Z
Electronic contribution:     -0.71340      -1.31176      -2.06224
Nuclear contribution   :      0.22242       1.27062       2.26358
                        -----------------------------------------
Total Dipole Moment    :     -0.49098      -0.04114       0.20134
                        -----------------------------------------
Magnitude (a.u.)       :      0.53225
Magnitude (Debye)      :      1.35287

                             ****ORCA TERMINATED NORMALLY****
TOTAL RUN TIME: 0 days 0 hours 16 minutes 54 seconds 896 msec
