                         Program Version 3.0.3 - RELEASE   -
|  1> ! RI-MP2 RIJK def2-TZVP def2-TZVP/C def2-TZVP/JK TIGHTSCF
|  2> % maxcore 2000
|  3> % mp2 density relaxed end
|  4> *xyz 0 1
|  5>  C       -0.0453812621     1.3536892139     0.0025511815
|  6>  O       -0.0224188210    -0.0683251208    -0.0290143744
|  7>  C       -1.2297364667    -0.6712840940    -0.0168923070
|  8>  N       -2.3859983455    -0.0259987737     0.0207339331
|  9>  N       -3.3045578330    -1.0182329250     0.0188655743
| 10>  C       -2.7479919885    -2.2613020871    -0.0276081615
| 11>  C       -1.3806648819    -2.0813027532    -0.0482993543
| 12>  N       -0.3428866119    -3.0267617714    -0.1558502209
| 13>  H        0.9974599852     1.6744152809    -0.0119345411
| 14>  H       -0.5761752731     1.7563201320    -0.8668737663
| 15>  H       -0.5402765495     1.7186694273     0.9091723559
| 16>  H       -4.2778672657    -0.7790730920     0.0621469636
| 17>  H       -3.3489007803    -3.1564161708    -0.0419756798
| 18>  H       -0.4461101767    -3.7963243377     0.4944834315
| 19>  H        0.5525340706    -2.5831235383     0.0097096554
| 20> *
| 21>
| 22>                          ****END OF INPUT****

CARTESIAN COORDINATES (ANGSTROEM)
---------------------------------
  C     -0.045381    1.353689    0.002551
  O     -0.022419   -0.068325   -0.029014
  C     -1.229736   -0.671284   -0.016892
  N     -2.385998   -0.025999    0.020734
  N     -3.304558   -1.018233    0.018866
  C     -2.747992   -2.261302   -0.027608
  C     -1.380665   -2.081303   -0.048299
  N     -0.342887   -3.026762   -0.155850
  H      0.997460    1.674415   -0.011935
  H     -0.576175    1.756320   -0.866874
  H     -0.540277    1.718669    0.909172
  H     -4.277867   -0.779073    0.062147
  H     -3.348901   -3.156416   -0.041976
  H     -0.446110   -3.796324    0.494483
  H      0.552534   -2.583124    0.009710

 Total Charge           Charge          ....    0
 Multiplicity           Mult            ....    1
 Number of Electrons    NEL             ....   60
 Basis Dimension        Dim             ....  290

ORBITAL ENERGIES
----------------

  NO   OCC          E(Eh)            E(eV)
   0   2.0000     -20.582514      -560.0787
   1   2.0000     -15.621270      -425.0764
   2   2.0000     -15.572963      -423.7619
   3   2.0000     -15.554306      -423.2542
   4   2.0000     -11.304285      -307.6052
   5   2.0000     -11.273601      -306.7703
   6   2.0000     -11.265581      -306.5520
   7   2.0000     -11.251458      -306.1677
   8   2.0000      -1.418956       -38.6118
   9   2.0000      -1.353284       -36.8247
  10   2.0000      -1.197813       -32.5942
  11   2.0000      -1.082848       -29.4658
  12   2.0000      -1.021958       -27.8089
  13   2.0000      -0.947142       -25.7731
  14   2.0000      -0.811019       -22.0689
  15   2.0000      -0.777475       -21.1562
  16   2.0000      -0.741119       -20.1669
  17   2.0000      -0.666988       -18.1497
  18   2.0000      -0.658388       -17.9157
  19   2.0000      -0.657244       -17.8845
  20   2.0000      -0.632821       -17.2199
  21   2.0000      -0.604511       -16.4496
  22   2.0000      -0.593967       -16.1627
  23   2.0000      -0.547317       -14.8932
  24   2.0000      -0.515849       -14.0370
  25   2.0000      -0.493813       -13.4373
  26   2.0000      -0.478433       -13.0188
  27   2.0000      -0.450824       -12.2675
  28   2.0000      -0.338965        -9.2237
  29   2.0000      -0.298732        -8.1289
  30   0.0000       0.139688         3.8011
  31   0.0000       0.141324         3.8456
  32   0.0000       0.161650         4.3987
  33   0.0000       0.168038         4.5725
  34   0.0000       0.187119         5.0918

MULLIKEN ATOMIC CHARGES
-----------------------
   0 C :   -0.209044
   1 O :   -0.314678
   2 C :    0.234009
   3 N :   -0.263263
   4 N :   -0.128696
   5 C :   -0.133948
   6 C :    0.047811
   7 N :   -0.536332
   8 H :    0.139747
   9 H :    0.132085
  10 H :    0.130160
  11 H :    0.254524
  12 H :    0.147042
  13 H :    0.246834
  14 H :    0.253750
Sum of atomic charges:    0.0000000

LOEWDIN ATOMIC CHARGES
----------------------
   0 C :   -0.323134
   1 O :    0.213009
   2 C :   -0.391430
   3 N :    0.017615
   4 N :    0.107935
   5 C :   -0.238102
   6 C :   -0.273712
   7 N :   -0.101029
   8 H :    0.112201
   9 H :    0.110847
  10 H :    0.110128
  11 H :    0.183872
  12 H :    0.134752
  13 H :    0.165808
  14 H :    0.171240

  Mayer bond orders larger than 0.1
B(  0-C ,  1-O ) :   0.8617 B(  0-C ,  8-H ) :   0.9357 B(  0-C ,  9-H ) :   0.9382
B(  0-C , 10-H ) :   0.9385 B(  1-O ,  2-C ) :   1.0596 B(  2-C ,  3-N ) :   1.5130
B(  2-C ,  6-C ) :   1.2287 B(  3-N ,  4-N ) :   1.0277 B(  3-N ,  5-C ) :   0.1233
B(  4-N ,  5-C ) :   1.1650 B(  4-N , 11-H ) :   0.8772 B(  5-C ,  6-C ) :   1.4564
B(  5-C , 12-H ) :   0.9099 B(  6-C ,  7-N ) :   1.0246 B(  7-N , 13-H ) :   0.8790
B(  7-N , 14-H ) :   0.8805

MP2 TOTAL ENERGY:     -395.332733288 Eh
FINAL SINGLE POINT ENERGY      -395.332733288168

DIPOLE MOMENT
-------------
                                X             Y             Z
Electronic contribution:     -2.37127      -1.63530      -0.18816
Nuclear contribution   :      1.98523       1.38857       0.67204
                        -----------------------------------------
Total Dipole Moment    :     -0.38604      -0.24673       0.48388
                        -----------------------------------------
Magnitude (a.u.)       :      0.66637
Magnitude (Debye)      :      1.69377

                             ****ORCA TERMINATED NORMALLY****
TOTAL RUN TIME: 0 days 0 hours 10 minutes 57 seconds 682 msec
