                         Program Version 3.0.3 - RELEASE   -
|  1> ! RI-MP2 RIJK def2-TZVP def2-TZVP/C def2-TZVP/JK TIGHTSCF
|  2> % maxcore 2000
|  3> % mp2 density relaxed end
|  4> *xyz 0 1
|  5>  C       -0.0955440479     1.4076683516     0.1102296241
|  6>  N       -0.0488619255    -0.0425585698     0.0440069465
|  7>  C        0.5198842403    -0.6596240160     0.9867494211
|  8>  N        0.6711097359    -2.0378034700     1.0925817417
|  9>  C        1.4737447807    -2.3127729888     2.2072919294
| 10>  N        1.8947512305    -3.6266887364     2.4313007645
| 11>  C        1.7028312734    -1.1535487663     2.8423306398
| 12>  C        2.3916215785    -0.7810193666     4.0986981719
| 13>  O        1.1130409652    -0.1144820480     2.1031532258
| 14>  H        0.8336298230     1.8561663382     0.4886340435
| 15>  H       -0.2856633726     1.8040461157    -0.8914421530
| 16>  H       -0.9116361863     1.7557280049     0.7596694948
| 17>  H        0.6816323198    -2.6036064673     0.2595988580
| 18>  H        1.1151998713    -4.2626414301     2.5736749980
| 19>  H        2.5211660356    -3.6914653730     3.2232375404
| 20>  H        2.7278010571    -1.6783599224     4.6265711153
| 21>  H        3.2700380436    -0.1492237407     3.9170546355
| 22>  H        1.7249536175    -0.2268730851     4.7705476425
| 23> *
| 24>
| 25>                          ****END OF INPUT****

CARTESIAN COORDINATES (ANGSTROEM)
---------------------------------
  C     -0.095544    1.407668    0.110230
  N     -0.048862   -0.042559    0.044007
  C      0.519884   -0.659624    0.986749
  N      0.671110   -2.037803    1.092582
  C      1.473745   -2.312773    2.207292
  N      1.894751   -3.626689    2.431301
  C      1.702831   -1.153549    2.842331
  C      2.391622   -0.781019    4.098698
  O      1.113041   -0.114482    2.103153
  H      0.833630    1.856166    0.488634
  H     -0.285663    1.804046   -0.891442
  H     -0.911636    1.755728    0.759669
  H      0.681632   -2.603606    0.259599
  H      1.115200   -4.262641    2.573675
  H      2.521166   -3.691465    3.223238
  H      2.727801   -1.678360    4.626571
  H      3.270038   -0.149224    3.917055
  H      1.724954   -0.226873    4.770548

 Total Charge           Charge          ....    0
 Multiplicity           Mult            ....    1
 Number of Electrons    NEL             ....   68
 Basis Dimension        Dim             ....  333

ORBITAL ENERGIES
----------------

  NO   OCC          E(Eh)            E(eV)
   0   2.0000     -20.603326      -560.6450
   1   2.0000     -15.592401      -424.2908
   2   2.0000     -15.586977      -424.1432
   3   2.0000     -15.513061      -422.1319
   4   2.0000     -11.359385      -309.1046
   5   2.0000     -11.309989      -307.7604
   6   2.0000     -11.279219      -306.9232
   7   2.0000     -11.241656      -305.9010
   8   2.0000     -11.227513      -305.5162
   9   2.0000      -1.455565       -39.6079
  10   2.0000      -1.274040       -34.6684
  11   2.0000      -1.220455       -33.2103
  12   2.0000      -1.177418       -32.0392
  13   2.0000      -1.044879       -28.4326
  14   2.0000      -0.949864       -25.8471
  15   2.0000      -0.909171       -24.7398
  16   2.0000      -0.821974       -22.3671
  17   2.0000      -0.801802       -21.8181
  18   2.0000      -0.725658       -19.7462
  19   2.0000      -0.672581       -18.3019
  20   2.0000      -0.664880       -18.0923
  21   2.0000      -0.660074       -17.9615
  22   2.0000      -0.619919       -16.8688
  23   2.0000      -0.586652       -15.9636
  24   2.0000      -0.580112       -15.7856
  25   2.0000      -0.578499       -15.7418
  26   2.0000      -0.556285       -15.1373
  27   2.0000      -0.548529       -14.9262
  28   2.0000      -0.535288       -14.5659
  29   2.0000      -0.518195       -14.1008
  30   2.0000      -0.467200       -12.7132
  31   2.0000      -0.399957       -10.8834
  32   2.0000      -0.385843       -10.4993
  33   2.0000      -0.285334        -7.7643
  34   0.0000       0.114588         3.1181
  35   0.0000       0.151636         4.1262
  36   0.0000       0.160579         4.3696
  37   0.0000       0.174838         4.7576
  38   0.0000       0.183919         5.0047

MULLIKEN ATOMIC CHARGES
-----------------------
   0 C :   -0.273600
   1 N :   -0.296762
   2 C :    0.251688
   3 N :   -0.313692
   4 C :    0.148274
   5 N :   -0.533909
   6 C :    0.116499
   7 C :   -0.403152
   8 O :   -0.260487
   9 H :    0.117688
  10 H :    0.133641
  11 H :    0.123640
  12 H :    0.259291
  13 H :    0.259059
  14 H :    0.248307
  15 H :    0.119255
  16 H :    0.152825
  17 H :    0.151434
Sum of atomic charges:    0.0000000

LOEWDIN ATOMIC CHARGES
----------------------
   0 C :   -0.342577
   1 N :    0.024500
   2 C :   -0.427923
   3 N :    0.154295
   4 C :   -0.331891
   5 N :   -0.090102
   6 C :   -0.278676
   7 C :   -0.279497
   8 O :    0.298305
   9 H :    0.107108
  10 H :    0.112609
  11 H :    0.111856
  12 H :    0.196577
  13 H :    0.171739
  14 H :    0.171590
  15 H :    0.132590
  16 H :    0.134079
  17 H :    0.135416

  Mayer bond orders larger than 0.1
B(  0-C ,  1-N ) :   0.8868 B(  0-C ,  9-H ) :   0.9291 B(  0-C , 10-H ) :   0.9450
B(  0-C , 11-H ) :   0.9341 B(  1-N ,  2-C ) :   1.9466 B(  2-C ,  3-N ) :   1.0886
B(  2-C ,  8-O ) :   1.0284 B(  3-N ,  4-C ) :   1.0602 B(  3-N , 12-H ) :   0.8542
B(  4-C ,  5-N ) :   1.0528 B(  4-C ,  6-C ) :   1.6401 B(  5-N , 13-H ) :   0.8644
B(  5-N , 14-H ) :   0.8849 B(  6-C ,  7-C ) :   0.8875 B(  6-C ,  8-O ) :   0.9574
B(  7-C , 15-H ) :   0.9430 B(  7-C , 16-H ) :   0.9359 B(  7-C , 17-H ) :   0.9301

MP2 TOTAL ENERGY:     -434.557195499 Eh
FINAL SINGLE POINT ENERGY      -434.557195499441

DIPOLE MOMENT
-------------
                                X             Y             Z
Electronic contribution:     -1.28137      -2.89833      -2.32001
Nuclear contribution   :      1.86654       1.95087       3.45710
                        -----------------------------------------
Total Dipole Moment    :      0.58517      -0.94746       1.13710
                        -----------------------------------------
Magnitude (a.u.)       :      1.59157
Magnitude (Debye)      :      4.04546

                             ****ORCA TERMINATED NORMALLY****
TOTAL RUN TIME: 0 days 0 hours 16 minutes 41 seconds 99 msec
