                         Program Version 3.0.3 - RELEASE   -
|  1> ! RI-MP2 RIJK def2-TZVP def2-TZVP/C def2-TZVP/JK TIGHTSCF
|  2> % maxcore 2000
|  3> % mp2 density relaxed end
|  4> *xyz 0 1
|  5>  O        0.2635757105     1.1748219131     0.4016032353
|  6>  C        0.0901723061    -0.1577228621     0.0844116051
|  7>  C       -1.3380296557    -0.6753127513    -0.0257290756
|  8>  N       -2.3361506702     0.3608968367     0.0513556082
|  9>  C       -3.0341473283     0.5249742156    -1.2273548484
| 10>  C       -2.0460717470     0.9691878132    -2.2830376290
| 11>  N       -2.3781038973     1.7830875983    -3.1901667556
| 12>  O       -0.7802682787     0.4628278608    -2.1936382279
| 13>  C       -0.4812479487    -0.5509168613    -1.2646163111
| 14>  H       -0.6350538868     1.5444866056     0.4485601907
| 15>  H        0.8528947662    -0.8027217076     0.5097774064
| 16>  H       -1.6010851545    -1.6717971197     0.3252300454
| 17>  H       -2.9806625928     0.2096670987     0.8158825577
| 18>  H       -3.5239033857    -0.4043859390    -1.5641557078
| 19>  H       -3.7975584897     1.2993176552    -1.1489890487
| 20>  H       -1.5925023550     1.9471088419    -3.8233846626
| 21>  H       -0.1227653024    -1.4529964182    -1.7507448623
| 22> *
| 23>
| 24>                          ****END OF INPUT****

CARTESIAN COORDINATES (ANGSTROEM)
---------------------------------
  O      0.263576    1.174822    0.401603
  C      0.090172   -0.157723    0.084412
  C     -1.338030   -0.675313   -0.025729
  N     -2.336151    0.360897    0.051356
  C     -3.034147    0.524974   -1.227355
  C     -2.046072    0.969188   -2.283038
  N     -2.378104    1.783088   -3.190167
  O     -0.780268    0.462828   -2.193638
  C     -0.481248   -0.550917   -1.264616
  H     -0.635054    1.544487    0.448560
  H      0.852895   -0.802722    0.509777
  H     -1.601085   -1.671797    0.325230
  H     -2.980663    0.209667    0.815883
  H     -3.523903   -0.404386   -1.564156
  H     -3.797558    1.299318   -1.148989
  H     -1.592502    1.947109   -3.823385
  H     -0.122765   -1.452996   -1.750745

 Total Charge           Charge          ....    0
 Multiplicity           Mult            ....    1
 Number of Electrons    NEL             ....   68
 Basis Dimension        Dim             ....  327

ORBITAL ENERGIES
----------------

  NO   OCC          E(Eh)            E(eV)
   0   2.0000     -20.602721      -560.6285
   1   2.0000     -20.559400      -559.4497
   2   2.0000     -15.584201      -424.0677
   3   2.0000     -15.533654      -422.6922
   4   2.0000     -11.342602      -308.6479
   5   2.0000     -11.303522      -307.5845
   6   2.0000     -11.294944      -307.3511
   7   2.0000     -11.281710      -306.9909
   8   2.0000     -11.281500      -306.9852
   9   2.0000      -1.439795       -39.1788
  10   2.0000      -1.376006       -37.4430
  11   2.0000      -1.248187       -33.9649
  12   2.0000      -1.204641       -32.7800
  13   2.0000      -1.108380       -30.1606
  14   2.0000      -0.969026       -26.3685
  15   2.0000      -0.876647       -23.8548
  16   2.0000      -0.835707       -22.7407
  17   2.0000      -0.752816       -20.4852
  18   2.0000      -0.730243       -19.8709
  19   2.0000      -0.721387       -19.6299
  20   2.0000      -0.707211       -19.2442
  21   2.0000      -0.644855       -17.5474
  22   2.0000      -0.641712       -17.4619
  23   2.0000      -0.630616       -17.1599
  24   2.0000      -0.605553       -16.4779
  25   2.0000      -0.579463       -15.7680
  26   2.0000      -0.565585       -15.3903
  27   2.0000      -0.544277       -14.8105
  28   2.0000      -0.520090       -14.1524
  29   2.0000      -0.456757       -12.4290
  30   2.0000      -0.436731       -11.8841
  31   2.0000      -0.418692       -11.3932
  32   2.0000      -0.414423       -11.2770
  33   2.0000      -0.369787       -10.0624
  34   0.0000       0.115822         3.1517
  35   0.0000       0.147593         4.0162
  36   0.0000       0.159165         4.3311
  37   0.0000       0.171823         4.6755
  38   0.0000       0.181548         4.9402

MULLIKEN ATOMIC CHARGES
-----------------------
   0 O :   -0.461985
   1 C :    0.067090
   2 C :   -0.064638
   3 N :   -0.431147
   4 C :   -0.064782
   5 C :    0.113857
   6 N :   -0.367882
   7 O :   -0.235798
   8 C :   -0.001277
   9 H :    0.336281
  10 H :    0.124371
  11 H :    0.128717
  12 H :    0.228532
  13 H :    0.126551
  14 H :    0.149247
  15 H :    0.224611
  16 H :    0.128253
Sum of atomic charges:   -0.0000000

LOEWDIN ATOMIC CHARGES
----------------------
   0 O :    0.014951
   1 C :   -0.306126
   2 C :   -0.262256
   3 N :    0.009924
   4 C :   -0.255788
   5 C :   -0.408421
   6 N :   -0.051402
   7 O :    0.282981
   8 C :   -0.253303
   9 H :    0.180439
  10 H :    0.139609
  11 H :    0.136330
  12 H :    0.177059
  13 H :    0.136321
  14 H :    0.150329
  15 H :    0.169156
  16 H :    0.140196

  Mayer bond orders larger than 0.1
B(  0-O ,  1-C ) :   1.0085 B(  0-O ,  9-H ) :   0.7949 B(  1-C ,  2-C ) :   0.8843
B(  1-C ,  8-C ) :   0.8382 B(  1-C , 10-H ) :   0.9441 B(  2-C ,  3-N ) :   0.9812
B(  2-C ,  8-C ) :   0.8790 B(  2-C , 11-H ) :   0.9152 B(  3-N ,  4-C ) :   0.9031
B(  3-N , 12-H ) :   0.8855 B(  4-C ,  5-C ) :   0.9303 B(  4-C , 13-H ) :   0.9262
B(  4-C , 14-H ) :   0.9138 B(  5-C ,  6-N ) :   2.0680 B(  5-C ,  7-O ) :   1.0765
B(  6-N , 15-H ) :   0.8560 B(  7-O ,  8-C ) :   0.9252 B(  8-C , 16-H ) :   0.9322

MP2 TOTAL ENERGY:     -454.382255578 Eh
FINAL SINGLE POINT ENERGY      -454.382255578364

DIPOLE MOMENT
-------------
                                X             Y             Z
Electronic contribution:      2.05203       1.40964      -1.46122
Nuclear contribution   :     -2.61790      -2.76593       2.13218
                        -----------------------------------------
Total Dipole Moment    :     -0.56587      -1.35629       0.67096
                        -----------------------------------------
Magnitude (a.u.)       :      1.61552
Magnitude (Debye)      :      4.10633

                             ****ORCA TERMINATED NORMALLY****
TOTAL RUN TIME: 0 days 0 hours 16 minutes 4 seconds 623 msec
