                         Program Version 3.0.3 - RELEASE   -
|  1> ! RI-MP2 RIJK def2-TZVP def2-TZVP/C def2-TZVP/JK TIGHTSCF
|  2> % maxcore 2000
|  3> % mp2 density relaxed end
|  4> *xyz 0 1
|  5>  C       -0.0158948237     1.5236872433    -0.1398013177
|  6>  C        0.0800368379     0.0034496450     0.0136036659
|  7>  C        0.7033028108    -0.5051613088     1.3465917442
|  8>  C       -0.0614385634    -0.0149879333     2.5758824587
|  9>  C        0.8805046803    -2.0333534606     1.2710204708
| 10>  O        2.0714601160    -2.2523620220     0.5106180095
| 11>  C        3.0048584215    -1.2668335538     0.9043839962
| 12>  C        2.1781016418    -0.0718485197     1.3863434232
| 13>  O        2.6117313004     0.9932025030     1.7428328088
| 14>  H        0.9590237814     2.0042605039    -0.0230514300
| 15>  H       -0.4036108960     1.7772161723    -1.1312806214
| 16>  H       -0.6917810639     1.9631988687     0.5995799980
| 17>  H       -0.9230308386    -0.4373556347    -0.0587860452
| 18>  H        0.6579408743    -0.4187003995    -0.8168729830
| 19>  H       -1.1304144035    -0.2368241827     2.4884851165
| 20>  H        0.3096410489    -0.4936415751     3.4878949045
| 21>  H        0.0598128619     1.0638997633     2.6981587145
| 22>  H        0.9840906039    -2.4635755322     2.2806933483
| 23>  H        0.0645776866    -2.5466145506     0.7560033885
| 24>  H        3.6460398817    -1.6087857280     1.7346399356
| 25>  H        3.6510830617    -1.0073084785     0.0607113441
| 26> *
| 27>
| 28>                          ****END OF INPUT****

CARTESIAN COORDINATES (ANGSTROEM)
---------------------------------
  C     -0.015895    1.523687   -0.139801
  C      0.080037    0.003450    0.013604
  C      0.703303   -0.505161    1.346592
  C     -0.061439   -0.014988    2.575882
  C      0.880505   -2.033353    1.271020
  O      2.071460   -2.252362    0.510618
  C      3.004858   -1.266834    0.904384
  C      2.178102   -0.071849    1.386343
  O      2.611731    0.993203    1.742833
  H      0.959024    2.004261   -0.023051
  H     -0.403611    1.777216   -1.131281
  H     -0.691781    1.963199    0.599580
  H     -0.923031   -0.437356   -0.058786
  H      0.657941   -0.418700   -0.816873
  H     -1.130414   -0.236824    2.488485
  H      0.309641   -0.493642    3.487895
  H      0.059813    1.063900    2.698159
  H      0.984091   -2.463576    2.280693
  H      0.064578   -2.546615    0.756003
  H      3.646040   -1.608786    1.734640
  H      3.651083   -1.007308    0.060711

 Total Charge           Charge          ....    0
 Multiplicity           Mult            ....    1
 Number of Electrons    NEL             ....   70
 Basis Dimension        Dim             ....  351

ORBITAL ENERGIES
----------------

  NO   OCC          E(Eh)            E(eV)
   0   2.0000     -20.570820      -559.7605
   1   2.0000     -20.555136      -559.3337
   2   2.0000     -11.333712      -308.4060
   3   2.0000     -11.291326      -307.2526
   4   2.0000     -11.288078      -307.1642
   5   2.0000     -11.252839      -306.2053
   6   2.0000     -11.237166      -305.7788
   7   2.0000     -11.227361      -305.5120
   8   2.0000     -11.215661      -305.1936
   9   2.0000      -1.408040       -38.3147
  10   2.0000      -1.387823       -37.7646
  11   2.0000      -1.113450       -30.2985
  12   2.0000      -1.005509       -27.3613
  13   2.0000      -0.996640       -27.1199
  14   2.0000      -0.939079       -25.5536
  15   2.0000      -0.861599       -23.4453
  16   2.0000      -0.819416       -22.2974
  17   2.0000      -0.729241       -19.8436
  18   2.0000      -0.686590       -18.6831
  19   2.0000      -0.681718       -18.5505
  20   2.0000      -0.642864       -17.4932
  21   2.0000      -0.637912       -17.3585
  22   2.0000      -0.603571       -16.4240
  23   2.0000      -0.595421       -16.2022
  24   2.0000      -0.582767       -15.8579
  25   2.0000      -0.559206       -15.2168
  26   2.0000      -0.547011       -14.8849
  27   2.0000      -0.540522       -14.7084
  28   2.0000      -0.526660       -14.3311
  29   2.0000      -0.516037       -14.0421
  30   2.0000      -0.503890       -13.7115
  31   2.0000      -0.472673       -12.8621
  32   2.0000      -0.468706       -12.7541
  33   2.0000      -0.437363       -11.9013
  34   2.0000      -0.392682       -10.6854
  35   0.0000       0.127708         3.4751
  36   0.0000       0.130841         3.5604
  37   0.0000       0.154672         4.2088
  38   0.0000       0.164746         4.4830
  39   0.0000       0.169102         4.6015

MULLIKEN ATOMIC CHARGES
-----------------------
   0 C :   -0.418188
   1 C :   -0.273923
   2 C :    0.152805
   3 C :   -0.456426
   4 C :   -0.041954
   5 O :   -0.324143
   6 C :   -0.029401
   7 C :    0.073555
   8 O :   -0.276908
   9 H :    0.150172
  10 H :    0.137462
  11 H :    0.130593
  12 H :    0.119903
  13 H :    0.139020
  14 H :    0.139872
  15 H :    0.134142
  16 H :    0.163019
  17 H :    0.104262
  18 H :    0.120209
  19 H :    0.114813
  20 H :    0.141117
Sum of atomic charges:    0.0000000

LOEWDIN ATOMIC CHARGES
----------------------
   0 C :   -0.311602
   1 C :   -0.239314
   2 C :   -0.279807
   3 C :   -0.261239
   4 C :   -0.253877
   5 O :    0.151560
   6 C :   -0.279299
   7 C :   -0.283332
   8 O :    0.164982
   9 H :    0.127485
  10 H :    0.123516
  11 H :    0.122289
  12 H :    0.142445
  13 H :    0.147357
  14 H :    0.129471
  15 H :    0.128619
  16 H :    0.135351
  17 H :    0.125211
  18 H :    0.132859
  19 H :    0.137230
  20 H :    0.140094

  Mayer bond orders larger than 0.1
B(  0-C ,  1-C ) :   0.9215 B(  0-C ,  9-H ) :   0.9321 B(  0-C , 10-H ) :   0.9377
B(  0-C , 11-H ) :   0.9397 B(  1-C ,  2-C ) :   0.8698 B(  1-C , 12-H ) :   0.9311
B(  1-C , 13-H ) :   0.9234 B(  2-C ,  3-C ) :   0.8936 B(  2-C ,  4-C ) :   0.9124
B(  2-C ,  7-C ) :   0.8155 B(  3-C , 14-H ) :   0.9398 B(  3-C , 15-H ) :   0.9277
B(  3-C , 16-H ) :   0.9340 B(  4-C ,  5-O ) :   0.9036 B(  4-C , 17-H ) :   0.9299
B(  4-C , 18-H ) :   0.9176 B(  5-O ,  6-C ) :   0.9501 B(  6-C ,  7-C ) :   0.9428
B(  6-C , 19-H ) :   0.9054 B(  6-C , 20-H ) :   0.9100 B(  7-C ,  8-O ) :   1.9975

MP2 TOTAL ENERGY:     -423.547344060 Eh
FINAL SINGLE POINT ENERGY      -423.547344059824

DIPOLE MOMENT
-------------
                                X             Y             Z
Electronic contribution:      7.00252      -2.56731       0.69522
Nuclear contribution   :     -7.58833       2.21506      -0.66737
                        -----------------------------------------
Total Dipole Moment    :     -0.58581      -0.35225       0.02785
                        -----------------------------------------
Magnitude (a.u.)       :      0.68413
Magnitude (Debye)      :      1.73891

                             ****ORCA TERMINATED NORMALLY****
TOTAL RUN TIME: 0 days 0 hours 20 minutes 25 seconds 762 msec
