                         Program Version 3.0.3 - RELEASE   -
|  1> ! RI-MP2 RIJK def2-TZVP def2-TZVP/C def2-TZVP/JK TIGHTSCF
|  2> % maxcore 2000
|  3> % mp2 density relaxed end
|  4> *xyz 0 1
|  5>  C        0.1710051190     1.6137890348     0.0714522563
|  6>  C        0.0561045877     0.0891100451    -0.0090553996
|  7>  C        0.5864352011    -0.4671344390    -1.3255707533
|  8>  O        1.9853532516    -0.1689415476    -1.4738295597
|  9>  C        2.6607952610    -1.3785874951    -1.7546675566
| 10>  O        1.7027868501    -2.2859393032    -2.2414875630
| 11>  C        0.5425223122    -1.9840162462    -1.5012371407
| 12>  C        0.0856513926    -2.9722113387    -0.4584802614
| 13>  C       -0.6685611431    -2.8017556752    -1.7689285944
| 14>  H        1.2130843065     1.9243260831    -0.0400662893
| 15>  H       -0.4101244475     2.0967565962    -0.7219644430
| 16>  H       -0.1988151988     1.9862066465     1.0312783533
| 17>  H        0.6083634056    -0.3745811310     0.8161570111
| 18>  H       -0.9947353670    -0.2115885980     0.0989108791
| 19>  H        0.0563949359     0.0119905424    -2.1629814841
| 20>  H        3.4154393895    -1.2138135516    -2.5304230109
| 21>  H        3.1371827328    -1.7671587405    -0.8371273816
| 22>  H        0.6865887238    -3.8676343195    -0.3466726953
| 23>  H       -0.3771738135    -2.6135507703     0.4537448937
| 24>  H       -1.6342440871    -2.3069372260    -1.7462921834
| 25>  H       -0.5772228324    -3.5866723164    -2.5111327971
| 26> *
| 27>
| 28>                          ****END OF INPUT****

CARTESIAN COORDINATES (ANGSTROEM)
---------------------------------
  C      0.171005    1.613789    0.071452
  C      0.056105    0.089110   -0.009055
  C      0.586435   -0.467134   -1.325571
  O      1.985353   -0.168942   -1.473830
  C      2.660795   -1.378587   -1.754668
  O      1.702787   -2.285939   -2.241488
  C      0.542522   -1.984016   -1.501237
  C      0.085651   -2.972211   -0.458480
  C     -0.668561   -2.801756   -1.768929
  H      1.213084    1.924326   -0.040066
  H     -0.410124    2.096757   -0.721964
  H     -0.198815    1.986207    1.031278
  H      0.608363   -0.374581    0.816157
  H     -0.994735   -0.211589    0.098911
  H      0.056395    0.011991   -2.162981
  H      3.415439   -1.213814   -2.530423
  H      3.137183   -1.767159   -0.837127
  H      0.686589   -3.867634   -0.346673
  H     -0.377174   -2.613551    0.453745
  H     -1.634244   -2.306937   -1.746292
  H     -0.577223   -3.586672   -2.511133

 Total Charge           Charge          ....    0
 Multiplicity           Mult            ....    1
 Number of Electrons    NEL             ....   70
 Basis Dimension        Dim             ....  351

ORBITAL ENERGIES
----------------

  NO   OCC          E(Eh)            E(eV)
   0   2.0000     -20.568614      -559.7004
   1   2.0000     -20.557128      -559.3879
   2   2.0000     -11.326642      -308.2136
   3   2.0000     -11.292395      -307.2817
   4   2.0000     -11.286232      -307.1140
   5   2.0000     -11.232523      -305.6525
   6   2.0000     -11.230258      -305.5909
   7   2.0000     -11.226963      -305.5012
   8   2.0000     -11.213214      -305.1271
   9   2.0000      -1.440650       -39.2021
  10   2.0000      -1.334461       -36.3125
  11   2.0000      -1.146176       -31.1890
  12   2.0000      -1.054665       -28.6989
  13   2.0000      -0.959216       -26.1016
  14   2.0000      -0.884991       -24.0818
  15   2.0000      -0.837858       -22.7993
  16   2.0000      -0.817938       -22.2572
  17   2.0000      -0.777592       -21.1594
  18   2.0000      -0.700268       -19.0553
  19   2.0000      -0.698583       -19.0094
  20   2.0000      -0.663820       -18.0635
  21   2.0000      -0.629393       -17.1267
  22   2.0000      -0.617890       -16.8136
  23   2.0000      -0.587488       -15.9864
  24   2.0000      -0.567251       -15.4357
  25   2.0000      -0.552054       -15.0222
  26   2.0000      -0.545017       -14.8307
  27   2.0000      -0.524588       -14.2748
  28   2.0000      -0.505785       -13.7631
  29   2.0000      -0.500646       -13.6233
  30   2.0000      -0.487192       -13.2572
  31   2.0000      -0.483528       -13.1575
  32   2.0000      -0.428546       -11.6613
  33   2.0000      -0.416306       -11.3282
  34   2.0000      -0.391292       -10.6476
  35   0.0000       0.137618         3.7448
  36   0.0000       0.155943         4.2434
  37   0.0000       0.164489         4.4760
  38   0.0000       0.174933         4.7602
  39   0.0000       0.185183         5.0391

MULLIKEN ATOMIC CHARGES
-----------------------
   0 C :   -0.391214
   1 C :   -0.238938
   2 C :    0.097187
   3 O :   -0.332063
   4 C :    0.125756
   5 O :   -0.307309
   6 C :    0.155388
   7 C :   -0.280465
   8 C :   -0.277479
   9 H :    0.146259
  10 H :    0.119469
  11 H :    0.132856
  12 H :    0.118087
  13 H :    0.109759
  14 H :    0.089290
  15 H :    0.118134
  16 H :    0.073398
  17 H :    0.134812
  18 H :    0.133930
  19 H :    0.133770
  20 H :    0.139371
Sum of atomic charges:   -0.0000000

LOEWDIN ATOMIC CHARGES
----------------------
   0 C :   -0.314797
   1 C :   -0.272719
   2 C :   -0.264122
   3 O :    0.162049
   4 C :   -0.364359
   5 O :    0.209899
   6 C :   -0.320457
   7 C :   -0.205600
   8 C :   -0.198478
   9 H :    0.127136
  10 H :    0.121214
  11 H :    0.120571
  12 H :    0.141386
  13 H :    0.140464
  14 H :    0.146124
  15 H :    0.117678
  16 H :    0.105001
  17 H :    0.138326
  18 H :    0.132327
  19 H :    0.136408
  20 H :    0.141948

  Mayer bond orders larger than 0.1
B(  0-C ,  1-C ) :   0.9202 B(  0-C ,  9-H ) :   0.9384 B(  0-C , 10-H ) :   0.9359
B(  0-C , 11-H ) :   0.9412 B(  1-C ,  2-C ) :   0.8996 B(  1-C , 12-H ) :   0.9241
B(  1-C , 13-H ) :   0.9316 B(  2-C ,  3-O ) :   0.9140 B(  2-C ,  6-C ) :   0.9049
B(  2-C , 14-H ) :   0.9290 B(  3-O ,  4-C ) :   0.9735 B(  4-C ,  5-O ) :   0.9622
B(  4-C , 15-H ) :   0.9237 B(  4-C , 16-H ) :   0.9168 B(  5-O ,  6-C ) :   0.9528
B(  6-C ,  7-C ) :   0.8806 B(  6-C ,  8-C ) :   0.8753 B(  7-C ,  8-C ) :   0.9340
B(  7-C , 17-H ) :   0.9177 B(  7-C , 18-H ) :   0.9135 B(  8-C , 19-H ) :   0.9213
B(  8-C , 20-H ) :   0.9156

MP2 TOTAL ENERGY:     -423.506216873 Eh
FINAL SINGLE POINT ENERGY      -423.506216872697

DIPOLE MOMENT
-------------
                                X             Y             Z
Electronic contribution:      4.21125      -3.47366      -4.72269
Nuclear contribution   :     -4.59128       3.35155       5.09917
                        -----------------------------------------
Total Dipole Moment    :     -0.38003      -0.12211       0.37648
                        -----------------------------------------
Magnitude (a.u.)       :      0.54870
Magnitude (Debye)      :      1.39468

                             ****ORCA TERMINATED NORMALLY****
TOTAL RUN TIME: 0 days 0 hours 18 minutes 25 seconds 394 msec
