                         Program Version 3.0.3 - RELEASE   -
|  1> ! RI-MP2 RIJK def2-TZVP def2-TZVP/C def2-TZVP/JK TIGHTSCF
|  2> % maxcore 2000
|  3> % mp2 density relaxed end
|  4> *xyz 0 1
|  5>  N       -0.0696105976    -1.1544480422    -0.1101253456
|  6>  C       -0.0370588215    -0.0007651094    -0.0378084462
|  7>  C        0.0109245634     1.4494816366     0.0474632573
|  8>  C       -0.3299498839     2.0541121016     1.4417889842
|  9>  C        0.8046299405     1.4897362779     2.3281225095
| 10>  C        2.0418049415     1.5318943539     1.3727380970
| 11>  C        1.4304501113     2.0837822331     0.0726775595
| 12>  O        1.1244769843     3.4661955410     0.2491096687
| 13>  C       -0.0085647262     3.5259426946     1.1403104018
| 14>  H       -0.5930406589     1.8802172557    -0.7559437597
| 15>  H       -1.3414217417     1.8795893816     1.8080492785
| 16>  H        0.9432713107     2.0929050214     3.2287306953
| 17>  H        0.5803077299     0.4679466901     2.6431641760
| 18>  H        2.8306341197     2.2005948808     1.7225014017
| 19>  H        2.4752963406     0.5398063623     1.2217481757
| 20>  H        2.0332971855     1.9741750118    -0.8282948566
| 21>  H       -0.8329392910     4.0468166201     0.6372267284
| 22>  H        0.2557211533     4.0854943090     2.0453353744
| 23> *
| 24>
| 25>                          ****END OF INPUT****

CARTESIAN COORDINATES (ANGSTROEM)
---------------------------------
  N     -0.069611   -1.154448   -0.110125
  C     -0.037059   -0.000765   -0.037808
  C      0.010925    1.449482    0.047463
  C     -0.329950    2.054112    1.441789
  C      0.804630    1.489736    2.328123
  C      2.041805    1.531894    1.372738
  C      1.430450    2.083782    0.072678
  O      1.124477    3.466196    0.249110
  C     -0.008565    3.525943    1.140310
  H     -0.593041    1.880217   -0.755944
  H     -1.341422    1.879589    1.808049
  H      0.943271    2.092905    3.228731
  H      0.580308    0.467947    2.643164
  H      2.830634    2.200595    1.722501
  H      2.475296    0.539806    1.221748
  H      2.033297    1.974175   -0.828295
  H     -0.832939    4.046817    0.637227
  H      0.255721    4.085494    2.045335

 Total Charge           Charge          ....    0
 Multiplicity           Mult            ....    1
 Number of Electrons    NEL             ....   66
 Basis Dimension        Dim             ....  333

ORBITAL ENERGIES
----------------

  NO   OCC          E(Eh)            E(eV)
   0   2.0000     -20.569284      -559.7187
   1   2.0000     -15.572928      -423.7609
   2   2.0000     -11.305982      -307.6514
   3   2.0000     -11.292750      -307.2913
   4   2.0000     -11.284131      -307.0568
   5   2.0000     -11.276223      -306.8416
   6   2.0000     -11.263490      -306.4951
   7   2.0000     -11.241366      -305.8931
   8   2.0000     -11.236450      -305.7593
   9   2.0000      -1.398333       -38.0506
  10   2.0000      -1.223588       -33.2955
  11   2.0000      -1.145049       -31.1584
  12   2.0000      -1.032583       -28.0980
  13   2.0000      -1.012420       -27.5493
  14   2.0000      -0.886607       -24.1258
  15   2.0000      -0.851148       -23.1609
  16   2.0000      -0.770794       -20.9744
  17   2.0000      -0.737215       -20.0606
  18   2.0000      -0.713246       -19.4084
  19   2.0000      -0.678797       -18.4710
  20   2.0000      -0.610609       -16.6155
  21   2.0000      -0.592660       -16.1271
  22   2.0000      -0.579699       -15.7744
  23   2.0000      -0.564487       -15.3605
  24   2.0000      -0.554121       -15.0784
  25   2.0000      -0.540716       -14.7136
  26   2.0000      -0.531643       -14.4667
  27   2.0000      -0.511852       -13.9282
  28   2.0000      -0.492100       -13.3907
  29   2.0000      -0.487515       -13.2660
  30   2.0000      -0.458043       -12.4640
  31   2.0000      -0.443254       -12.0616
  32   2.0000      -0.416646       -11.3375
  33   0.0000       0.122546         3.3346
  34   0.0000       0.152730         4.1560
  35   0.0000       0.156810         4.2670
  36   0.0000       0.160177         4.3586
  37   0.0000       0.180058         4.8996

MULLIKEN ATOMIC CHARGES
-----------------------
   0 N :   -0.041532
   1 C :   -0.241039
   2 C :   -0.007047
   3 C :   -0.065641
   4 C :   -0.292729
   5 C :   -0.265593
   6 C :    0.086208
   7 O :   -0.319176
   8 C :   -0.058045
   9 H :    0.150520
  10 H :    0.145417
  11 H :    0.130743
  12 H :    0.147390
  13 H :    0.131106
  14 H :    0.139525
  15 H :    0.138194
  16 H :    0.109649
  17 H :    0.112052
Sum of atomic charges:    0.0000000

LOEWDIN ATOMIC CHARGES
----------------------
   0 N :    0.064348
   1 C :   -0.167501
   2 C :   -0.192592
   3 C :   -0.204902
   4 C :   -0.219271
   5 C :   -0.221697
   6 C :   -0.263714
   7 O :    0.165582
   8 C :   -0.256053
   9 H :    0.179411
  10 H :    0.152700
  11 H :    0.137234
  12 H :    0.143159
  13 H :    0.141490
  14 H :    0.143452
  15 H :    0.145477
  16 H :    0.124863
  17 H :    0.128016

  Mayer bond orders larger than 0.1
B(  0-N ,  1-C ) :   2.8761 B(  1-C ,  2-C ) :   0.9129 B(  2-C ,  3-C ) :   0.8663
B(  2-C ,  6-C ) :   0.9061 B(  2-C ,  9-H ) :   0.8997 B(  3-C ,  4-C ) :   0.9220
B(  3-C ,  8-C ) :   0.9480 B(  3-C , 10-H ) :   0.9116 B(  4-C ,  5-C ) :   0.9646
B(  4-C , 11-H ) :   0.9285 B(  4-C , 12-H ) :   0.9207 B(  5-C ,  6-C ) :   0.9340
B(  5-C , 13-H ) :   0.9243 B(  5-C , 14-H ) :   0.9153 B(  6-C ,  7-O ) :   0.9381
B(  6-C , 15-H ) :   0.9136 B(  7-O ,  8-C ) :   0.9251 B(  8-C , 16-H ) :   0.9232
B(  8-C , 17-H ) :   0.9166

MP2 TOTAL ENERGY:     -401.293836606 Eh
FINAL SINGLE POINT ENERGY      -401.293836606230

DIPOLE MOMENT
-------------
                                X             Y             Z
Electronic contribution:     -1.27280      -2.94188      -4.21155
Nuclear contribution   :      1.13595       3.98341       4.76659
                        -----------------------------------------
Total Dipole Moment    :     -0.13685       1.04153       0.55503
                        -----------------------------------------
Magnitude (a.u.)       :      1.18810
Magnitude (Debye)      :      3.01990

                             ****ORCA TERMINATED NORMALLY****
TOTAL RUN TIME: 0 days 0 hours 20 minutes 16 seconds 955 msec
