                         Program Version 3.0.3 - RELEASE   -
|  1> ! RI-MP2 RIJK def2-TZVP def2-TZVP/C def2-TZVP/JK TIGHTSCF
|  2> % maxcore 2000
|  3> % mp2 density relaxed end
|  4> *xyz 0 1
|  5>  N        0.0066069492     1.4220974979    -0.2210367043
|  6>  C        1.3017766848     0.7592573911     0.0585384510
|  7>  C        0.0509791510    -0.0303263195     0.0678180873
|  8>  C        0.5151724351    -0.7651356097    -1.2456363830
|  9>  O        0.7594197494     0.2059784755    -2.2607525787
| 10>  C        1.7515701259     0.0150123023    -1.2546149636
| 11>  H       -0.2756351781     1.8793134301     0.6468503117
| 12>  H        1.9450482609     1.0607392725     0.8739947921
| 13>  H       -0.4891582157    -0.4759150225     0.8920515327
| 14>  H        0.2955658747    -1.7819328307    -1.5465992269
| 15>  H        2.7606981228    -0.2264619170    -1.5645035383
| 16> *
| 17>
| 18>                          ****END OF INPUT****

CARTESIAN COORDINATES (ANGSTROEM)
---------------------------------
  N      0.006607    1.422097   -0.221037
  C      1.301777    0.759257    0.058538
  C      0.050979   -0.030326    0.067818
  C      0.515172   -0.765136   -1.245636
  O      0.759420    0.205978   -2.260753
  C      1.751570    0.015012   -1.254615
  H     -0.275635    1.879313    0.646850
  H      1.945048    1.060739    0.873995
  H     -0.489158   -0.475915    0.892052
  H      0.295566   -1.781933   -1.546599
  H      2.760698   -0.226462   -1.564504

 Total Charge           Charge          ....    0
 Multiplicity           Mult            ....    1
 Number of Electrons    NEL             ....   44
 Basis Dimension        Dim             ....  216

ORBITAL ENERGIES
----------------

  NO   OCC          E(Eh)            E(eV)
   0   2.0000     -20.569076      -559.7130
   1   2.0000     -15.569167      -423.6586
   2   2.0000     -11.292541      -307.2856
   3   2.0000     -11.291720      -307.2633
   4   2.0000     -11.272606      -306.7432
   5   2.0000     -11.271836      -306.7223
   6   2.0000      -1.426216       -38.8093
   7   2.0000      -1.265861       -34.4458
   8   2.0000      -0.999468       -27.1969
   9   2.0000      -0.894904       -24.3516
  10   2.0000      -0.828480       -22.5441
  11   2.0000      -0.764907       -20.8142
  12   2.0000      -0.747689       -20.3457
  13   2.0000      -0.654376       -17.8065
  14   2.0000      -0.635319       -17.2879
  15   2.0000      -0.558698       -15.2029
  16   2.0000      -0.556778       -15.1507
  17   2.0000      -0.500147       -13.6097
  18   2.0000      -0.472529       -12.8582
  19   2.0000      -0.469147       -12.7661
  20   2.0000      -0.409717       -11.1490
  21   2.0000      -0.354425        -9.6444
  22   0.0000       0.138775         3.7763
  23   0.0000       0.163431         4.4472
  24   0.0000       0.169680         4.6172
  25   0.0000       0.181362         4.9351
  26   0.0000       0.189977         5.1695

MULLIKEN ATOMIC CHARGES
-----------------------
   0 N :   -0.350597
   1 C :   -0.081990
   2 C :   -0.081643
   3 C :   -0.001614
   4 O :   -0.290222
   5 C :   -0.001265
   6 H :    0.219619
   7 H :    0.148609
   8 H :    0.148635
   9 H :    0.145223
  10 H :    0.145246
Sum of atomic charges:   -0.0000000

LOEWDIN ATOMIC CHARGES
----------------------
   0 N :    0.010148
   1 C :   -0.224838
   2 C :   -0.224850
   3 C :   -0.228323
   4 O :    0.201527
   5 C :   -0.228333
   6 H :    0.174912
   7 H :    0.129758
   8 H :    0.129761
   9 H :    0.130118
  10 H :    0.130119

  Mayer bond orders larger than 0.1
B(  0-N ,  1-C ) :   0.9603 B(  0-N ,  2-C ) :   0.9601 B(  0-N ,  6-H ) :   0.8624
B(  1-C ,  2-C ) :   0.9646 B(  1-C ,  5-C ) :   0.8579 B(  1-C ,  7-H ) :   0.9135
B(  2-C ,  3-C ) :   0.8578 B(  2-C ,  8-H ) :   0.9134 B(  3-C ,  4-O ) :   0.9419
B(  3-C ,  5-C ) :   1.0160 B(  3-C ,  9-H ) :   0.9237 B(  4-O ,  5-C ) :   0.9418
B(  5-C , 10-H ) :   0.9237

MP2 TOTAL ENERGY:     -284.693510346 Eh
FINAL SINGLE POINT ENERGY      -284.693510345535

DIPOLE MOMENT
-------------
                                X             Y             Z
Electronic contribution:     -0.20893       0.30772      -2.01989
Nuclear contribution   :      0.58464      -0.88944       3.19324
                        -----------------------------------------
Total Dipole Moment    :      0.37571      -0.58172       1.17335
                        -----------------------------------------
Magnitude (a.u.)       :      1.36246
Magnitude (Debye)      :      3.46311

                             ****ORCA TERMINATED NORMALLY****
TOTAL RUN TIME: 0 days 0 hours 4 minutes 35 seconds 707 msec
