                         Program Version 3.0.3 - RELEASE   -
|  1> ! RI-MP2 RIJK def2-TZVP def2-TZVP/C def2-TZVP/JK TIGHTSCF
|  2> % maxcore 2000
|  3> % mp2 density relaxed end
|  4> *xyz 0 1
|  5>  O        0.4735322466     0.3007920091     0.9452428393
|  6>  C       -0.0618612807     0.3280966030    -0.3874224659
|  7>  C       -1.4600107183    -0.2658035637    -0.4031251999
|  8>  C       -1.9853818123    -1.0545061935    -1.6247458974
|  9>  C       -1.1497651160    -2.3290653285    -1.2989744697
| 10>  O       -2.2909884445    -3.2318740123    -1.3460933377
| 11>  C       -2.8202208418    -2.0297249658    -0.7253764358
| 12>  C       -1.5450697094    -1.7160215681     0.1154952308
| 13>  O       -1.2457686163    -2.1537913065     1.3756702706
| 14>  H       -0.0122277747     0.9467298232     1.4692743440
| 15>  H       -0.0363322594     1.3475459091    -0.7962421632
| 16>  H        0.6247702896    -0.2815020477    -0.9837945783
| 17>  H       -2.1903571506     0.4186914116     0.0481632275
| 18>  H       -2.2653525848    -0.7046706948    -2.6149482762
| 19>  H       -0.1984761943    -2.6735677095    -1.7015028890
| 20>  H       -3.8738929973    -1.9909526201    -0.4508599217
| 21>  H       -0.4762812557    -1.6376380956     1.6566791626
| 22> *
| 23>
| 24>                          ****END OF INPUT****

CARTESIAN COORDINATES (ANGSTROEM)
---------------------------------
  O      0.473532    0.300792    0.945243
  C     -0.061861    0.328097   -0.387422
  C     -1.460011   -0.265804   -0.403125
  C     -1.985382   -1.054506   -1.624746
  C     -1.149765   -2.329065   -1.298974
  O     -2.290988   -3.231874   -1.346093
  C     -2.820221   -2.029725   -0.725376
  C     -1.545070   -1.716022    0.115495
  O     -1.245769   -2.153791    1.375670
  H     -0.012228    0.946730    1.469274
  H     -0.036332    1.347546   -0.796242
  H      0.624770   -0.281502   -0.983795
  H     -2.190357    0.418691    0.048163
  H     -2.265353   -0.704671   -2.614948
  H     -0.198476   -2.673568   -1.701503
  H     -3.873893   -1.990953   -0.450860
  H     -0.476281   -1.637638    1.656679

 Total Charge           Charge          ....    0
 Multiplicity           Mult            ....    1
 Number of Electrons    NEL             ....   68
 Basis Dimension        Dim             ....  327

ORBITAL ENERGIES
----------------

  NO   OCC          E(Eh)            E(eV)
   0   2.0000     -20.579949      -560.0089
   1   2.0000     -20.569652      -559.7287
   2   2.0000     -20.548801      -559.1613
   3   2.0000     -11.307901      -307.7036
   4   2.0000     -11.302738      -307.5631
   5   2.0000     -11.300938      -307.5142
   6   2.0000     -11.294888      -307.3495
   7   2.0000     -11.257571      -306.3341
   8   2.0000     -11.249314      -306.1094
   9   2.0000      -1.414749       -38.4973
  10   2.0000      -1.382021       -37.6067
  11   2.0000      -1.373567       -37.3767
  12   2.0000      -1.169998       -31.8373
  13   2.0000      -0.989474       -26.9250
  14   2.0000      -0.897567       -24.4241
  15   2.0000      -0.872179       -23.7332
  16   2.0000      -0.851301       -23.1651
  17   2.0000      -0.738371       -20.0921
  18   2.0000      -0.724578       -19.7168
  19   2.0000      -0.710141       -19.3239
  20   2.0000      -0.664787       -18.0898
  21   2.0000      -0.651941       -17.7402
  22   2.0000      -0.629469       -17.1287
  23   2.0000      -0.608634       -16.5618
  24   2.0000      -0.596143       -16.2219
  25   2.0000      -0.573857       -15.6155
  26   2.0000      -0.547276       -14.8921
  27   2.0000      -0.518524       -14.1098
  28   2.0000      -0.502876       -13.6840
  29   2.0000      -0.475692       -12.9442
  30   2.0000      -0.449198       -12.2233
  31   2.0000      -0.433759       -11.8032
  32   2.0000      -0.413006       -11.2385
  33   2.0000      -0.393714       -10.7135
  34   0.0000       0.119114         3.2413
  35   0.0000       0.148251         4.0341
  36   0.0000       0.155269         4.2251
  37   0.0000       0.175703         4.7811
  38   0.0000       0.179776         4.8920

MULLIKEN ATOMIC CHARGES
-----------------------
   0 O :   -0.499205
   1 C :   -0.042800
   2 C :   -0.160823
   3 C :   -0.124450
   4 C :   -0.040738
   5 O :   -0.332519
   6 C :   -0.000740
   7 C :    0.220228
   8 O :   -0.459383
   9 H :    0.324447
  10 H :    0.121351
  11 H :    0.120062
  12 H :    0.106612
  13 H :    0.152229
  14 H :    0.139665
  15 H :    0.134684
  16 H :    0.341379
Sum of atomic charges:    0.0000000

LOEWDIN ATOMIC CHARGES
----------------------
   0 O :   -0.058273
   1 C :   -0.310209
   2 C :   -0.203624
   3 C :   -0.121552
   4 C :   -0.180771
   5 O :    0.136281
   6 C :   -0.172157
   7 C :   -0.290842
   8 O :    0.044290
   9 H :    0.175893
  10 H :    0.120674
  11 H :    0.135729
  12 H :    0.144470
  13 H :    0.133973
  14 H :    0.126911
  15 H :    0.129874
  16 H :    0.189333

  Mayer bond orders larger than 0.1
B(  0-O ,  1-C ) :   0.8736 B(  0-O ,  9-H ) :   0.8422 B(  1-C ,  2-C ) :   0.9331
B(  1-C , 10-H ) :   0.9400 B(  1-C , 11-H ) :   0.9234 B(  2-C ,  3-C ) :   0.8862
B(  2-C ,  7-C ) :   0.8912 B(  2-C , 12-H ) :   0.9077 B(  3-C ,  4-C ) :   0.8605
B(  3-C ,  6-C ) :   0.8782 B(  3-C , 13-H ) :   0.8972 B(  4-C ,  5-O ) :   0.9206
B(  4-C ,  7-C ) :   0.8376 B(  4-C , 14-H ) :   0.8979 B(  5-O ,  6-C ) :   0.9321
B(  6-C ,  7-C ) :   0.8985 B(  6-C , 15-H ) :   0.8981 B(  7-C ,  8-O ) :   1.0404
B(  8-O , 16-H ) :   0.8089

MP2 TOTAL ENERGY:     -458.129144635 Eh
FINAL SINGLE POINT ENERGY      -458.129144635298

DIPOLE MOMENT
-------------
                                X             Y             Z
Electronic contribution:     -1.69431      -4.08556       0.67386
Nuclear contribution   :      1.82142       5.69931      -0.80854
                        -----------------------------------------
Total Dipole Moment    :      0.12712       1.61376      -0.13468
                        -----------------------------------------
Magnitude (a.u.)       :      1.62435
Magnitude (Debye)      :      4.12876

                             ****ORCA TERMINATED NORMALLY****
TOTAL RUN TIME: 0 days 0 hours 15 minutes 15 seconds 220 msec
