                         Program Version 3.0.3 - RELEASE   -
|  1> ! RI-MP2 RIJK def2-TZVP def2-TZVP/C def2-TZVP/JK TIGHTSCF
|  2> % maxcore 2000
|  3> % mp2 density relaxed end
|  4> *xyz 0 1
|  5>  O       -0.4605089352     1.3504849105    -2.0649399931
|  6>  C       -0.0522491351     1.6114773341    -0.9513886001
|  7>  C        1.3506331713     2.1971182671    -0.7671707530
|  8>  N        1.9947067820     1.7516015112     0.4600805976
|  9>  C        2.8075389926     0.5413982247     0.3585188551
| 10>  C        3.4471991239     1.8776817538     0.5076003602
| 11>  C       -0.8846634268     1.4297136940     0.2676779602
| 12>  C       -2.3829288314     1.6695097648     0.1195404789
| 13>  C       -1.8804297856     0.2763630430     0.2592210038
| 14>  H        1.9239351072     1.9705135054    -1.6800982037
| 15>  H        1.2376922173     3.2896967798    -0.7141585301
| 16>  H        2.7477189814    -0.1394288519     1.2023486562
| 17>  H        2.8822050411     0.0592385854    -0.6146908508
| 18>  H        3.9517142127     2.2872892058    -0.3657932408
| 19>  H        3.8624073850     2.1887192379     1.4618764214
| 20>  H       -0.4136178289     1.6855793049     1.2071042753
| 21>  H       -2.8895818511     2.1342961035     0.9575260894
| 22>  H       -2.7116242859     1.9852157135    -0.8639551474
| 23>  H       -1.8705361505    -0.3413298325    -0.6315181966
| 24>  H       -2.0312735539    -0.2483318950     1.1955378575
| 25> *
| 26>
| 27>                          ****END OF INPUT****

CARTESIAN COORDINATES (ANGSTROEM)
---------------------------------
  O     -0.460509    1.350485   -2.064940
  C     -0.052249    1.611477   -0.951389
  C      1.350633    2.197118   -0.767171
  N      1.994707    1.751602    0.460081
  C      2.807539    0.541398    0.358519
  C      3.447199    1.877682    0.507600
  C     -0.884663    1.429714    0.267678
  C     -2.382929    1.669510    0.119540
  C     -1.880430    0.276363    0.259221
  H      1.923935    1.970514   -1.680098
  H      1.237692    3.289697   -0.714159
  H      2.747719   -0.139429    1.202349
  H      2.882205    0.059239   -0.614691
  H      3.951714    2.287289   -0.365793
  H      3.862407    2.188719    1.461876
  H     -0.413618    1.685579    1.207104
  H     -2.889582    2.134296    0.957526
  H     -2.711624    1.985216   -0.863955
  H     -1.870536   -0.341330   -0.631518
  H     -2.031274   -0.248332    1.195538

 Total Charge           Charge          ....    0
 Multiplicity           Mult            ....    1
 Number of Electrons    NEL             ....   68
 Basis Dimension        Dim             ....  345

ORBITAL ENERGIES
----------------

  NO   OCC          E(Eh)            E(eV)
   0   2.0000     -20.534660      -558.7765
   1   2.0000     -15.572762      -423.7564
   2   2.0000     -11.325029      -308.1697
   3   2.0000     -11.266415      -306.5747
   4   2.0000     -11.265150      -306.5403
   5   2.0000     -11.263504      -306.4955
   6   2.0000     -11.235138      -305.7236
   7   2.0000     -11.234276      -305.7002
   8   2.0000     -11.233370      -305.6755
   9   2.0000      -1.380775       -37.5728
  10   2.0000      -1.285856       -34.9899
  11   2.0000      -1.145898       -31.1815
  12   2.0000      -1.032501       -28.0958
  13   2.0000      -0.893276       -24.3073
  14   2.0000      -0.853059       -23.2129
  15   2.0000      -0.840995       -22.8846
  16   2.0000      -0.825633       -22.4666
  17   2.0000      -0.728435       -19.8217
  18   2.0000      -0.702367       -19.1124
  19   2.0000      -0.676098       -18.3976
  20   2.0000      -0.663053       -18.0426
  21   2.0000      -0.632452       -17.2099
  22   2.0000      -0.617333       -16.7985
  23   2.0000      -0.584953       -15.9174
  24   2.0000      -0.554833       -15.0978
  25   2.0000      -0.537174       -14.6173
  26   2.0000      -0.531848       -14.4723
  27   2.0000      -0.505519       -13.7559
  28   2.0000      -0.490007       -13.3338
  29   2.0000      -0.473516       -12.8850
  30   2.0000      -0.444388       -12.0924
  31   2.0000      -0.411309       -11.1923
  32   2.0000      -0.401230       -10.9180
  33   2.0000      -0.387432       -10.5426
  34   0.0000       0.136997         3.7279
  35   0.0000       0.146288         3.9807
  36   0.0000       0.160958         4.3799
  37   0.0000       0.165300         4.4980
  38   0.0000       0.176807         4.8112

MULLIKEN ATOMIC CHARGES
-----------------------
   0 O :   -0.312821
   1 C :    0.146766
   2 C :   -0.115895
   3 N :   -0.234291
   4 C :   -0.195482
   5 C :   -0.169693
   6 C :   -0.123661
   7 C :   -0.243538
   8 C :   -0.249103
   9 H :    0.119669
  10 H :    0.134880
  11 H :    0.133552
  12 H :    0.136437
  13 H :    0.122184
  14 H :    0.132936
  15 H :    0.150512
  16 H :    0.136016
  17 H :    0.147484
  18 H :    0.148405
  19 H :    0.135645
Sum of atomic charges:    0.0000000

LOEWDIN ATOMIC CHARGES
----------------------
   0 O :    0.140140
   1 C :   -0.315483
   2 C :   -0.260128
   3 N :    0.088544
   4 C :   -0.263966
   5 C :   -0.265994
   6 C :   -0.198452
   7 C :   -0.207467
   8 C :   -0.207756
   9 H :    0.135841
  10 H :    0.150177
  11 H :    0.125364
  12 H :    0.125675
  13 H :    0.123919
  14 H :    0.125235
  15 H :    0.154986
  16 H :    0.133376
  17 H :    0.141392
  18 H :    0.141312
  19 H :    0.133284

  Mayer bond orders larger than 0.1
B(  0-O ,  1-C ) :   1.9955 B(  1-C ,  2-C ) :   0.9157 B(  1-C ,  6-C ) :   0.9627
B(  2-C ,  3-N ) :   0.8549 B(  2-C ,  9-H ) :   0.9123 B(  2-C , 10-H ) :   0.8977
B(  3-N ,  4-C ) :   0.8764 B(  3-N ,  5-C ) :   0.8906 B(  4-C ,  5-C ) :   0.9421
B(  4-C , 11-H ) :   0.9298 B(  4-C , 12-H ) :   0.9245 B(  5-C , 13-H ) :   0.9236
B(  5-C , 14-H ) :   0.9265 B(  6-C ,  7-C ) :   0.8294 B(  6-C ,  8-C ) :   0.8247
B(  6-C , 15-H ) :   0.9121 B(  7-C ,  8-C ) :   0.9423 B(  7-C , 16-H ) :   0.9288
B(  7-C , 17-H ) :   0.9194 B(  8-C , 18-H ) :   0.9239 B(  8-C , 19-H ) :   0.9295

MP2 TOTAL ENERGY:     -402.418830650 Eh
FINAL SINGLE POINT ENERGY      -402.418830649664

DIPOLE MOMENT
-------------
                                X             Y             Z
Electronic contribution:     -1.09850       0.66729      -2.65134
Nuclear contribution   :      1.63686      -0.59684       3.35989
                        -----------------------------------------
Total Dipole Moment    :      0.53835       0.07045       0.70855
                        -----------------------------------------
Magnitude (a.u.)       :      0.89265
Magnitude (Debye)      :      2.26895

                             ****ORCA TERMINATED NORMALLY****
TOTAL RUN TIME: 0 days 0 hours 18 minutes 4 seconds 709 msec
