                         Program Version 3.0.3 - RELEASE   -
|  1> ! RI-MP2 RIJK def2-TZVP def2-TZVP/C def2-TZVP/JK TIGHTSCF
|  2> % maxcore 2000
|  3> % mp2 density relaxed end
|  4> *xyz 0 1
|  5>  N        0.3884714325     1.1574611203    -0.1695812217
|  6>  C        0.1696634803    -0.0573727619     0.0497154106
|  7>  O        1.0027350176    -1.0576790635     0.5024566261
|  8>  C       -0.0796896502    -2.0399639091     0.4365443518
|  9>  C       -1.0527262515    -0.9470371196    -0.0748677840
| 10>  C       -2.2668781883    -0.6095631522     0.8287592951
| 11>  C       -3.4508734903    -1.0728204594     0.0156518989
| 12>  C       -3.1138827857    -1.3600832789    -1.2393991207
| 13>  C       -1.6427619606    -1.1415799267    -1.4956387610
| 14>  H        1.3572009589     1.4094610051     0.0328992584
| 15>  H        0.1641087099    -2.8398531246    -0.2676993330
| 16>  H       -0.2909865316    -2.4520580503     1.4268725750
| 17>  H       -2.1949249602    -1.0932456609     1.8100724264
| 18>  H       -2.3149414021     0.4712635474     1.0163997543
| 19>  H       -4.4544331554    -1.1129373972     0.4237121341
| 20>  H       -3.7982661670    -1.6722772557    -2.0200451792
| 21>  H       -1.4769076606    -0.2431016970    -2.1046827298
| 22>  H       -1.1642645058    -1.9718142959    -2.0284175715
| 23> *
| 24>
| 25>                          ****END OF INPUT****

CARTESIAN COORDINATES (ANGSTROEM)
---------------------------------
  N      0.388471    1.157461   -0.169581
  C      0.169663   -0.057373    0.049715
  O      1.002735   -1.057679    0.502457
  C     -0.079690   -2.039964    0.436544
  C     -1.052726   -0.947037   -0.074868
  C     -2.266878   -0.609563    0.828759
  C     -3.450873   -1.072820    0.015652
  C     -3.113883   -1.360083   -1.239399
  C     -1.642762   -1.141580   -1.495639
  H      1.357201    1.409461    0.032899
  H      0.164109   -2.839853   -0.267699
  H     -0.290987   -2.452058    1.426873
  H     -2.194925   -1.093246    1.810072
  H     -2.314941    0.471264    1.016400
  H     -4.454433   -1.112937    0.423712
  H     -3.798266   -1.672277   -2.020045
  H     -1.476908   -0.243102   -2.104683
  H     -1.164265   -1.971814   -2.028418

 Total Charge           Charge          ....    0
 Multiplicity           Mult            ....    1
 Number of Electrons    NEL             ....   66
 Basis Dimension        Dim             ....  333

ORBITAL ENERGIES
----------------

  NO   OCC          E(Eh)            E(eV)
   0   2.0000     -20.589897      -560.2796
   1   2.0000     -15.534480      -422.7147
   2   2.0000     -11.334753      -308.4343
   3   2.0000     -11.298130      -307.4378
   4   2.0000     -11.260373      -306.4103
   5   2.0000     -11.240755      -305.8765
   6   2.0000     -11.240736      -305.8760
   7   2.0000     -11.235498      -305.7335
   8   2.0000     -11.233752      -305.6859
   9   2.0000      -1.431912       -38.9643
  10   2.0000      -1.194928       -32.5156
  11   2.0000      -1.150298       -31.3012
  12   2.0000      -1.022096       -27.8127
  13   2.0000      -0.975407       -26.5422
  14   2.0000      -0.912405       -24.8278
  15   2.0000      -0.855892       -23.2900
  16   2.0000      -0.748994       -20.3812
  17   2.0000      -0.721127       -19.6229
  18   2.0000      -0.703042       -19.1307
  19   2.0000      -0.675787       -18.3891
  20   2.0000      -0.666250       -18.1296
  21   2.0000      -0.630259       -17.1502
  22   2.0000      -0.605060       -16.4645
  23   2.0000      -0.571550       -15.5527
  24   2.0000      -0.549925       -14.9642
  25   2.0000      -0.521064       -14.1789
  26   2.0000      -0.506636       -13.7863
  27   2.0000      -0.495643       -13.4871
  28   2.0000      -0.495104       -13.4725
  29   2.0000      -0.479450       -13.0465
  30   2.0000      -0.432329       -11.7643
  31   2.0000      -0.398932       -10.8555
  32   2.0000      -0.356894        -9.7116
  33   0.0000       0.136568         3.7162
  34   0.0000       0.151478         4.1219
  35   0.0000       0.164866         4.4862
  36   0.0000       0.168016         4.5719
  37   0.0000       0.173265         4.7148

MULLIKEN ATOMIC CHARGES
-----------------------
   0 N :   -0.378410
   1 C :    0.061077
   2 O :   -0.262342
   3 C :   -0.059895
   4 C :    0.191350
   5 C :   -0.221930
   6 C :   -0.177580
   7 C :   -0.177580
   8 C :   -0.221931
   9 H :    0.228995
  10 H :    0.111508
  11 H :    0.111508
  12 H :    0.123041
  13 H :    0.144183
  14 H :    0.130392
  15 H :    0.130391
  16 H :    0.144184
  17 H :    0.123039
Sum of atomic charges:    0.0000000

LOEWDIN ATOMIC CHARGES
----------------------
   0 N :   -0.053282
   1 C :   -0.375639
   2 O :    0.211811
   3 C :   -0.189614
   4 C :   -0.185537
   5 C :   -0.187632
   6 C :   -0.158352
   7 C :   -0.158352
   8 C :   -0.187635
   9 H :    0.173337
  10 H :    0.122309
  11 H :    0.122309
  12 H :    0.141055
  13 H :    0.154204
  14 H :    0.137879
  15 H :    0.137879
  16 H :    0.154204
  17 H :    0.141055

  Mayer bond orders larger than 0.1
B(  0-N ,  1-C ) :   2.0650 B(  0-N ,  9-H ) :   0.8466 B(  1-C ,  2-O ) :   1.0826
B(  1-C ,  4-C ) :   0.8778 B(  2-O ,  3-C ) :   0.8999 B(  3-C ,  4-C ) :   0.9564
B(  3-C , 10-H ) :   0.9107 B(  3-C , 11-H ) :   0.9107 B(  4-C ,  5-C ) :   0.9107
B(  4-C ,  8-C ) :   0.9107 B(  5-C ,  6-C ) :   0.9521 B(  5-C , 12-H ) :   0.9240
B(  5-C , 13-H ) :   0.8985 B(  6-C ,  7-C ) :   1.8047 B(  6-C , 14-H ) :   0.9275
B(  7-C ,  8-C ) :   0.9521 B(  7-C , 15-H ) :   0.9275 B(  8-C , 16-H ) :   0.8985
B(  8-C , 17-H ) :   0.9240

MP2 TOTAL ENERGY:     -401.258502948 Eh
FINAL SINGLE POINT ENERGY      -401.258502947809

DIPOLE MOMENT
-------------
                                X             Y             Z
Electronic contribution:      3.89704       1.41712       0.72211
Nuclear contribution   :     -4.33390      -2.25227      -0.64827
                        -----------------------------------------
Total Dipole Moment    :     -0.43686      -0.83515       0.07384
                        -----------------------------------------
Magnitude (a.u.)       :      0.94539
Magnitude (Debye)      :      2.40300

                             ****ORCA TERMINATED NORMALLY****
TOTAL RUN TIME: 0 days 0 hours 17 minutes 6 seconds 162 msec
