                         Program Version 3.0.3 - RELEASE   -
|  1> ! RI-MP2 RIJK def2-TZVP def2-TZVP/C def2-TZVP/JK TIGHTSCF
|  2> % maxcore 2000
|  3> % mp2 density relaxed end
|  4> *xyz 0 1
|  5>  C        0.1214179219    -1.2014532202     0.0363372024
|  6>  C       -0.0120124455    -0.0038432270     0.0112470887
|  7>  C       -0.0889076154     1.4140205251    -0.0174157151
|  8>  C       -1.2491570771     2.0871883602    -0.0093655484
|  9>  C       -1.2943360699     3.5885167419     0.0223879290
| 10>  C        0.0737015416     4.1487127268     0.4170214447
| 11>  O        1.1036369668     3.5299287858    -0.3352153518
| 12>  C        1.2379189309     2.1574665800    -0.0425833066
| 13>  H        0.2171566449    -2.2585961984     0.0597889800
| 14>  H       -2.1873821986     1.5408758575    -0.0164494656
| 15>  H       -1.5932357540     3.9785738294    -0.9606490004
| 16>  H       -2.0586666267     3.9297701935     0.7323282538
| 17>  H        0.1438960115     5.2200753892     0.2114005293
| 18>  H        0.2432061210     3.9957587791     1.4955852334
| 19>  H        1.7542826848     2.0077465866     0.9224040329
| 20>  H        1.8820192738     1.7356433105    -0.8208909662
| 21> *
| 22>
| 23>                          ****END OF INPUT****

CARTESIAN COORDINATES (ANGSTROEM)
---------------------------------
  C      0.121418   -1.201453    0.036337
  C     -0.012012   -0.003843    0.011247
  C     -0.088908    1.414021   -0.017416
  C     -1.249157    2.087188   -0.009366
  C     -1.294336    3.588517    0.022388
  C      0.073702    4.148713    0.417021
  O      1.103637    3.529929   -0.335215
  C      1.237919    2.157467   -0.042583
  H      0.217157   -2.258596    0.059789
  H     -2.187382    1.540876   -0.016449
  H     -1.593236    3.978574   -0.960649
  H     -2.058667    3.929770    0.732328
  H      0.143896    5.220075    0.211401
  H      0.243206    3.995759    1.495585
  H      1.754283    2.007747    0.922404
  H      1.882019    1.735643   -0.820891

 Total Charge           Charge          ....    0
 Multiplicity           Mult            ....    1
 Number of Electrons    NEL             ....   58
 Basis Dimension        Dim             ....  296

ORBITAL ENERGIES
----------------

  NO   OCC          E(Eh)            E(eV)
   0   2.0000     -20.559695      -559.4577
   1   2.0000     -11.285756      -307.1010
   2   2.0000     -11.280850      -306.9675
   3   2.0000     -11.257185      -306.3236
   4   2.0000     -11.247682      -306.0650
   5   2.0000     -11.239406      -305.8398
   6   2.0000     -11.237467      -305.7870
   7   2.0000     -11.230057      -305.5854
   8   2.0000      -1.383992       -37.6603
   9   2.0000      -1.117045       -30.3963
  10   2.0000      -1.054520       -28.6950
  11   2.0000      -1.005494       -27.3609
  12   2.0000      -0.898842       -24.4587
  13   2.0000      -0.880939       -23.9716
  14   2.0000      -0.772011       -21.0075
  15   2.0000      -0.717703       -19.5297
  16   2.0000      -0.695709       -18.9312
  17   2.0000      -0.659788       -17.9537
  18   2.0000      -0.652402       -17.7528
  19   2.0000      -0.604253       -16.4426
  20   2.0000      -0.581398       -15.8206
  21   2.0000      -0.558428       -15.1956
  22   2.0000      -0.552507       -15.0345
  23   2.0000      -0.519608       -14.1393
  24   2.0000      -0.470809       -12.8114
  25   2.0000      -0.446180       -12.1412
  26   2.0000      -0.425880       -11.5888
  27   2.0000      -0.392375       -10.6771
  28   2.0000      -0.332154        -9.0384
  29   0.0000       0.110315         3.0018
  30   0.0000       0.141125         3.8402
  31   0.0000       0.160770         4.3748
  32   0.0000       0.166300         4.5253
  33   0.0000       0.175404         4.7730

MULLIKEN ATOMIC CHARGES
-----------------------
   0 C :   -0.112485
   1 C :    0.040932
   2 C :   -0.155820
   3 C :   -0.212051
   4 C :   -0.157424
   5 C :   -0.070326
   6 O :   -0.311634
   7 C :   -0.073760
   8 H :    0.193121
   9 H :    0.135140
  10 H :    0.121828
  11 H :    0.120293
  12 H :    0.129770
  13 H :    0.098395
  14 H :    0.116231
  15 H :    0.137789
Sum of atomic charges:    0.0000000

LOEWDIN ATOMIC CHARGES
----------------------
   0 C :   -0.078971
   1 C :   -0.073176
   2 C :   -0.172685
   3 C :   -0.108741
   4 C :   -0.257481
   5 C :   -0.306252
   6 O :    0.163045
   7 C :   -0.266596
   8 H :    0.127877
   9 H :    0.149345
  10 H :    0.148052
  11 H :    0.146563
  12 H :    0.129820
  13 H :    0.123896
  14 H :    0.131902
  15 H :    0.143401

  Mayer bond orders larger than 0.1
B(  0-C ,  1-C ) :   2.5602 B(  0-C ,  2-C ) :  -0.1606 B(  0-C ,  8-H ) :   0.8863
B(  1-C ,  2-C ) :   1.1455 B(  2-C ,  3-C ) :   1.6974 B(  2-C ,  7-C ) :   0.9410
B(  3-C ,  4-C ) :   0.9457 B(  3-C ,  9-H ) :   0.9354 B(  4-C ,  5-C ) :   0.9550
B(  4-C , 10-H ) :   0.8997 B(  4-C , 11-H ) :   0.9199 B(  5-C ,  6-O ) :   0.9087
B(  5-C , 12-H ) :   0.9308 B(  5-C , 13-H ) :   0.9329 B(  6-O ,  7-C ) :   0.9627
B(  7-C , 14-H ) :   0.9456 B(  7-C , 15-H ) :   0.9138

MP2 TOTAL ENERGY:     -345.958005970 Eh
FINAL SINGLE POINT ENERGY      -345.958005969578

DIPOLE MOMENT
-------------
                                X             Y             Z
Electronic contribution:      1.20497      -3.40063      -1.10972
Nuclear contribution   :     -1.58758       3.43415       1.42851
                        -----------------------------------------
Total Dipole Moment    :     -0.38261       0.03352       0.31880
                        -----------------------------------------
Magnitude (a.u.)       :      0.49914
Magnitude (Debye)      :      1.26873

                             ****ORCA TERMINATED NORMALLY****
TOTAL RUN TIME: 0 days 0 hours 12 minutes 30 seconds 381 msec
