                         Program Version 3.0.3 - RELEASE   -
|  1> ! RI-MP2 RIJK def2-TZVP def2-TZVP/C def2-TZVP/JK TIGHTSCF
|  2> % maxcore 2000
|  3> % mp2 density relaxed end
|  4> *xyz 0 1
|  5>  O       -0.1219225023     1.3678681154     0.0122462401
|  6>  C       -0.0911668453    -0.0170805403     0.0158738530
|  7>  C        1.0093579599    -0.5820821963    -0.7901241293
|  8>  O        1.7918661324     0.1272777589    -1.3845648129
|  9>  C       -0.4546418929    -0.8178157474     1.2533072364
| 10>  C       -1.5141361106    -0.0399755517     2.0454187207
| 11>  C       -2.4454365682    -0.0640391907     0.7903669435
| 12>  C       -1.3660003725    -0.8413495894     0.0251174969
| 13>  H        0.6257570029     1.6311029242    -0.5482195863
| 14>  H        1.0787028735    -1.6882882521    -0.8202202497
| 15>  H        0.2026358748    -1.5843641457     1.6490125664
| 16>  H       -1.9201506056    -0.6214531720     2.8751426565
| 17>  H       -1.2021145872     0.9413926255     2.4077634318
| 18>  H       -3.3464568080    -0.6582702385     0.9530290282
| 19>  H       -2.7196334996     0.9021933046     0.3626479108
| 20>  H       -1.5399557413    -1.6293532244    -0.6994375762
| 21> *
| 22>
| 23>                          ****END OF INPUT****

CARTESIAN COORDINATES (ANGSTROEM)
---------------------------------
  O     -0.121923    1.367868    0.012246
  C     -0.091167   -0.017081    0.015874
  C      1.009358   -0.582082   -0.790124
  O      1.791866    0.127278   -1.384565
  C     -0.454642   -0.817816    1.253307
  C     -1.514136   -0.039976    2.045419
  C     -2.445437   -0.064039    0.790367
  C     -1.366000   -0.841350    0.025117
  H      0.625757    1.631103   -0.548220
  H      1.078703   -1.688288   -0.820220
  H      0.202636   -1.584364    1.649013
  H     -1.920151   -0.621453    2.875143
  H     -1.202115    0.941393    2.407763
  H     -3.346457   -0.658270    0.953029
  H     -2.719633    0.902193    0.362648
  H     -1.539956   -1.629353   -0.699438

 Total Charge           Charge          ....    0
 Multiplicity           Mult            ....    1
 Number of Electrons    NEL             ....   60
 Basis Dimension        Dim             ....  296

ORBITAL ENERGIES
----------------

  NO   OCC          E(Eh)            E(eV)
   0   2.0000     -20.568581      -559.6996
   1   2.0000     -20.564675      -559.5933
   2   2.0000     -11.345445      -308.7252
   3   2.0000     -11.305059      -307.6263
   4   2.0000     -11.254308      -306.2453
   5   2.0000     -11.253706      -306.2289
   6   2.0000     -11.235766      -305.7407
   7   2.0000     -11.235242      -305.7265
   8   2.0000      -1.418556       -38.6009
   9   2.0000      -1.373390       -37.3718
  10   2.0000      -1.199171       -32.6311
  11   2.0000      -1.017092       -27.6765
  12   2.0000      -0.907565       -24.6961
  13   2.0000      -0.881917       -23.9982
  14   2.0000      -0.788761       -21.4633
  15   2.0000      -0.752287       -20.4708
  16   2.0000      -0.739382       -20.1196
  17   2.0000      -0.675538       -18.3823
  18   2.0000      -0.673289       -18.3211
  19   2.0000      -0.629322       -17.1247
  20   2.0000      -0.601911       -16.3788
  21   2.0000      -0.591436       -16.0938
  22   2.0000      -0.554206       -15.0807
  23   2.0000      -0.537446       -14.6246
  24   2.0000      -0.506885       -13.7931
  25   2.0000      -0.495465       -13.4823
  26   2.0000      -0.477160       -12.9842
  27   2.0000      -0.450207       -12.2507
  28   2.0000      -0.405825       -11.0431
  29   2.0000      -0.389304       -10.5935
  30   0.0000       0.117756         3.2043
  31   0.0000       0.140719         3.8291
  32   0.0000       0.155382         4.2282
  33   0.0000       0.161035         4.3820
  34   0.0000       0.178567         4.8590

MULLIKEN ATOMIC CHARGES
-----------------------
   0 O :   -0.461112
   1 C :    0.238987
   2 C :    0.070416
   3 O :   -0.311781
   4 C :   -0.173267
   5 C :   -0.211453
   6 C :   -0.211432
   7 C :   -0.173317
   8 H :    0.335618
   9 H :    0.103085
  10 H :    0.141672
  11 H :    0.127905
  12 H :    0.127556
  13 H :    0.127909
  14 H :    0.127542
  15 H :    0.141671
Sum of atomic charges:   -0.0000000

LOEWDIN ATOMIC CHARGES
----------------------
   0 O :    0.044423
   1 C :   -0.345255
   2 C :   -0.261459
   3 O :    0.114650
   4 C :   -0.138689
   5 C :   -0.205486
   6 C :   -0.205494
   7 C :   -0.138682
   8 H :    0.192124
   9 H :    0.127810
  10 H :    0.137437
  11 H :    0.135659
  12 H :    0.134936
  13 H :    0.135658
  14 H :    0.134933
  15 H :    0.137435

  Mayer bond orders larger than 0.1
B(  0-O ,  1-C ) :   1.1506 B(  0-O ,  8-H ) :   0.7973 B(  1-C ,  2-C ) :   0.8929
B(  1-C ,  4-C ) :   0.8305 B(  1-C ,  7-C ) :   0.8304 B(  2-C ,  3-O ) :   1.8921
B(  2-C ,  9-H ) :   0.9461 B(  4-C ,  5-C ) :   0.9502 B(  4-C ,  7-C ) :   0.7939
B(  4-C , 10-H ) :   0.9081 B(  5-C ,  6-C ) :   0.9920 B(  5-C , 11-H ) :   0.9298
B(  5-C , 12-H ) :   0.9106 B(  6-C ,  7-C ) :   0.9502 B(  6-C , 13-H ) :   0.9298
B(  6-C , 14-H ) :   0.9106 B(  7-C , 15-H ) :   0.9081

MP2 TOTAL ENERGY:     -383.082692051 Eh
FINAL SINGLE POINT ENERGY      -383.082692051083

DIPOLE MOMENT
-------------
                                X             Y             Z
Electronic contribution:      4.98470       1.22980      -3.72242
Nuclear contribution   :     -5.52472      -2.03494       4.13839
                        -----------------------------------------
Total Dipole Moment    :     -0.54001      -0.80515       0.41596
                        -----------------------------------------
Magnitude (a.u.)       :      1.05494
Magnitude (Debye)      :      2.68144

                             ****ORCA TERMINATED NORMALLY****
TOTAL RUN TIME: 0 days 0 hours 11 minutes 43 seconds 366 msec
