                         Program Version 3.0.3 - RELEASE   -
|  1> ! RI-MP2 RIJK def2-TZVP def2-TZVP/C def2-TZVP/JK TIGHTSCF
|  2> % maxcore 2000
|  3> % mp2 density relaxed end
|  4> *xyz 0 1
|  5>  C        0.1872636386     1.3974430787     0.0614721238
|  6>  C        0.0766133694    -0.0533915226     0.0129290078
|  7>  C       -0.0207718400    -1.2520870965    -0.0215260490
|  8>  C       -0.1218322734    -2.7163515471    -0.0806148376
|  9>  C       -1.5226991994    -3.1593039009    -0.0527792959
| 10>  C       -2.6620557848    -3.5393927924    -0.0449747256
| 11>  C        0.6105617411    -3.2834553201    -1.3016254822
| 12>  C        2.0977983228    -3.4967430205    -1.2390541159
| 13>  C        1.1609016950    -4.6821025517    -1.2530800422
| 14>  H        1.2347171961     1.7180167610     0.0418165036
| 15>  H       -0.3180938142     1.8633243233    -0.7916313049
| 16>  H       -0.2655250416     1.7995858825     0.9744805893
| 17>  H        0.3739805991    -3.1285515033     0.8119463683
| 18>  H       -3.6716804474    -3.8677630801    -0.0321101631
| 19>  H        0.1965024130    -2.9441464245    -2.2452213540
| 20>  H        2.6836466530    -3.2870731860    -2.1267727832
| 21>  H        2.6038808730    -3.2599677639    -0.3087984283
| 22>  H        1.0372294218    -5.2427851504    -0.3322526411
| 23>  H        1.1022093579    -5.2878978955    -2.1501858398
| 24> *
| 25>
| 26>                          ****END OF INPUT****

CARTESIAN COORDINATES (ANGSTROEM)
---------------------------------
  C      0.187264    1.397443    0.061472
  C      0.076613   -0.053392    0.012929
  C     -0.020772   -1.252087   -0.021526
  C     -0.121832   -2.716352   -0.080615
  C     -1.522699   -3.159304   -0.052779
  C     -2.662056   -3.539393   -0.044975
  C      0.610562   -3.283455   -1.301625
  C      2.097798   -3.496743   -1.239054
  C      1.160902   -4.682103   -1.253080
  H      1.234717    1.718017    0.041817
  H     -0.318094    1.863324   -0.791631
  H     -0.265525    1.799586    0.974481
  H      0.373981   -3.128552    0.811946
  H     -3.671680   -3.867763   -0.032110
  H      0.196502   -2.944146   -2.245221
  H      2.683647   -3.287073   -2.126773
  H      2.603881   -3.259968   -0.308798
  H      1.037229   -5.242785   -0.332253
  H      1.102209   -5.287898   -2.150186

 Total Charge           Charge          ....    0
 Multiplicity           Mult            ....    1
 Number of Electrons    NEL             ....   64
 Basis Dimension        Dim             ....  339

ORBITAL ENERGIES
----------------

  NO   OCC          E(Eh)            E(eV)
   0   2.0000     -11.285393      -307.0912
   1   2.0000     -11.245751      -306.0124
   2   2.0000     -11.242254      -305.9173
   3   2.0000     -11.233899      -305.6899
   4   2.0000     -11.229222      -305.5627
   5   2.0000     -11.228571      -305.5449
   6   2.0000     -11.224712      -305.4399
   7   2.0000     -11.220583      -305.3276
   8   2.0000     -11.219106      -305.2874
   9   2.0000      -1.161824       -31.6148
  10   2.0000      -1.083848       -29.4930
  11   2.0000      -1.041740       -28.3472
  12   2.0000      -0.988253       -26.8917
  13   2.0000      -0.929936       -25.3049
  14   2.0000      -0.827899       -22.5283
  15   2.0000      -0.803441       -21.8627
  16   2.0000      -0.729255       -19.8440
  17   2.0000      -0.694810       -18.9067
  18   2.0000      -0.666660       -18.1407
  19   2.0000      -0.639707       -17.4073
  20   2.0000      -0.623025       -16.9534
  21   2.0000      -0.605229       -16.4691
  22   2.0000      -0.585034       -15.9196
  23   2.0000      -0.583429       -15.8759
  24   2.0000      -0.525667       -14.3041
  25   2.0000      -0.518558       -14.1107
  26   2.0000      -0.431208       -11.7338
  27   2.0000      -0.429594       -11.6898
  28   2.0000      -0.395967       -10.7748
  29   2.0000      -0.388218       -10.5639
  30   2.0000      -0.367624       -10.0036
  31   2.0000      -0.365043        -9.9333
  32   0.0000       0.133677         3.6375
  33   0.0000       0.146249         3.9796
  34   0.0000       0.160674         4.3722
  35   0.0000       0.166703         4.5362
  36   0.0000       0.174468         4.7475

MULLIKEN ATOMIC CHARGES
-----------------------
   0 C :   -0.488387
   1 C :    0.089347
   2 C :   -0.024431
   3 C :   -0.315001
   4 C :   -0.000094
   5 C :   -0.142989
   6 C :   -0.073883
   7 C :   -0.253031
   8 C :   -0.252175
   9 H :    0.162198
  10 H :    0.163228
  11 H :    0.163796
  12 H :    0.131251
  13 H :    0.190602
  14 H :    0.128140
  15 H :    0.131921
  16 H :    0.128145
  17 H :    0.128691
  18 H :    0.132671
Sum of atomic charges:    0.0000000

LOEWDIN ATOMIC CHARGES
----------------------
   0 C :   -0.294261
   1 C :   -0.093979
   2 C :   -0.041294
   3 C :   -0.217606
   4 C :   -0.062953
   5 C :   -0.093466
   6 C :   -0.183524
   7 C :   -0.221472
   8 C :   -0.221183
   9 H :    0.140724
  10 H :    0.141252
  11 H :    0.141487
  12 H :    0.189608
  13 H :    0.126790
  14 H :    0.154651
  15 H :    0.132494
  16 H :    0.134964
  17 H :    0.135095
  18 H :    0.132673

  Mayer bond orders larger than 0.1
B(  0-C ,  1-C ) :   0.8342 B(  0-C ,  9-H ) :   0.9501 B(  0-C , 10-H ) :   0.9472
B(  0-C , 11-H ) :   0.9505 B(  1-C ,  2-C ) :   2.6165 B(  1-C ,  3-C ) :  -0.1354
B(  2-C ,  3-C ) :   1.1428 B(  3-C ,  4-C ) :   1.1669 B(  3-C ,  5-C ) :  -0.1032
B(  3-C ,  6-C ) :   0.8865 B(  3-C , 12-H ) :   0.9121 B(  4-C ,  5-C ) :   2.5694
B(  5-C , 13-H ) :   0.8949 B(  6-C ,  7-C ) :   0.8920 B(  6-C ,  8-C ) :   0.8945
B(  6-C , 14-H ) :   0.9225 B(  7-C ,  8-C ) :   0.9079 B(  7-C , 15-H ) :   0.9293
B(  7-C , 16-H ) :   0.9209 B(  8-C , 17-H ) :   0.9209 B(  8-C , 18-H ) :   0.9305

MP2 TOTAL ENERGY:     -348.009565377 Eh
FINAL SINGLE POINT ENERGY      -348.009565376820

DIPOLE MOMENT
-------------
                                X             Y             Z
Electronic contribution:     -4.22282      -1.07603       1.46737
Nuclear contribution   :      4.45612       1.25086      -1.54811
                        -----------------------------------------
Total Dipole Moment    :      0.23330       0.17483      -0.08074
                        -----------------------------------------
Magnitude (a.u.)       :      0.30251
Magnitude (Debye)      :      0.76892

                             ****ORCA TERMINATED NORMALLY****
TOTAL RUN TIME: 0 days 0 hours 16 minutes 6 seconds 384 msec
