                         Program Version 3.0.3 - RELEASE   -
|  1> ! RI-MP2 RIJK def2-TZVP def2-TZVP/C def2-TZVP/JK TIGHTSCF
|  2> % maxcore 2000
|  3> % mp2 density relaxed end
|  4> *xyz 0 1
|  5>  C        0.0556034778     1.3889286431     0.1268560664
|  6>  N        0.0223764148    -0.0563426557     0.0069750467
|  7>  C       -1.1262023707    -0.6119701879    -0.1004173187
|  8>  N       -2.3598452397    -0.0274856120    -0.1449594606
|  9>  C       -1.1836306741    -2.1204488666    -0.2237309799
| 10>  O       -2.2558402080    -2.6895321852    -0.1910735274
| 11>  C        0.1240335139    -2.8633837963    -0.3898939121
| 12>  C        0.0119873486    -4.3233926268     0.0027732380
| 13>  O        0.5126619746    -5.2252487606    -0.6152647193
| 14>  H        1.0918459487     1.7310659832     0.1676580148
| 15>  H       -0.4363709379     1.8845883655    -0.7244981292
| 16>  H       -0.4464496013     1.7390200897     1.0437364950
| 17>  H       -2.4820020789     0.9142054478     0.1844467708
| 18>  H       -3.1429226574    -0.6589226324    -0.0634587972
| 19>  H        0.4555351392    -2.7924075656    -1.4319736748
| 20>  H        0.8960353466    -2.3635462964     0.2067173917
| 21>  H       -0.5553201662    -4.5092045440     0.9400335555
| 22> *
| 23>
| 24>                          ****END OF INPUT****

CARTESIAN COORDINATES (ANGSTROEM)
---------------------------------
  C      0.055603    1.388929    0.126856
  N      0.022376   -0.056343    0.006975
  C     -1.126202   -0.611970   -0.100417
  N     -2.359845   -0.027486   -0.144959
  C     -1.183631   -2.120449   -0.223731
  O     -2.255840   -2.689532   -0.191074
  C      0.124034   -2.863384   -0.389894
  C      0.011987   -4.323393    0.002773
  O      0.512662   -5.225249   -0.615265
  H      1.091846    1.731066    0.167658
  H     -0.436371    1.884588   -0.724498
  H     -0.446450    1.739020    1.043736
  H     -2.482002    0.914205    0.184447
  H     -3.142923   -0.658923   -0.063459
  H      0.455535   -2.792408   -1.431974
  H      0.896035   -2.363546    0.206717
  H     -0.555320   -4.509205    0.940034

 Total Charge           Charge          ....    0
 Multiplicity           Mult            ....    1
 Number of Electrons    NEL             ....   68
 Basis Dimension        Dim             ....  327

ORBITAL ENERGIES
----------------

  NO   OCC          E(Eh)            E(eV)
   0   2.0000     -20.582869      -560.0883
   1   2.0000     -20.560347      -559.4755
   2   2.0000     -15.592949      -424.3057
   3   2.0000     -15.562718      -423.4831
   4   2.0000     -11.364379      -309.2405
   5   2.0000     -11.337934      -308.5209
   6   2.0000     -11.335843      -308.4640
   7   2.0000     -11.262323      -306.4634
   8   2.0000     -11.256465      -306.3040
   9   2.0000      -1.427626       -38.8477
  10   2.0000      -1.399530       -38.0832
  11   2.0000      -1.289852       -35.0987
  12   2.0000      -1.184358       -32.2280
  13   2.0000      -1.063377       -28.9360
  14   2.0000      -0.978488       -26.6260
  15   2.0000      -0.877751       -23.8848
  16   2.0000      -0.812128       -22.0991
  17   2.0000      -0.759153       -20.6576
  18   2.0000      -0.746039       -20.3008
  19   2.0000      -0.698581       -19.0094
  20   2.0000      -0.676691       -18.4137
  21   2.0000      -0.651312       -17.7231
  22   2.0000      -0.641843       -17.4654
  23   2.0000      -0.621008       -16.8985
  24   2.0000      -0.610253       -16.6058
  25   2.0000      -0.597630       -16.2623
  26   2.0000      -0.576010       -15.6740
  27   2.0000      -0.553342       -15.0572
  28   2.0000      -0.516282       -14.0488
  29   2.0000      -0.502488       -13.6734
  30   2.0000      -0.473632       -12.8882
  31   2.0000      -0.427275       -11.6267
  32   2.0000      -0.421213       -11.4618
  33   2.0000      -0.380117       -10.3435
  34   0.0000       0.075504         2.0546
  35   0.0000       0.118506         3.2247
  36   0.0000       0.135995         3.7006
  37   0.0000       0.153680         4.1818
  38   0.0000       0.173353         4.7172

MULLIKEN ATOMIC CHARGES
-----------------------
   0 C :   -0.361566
   1 N :   -0.266880
   2 C :    0.152038
   3 N :   -0.506784
   4 C :    0.230586
   5 O :   -0.314170
   6 C :   -0.168680
   7 C :    0.115827
   8 O :   -0.259820
   9 H :    0.152968
  10 H :    0.142770
  11 H :    0.132595
  12 H :    0.260977
  13 H :    0.277904
  14 H :    0.148191
  15 H :    0.178576
  16 H :    0.085465
Sum of atomic charges:   -0.0000000

LOEWDIN ATOMIC CHARGES
----------------------
   0 C :   -0.344045
   1 N :    0.067433
   2 C :   -0.365828
   3 N :   -0.017951
   4 C :   -0.277358
   5 O :    0.156016
   6 C :   -0.228735
   7 C :   -0.282692
   8 O :    0.137124
   9 H :    0.118660
  10 H :    0.115487
  11 H :    0.112802
  12 H :    0.171197
  13 H :    0.182251
  14 H :    0.168689
  15 H :    0.172682
  16 H :    0.114267

  Mayer bond orders larger than 0.1
B(  0-C ,  1-N ) :   0.8961 B(  0-C ,  9-H ) :   0.9472 B(  0-C , 10-H ) :   0.9272
B(  0-C , 11-H ) :   0.9230 B(  1-N ,  2-C ) :   1.8045 B(  2-C ,  3-N ) :   1.1547
B(  2-C ,  4-C ) :   0.8985 B(  3-N , 12-H ) :   0.8687 B(  3-N , 13-H ) :   0.8440
B(  4-C ,  5-O ) :   1.8734 B(  4-C ,  6-C ) :   0.9160 B(  6-C ,  7-C ) :   0.8658
B(  6-C , 14-H ) :   0.8627 B(  6-C , 15-H ) :   0.8969 B(  7-C ,  8-O ) :   1.9928
B(  7-C , 16-H ) :   0.9350

MP2 TOTAL ENERGY:     -454.428889136 Eh
FINAL SINGLE POINT ENERGY      -454.428889136027

DIPOLE MOMENT
-------------
                                X             Y             Z
Electronic contribution:     -1.50773      -8.08215      -0.97143
Nuclear contribution   :      0.97056       9.87939       1.55784
                        -----------------------------------------
Total Dipole Moment    :     -0.53717       1.79723       0.58642
                        -----------------------------------------
Magnitude (a.u.)       :      1.96532
Magnitude (Debye)      :      4.99545

                             ****ORCA TERMINATED NORMALLY****
TOTAL RUN TIME: 0 days 0 hours 13 minutes 44 seconds 754 msec
