                         Program Version 3.0.3 - RELEASE   -
|  1> ! RI-MP2 RIJK def2-TZVP def2-TZVP/C def2-TZVP/JK TIGHTSCF
|  2> % maxcore 2000
|  3> % mp2 density relaxed end
|  4> *xyz 0 1
|  5>  C        0.0177935428     1.6010438900     0.0754556946
|  6>  C        0.0070890621     0.0720262487     0.0118025358
|  7>  C        0.7015880794    -0.4828256186    -1.2338144715
|  8>  O        2.0764813791    -0.1091009123    -1.2930878992
|  9>  C        0.5555755089    -2.0157718379    -1.3504879906
| 10>  O       -0.8082700812    -2.4196962678    -1.3088385507
| 11>  C        1.2612232832    -2.5653427429    -2.5958881982
| 12>  C        1.1986480753    -4.0737845467    -2.6525381556
| 13>  O        0.8056058681    -4.7119548364    -3.5940095996
| 14>  H        1.0387717862     1.9888222892     0.0183215716
| 15>  H       -0.5458633409     2.0329300139    -0.7587870776
| 16>  H       -0.4345438171     1.9601105083     1.0044238459
| 17>  H        0.5069693211    -0.3458412851     0.8996144645
| 18>  H       -1.0165072763    -0.3132127940     0.0342674877
| 19>  H        0.2516956488    -0.0307393676    -2.1299682463
| 20>  H        2.4705505634    -0.3081663685    -0.4359003700
| 21>  H        1.0058219428    -2.4681321600    -0.4544312548
| 22>  H       -1.2110725453    -2.2035112659    -2.1577500795
| 23>  H        0.8173730574    -2.1578948117    -3.5121837097
| 24>  H        2.3114126750    -2.2500037736    -2.5641155836
| 25>  H        1.5602814271    -4.5804710213    -1.7268046333
| 26> *
| 27>
| 28>                          ****END OF INPUT****

CARTESIAN COORDINATES (ANGSTROEM)
---------------------------------
  C      0.017794    1.601044    0.075456
  C      0.007089    0.072026    0.011803
  C      0.701588   -0.482826   -1.233814
  O      2.076481   -0.109101   -1.293088
  C      0.555576   -2.015772   -1.350488
  O     -0.808270   -2.419696   -1.308839
  C      1.261223   -2.565343   -2.595888
  C      1.198648   -4.073785   -2.652538
  O      0.805606   -4.711955   -3.594010
  H      1.038772    1.988822    0.018322
  H     -0.545863    2.032930   -0.758787
  H     -0.434544    1.960111    1.004424
  H      0.506969   -0.345841    0.899614
  H     -1.016507   -0.313213    0.034267
  H      0.251696   -0.030739   -2.129968
  H      2.470551   -0.308166   -0.435900
  H      1.005822   -2.468132   -0.454431
  H     -1.211073   -2.203511   -2.157750
  H      0.817373   -2.157895   -3.512184
  H      2.311413   -2.250004   -2.564116
  H      1.560281   -4.580471   -1.726805

 Total Charge           Charge          ....    0
 Multiplicity           Mult            ....    1
 Number of Electrons    NEL             ....   72
 Basis Dimension        Dim             ....  351

ORBITAL ENERGIES
----------------

  NO   OCC          E(Eh)            E(eV)
   0   2.0000     -20.574292      -559.8550
   1   2.0000     -20.571971      -559.7918
   2   2.0000     -20.556897      -559.3816
   3   2.0000     -11.333355      -308.3963
   4   2.0000     -11.302457      -307.5555
   5   2.0000     -11.293892      -307.3224
   6   2.0000     -11.243851      -305.9607
   7   2.0000     -11.232199      -305.6437
   8   2.0000     -11.221058      -305.3405
   9   2.0000      -1.396990       -38.0140
  10   2.0000      -1.386581       -37.7308
  11   2.0000      -1.372880       -37.3580
  12   2.0000      -1.077387       -29.3172
  13   2.0000      -1.049567       -28.5602
  14   2.0000      -0.957141       -26.0451
  15   2.0000      -0.863723       -23.5031
  16   2.0000      -0.828336       -22.5402
  17   2.0000      -0.798365       -21.7246
  18   2.0000      -0.700750       -19.0684
  19   2.0000      -0.684097       -18.6152
  20   2.0000      -0.670679       -18.2501
  21   2.0000      -0.656076       -17.8527
  22   2.0000      -0.653544       -17.7838
  23   2.0000      -0.622110       -16.9285
  24   2.0000      -0.606764       -16.5109
  25   2.0000      -0.580256       -15.7896
  26   2.0000      -0.560577       -15.2541
  27   2.0000      -0.551377       -15.0037
  28   2.0000      -0.534870       -14.5545
  29   2.0000      -0.516408       -14.0522
  30   2.0000      -0.514806       -14.0086
  31   2.0000      -0.498854       -13.5745
  32   2.0000      -0.490585       -13.3495
  33   2.0000      -0.470440       -12.8013
  34   2.0000      -0.439319       -11.9545
  35   2.0000      -0.414817       -11.2877
  36   0.0000       0.122004         3.3199
  37   0.0000       0.128608         3.4996
  38   0.0000       0.139328         3.7913
  39   0.0000       0.149697         4.0735
  40   0.0000       0.167398         4.5551

MULLIKEN ATOMIC CHARGES
-----------------------
   0 C :   -0.368503
   1 C :   -0.212571
   2 C :    0.056310
   3 O :   -0.475691
   4 C :    0.004222
   5 O :   -0.469440
   6 C :   -0.143915
   7 C :    0.107963
   8 O :   -0.263315
   9 H :    0.128585
  10 H :    0.123085
  11 H :    0.136902
  12 H :    0.099806
  13 H :    0.133809
  14 H :    0.083017
  15 H :    0.315587
  16 H :    0.088139
  17 H :    0.321703
  18 H :    0.118253
  19 H :    0.147113
  20 H :    0.068942
Sum of atomic charges:    0.0000000

LOEWDIN ATOMIC CHARGES
----------------------
   0 C :   -0.317610
   1 C :   -0.284821
   2 C :   -0.338712
   3 O :   -0.012899
   4 C :   -0.338625
   5 O :   -0.006708
   6 C :   -0.254230
   7 C :   -0.295123
   8 O :    0.131265
   9 H :    0.122203
  10 H :    0.122210
  11 H :    0.121859
  12 H :    0.135811
  13 H :    0.146353
  14 H :    0.146259
  15 H :    0.176841
  16 H :    0.146284
  17 H :    0.180670
  18 H :    0.146793
  19 H :    0.161773
  20 H :    0.110408

  Mayer bond orders larger than 0.1
B(  0-C ,  1-C ) :   0.9235 B(  0-C ,  9-H ) :   0.9338 B(  0-C , 10-H ) :   0.9381
B(  0-C , 11-H ) :   0.9430 B(  1-C ,  2-C ) :   0.9544 B(  1-C , 12-H ) :   0.9099
B(  1-C , 13-H ) :   0.9291 B(  2-C ,  3-O ) :   0.8932 B(  2-C ,  4-C ) :   0.9286
B(  2-C , 14-H ) :   0.9051 B(  3-O , 15-H ) :   0.8396 B(  4-C ,  5-O ) :   0.8955
B(  4-C ,  6-C ) :   0.9288 B(  4-C , 16-H ) :   0.9073 B(  5-O , 17-H ) :   0.8365
B(  6-C ,  7-C ) :   0.8693 B(  6-C , 18-H ) :   0.8863 B(  6-C , 19-H ) :   0.9038
B(  7-C ,  8-O ) :   2.0007 B(  7-C , 20-H ) :   0.9377

MP2 TOTAL ENERGY:     -460.640696274 Eh
FINAL SINGLE POINT ENERGY      -460.640696273577

DIPOLE MOMENT
-------------
                                X             Y             Z
Electronic contribution:      1.11783      -9.23633      -5.50522
Nuclear contribution   :     -0.89560      10.07611       6.30318
                        -----------------------------------------
Total Dipole Moment    :      0.22223       0.83977       0.79796
                        -----------------------------------------
Magnitude (a.u.)       :      1.17955
Magnitude (Debye)      :      2.99819

                             ****ORCA TERMINATED NORMALLY****
TOTAL RUN TIME: 0 days 0 hours 16 minutes 22 seconds 909 msec
