                         Program Version 3.0.3 - RELEASE   -
|  1> ! RI-MP2 RIJK def2-TZVP def2-TZVP/C def2-TZVP/JK TIGHTSCF
|  2> % maxcore 2000
|  3> % mp2 density relaxed end
|  4> *xyz 0 1
|  5>  C       -0.0722687684     1.6045742535    -0.0411098243
|  6>  C        0.0118950853     0.0745822647    -0.0589397463
|  7>  C       -1.2797227197    -0.5301220294     0.2290612904
|  8>  C       -2.3474654724    -1.0297410994     0.4663012826
|  9>  C        0.7156816460    -0.6366903507    -1.2494782288
| 10>  C        2.1445269588    -0.2408295946    -1.3402431020
| 11>  C        1.7531661060    -1.2982173286    -0.3131452029
| 12>  C        1.1084617967    -0.6233412820     0.8553044223
| 13>  O        1.2446487423    -0.6767266511     2.0406395753
| 14>  H        0.8889862492     2.0637622316    -0.2852862843
| 15>  H       -0.8181848086     1.9582465538    -0.7587549898
| 16>  H       -0.3688451708     1.9441004363     0.9548634590
| 17>  H       -3.2896257029    -1.4687633199     0.6841051052
| 18>  H        0.1788962787    -1.1166227989    -2.0562064636
| 19>  H        2.6952650138    -0.6412800279    -2.1851002242
| 20>  H        2.4857499672     0.7377782194    -1.0191266533
| 21>  H        2.1914868789    -2.2878104269    -0.3257583653
| 22> *
| 23>
| 24>                          ****END OF INPUT****

CARTESIAN COORDINATES (ANGSTROEM)
---------------------------------
  C     -0.072269    1.604574   -0.041110
  C      0.011895    0.074582   -0.058940
  C     -1.279723   -0.530122    0.229061
  C     -2.347465   -1.029741    0.466301
  C      0.715682   -0.636690   -1.249478
  C      2.144527   -0.240830   -1.340243
  C      1.753166   -1.298217   -0.313145
  C      1.108462   -0.623341    0.855304
  O      1.244649   -0.676727    2.040640
  H      0.888986    2.063762   -0.285286
  H     -0.818185    1.958247   -0.758755
  H     -0.368845    1.944100    0.954863
  H     -3.289626   -1.468763    0.684105
  H      0.178896   -1.116623   -2.056206
  H      2.695265   -0.641280   -2.185100
  H      2.485750    0.737778   -1.019127
  H      2.191487   -2.287810   -0.325758

 Total Charge           Charge          ....    0
 Multiplicity           Mult            ....    1
 Number of Electrons    NEL             ....   64
 Basis Dimension        Dim             ....  327

ORBITAL ENERGIES
----------------

  NO   OCC          E(Eh)            E(eV)
   0   2.0000     -20.554204      -559.3083
   1   2.0000     -11.341720      -308.6239
   2   2.0000     -11.284616      -307.0700
   3   2.0000     -11.268008      -306.6181
   4   2.0000     -11.262045      -306.4558
   5   2.0000     -11.258843      -306.3687
   6   2.0000     -11.240327      -305.8648
   7   2.0000     -11.234610      -305.7093
   8   2.0000     -11.230347      -305.5933
   9   2.0000      -1.400010       -38.0962
  10   2.0000      -1.220560       -33.2131
  11   2.0000      -1.081112       -29.4185
  12   2.0000      -1.003076       -27.2951
  13   2.0000      -0.938924       -25.5494
  14   2.0000      -0.881425       -23.9848
  15   2.0000      -0.813940       -22.1484
  16   2.0000      -0.771530       -20.9944
  17   2.0000      -0.704947       -19.1826
  18   2.0000      -0.693630       -18.8746
  19   2.0000      -0.668521       -18.1914
  20   2.0000      -0.629212       -17.1217
  21   2.0000      -0.619360       -16.8536
  22   2.0000      -0.582360       -15.8468
  23   2.0000      -0.573899       -15.6166
  24   2.0000      -0.551195       -14.9988
  25   2.0000      -0.536728       -14.6051
  26   2.0000      -0.511502       -13.9187
  27   2.0000      -0.460353       -12.5268
  28   2.0000      -0.426765       -11.6129
  29   2.0000      -0.418798       -11.3961
  30   2.0000      -0.392648       -10.6845
  31   2.0000      -0.372447       -10.1348
  32   0.0000       0.120663         3.2834
  33   0.0000       0.145022         3.9463
  34   0.0000       0.152982         4.1628
  35   0.0000       0.160726         4.3736
  36   0.0000       0.168201         4.5770

MULLIKEN ATOMIC CHARGES
-----------------------
   0 C :   -0.386915
   1 C :    0.005171
   2 C :   -0.079515
   3 C :   -0.106748
   4 C :   -0.140250
   5 C :   -0.233294
   6 C :   -0.154485
   7 C :    0.128900
   8 O :   -0.243724
   9 H :    0.123902
  10 H :    0.143161
  11 H :    0.154151
  12 H :    0.193894
  13 H :    0.151829
  14 H :    0.145978
  15 H :    0.143963
  16 H :    0.153984
Sum of atomic charges:   -0.0000000

LOEWDIN ATOMIC CHARGES
----------------------
   0 C :   -0.243284
   1 C :   -0.214354
   2 C :   -0.060110
   3 C :   -0.080698
   4 C :   -0.114055
   5 C :   -0.182558
   6 C :   -0.128105
   7 C :   -0.254445
   8 O :    0.179463
   9 H :    0.124917
  10 H :    0.133001
  11 H :    0.138381
  12 H :    0.128348
  13 H :    0.146761
  14 H :    0.146604
  15 H :    0.135142
  16 H :    0.144991

  Mayer bond orders larger than 0.1
B(  0-C ,  1-C ) :   0.9205 B(  0-C ,  9-H ) :   0.9243 B(  0-C , 10-H ) :   0.9348
B(  0-C , 11-H ) :   0.9293 B(  1-C ,  2-C ) :   1.2213 B(  1-C ,  3-C ) :  -0.1410
B(  1-C ,  4-C ) :   0.8866 B(  1-C ,  6-C ) :  -0.1242 B(  1-C ,  7-C ) :   0.7906
B(  2-C ,  3-C ) :   2.5582 B(  3-C , 12-H ) :   0.8818 B(  4-C ,  5-C ) :   0.8840
B(  4-C ,  6-C ) :   0.8468 B(  4-C , 13-H ) :   0.9193 B(  5-C ,  6-C ) :   0.8338
B(  5-C , 14-H ) :   0.9271 B(  5-C , 15-H ) :   0.9192 B(  6-C ,  7-C ) :   0.9448
B(  6-C , 16-H ) :   0.9130 B(  7-C ,  8-O ) :   2.0642

MP2 TOTAL ENERGY:     -383.955739498 Eh
FINAL SINGLE POINT ENERGY      -383.955739497687

DIPOLE MOMENT
-------------
                                X             Y             Z
Electronic contribution:     -0.63874      -3.65553       4.05995
Nuclear contribution   :      0.71136       3.72305      -5.28930
                        -----------------------------------------
Total Dipole Moment    :      0.07263       0.06752      -1.22935
                        -----------------------------------------
Magnitude (a.u.)       :      1.23334
Magnitude (Debye)      :      3.13490

                             ****ORCA TERMINATED NORMALLY****
TOTAL RUN TIME: 0 days 0 hours 19 minutes 20 seconds 346 msec
