                         Program Version 3.0.3 - RELEASE   -
|  1> ! RI-MP2 RIJK def2-TZVP def2-TZVP/C def2-TZVP/JK TIGHTSCF
|  2> % maxcore 2000
|  3> % mp2 density relaxed end
|  4> *xyz 0 1
|  5>  C       -0.0908367658     1.4546935162     0.1639279217
|  6>  C       -0.0482734344    -0.0593075802     0.0692620202
|  7>  O        0.6457061753    -0.5571947414     1.2150746168
|  8>  C        0.8137111309    -1.9317496434     1.2287517037
|  9>  C        1.6064274106    -2.3186435646     2.4927074625
| 10>  N        0.5330849734    -2.7671130222     3.3492652250
| 11>  C       -0.6159911207    -3.0441170889     2.6543805083
| 12>  O       -1.6216736083    -3.5633143183     3.0468915161
| 13>  O       -0.4368527120    -2.6166525061     1.3572820571
| 14>  H        0.9201979335     1.8708244734     0.1918763776
| 15>  H       -0.6146722847     1.8706518361    -0.7016084508
| 16>  H       -0.6171328189     1.7673613066     1.0699555841
| 17>  H       -1.0594239071    -0.4819459766     0.0377109922
| 18>  H        0.4781476289    -0.3824965268    -0.8430750092
| 19>  H        1.2658325507    -2.2833085256     0.2922191228
| 20>  H        2.3396063808    -3.1070737409     2.2799769072
| 21>  H        2.1237668976    -1.4400926268     2.8853072443
| 22>  H        0.6721843902    -3.1931227904     4.2489267804
| 23> *
| 24>
| 25>                          ****END OF INPUT****

CARTESIAN COORDINATES (ANGSTROEM)
---------------------------------
  C     -0.090837    1.454694    0.163928
  C     -0.048273   -0.059308    0.069262
  O      0.645706   -0.557195    1.215075
  C      0.813711   -1.931750    1.228752
  C      1.606427   -2.318644    2.492707
  N      0.533085   -2.767113    3.349265
  C     -0.615991   -3.044117    2.654381
  O     -1.621674   -3.563314    3.046892
  O     -0.436853   -2.616653    1.357282
  H      0.920198    1.870824    0.191876
  H     -0.614672    1.870652   -0.701608
  H     -0.617133    1.767361    1.069956
  H     -1.059424   -0.481946    0.037711
  H      0.478148   -0.382497   -0.843075
  H      1.265833   -2.283309    0.292219
  H      2.339606   -3.107074    2.279977
  H      2.123767   -1.440093    2.885307
  H      0.672184   -3.193123    4.248927

 Total Charge           Charge          ....    0
 Multiplicity           Mult            ....    1
 Number of Electrons    NEL             ....   70
 Basis Dimension        Dim             ....  333

ORBITAL ENERGIES
----------------

  NO   OCC          E(Eh)            E(eV)
   0   2.0000     -20.602471      -560.6217
   1   2.0000     -20.578898      -559.9803
   2   2.0000     -20.525459      -558.5261
   3   2.0000     -15.595194      -424.3668
   4   2.0000     -11.401225      -310.2431
   5   2.0000     -11.362995      -309.2028
   6   2.0000     -11.289863      -307.2128
   7   2.0000     -11.286752      -307.1281
   8   2.0000     -11.223725      -305.4131
   9   2.0000      -1.478962       -40.2446
  10   2.0000      -1.405290       -38.2399
  11   2.0000      -1.355153       -36.8756
  12   2.0000      -1.245907       -33.9029
  13   2.0000      -1.052666       -28.6445
  14   2.0000      -0.994501       -27.0617
  15   2.0000      -0.882014       -24.0008
  16   2.0000      -0.861271       -23.4364
  17   2.0000      -0.824962       -22.4484
  18   2.0000      -0.743557       -20.2332
  19   2.0000      -0.728246       -19.8166
  20   2.0000      -0.681644       -18.5485
  21   2.0000      -0.650543       -17.7022
  22   2.0000      -0.639188       -17.3932
  23   2.0000      -0.627518       -17.0756
  24   2.0000      -0.617370       -16.7995
  25   2.0000      -0.607165       -16.5218
  26   2.0000      -0.574871       -15.6430
  27   2.0000      -0.549375       -14.9493
  28   2.0000      -0.530562       -14.4373
  29   2.0000      -0.518182       -14.1005
  30   2.0000      -0.499373       -13.5886
  31   2.0000      -0.474415       -12.9095
  32   2.0000      -0.463586       -12.6148
  33   2.0000      -0.447965       -12.1898
  34   2.0000      -0.411958       -11.2100
  35   0.0000       0.128999         3.5103
  36   0.0000       0.141420         3.8482
  37   0.0000       0.154596         4.2068
  38   0.0000       0.171547         4.6680
  39   0.0000       0.196156         5.3377

MULLIKEN ATOMIC CHARGES
-----------------------
   0 C :   -0.363387
   1 C :   -0.071443
   2 O :   -0.281934
   3 C :    0.170215
   4 C :   -0.080519
   5 N :   -0.354760
   6 C :    0.333993
   7 O :   -0.322259
   8 O :   -0.253941
   9 H :    0.127378
  10 H :    0.127633
  11 H :    0.137212
  12 H :    0.134476
  13 H :    0.092530
  14 H :    0.092999
  15 H :    0.121679
  16 H :    0.136876
  17 H :    0.253253
Sum of atomic charges:    0.0000000

LOEWDIN ATOMIC CHARGES
----------------------
   0 C :   -0.315229
   1 C :   -0.330727
   2 O :    0.191889
   3 C :   -0.382846
   4 C :   -0.249569
   5 N :    0.093813
   6 C :   -0.567793
   7 O :    0.101582
   8 O :    0.247404
   9 H :    0.123437
  10 H :    0.127057
  11 H :    0.126728
  12 H :    0.126391
  13 H :    0.118657
  14 H :    0.129913
  15 H :    0.129792
  16 H :    0.139922
  17 H :    0.189579

  Mayer bond orders larger than 0.1
B(  0-C ,  1-C ) :   0.9517 B(  0-C ,  9-H ) :   0.9342 B(  0-C , 10-H ) :   0.9323
B(  0-C , 11-H ) :   0.9357 B(  1-C ,  2-O ) :   0.8748 B(  1-C , 12-H ) :   0.9281
B(  1-C , 13-H ) :   0.9215 B(  2-O ,  3-C ) :   1.0461 B(  3-C ,  4-C ) :   0.9188
B(  3-C ,  8-O ) :   0.9274 B(  3-C , 14-H ) :   0.9367 B(  4-C ,  5-N ) :   0.9062
B(  4-C , 15-H ) :   0.9268 B(  4-C , 16-H ) :   0.9271 B(  5-N ,  6-C ) :   1.1318
B(  5-N , 17-H ) :   0.8698 B(  6-C ,  7-O ) :   2.0362 B(  6-C ,  8-O ) :   1.0378

MP2 TOTAL ENERGY:     -475.527026867 Eh
FINAL SINGLE POINT ENERGY      -475.527026867363

DIPOLE MOMENT
-------------
                                X             Y             Z
Electronic contribution:     -2.81722      -8.74730       5.29369
Nuclear contribution   :      4.47543       9.27094      -5.64304
                        -----------------------------------------
Total Dipole Moment    :      1.65822       0.52364      -0.34935
                        -----------------------------------------
Magnitude (a.u.)       :      1.77368
Magnitude (Debye)      :      4.50833

                             ****ORCA TERMINATED NORMALLY****
TOTAL RUN TIME: 0 days 0 hours 14 minutes 45 seconds 869 msec
