                         Program Version 3.0.3 - RELEASE   -
|  1> ! RI-MP2 RIJK def2-TZVP def2-TZVP/C def2-TZVP/JK TIGHTSCF
|  2> % maxcore 2000
|  3> % mp2 density relaxed end
|  4> *xyz 0 1
|  5>  C        0.0124744289     1.6002889389     0.1030654496
|  6>  C        0.0820852212     0.0889047583     0.0739179311
|  7>  O       -1.1538438406    -0.4722204948    -0.3243503970
|  8>  C        1.2927007909    -0.7244473903    -0.3503113001
|  9>  C        2.6847006493    -0.1115718236    -0.3963597264
| 10>  C        2.9327701556     0.5135685607     1.0031046641
| 11>  C        1.8742356961    -0.1021018158     1.9561902897
| 12>  C        0.7988139176    -0.7698517020     1.0941137088
| 13>  C        0.1020022058    -1.9702245868     1.6960442911
| 14>  H        0.9277625444     2.0705171785     0.4613570143
| 15>  H       -0.1849043620     1.9913698360    -0.9035603113
| 16>  H       -0.8131034268     1.9181572401     0.7480771916
| 17>  H       -1.2797330441    -0.2594641783    -1.2556809982
| 18>  H        1.0737096389    -1.5542098688    -1.0161129915
| 19>  H        3.4099126479    -0.9089577361    -0.5948242694
| 20>  H        2.8069813142     0.6261707748    -1.1977741518
| 21>  H        3.9490047825     0.3139571724     1.3545818032
| 22>  H        2.8401700656     1.6018088642     0.9636091079
| 23>  H        2.3309778470    -0.8791689478     2.5798750839
| 24>  H        1.4615801119     0.6431658539     2.6457983916
| 25>  H       -0.4083115393    -1.7013576639     2.6290059523
| 26>  H       -0.6460044143    -2.3763668415     1.0147248540
| 27>  H        0.8273263591    -2.7573823082     1.9340633324
| 28> *
| 29>
| 30>                          ****END OF INPUT****

CARTESIAN COORDINATES (ANGSTROEM)
---------------------------------
  C      0.012474    1.600289    0.103065
  C      0.082085    0.088905    0.073918
  O     -1.153844   -0.472220   -0.324350
  C      1.292701   -0.724447   -0.350311
  C      2.684701   -0.111572   -0.396360
  C      2.932770    0.513569    1.003105
  C      1.874236   -0.102102    1.956190
  C      0.798814   -0.769852    1.094114
  C      0.102002   -1.970225    1.696044
  H      0.927763    2.070517    0.461357
  H     -0.184904    1.991370   -0.903560
  H     -0.813103    1.918157    0.748077
  H     -1.279733   -0.259464   -1.255681
  H      1.073710   -1.554210   -1.016113
  H      3.409913   -0.908958   -0.594824
  H      2.806981    0.626171   -1.197774
  H      3.949005    0.313957    1.354582
  H      2.840170    1.601809    0.963609
  H      2.330978   -0.879169    2.579875
  H      1.461580    0.643166    2.645798
  H     -0.408312   -1.701358    2.629006
  H     -0.646004   -2.376367    1.014725
  H      0.827326   -2.757382    1.934063

 Total Charge           Charge          ....    0
 Multiplicity           Mult            ....    1
 Number of Electrons    NEL             ....   70
 Basis Dimension        Dim             ....  363

ORBITAL ENERGIES
----------------

  NO   OCC          E(Eh)            E(eV)
   0   2.0000     -20.552986      -559.2752
   1   2.0000     -11.279515      -306.9312
   2   2.0000     -11.225496      -305.4613
   3   2.0000     -11.220450      -305.3240
   4   2.0000     -11.218174      -305.2620
   5   2.0000     -11.217478      -305.2431
   6   2.0000     -11.216526      -305.2172
   7   2.0000     -11.215931      -305.2010
   8   2.0000     -11.203235      -304.8555
   9   2.0000      -1.364327       -37.1252
  10   2.0000      -1.160720       -31.5848
  11   2.0000      -1.025260       -27.8988
  12   2.0000      -0.990783       -26.9606
  13   2.0000      -0.964791       -26.2533
  14   2.0000      -0.909409       -24.7463
  15   2.0000      -0.819161       -22.2905
  16   2.0000      -0.753714       -20.5096
  17   2.0000      -0.722201       -19.6521
  18   2.0000      -0.672776       -18.3072
  19   2.0000      -0.643835       -17.5197
  20   2.0000      -0.627121       -17.0648
  21   2.0000      -0.598551       -16.2874
  22   2.0000      -0.586971       -15.9723
  23   2.0000      -0.555512       -15.1163
  24   2.0000      -0.550015       -14.9667
  25   2.0000      -0.545477       -14.8432
  26   2.0000      -0.539623       -14.6839
  27   2.0000      -0.523719       -14.2511
  28   2.0000      -0.487946       -13.2777
  29   2.0000      -0.477312       -12.9883
  30   2.0000      -0.471558       -12.8317
  31   2.0000      -0.464685       -12.6447
  32   2.0000      -0.458572       -12.4784
  33   2.0000      -0.374927       -10.2023
  34   2.0000      -0.368885       -10.0379
  35   0.0000       0.125875         3.4252
  36   0.0000       0.153143         4.1672
  37   0.0000       0.163761         4.4562
  38   0.0000       0.169027         4.5995
  39   0.0000       0.183384         4.9901

MULLIKEN ATOMIC CHARGES
-----------------------
   0 C :   -0.408591
   1 C :    0.160400
   2 O :   -0.473471
   3 C :   -0.176107
   4 C :   -0.233718
   5 C :   -0.257411
   6 C :   -0.259043
   7 C :    0.128026
   8 C :   -0.421698
   9 H :    0.126214
  10 H :    0.114902
  11 H :    0.143391
  12 H :    0.316090
  13 H :    0.126001
  14 H :    0.116245
  15 H :    0.110992
  16 H :    0.119156
  17 H :    0.121283
  18 H :    0.119601
  19 H :    0.122061
  20 H :    0.127347
  21 H :    0.155941
  22 H :    0.122391
Sum of atomic charges:    0.0000000

LOEWDIN ATOMIC CHARGES
----------------------
   0 C :   -0.272052
   1 C :   -0.321900
   2 O :    0.019024
   3 C :   -0.161857
   4 C :   -0.236062
   5 C :   -0.250292
   6 C :   -0.207384
   7 C :   -0.210008
   8 C :   -0.269712
   9 H :    0.128966
  10 H :    0.124720
  11 H :    0.131818
  12 H :    0.177812
  13 H :    0.147687
  14 H :    0.139706
  15 H :    0.134755
  16 H :    0.132155
  17 H :    0.127649
  18 H :    0.142672
  19 H :    0.138386
  20 H :    0.127320
  21 H :    0.132381
  22 H :    0.124216

  Mayer bond orders larger than 0.1
B(  0-C ,  1-C ) :   0.9180 B(  0-C ,  9-H ) :   0.9337 B(  0-C , 10-H ) :   0.9213
B(  0-C , 11-H ) :   0.9431 B(  1-C ,  2-O ) :   0.9429 B(  1-C ,  3-C ) :   0.9020
B(  1-C ,  7-C ) :   0.8720 B(  2-O , 12-H ) :   0.8430 B(  3-C ,  4-C ) :   0.9130
B(  3-C ,  7-C ) :   0.8134 B(  3-C , 13-H ) :   0.9278 B(  4-C ,  5-C ) :   0.9437
B(  4-C , 14-H ) :   0.9201 B(  4-C , 15-H ) :   0.9287 B(  5-C ,  6-C ) :   0.9362
B(  5-C , 16-H ) :   0.9338 B(  5-C , 17-H ) :   0.9379 B(  6-C ,  7-C ) :   0.9116
B(  6-C , 18-H ) :   0.9317 B(  6-C , 19-H ) :   0.9331 B(  7-C ,  8-C ) :   0.8938
B(  8-C , 20-H ) :   0.9383 B(  8-C , 21-H ) :   0.9318 B(  8-C , 22-H ) :   0.9361

MP2 TOTAL ENERGY:     -387.624855314 Eh
FINAL SINGLE POINT ENERGY      -387.624855314186

DIPOLE MOMENT
-------------
                                X             Y             Z
Electronic contribution:     -2.86547      -1.29951      -2.19442
Nuclear contribution   :      3.24364       1.56713       1.85440
                        -----------------------------------------
Total Dipole Moment    :      0.37817       0.26762      -0.34002
                        -----------------------------------------
Magnitude (a.u.)       :      0.57467
Magnitude (Debye)      :      1.46069

                             ****ORCA TERMINATED NORMALLY****
TOTAL RUN TIME: 0 days 0 hours 23 minutes 26 seconds 780 msec
