                         Program Version 3.0.3 - RELEASE   -
|  1> ! RI-MP2 RIJK def2-TZVP def2-TZVP/C def2-TZVP/JK TIGHTSCF
|  2> % maxcore 2000
|  3> % mp2 density relaxed end
|  4> *xyz 0 1
|  5>  C        0.0654745035     1.5498661316     0.1239019898
|  6>  O        1.5003241150     1.4353657919    -0.1054105171
|  7>  C        1.2975319831     0.1041460944    -0.6422068635
|  8>  C        2.2128701951    -1.0548334758    -0.2897425211
|  9>  C        1.3096450185    -2.3277145881    -0.2897961036
| 10>  C       -0.1008504874    -2.0433058533     0.2930501805
| 11>  C       -0.0042550095    -0.8714049312     1.3083533388
| 12>  C       -0.0665729621     0.0237981418     0.0505945641
| 13>  C       -0.9395868139    -1.0637000964    -0.6041416640
| 14>  H       -0.1587190526     2.0320362168     1.0809920999
| 15>  H       -0.4282742140     2.0989095412    -0.6909068024
| 16>  H        1.1730671584     0.1726244342    -1.7361427761
| 17>  H        3.0497115607    -1.1676766130    -0.9849102078
| 18>  H        2.6403600389    -0.8925590248     0.7034745889
| 19>  H        1.2107640541    -2.7197851643    -1.3094405480
| 20>  H        1.7968205661    -3.1135840826     0.2972082588
| 21>  H       -0.5928509916    -2.9664606688     0.6062259023
| 22>  H       -0.9210131623    -0.7744674569     1.8978486293
| 23>  H        0.8593520974    -0.8044635716     1.9736939969
| 24>  H       -0.8777789016    -1.1683241504    -1.6920592603
| 25>  H       -1.9885862059    -1.0498016647    -0.2933562054
| 26> *
| 27>
| 28>                          ****END OF INPUT****

CARTESIAN COORDINATES (ANGSTROEM)
---------------------------------
  C      0.065475    1.549866    0.123902
  O      1.500324    1.435366   -0.105411
  C      1.297532    0.104146   -0.642207
  C      2.212870   -1.054833   -0.289743
  C      1.309645   -2.327715   -0.289796
  C     -0.100850   -2.043306    0.293050
  C     -0.004255   -0.871405    1.308353
  C     -0.066573    0.023798    0.050595
  C     -0.939587   -1.063700   -0.604142
  H     -0.158719    2.032036    1.080992
  H     -0.428274    2.098910   -0.690907
  H      1.173067    0.172624   -1.736143
  H      3.049712   -1.167677   -0.984910
  H      2.640360   -0.892559    0.703475
  H      1.210764   -2.719785   -1.309441
  H      1.796821   -3.113584    0.297208
  H     -0.592851   -2.966461    0.606226
  H     -0.921013   -0.774467    1.897849
  H      0.859352   -0.804464    1.973694
  H     -0.877779   -1.168324   -1.692059
  H     -1.988586   -1.049802   -0.293356

 Total Charge           Charge          ....    0
 Multiplicity           Mult            ....    1
 Number of Electrons    NEL             ....   68
 Basis Dimension        Dim             ....  351

ORBITAL ENERGIES
----------------

  NO   OCC          E(Eh)            E(eV)
   0   2.0000     -20.542611      -558.9929
   1   2.0000     -11.274532      -306.7956
   2   2.0000     -11.270798      -306.6940
   3   2.0000     -11.236575      -305.7628
   4   2.0000     -11.234035      -305.6936
   5   2.0000     -11.228050      -305.5308
   6   2.0000     -11.228013      -305.5298
   7   2.0000     -11.221644      -305.3565
   8   2.0000     -11.220949      -305.3375
   9   2.0000      -1.369853       -37.2756
  10   2.0000      -1.163174       -31.6516
  11   2.0000      -1.035095       -28.1664
  12   2.0000      -0.972165       -26.4540
  13   2.0000      -0.921458       -25.0742
  14   2.0000      -0.903652       -24.5896
  15   2.0000      -0.829411       -22.5694
  16   2.0000      -0.772432       -21.0189
  17   2.0000      -0.715613       -19.4728
  18   2.0000      -0.679046       -18.4778
  19   2.0000      -0.657077       -17.8800
  20   2.0000      -0.635400       -17.2901
  21   2.0000      -0.608649       -16.5622
  22   2.0000      -0.573147       -15.5961
  23   2.0000      -0.568261       -15.4632
  24   2.0000      -0.541008       -14.7216
  25   2.0000      -0.529564       -14.4102
  26   2.0000      -0.510796       -13.8995
  27   2.0000      -0.498358       -13.5610
  28   2.0000      -0.481866       -13.1123
  29   2.0000      -0.464567       -12.6415
  30   2.0000      -0.438768       -11.9395
  31   2.0000      -0.428068       -11.6483
  32   2.0000      -0.408210       -11.1080
  33   2.0000      -0.393747       -10.7144
  34   0.0000       0.133397         3.6299
  35   0.0000       0.156083         4.2472
  36   0.0000       0.162258         4.4153
  37   0.0000       0.168515         4.5855
  38   0.0000       0.185092         5.0366

MULLIKEN ATOMIC CHARGES
-----------------------
   0 C :   -0.006646
   1 O :   -0.322454
   2 C :   -0.015225
   3 C :   -0.209580
   4 C :   -0.318662
   5 C :    0.037310
   6 C :   -0.329827
   7 C :    0.104771
   8 C :   -0.302428
   9 H :    0.106804
  10 H :    0.089664
  11 H :    0.071935
  12 H :    0.132780
  13 H :    0.124284
  14 H :    0.120544
  15 H :    0.125216
  16 H :    0.117445
  17 H :    0.117643
  18 H :    0.123518
  19 H :    0.116218
  20 H :    0.116688
Sum of atomic charges:    0.0000000

LOEWDIN ATOMIC CHARGES
----------------------
   0 C :   -0.230522
   1 O :    0.127038
   2 C :   -0.248697
   3 C :   -0.234648
   4 C :   -0.224779
   5 C :   -0.205767
   6 C :   -0.176607
   7 C :   -0.231517
   8 C :   -0.181183
   9 H :    0.120752
  10 H :    0.120428
  11 H :    0.140414
  12 H :    0.135561
  13 H :    0.142737
  14 H :    0.137804
  15 H :    0.139264
  16 H :    0.135587
  17 H :    0.140104
  18 H :    0.130939
  19 H :    0.126861
  20 H :    0.136231

  Mayer bond orders larger than 0.1
B(  0-C ,  1-O ) :   0.9435 B(  0-C ,  7-C ) :   0.9622 B(  0-C ,  9-H ) :   0.9121
B(  0-C , 10-H ) :   0.8992 B(  1-O ,  2-C ) :   1.0209 B(  2-C ,  3-C ) :   0.8894
B(  2-C ,  7-C ) :   0.9167 B(  2-C , 11-H ) :   0.9427 B(  3-C ,  4-C ) :   0.9204
B(  3-C , 12-H ) :   0.9324 B(  3-C , 13-H ) :   0.9232 B(  4-C ,  5-C ) :   0.8799
B(  4-C , 14-H ) :   0.9340 B(  4-C , 15-H ) :   0.9266 B(  5-C ,  6-C ) :   0.9241
B(  5-C ,  8-C ) :   0.9077 B(  5-C , 16-H ) :   0.9299 B(  6-C ,  7-C ) :   0.8946
B(  6-C , 17-H ) :   0.9158 B(  6-C , 18-H ) :   0.9171 B(  7-C ,  8-C ) :   0.8767
B(  8-C , 19-H ) :   0.9229 B(  8-C , 20-H ) :   0.9120

MP2 TOTAL ENERGY:     -386.388848828 Eh
FINAL SINGLE POINT ENERGY      -386.388848827857

DIPOLE MOMENT
-------------
                                X             Y             Z
Electronic contribution:      0.87532       4.01695      -0.10039
Nuclear contribution   :     -1.39266      -4.63305       0.08126
                        -----------------------------------------
Total Dipole Moment    :     -0.51734      -0.61610      -0.01914
                        -----------------------------------------
Magnitude (a.u.)       :      0.80473
Magnitude (Debye)      :      2.04546

                             ****ORCA TERMINATED NORMALLY****
TOTAL RUN TIME: 0 days 0 hours 20 minutes 38 seconds 761 msec
