                         Program Version 3.0.3 - RELEASE   -
|  1> ! RI-MP2 RIJK def2-TZVP def2-TZVP/C def2-TZVP/JK TIGHTSCF
|  2> % maxcore 2000
|  3> % mp2 density relaxed end
|  4> *xyz 0 1
|  5>  N        0.0218903427     1.2276389554     0.4862573116
|  6>  C        0.0411508095    -0.0164919293    -0.0825734705
|  7>  O        1.0299559503    -0.5003096449    -0.5996897035
|  8>  C       -1.2380426670    -0.7045140636    -0.0374701014
|  9>  C       -2.2665830029    -1.3371215789    -0.0229884801
| 10>  C       -3.5065498750    -2.0621841254    -0.0210058159
| 11>  O       -4.6157393232    -1.3777945327     0.4983038888
| 12>  C       -3.7593858386    -3.0793913819    -1.1273006516
| 13>  C       -3.4988871819    -3.5422354003     0.2796117533
| 14>  H        0.9030710499     1.7058527976     0.5850103222
| 15>  H       -0.7589724546     1.5275384564     1.0443708989
| 16>  H       -4.8014540634    -0.6341748306    -0.0864874527
| 17>  H       -4.7805538676    -3.1218850469    -1.4886015073
| 18>  H       -2.9881953158    -3.2202661287    -1.8750030285
| 19>  H       -2.5480265505    -4.0063086686     0.5098726162
| 20>  H       -4.3442869319    -3.8897520776     0.8618378906
| 21> *
| 22>
| 23>                          ****END OF INPUT****

CARTESIAN COORDINATES (ANGSTROEM)
---------------------------------
  N      0.021890    1.227639    0.486257
  C      0.041151   -0.016492   -0.082573
  O      1.029956   -0.500310   -0.599690
  C     -1.238043   -0.704514   -0.037470
  C     -2.266583   -1.337122   -0.022988
  C     -3.506550   -2.062184   -0.021006
  O     -4.615739   -1.377795    0.498304
  C     -3.759386   -3.079391   -1.127301
  C     -3.498887   -3.542235    0.279612
  H      0.903071    1.705853    0.585010
  H     -0.758972    1.527538    1.044371
  H     -4.801454   -0.634175   -0.086487
  H     -4.780554   -3.121885   -1.488602
  H     -2.988195   -3.220266   -1.875003
  H     -2.548027   -4.006309    0.509873
  H     -4.344287   -3.889752    0.861838

 Total Charge           Charge          ....    0
 Multiplicity           Mult            ....    1
 Number of Electrons    NEL             ....   66
 Basis Dimension        Dim             ....  321

ORBITAL ENERGIES
----------------

  NO   OCC          E(Eh)            E(eV)
   0   2.0000     -20.583502      -560.1056
   1   2.0000     -20.529201      -558.6280
   2   2.0000     -15.591960      -424.2788
   3   2.0000     -11.380251      -309.6724
   4   2.0000     -11.327333      -308.2324
   5   2.0000     -11.263290      -306.4897
   6   2.0000     -11.250328      -306.1370
   7   2.0000     -11.249202      -306.1063
   8   2.0000     -11.246501      -306.0328
   9   2.0000      -1.395467       -37.9726
  10   2.0000      -1.392886       -37.9024
  11   2.0000      -1.221481       -33.2382
  12   2.0000      -1.158301       -31.5190
  13   2.0000      -1.056937       -28.7607
  14   2.0000      -0.913015       -24.8444
  15   2.0000      -0.853270       -23.2186
  16   2.0000      -0.844972       -22.9929
  17   2.0000      -0.762991       -20.7621
  18   2.0000      -0.747659       -20.3448
  19   2.0000      -0.695013       -18.9123
  20   2.0000      -0.679023       -18.4772
  21   2.0000      -0.644772       -17.5451
  22   2.0000      -0.623606       -16.9692
  23   2.0000      -0.594696       -16.1825
  24   2.0000      -0.589977       -16.0541
  25   2.0000      -0.546499       -14.8710
  26   2.0000      -0.539114       -14.6700
  27   2.0000      -0.474751       -12.9186
  28   2.0000      -0.457508       -12.4494
  29   2.0000      -0.451233       -12.2787
  30   2.0000      -0.424759       -11.5583
  31   2.0000      -0.409460       -11.1420
  32   2.0000      -0.375370       -10.2143
  33   0.0000       0.109976         2.9926
  34   0.0000       0.127107         3.4588
  35   0.0000       0.137894         3.7523
  36   0.0000       0.159334         4.3357
  37   0.0000       0.171961         4.6793

MULLIKEN ATOMIC CHARGES
-----------------------
   0 N :   -0.469004
   1 C :    0.219904
   2 O :   -0.318637
   3 C :    0.046319
   4 C :   -0.075625
   5 C :    0.140307
   6 O :   -0.461986
   7 C :   -0.279311
   8 C :   -0.243983
   9 H :    0.262933
  10 H :    0.266170
  11 H :    0.327391
  12 H :    0.141530
  13 H :    0.147274
  14 H :    0.152375
  15 H :    0.144343
Sum of atomic charges:   -0.0000000

LOEWDIN ATOMIC CHARGES
----------------------
   0 N :   -0.009429
   1 C :   -0.481377
   2 O :    0.106586
   3 C :   -0.018452
   4 C :   -0.008918
   5 C :   -0.357916
   6 O :    0.035533
   7 C :   -0.189941
   8 C :   -0.179018
   9 H :    0.175897
  10 H :    0.175927
  11 H :    0.186047
  12 H :    0.139151
  13 H :    0.140257
  14 H :    0.141673
  15 H :    0.143979

  Mayer bond orders larger than 0.1
B(  0-N ,  1-C ) :   1.2286 B(  0-N ,  3-C ) :  -0.1123 B(  0-N ,  9-H ) :   0.8598
B(  0-N , 10-H ) :   0.8662 B(  1-C ,  2-O ) :   2.0483 B(  1-C ,  3-C ) :   0.8675
B(  3-C ,  4-C ) :   2.7370 B(  3-C ,  5-C ) :  -0.1096 B(  4-C ,  5-C ) :   1.0833
B(  5-C ,  6-O ) :   0.9327 B(  5-C ,  7-C ) :   0.8647 B(  5-C ,  8-C ) :   0.8492
B(  6-O , 11-H ) :   0.8371 B(  7-C ,  8-C ) :   0.9203 B(  7-C , 12-H ) :   0.9223
B(  7-C , 13-H ) :   0.9172 B(  8-C , 14-H ) :   0.9293 B(  8-C , 15-H ) :   0.9221

MP2 TOTAL ENERGY:     -437.138903057 Eh
FINAL SINGLE POINT ENERGY      -437.138903057061

DIPOLE MOMENT
-------------
                                X             Y             Z
Electronic contribution:      4.18549       3.49587       0.29982
Nuclear contribution   :     -5.12129      -2.83545      -0.02878
                        -----------------------------------------
Total Dipole Moment    :     -0.93580       0.66042       0.27103
                        -----------------------------------------
Magnitude (a.u.)       :      1.17701
Magnitude (Debye)      :      2.99171

                             ****ORCA TERMINATED NORMALLY****
TOTAL RUN TIME: 0 days 0 hours 13 minutes 26 seconds 96 msec
