                         Program Version 3.0.3 - RELEASE   -
|  1> ! RI-MP2 RIJK def2-TZVP def2-TZVP/C def2-TZVP/JK TIGHTSCF
|  2> % maxcore 2000
|  3> % mp2 density relaxed end
|  4> *xyz 0 1
|  5>  C       -0.0294685283     1.5875712516    -0.0003122086
|  6>  C        0.0242465343     0.0611681183     0.0848534948
|  7>  O        0.7259475199    -0.3676883718     1.2543684453
|  8>  C       -1.3601184778    -0.5720174456     0.0137533471
|  9>  C       -2.1726651307    -0.4852273597    -1.3086139745
| 10>  C       -2.6667398350    -1.9352573954    -1.0593277477
| 11>  C       -1.5129441047    -2.1306608274    -0.0289787194
| 12>  C       -0.3138070819    -2.9028468101    -0.5736584352
| 13>  H        0.9781991156     2.0072359532     0.0634405855
| 14>  H       -0.4860302516     1.9178426387    -0.9390421608
| 15>  H       -0.6252371176     2.0013085240     0.8233411599
| 16>  H        0.6351731942    -0.3150913203    -0.7443168726
| 17>  H        0.2180780128    -0.0759657521     2.0198188300
| 18>  H       -1.9630190233    -0.1733278246     0.8422470660
| 19>  H       -2.9257842198     0.3021622918    -1.3897143828
| 20>  H       -1.5152149550    -0.4198637645    -2.1818313278
| 21>  H       -3.6536106449    -1.9573832110    -0.5885897649
| 22>  H       -2.6786032499    -2.6138822807    -1.9168311841
| 23>  H       -1.8180692924    -2.5740211081     0.9235178991
| 24>  H       -0.0069117897    -2.5386588646    -1.5609956536
| 25>  H        0.5440744355    -2.8164186298     0.0989658564
| 26>  H       -0.5634184195    -3.9638350618    -0.6834279321
| 27> *
| 28>
| 29>                          ****END OF INPUT****

CARTESIAN COORDINATES (ANGSTROEM)
---------------------------------
  C     -0.029469    1.587571   -0.000312
  C      0.024247    0.061168    0.084853
  O      0.725948   -0.367688    1.254368
  C     -1.360118   -0.572017    0.013753
  C     -2.172665   -0.485227   -1.308614
  C     -2.666740   -1.935257   -1.059328
  C     -1.512944   -2.130661   -0.028979
  C     -0.313807   -2.902847   -0.573658
  H      0.978199    2.007236    0.063441
  H     -0.486030    1.917843   -0.939042
  H     -0.625237    2.001309    0.823341
  H      0.635173   -0.315091   -0.744317
  H      0.218078   -0.075966    2.019819
  H     -1.963019   -0.173328    0.842247
  H     -2.925784    0.302162   -1.389714
  H     -1.515215   -0.419864   -2.181831
  H     -3.653611   -1.957383   -0.588590
  H     -2.678603   -2.613882   -1.916831
  H     -1.818069   -2.574021    0.923518
  H     -0.006912   -2.538659   -1.560996
  H      0.544074   -2.816419    0.098966
  H     -0.563418   -3.963835   -0.683428

 Total Charge           Charge          ....    0
 Multiplicity           Mult            ....    1
 Number of Electrons    NEL             ....   64
 Basis Dimension        Dim             ....  332

ORBITAL ENERGIES
----------------

  NO   OCC          E(Eh)            E(eV)
   0   2.0000     -20.548793      -559.1611
   1   2.0000     -11.273526      -306.7682
   2   2.0000     -11.222503      -305.3798
   3   2.0000     -11.221942      -305.3646
   4   2.0000     -11.219951      -305.3104
   5   2.0000     -11.216090      -305.2053
   6   2.0000     -11.215127      -305.1791
   7   2.0000     -11.205340      -304.9128
   8   2.0000      -1.353920       -36.8420
   9   2.0000      -1.133614       -30.8472
  10   2.0000      -1.017815       -27.6961
  11   2.0000      -0.970639       -26.4124
  12   2.0000      -0.906272       -24.6609
  13   2.0000      -0.849161       -23.1069
  14   2.0000      -0.817917       -22.2567
  15   2.0000      -0.732275       -19.9262
  16   2.0000      -0.664979       -18.0950
  17   2.0000      -0.658761       -17.9258
  18   2.0000      -0.619847       -16.8669
  19   2.0000      -0.613142       -16.6844
  20   2.0000      -0.575337       -15.6557
  21   2.0000      -0.557125       -15.1601
  22   2.0000      -0.543304       -14.7840
  23   2.0000      -0.538298       -14.6478
  24   2.0000      -0.522631       -14.2215
  25   2.0000      -0.518438       -14.1074
  26   2.0000      -0.490612       -13.3502
  27   2.0000      -0.467047       -12.7090
  28   2.0000      -0.457993       -12.4626
  29   2.0000      -0.438121       -11.9219
  30   2.0000      -0.422078       -11.4853
  31   2.0000      -0.404502       -11.0071
  32   0.0000       0.129287         3.5181
  33   0.0000       0.145217         3.9516
  34   0.0000       0.154208         4.1962
  35   0.0000       0.165858         4.5132
  36   0.0000       0.193444         5.2639

MULLIKEN ATOMIC CHARGES
-----------------------
   0 C :   -0.383961
   1 C :    0.130050
   2 O :   -0.476902
   3 C :   -0.168014
   4 C :   -0.286379
   5 C :   -0.211224
   6 C :    0.042480
   7 C :   -0.483185
   8 H :    0.145947
   9 H :    0.130022
  10 H :    0.110884
  11 H :    0.083535
  12 H :    0.307895
  13 H :    0.090137
  14 H :    0.119112
  15 H :    0.113994
  16 H :    0.114053
  17 H :    0.110422
  18 H :    0.095363
  19 H :    0.125382
  20 H :    0.157513
  21 H :    0.132876
Sum of atomic charges:   -0.0000000

LOEWDIN ATOMIC CHARGES
----------------------
   0 C :   -0.300074
   1 C :   -0.359823
   2 O :   -0.024275
   3 C :   -0.213003
   4 C :   -0.221295
   5 C :   -0.222973
   6 C :   -0.229561
   7 C :   -0.298007
   8 H :    0.125788
   9 H :    0.127103
  10 H :    0.120465
  11 H :    0.146200
  12 H :    0.172281
  13 H :    0.149505
  14 H :    0.122968
  15 H :    0.134882
  16 H :    0.132031
  17 H :    0.124799
  18 H :    0.137927
  19 H :    0.122061
  20 H :    0.129609
  21 H :    0.123393

  Mayer bond orders larger than 0.1
B(  0-C ,  1-C ) :   0.9281 B(  0-C ,  8-H ) :   0.9445 B(  0-C ,  9-H ) :   0.9338
B(  0-C , 10-H ) :   0.9227 B(  1-C ,  2-O ) :   0.8719 B(  1-C ,  3-C ) :   0.9542
B(  1-C , 11-H ) :   0.9085 B(  2-O , 12-H ) :   0.8447 B(  3-C ,  4-C ) :   0.9305
B(  3-C ,  6-C ) :   0.8966 B(  3-C , 13-H ) :   0.9072 B(  4-C ,  5-C ) :   0.9421
B(  4-C , 14-H ) :   0.9248 B(  4-C , 15-H ) :   0.9248 B(  5-C ,  6-C ) :   0.9021
B(  5-C , 16-H ) :   0.9260 B(  5-C , 17-H ) :   0.9256 B(  6-C ,  7-C ) :   0.8939
B(  6-C , 18-H ) :   0.9260 B(  7-C , 19-H ) :   0.9377 B(  7-C , 20-H ) :   0.9381
B(  7-C , 21-H ) :   0.9350

MP2 TOTAL ENERGY:     -349.598141784 Eh
FINAL SINGLE POINT ENERGY      -349.598141784434

DIPOLE MOMENT
-------------
                                X             Y             Z
Electronic contribution:      1.07475       0.01833       2.63425
Nuclear contribution   :     -1.61281       0.26862      -2.62212
                        -----------------------------------------
Total Dipole Moment    :     -0.53806       0.28696       0.01213
                        -----------------------------------------
Magnitude (a.u.)       :      0.60992
Magnitude (Debye)      :      1.55030

                             ****ORCA TERMINATED NORMALLY****
TOTAL RUN TIME: 0 days 0 hours 14 minutes 47 seconds 148 msec
