                         Program Version 3.0.3 - RELEASE   -
|  1> ! RI-MP2 RIJK def2-TZVP def2-TZVP/C def2-TZVP/JK TIGHTSCF
|  2> % maxcore 2000
|  3> % mp2 density relaxed end
|  4> *xyz 0 1
|  5>  C       -0.7390675655    -0.0541725958     1.3377269263
|  6>  C       -0.1705098381     0.3086837787     0.3426859743
|  7>  C        0.5302871677     0.7668840025    -0.8502254964
|  8>  C        1.6888315437     1.7039992495    -0.5552359078
|  9>  C        2.6132906119     1.5367667132     0.6327689511
| 10>  C        1.7678983665     2.7741349458     0.5211498814
| 11>  O        2.3715855623     3.8977190177    -0.1100083311
| 12>  C        2.6499748788     3.4792219404    -1.3705406769
| 13>  N        2.3035668246     2.3069460341    -1.7233083252
| 14>  H       -1.2526175492    -0.3860371351     2.2059845977
| 15>  H        0.9141927749    -0.0937309546    -1.4128221741
| 16>  H       -0.1720467396     1.2798261732    -1.5190646896
| 17>  H        2.2958296566     0.8324749710     1.3935291587
| 18>  H        3.6829150283     1.6074136799     0.4664235813
| 19>  H        1.0117576446     3.0431668499     1.2460699355
| 20>  H        3.1575021324     4.2076591997    -1.9909415751
| 21> *
| 22>
| 23>                          ****END OF INPUT****

CARTESIAN COORDINATES (ANGSTROEM)
---------------------------------
  C     -0.739068   -0.054173    1.337727
  C     -0.170510    0.308684    0.342686
  C      0.530287    0.766884   -0.850225
  C      1.688832    1.703999   -0.555236
  C      2.613291    1.536767    0.632769
  C      1.767898    2.774135    0.521150
  O      2.371586    3.897719   -0.110008
  C      2.649975    3.479222   -1.370541
  N      2.303567    2.306946   -1.723308
  H     -1.252618   -0.386037    2.205985
  H      0.914193   -0.093731   -1.412822
  H     -0.172047    1.279826   -1.519065
  H      2.295830    0.832475    1.393529
  H      3.682915    1.607414    0.466424
  H      1.011758    3.043167    1.246070
  H      3.157502    4.207659   -1.990942

 Total Charge           Charge          ....    0
 Multiplicity           Mult            ....    1
 Number of Electrons    NEL             ....   64
 Basis Dimension        Dim             ....  321

ORBITAL ENERGIES
----------------

  NO   OCC          E(Eh)            E(eV)
   0   2.0000     -20.608588      -560.7882
   1   2.0000     -15.559265      -423.3891
   2   2.0000     -11.339727      -308.5696
   3   2.0000     -11.298872      -307.4579
   4   2.0000     -11.283920      -307.0511
   5   2.0000     -11.262290      -306.4625
   6   2.0000     -11.242356      -305.9201
   7   2.0000     -11.237827      -305.7968
   8   2.0000     -11.228851      -305.5526
   9   2.0000      -1.456038       -39.6208
  10   2.0000      -1.236242       -33.6398
  11   2.0000      -1.135428       -30.8966
  12   2.0000      -1.063749       -28.9461
  13   2.0000      -0.978464       -26.6254
  14   2.0000      -0.891101       -24.2481
  15   2.0000      -0.824104       -22.4250
  16   2.0000      -0.783790       -21.3280
  17   2.0000      -0.737693       -20.0737
  18   2.0000      -0.712745       -19.3948
  19   2.0000      -0.665220       -18.1016
  20   2.0000      -0.645076       -17.5534
  21   2.0000      -0.613288       -16.6884
  22   2.0000      -0.609880       -16.5957
  23   2.0000      -0.596689       -16.2367
  24   2.0000      -0.586521       -15.9601
  25   2.0000      -0.541358       -14.7311
  26   2.0000      -0.495452       -13.4819
  27   2.0000      -0.470615       -12.8061
  28   2.0000      -0.407099       -11.0777
  29   2.0000      -0.400482       -10.8977
  30   2.0000      -0.389382       -10.5956
  31   2.0000      -0.370741       -10.0884
  32   0.0000       0.148446         4.0394
  33   0.0000       0.152976         4.1627
  34   0.0000       0.159530         4.3410
  35   0.0000       0.169196         4.6041
  36   0.0000       0.176338         4.7984

MULLIKEN ATOMIC CHARGES
-----------------------
   0 C :   -0.168282
   1 C :   -0.062212
   2 C :   -0.264068
   3 C :    0.090797
   4 C :   -0.263877
   5 C :    0.014576
   6 O :   -0.255633
   7 C :    0.095272
   8 N :   -0.278741
   9 H :    0.192038
  10 H :    0.151447
  11 H :    0.146219
  12 H :    0.153911
  13 H :    0.146461
  14 H :    0.152214
  15 H :    0.149878
Sum of atomic charges:   -0.0000000

LOEWDIN ATOMIC CHARGES
----------------------
   0 C :   -0.103042
   1 C :   -0.104733
   2 C :   -0.202656
   3 C :   -0.264499
   4 C :   -0.180254
   5 C :   -0.221789
   6 O :    0.257060
   7 C :   -0.329396
   8 N :    0.117497
   9 H :    0.127558
  10 H :    0.167981
  11 H :    0.166480
  12 H :    0.149883
  13 H :    0.142338
  14 H :    0.142921
  15 H :    0.134651

  Mayer bond orders larger than 0.1
B(  0-C ,  1-C ) :   2.6180 B(  0-C ,  9-H ) :   0.9033 B(  1-C ,  2-C ) :   1.0371
B(  2-C ,  3-C ) :   0.8828 B(  2-C , 10-H ) :   0.9196 B(  2-C , 11-H ) :   0.9222
B(  3-C ,  4-C ) :   0.8744 B(  3-C ,  5-C ) :   0.9060 B(  3-C ,  8-N ) :   0.9737
B(  4-C ,  5-C ) :   0.8803 B(  4-C , 12-H ) :   0.9166 B(  4-C , 13-H ) :   0.9029
B(  5-C ,  6-O ) :   0.8955 B(  5-C , 14-H ) :   0.9122 B(  6-O ,  7-C ) :   1.0756
B(  7-C ,  8-N ) :   1.7868 B(  7-C , 15-H ) :   0.9237

MP2 TOTAL ENERGY:     -400.006549968 Eh
FINAL SINGLE POINT ENERGY      -400.006549967551

DIPOLE MOMENT
-------------
                                X             Y             Z
Electronic contribution:      0.61598       2.68511      -1.25877
Nuclear contribution   :     -0.70457      -2.67911       1.70292
                        -----------------------------------------
Total Dipole Moment    :     -0.08860       0.00600       0.44415
                        -----------------------------------------
Magnitude (a.u.)       :      0.45294
Magnitude (Debye)      :      1.15129

                             ****ORCA TERMINATED NORMALLY****
TOTAL RUN TIME: 0 days 0 hours 15 minutes 48 seconds 285 msec
