                         Program Version 3.0.3 - RELEASE   -
|  1> ! RI-MP2 RIJK def2-TZVP def2-TZVP/C def2-TZVP/JK TIGHTSCF
|  2> % maxcore 2000
|  3> % mp2 density relaxed end
|  4> *xyz 0 1
|  5>  C       -0.0106242600     1.3527592070    -0.0241712294
|  6>  O       -0.0406190062    -0.0653186450    -0.1303044673
|  7>  C        0.6793639791    -0.5978601261    -1.1630244325
|  8>  C        2.2026699596    -0.3112919647    -1.3159251230
|  9>  C        2.3611369706    -1.0812777069    -2.6160696762
| 10>  C        1.3512101321    -2.2376093718    -2.5815750482
| 11>  C        0.6106886798    -2.1366058725    -1.2574150251
| 12>  C        1.0124110668    -0.9436659738    -3.2881336934
| 13>  O        0.1643791113    -0.1833962807    -2.4557931498
| 14>  H        0.9840438145     1.7151492491     0.2658233246
| 15>  H       -0.3078853221     1.8260701943    -0.9652623704
| 16>  H       -0.7243722922     1.6168696617     0.7583217472
| 17>  H        2.4190358201     0.7540119026    -1.4288403235
| 18>  H        2.7772742282    -0.7178572863    -0.4796223469
| 19>  H        3.2888544101    -1.1347635759    -3.1696038521
| 20>  H        1.5152739516    -3.1687578489    -3.1062410727
| 21>  H        1.1192489146    -2.6219966967    -0.4209286611
| 22>  H       -0.4258955441    -2.4782802270    -1.3097390774
| 23>  H        0.8409420862    -0.8224147282    -4.3482485427
| 24> *
| 25>
| 26>                          ****END OF INPUT****

CARTESIAN COORDINATES (ANGSTROEM)
---------------------------------
  C     -0.010624    1.352759   -0.024171
  O     -0.040619   -0.065319   -0.130304
  C      0.679364   -0.597860   -1.163024
  C      2.202670   -0.311292   -1.315925
  C      2.361137   -1.081278   -2.616070
  C      1.351210   -2.237609   -2.581575
  C      0.610689   -2.136606   -1.257415
  C      1.012411   -0.943666   -3.288134
  O      0.164379   -0.183396   -2.455793
  H      0.984044    1.715149    0.265823
  H     -0.307885    1.826070   -0.965262
  H     -0.724372    1.616870    0.758322
  H      2.419036    0.754012   -1.428840
  H      2.777274   -0.717857   -0.479622
  H      3.288854   -1.134764   -3.169604
  H      1.515274   -3.168758   -3.106241
  H      1.119249   -2.621997   -0.420929
  H     -0.425896   -2.478280   -1.309739
  H      0.840942   -0.822415   -4.348249

 Total Charge           Charge          ....    0
 Multiplicity           Mult            ....    1
 Number of Electrons    NEL             ....   68
 Basis Dimension        Dim             ....  339

ORBITAL ENERGIES
----------------

  NO   OCC          E(Eh)            E(eV)
   0   2.0000     -20.565626      -559.6191
   1   2.0000     -20.554197      -559.3081
   2   2.0000     -11.335503      -308.4547
   3   2.0000     -11.279390      -306.9278
   4   2.0000     -11.270319      -306.6810
   5   2.0000     -11.233956      -305.6915
   6   2.0000     -11.232600      -305.6546
   7   2.0000     -11.227409      -305.5133
   8   2.0000     -11.222864      -305.3896
   9   2.0000      -1.426516       -38.8175
  10   2.0000      -1.361541       -37.0494
  11   2.0000      -1.150733       -31.3130
  12   2.0000      -1.020476       -27.7686
  13   2.0000      -0.981343       -26.7037
  14   2.0000      -0.927960       -25.2511
  15   2.0000      -0.801774       -21.8174
  16   2.0000      -0.774355       -21.0713
  17   2.0000      -0.763034       -20.7632
  18   2.0000      -0.727610       -19.7993
  19   2.0000      -0.657850       -17.9010
  20   2.0000      -0.655148       -17.8275
  21   2.0000      -0.620903       -16.8956
  22   2.0000      -0.608940       -16.5701
  23   2.0000      -0.600928       -16.3521
  24   2.0000      -0.583585       -15.8802
  25   2.0000      -0.539968       -14.6933
  26   2.0000      -0.525790       -14.3075
  27   2.0000      -0.514468       -13.9994
  28   2.0000      -0.506960       -13.7951
  29   2.0000      -0.495926       -13.4948
  30   2.0000      -0.453552       -12.3418
  31   2.0000      -0.422352       -11.4928
  32   2.0000      -0.399957       -10.8834
  33   2.0000      -0.375612       -10.2209
  34   0.0000       0.142144         3.8679
  35   0.0000       0.164330         4.4716
  36   0.0000       0.169462         4.6113
  37   0.0000       0.182558         4.9677
  38   0.0000       0.194799         5.3008

MULLIKEN ATOMIC CHARGES
-----------------------
   0 C :   -0.235316
   1 O :   -0.286341
   2 C :    0.234972
   3 C :   -0.225677
   4 C :   -0.163066
   5 C :   -0.174806
   6 C :   -0.155180
   7 C :    0.006447
   8 O :   -0.301968
   9 H :    0.116396
  10 H :    0.147728
  11 H :    0.143898
  12 H :    0.121409
  13 H :    0.124881
  14 H :    0.134776
  15 H :    0.134923
  16 H :    0.119924
  17 H :    0.119241
  18 H :    0.137759
Sum of atomic charges:   -0.0000000

LOEWDIN ATOMIC CHARGES
----------------------
   0 C :   -0.329840
   1 O :    0.209301
   2 C :   -0.427089
   3 C :   -0.194287
   4 C :   -0.182299
   5 C :   -0.179972
   6 C :   -0.180321
   7 C :   -0.247039
   8 O :    0.208962
   9 H :    0.103575
  10 H :    0.111858
  11 H :    0.114532
  12 H :    0.141387
  13 H :    0.142863
  14 H :    0.141117
  15 H :    0.141568
  16 H :    0.143219
  17 H :    0.145547
  18 H :    0.136918

  Mayer bond orders larger than 0.1
B(  0-C ,  1-O ) :   0.8730 B(  0-C ,  9-H ) :   0.9333 B(  0-C , 10-H ) :   0.9363
B(  0-C , 11-H ) :   0.9410 B(  1-O ,  2-C ) :   1.1178 B(  2-C ,  3-C ) :   0.9341
B(  2-C ,  6-C ) :   0.9305 B(  2-C ,  8-O ) :   0.8930 B(  3-C ,  4-C ) :   0.9647
B(  3-C , 12-H ) :   0.9151 B(  3-C , 13-H ) :   0.9226 B(  4-C ,  5-C ) :   0.8259
B(  4-C ,  7-C ) :   0.8598 B(  4-C , 14-H ) :   0.9238 B(  5-C ,  6-C ) :   0.9746
B(  5-C ,  7-C ) :   0.8666 B(  5-C , 15-H ) :   0.9280 B(  6-C , 16-H ) :   0.9178
B(  6-C , 17-H ) :   0.9177 B(  7-C ,  8-O ) :   0.9802 B(  7-C , 18-H ) :   0.9351

MP2 TOTAL ENERGY:     -422.316381365 Eh
FINAL SINGLE POINT ENERGY      -422.316381364944

DIPOLE MOMENT
-------------
                                X             Y             Z
Electronic contribution:     -1.77547      -1.27296      -1.84935
Nuclear contribution   :      2.41308       1.28709       1.76351
                        -----------------------------------------
Total Dipole Moment    :      0.63761       0.01413      -0.08584
                        -----------------------------------------
Magnitude (a.u.)       :      0.64351
Magnitude (Debye)      :      1.63568

                             ****ORCA TERMINATED NORMALLY****
TOTAL RUN TIME: 0 days 0 hours 17 minutes 37 seconds 891 msec
