                         Program Version 3.0.3 - RELEASE   -
|  1> ! RI-MP2 RIJK def2-TZVP def2-TZVP/C def2-TZVP/JK TIGHTSCF
|  2> % maxcore 2000
|  3> % mp2 density relaxed end
|  4> *xyz 0 1
|  5>  O        0.4260203623     1.4574383849     1.7149485892
|  6>  C        0.2274756747     1.6598335400     0.5307825108
|  7>  C       -1.2044402402     1.8324845245     0.0284120939
|  8>  C       -1.6617452126     3.3046543116    -0.0102707503
|  9>  C       -1.0275038880     4.2505420375    -0.9957906737
| 10>  C       -0.2235021058     4.0194348585    -2.0328470018
| 11>  C        0.3239330352     2.6898995665    -2.5229128133
| 12>  C        1.4433284266     2.1370535837    -1.6627607040
| 13>  C        1.3866947408     1.7168339578    -0.3927661881
| 14>  H       -1.3463902017     1.3515620862    -0.9417553297
| 15>  H       -1.8320589180     1.3070199933     0.7530188743
| 16>  H       -2.7480018265     3.3157819139    -0.1811181368
| 17>  H       -1.5317487549     3.7243318884     0.9963095024
| 18>  H       -1.2950011574     5.2906611621    -0.8129076992
| 19>  H        0.1152115170     4.8836845205    -2.5989618538
| 20>  H       -0.4796962901     1.9523363681    -2.6121648740
| 21>  H        0.7085639513     2.8279705128    -3.5365554189
| 22>  H        2.4217012306     2.1140165588    -2.1386326578
| 23>  H        2.3045435367     1.3969275411     0.0936103406
| 24> *
| 25>
| 26>                          ****END OF INPUT****

CARTESIAN COORDINATES (ANGSTROEM)
---------------------------------
  O      0.426020    1.457438    1.714949
  C      0.227476    1.659834    0.530783
  C     -1.204440    1.832485    0.028412
  C     -1.661745    3.304654   -0.010271
  C     -1.027504    4.250542   -0.995791
  C     -0.223502    4.019435   -2.032847
  C      0.323933    2.689900   -2.522913
  C      1.443328    2.137054   -1.662761
  C      1.386695    1.716834   -0.392766
  H     -1.346390    1.351562   -0.941755
  H     -1.832059    1.307020    0.753019
  H     -2.748002    3.315782   -0.181118
  H     -1.531749    3.724332    0.996310
  H     -1.295001    5.290661   -0.812908
  H      0.115212    4.883685   -2.598962
  H     -0.479696    1.952336   -2.612165
  H      0.708564    2.827971   -3.536555
  H      2.421701    2.114017   -2.138633
  H      2.304544    1.396928    0.093610

 Total Charge           Charge          ....    0
 Multiplicity           Mult            ....    1
 Number of Electrons    NEL             ....   66
 Basis Dimension        Dim             ....  339

ORBITAL ENERGIES
----------------

  NO   OCC          E(Eh)            E(eV)
   0   2.0000     -20.537734      -558.8601
   1   2.0000     -11.326531      -308.2106
   2   2.0000     -11.263459      -306.4943
   3   2.0000     -11.249563      -306.1162
   4   2.0000     -11.244739      -305.9849
   5   2.0000     -11.239493      -305.8421
   6   2.0000     -11.237820      -305.7966
   7   2.0000     -11.237601      -305.7907
   8   2.0000     -11.235307      -305.7282
   9   2.0000      -1.379430       -37.5362
  10   2.0000      -1.124481       -30.5987
  11   2.0000      -1.071258       -29.1504
  12   2.0000      -1.040312       -28.3083
  13   2.0000      -0.954284       -25.9674
  14   2.0000      -0.907048       -24.6820
  15   2.0000      -0.815924       -22.2024
  16   2.0000      -0.750028       -20.4093
  17   2.0000      -0.708811       -19.2877
  18   2.0000      -0.679894       -18.5009
  19   2.0000      -0.646535       -17.5931
  20   2.0000      -0.636528       -17.3208
  21   2.0000      -0.616960       -16.7883
  22   2.0000      -0.597603       -16.2616
  23   2.0000      -0.576370       -15.6838
  24   2.0000      -0.561284       -15.2733
  25   2.0000      -0.549109       -14.9420
  26   2.0000      -0.520173       -14.1546
  27   2.0000      -0.516082       -14.0433
  28   2.0000      -0.487772       -13.2729
  29   2.0000      -0.473382       -12.8814
  30   2.0000      -0.410923       -11.1818
  31   2.0000      -0.380196       -10.3457
  32   2.0000      -0.355722        -9.6797
  33   0.0000       0.085143         2.3169
  34   0.0000       0.128893         3.5074
  35   0.0000       0.146546         3.9877
  36   0.0000       0.152167         4.1407
  37   0.0000       0.163040         4.4365

MULLIKEN ATOMIC CHARGES
-----------------------
   0 O :   -0.295057
   1 C :    0.235156
   2 C :   -0.191540
   3 C :   -0.167687
   4 C :   -0.240270
   5 C :   -0.133242
   6 C :   -0.191843
   7 C :   -0.056793
   8 C :   -0.280724
   9 H :    0.115808
  10 H :    0.139573
  11 H :    0.135522
  12 H :    0.138185
  13 H :    0.120124
  14 H :    0.126038
  15 H :    0.136039
  16 H :    0.144791
  17 H :    0.134255
  18 H :    0.131666
Sum of atomic charges:   -0.0000000

LOEWDIN ATOMIC CHARGES
----------------------
   0 O :    0.146961
   1 C :   -0.316535
   2 C :   -0.222879
   3 C :   -0.246296
   4 C :   -0.175758
   5 C :   -0.172928
   6 C :   -0.242603
   7 C :   -0.125524
   8 C :   -0.144603
   9 H :    0.141113
  10 H :    0.152780
  11 H :    0.152384
  12 H :    0.154119
  13 H :    0.149340
  14 H :    0.145881
  15 H :    0.150575
  16 H :    0.147542
  17 H :    0.148858
  18 H :    0.157573

  Mayer bond orders larger than 0.1
B(  0-O ,  1-C ) :   1.9358 B(  1-C ,  2-C ) :   0.8748 B(  1-C ,  8-C ) :   1.0144
B(  2-C ,  3-C ) :   0.8967 B(  2-C ,  9-H ) :   0.9168 B(  2-C , 10-H ) :   0.9243
B(  3-C ,  4-C ) :   0.9340 B(  3-C , 11-H ) :   0.9109 B(  3-C , 12-H ) :   0.9189
B(  4-C ,  5-C ) :   1.8301 B(  4-C , 13-H ) :   0.9256 B(  5-C ,  6-C ) :   0.8861
B(  5-C , 14-H ) :   0.9226 B(  6-C ,  7-C ) :   0.8939 B(  6-C , 15-H ) :   0.9293
B(  6-C , 16-H ) :   0.9394 B(  7-C ,  8-C ) :   1.7117 B(  7-C , 17-H ) :   0.9192
B(  8-C , 18-H ) :   0.9228

MP2 TOTAL ENERGY:     -385.217351110 Eh
FINAL SINGLE POINT ENERGY      -385.217351110198

DIPOLE MOMENT
-------------
                                X             Y             Z
Electronic contribution:      2.73820      -2.19237       3.81854
Nuclear contribution   :     -3.00788       2.50281      -5.01361
                        -----------------------------------------
Total Dipole Moment    :     -0.26968       0.31044      -1.19507
                        -----------------------------------------
Magnitude (a.u.)       :      1.26384
Magnitude (Debye)      :      3.21242

                             ****ORCA TERMINATED NORMALLY****
TOTAL RUN TIME: 0 days 0 hours 19 minutes 54 seconds 469 msec
