                         Program Version 3.0.3 - RELEASE   -
|  1> ! RI-MP2 RIJK def2-TZVP def2-TZVP/C def2-TZVP/JK TIGHTSCF
|  2> % maxcore 2000
|  3> % mp2 density relaxed end
|  4> *xyz 0 1
|  5>  N       -0.0050224507     1.3184730793     0.0130707764
|  6>  C        0.0682996110    -0.0309913001     0.0024499648
|  7>  O        1.0887571861    -0.6911773300    -0.0123735086
|  8>  N       -1.1905711734    -0.6794776923     0.0130301957
|  9>  C       -1.2527670941    -2.1320815672     0.0087574451
| 10>  C       -2.7287183384    -2.3966313344     0.0193463818
| 11>  C       -3.4124304415    -1.2501868354     0.0278101914
| 12>  C       -2.4649334344    -0.1104876119     0.0235675870
| 13>  O       -2.7204577725     1.0815962237     0.0282172571
| 14>  H        0.8615109884     1.8259313190    -0.0034634240
| 15>  H       -0.9076507294     1.7773387798     0.0161790340
| 16>  H       -0.7548751410    -2.5470241634    -0.8756062616
| 17>  H       -0.7413225530    -2.5528563540     0.8825959549
| 18>  H       -3.1336948011    -3.4000804237     0.0196647005
| 19>  H       -4.4821053759    -1.0994096495     0.0363440553
| 20> *
| 21>
| 22>                          ****END OF INPUT****

CARTESIAN COORDINATES (ANGSTROEM)
---------------------------------
  N     -0.005022    1.318473    0.013071
  C      0.068300   -0.030991    0.002450
  O      1.088757   -0.691177   -0.012374
  N     -1.190571   -0.679478    0.013030
  C     -1.252767   -2.132082    0.008757
  C     -2.728718   -2.396631    0.019346
  C     -3.412430   -1.250187    0.027810
  C     -2.464933   -0.110488    0.023568
  O     -2.720458    1.081596    0.028217
  H      0.861511    1.825931   -0.003463
  H     -0.907651    1.777339    0.016179
  H     -0.754875   -2.547024   -0.875606
  H     -0.741323   -2.552856    0.882596
  H     -3.133695   -3.400080    0.019665
  H     -4.482105   -1.099410    0.036344

 Total Charge           Charge          ....    0
 Multiplicity           Mult            ....    1
 Number of Electrons    NEL             ....   66
 Basis Dimension        Dim             ....  315

ORBITAL ENERGIES
----------------

  NO   OCC          E(Eh)            E(eV)
   0   2.0000     -20.548028      -559.1403
   1   2.0000     -20.520201      -558.3831
   2   2.0000     -15.615289      -424.9136
   3   2.0000     -15.576915      -423.8694
   4   2.0000     -11.390308      -309.9461
   5   2.0000     -11.379213      -309.6441
   6   2.0000     -11.294978      -307.3520
   7   2.0000     -11.285510      -307.0943
   8   2.0000     -11.261861      -306.4508
   9   2.0000      -1.420550       -38.6551
  10   2.0000      -1.393294       -37.9135
  11   2.0000      -1.282857       -34.9083
  12   2.0000      -1.215503       -33.0755
  13   2.0000      -1.102503       -30.0006
  14   2.0000      -0.989448       -26.9243
  15   2.0000      -0.890835       -24.2408
  16   2.0000      -0.816949       -22.2303
  17   2.0000      -0.778065       -21.1722
  18   2.0000      -0.729006       -19.8373
  19   2.0000      -0.708220       -19.2716
  20   2.0000      -0.681986       -18.5578
  21   2.0000      -0.665990       -18.1225
  22   2.0000      -0.626088       -17.0367
  23   2.0000      -0.623871       -16.9764
  24   2.0000      -0.606354       -16.4997
  25   2.0000      -0.585836       -15.9414
  26   2.0000      -0.562178       -15.2976
  27   2.0000      -0.558470       -15.1967
  28   2.0000      -0.463614       -12.6156
  29   2.0000      -0.444552       -12.0969
  30   2.0000      -0.419782       -11.4228
  31   2.0000      -0.417680       -11.3656
  32   2.0000      -0.405699       -11.0396
  33   0.0000       0.082731         2.2512
  34   0.0000       0.138039         3.7562
  35   0.0000       0.154480         4.2036
  36   0.0000       0.165778         4.5110
  37   0.0000       0.176448         4.8014

MULLIKEN ATOMIC CHARGES
-----------------------
   0 N :   -0.492666
   1 C :    0.334387
   2 O :   -0.378772
   3 N :   -0.091406
   4 C :   -0.106363
   5 C :   -0.138205
   6 C :   -0.186469
   7 C :    0.282510
   8 O :   -0.395927
   9 H :    0.261684
  10 H :    0.294182
  11 H :    0.153829
  12 H :    0.153638
  13 H :    0.155097
  14 H :    0.154480
Sum of atomic charges:   -0.0000000

LOEWDIN ATOMIC CHARGES
----------------------
   0 N :   -0.002074
   1 C :   -0.526488
   2 O :    0.067653
   3 N :    0.237516
   4 C :   -0.211049
   5 C :   -0.113097
   6 C :   -0.110534
   7 C :   -0.382004
   8 O :    0.082955
   9 H :    0.177769
  10 H :    0.176366
  11 H :    0.153519
  12 H :    0.153476
  13 H :    0.145755
  14 H :    0.150237

  Mayer bond orders larger than 0.1
B(  0-N ,  1-C ) :   1.2270 B(  0-N ,  9-H ) :   0.8622 B(  0-N , 10-H ) :   0.8162
B(  1-C ,  2-O ) :   1.9409 B(  1-C ,  3-N ) :   0.9619 B(  3-N ,  4-C ) :   0.9046
B(  3-N ,  7-C ) :   1.0824 B(  4-C ,  5-C ) :   0.9611 B(  4-C , 11-H ) :   0.9080
B(  4-C , 12-H ) :   0.9081 B(  5-C ,  6-C ) :   1.7092 B(  5-C , 13-H ) :   0.9220
B(  6-C ,  7-C ) :   1.0180 B(  6-C , 14-H ) :   0.9230 B(  7-C ,  8-O ) :   1.8111

MP2 TOTAL ENERGY:     -453.299803904 Eh
FINAL SINGLE POINT ENERGY      -453.299803904083

DIPOLE MOMENT
-------------
                                X             Y             Z
Electronic contribution:      0.30671       2.19393       0.00245
Nuclear contribution   :     -0.99459      -2.83076      -0.00409
                        -----------------------------------------
Total Dipole Moment    :     -0.68788      -0.63683      -0.00164
                        -----------------------------------------
Magnitude (a.u.)       :      0.93741
Magnitude (Debye)      :      2.38270

                             ****ORCA TERMINATED NORMALLY****
TOTAL RUN TIME: 0 days 0 hours 15 minutes 56 seconds 789 msec
