                         Program Version 3.0.3 - RELEASE   -
|  1> ! RI-MP2 RIJK def2-TZVP def2-TZVP/C def2-TZVP/JK TIGHTSCF
|  2> % maxcore 2000
|  3> % mp2 density relaxed end
|  4> *xyz 0 1
|  5>  C       -0.2357285143     1.2118104909     0.0608595672
|  6>  O       -0.2404382848    -0.1745588784    -0.1797132803
|  7>  C        0.8217887734    -0.5873550797    -1.0142496243
|  8>  C        0.7518819857    -2.0863942892    -1.1436343236
|  9>  C       -0.1155059240    -2.7462426235    -2.1591832533
| 10>  C        1.4043939599    -2.8257148171    -2.3140543342
| 11>  C        2.0997610360    -2.1062752257    -3.4542181893
| 12>  C        1.9967173778    -4.1453175944    -1.9475911002
| 13>  O        1.6007294822    -4.8587276518    -1.0566496054
| 14>  H        0.6913724097     1.5387626701     0.5586668748
| 15>  H       -0.3443392104     1.7903337945    -0.8709379480
| 16>  H       -1.0835446651     1.4330930086     0.7135133261
| 17>  H        0.7449705588    -0.0952442785    -1.9977314845
| 18>  H        1.7888886841    -0.2833357601    -0.5770362829
| 19>  H        0.8419518986    -2.6157900317    -0.1996897375
| 20>  H       -0.6240459664    -3.6611544445    -1.8779663595
| 21>  H       -0.6374906711    -2.1187327970    -2.8744968320
| 22>  H        1.5592473066    -1.2088071316    -3.7611573855
| 23>  H        3.1185855077    -1.8055971155    -3.1842343744
| 24>  H        2.1696219960    -2.7575819588    -4.3328318170
| 25>  H        2.8633599998    -4.4519096266    -2.5773721760
| 26> *
| 27>
| 28>                          ****END OF INPUT****

CARTESIAN COORDINATES (ANGSTROEM)
---------------------------------
  C     -0.235729    1.211810    0.060860
  O     -0.240438   -0.174559   -0.179713
  C      0.821789   -0.587355   -1.014250
  C      0.751882   -2.086394   -1.143634
  C     -0.115506   -2.746243   -2.159183
  C      1.404394   -2.825715   -2.314054
  C      2.099761   -2.106275   -3.454218
  C      1.996717   -4.145318   -1.947591
  O      1.600729   -4.858728   -1.056650
  H      0.691372    1.538763    0.558667
  H     -0.344339    1.790334   -0.870938
  H     -1.083545    1.433093    0.713513
  H      0.744971   -0.095244   -1.997731
  H      1.788889   -0.283336   -0.577036
  H      0.841952   -2.615790   -0.199690
  H     -0.624046   -3.661154   -1.877966
  H     -0.637491   -2.118733   -2.874497
  H      1.559247   -1.208807   -3.761157
  H      3.118586   -1.805597   -3.184234
  H      2.169622   -2.757582   -4.332832
  H      2.863360   -4.451910   -2.577372

 Total Charge           Charge          ....    0
 Multiplicity           Mult            ....    1
 Number of Electrons    NEL             ....   70
 Basis Dimension        Dim             ....  351

ORBITAL ENERGIES
----------------

  NO   OCC          E(Eh)            E(eV)
   0   2.0000     -20.559475      -559.4518
   1   2.0000     -20.548554      -559.1546
   2   2.0000     -11.328801      -308.2723
   3   2.0000     -11.285192      -307.0857
   4   2.0000     -11.274174      -306.7859
   5   2.0000     -11.253024      -306.2103
   6   2.0000     -11.242357      -305.9201
   7   2.0000     -11.237489      -305.7876
   8   2.0000     -11.236906      -305.7717
   9   2.0000      -1.389571       -37.8121
  10   2.0000      -1.380852       -37.5749
  11   2.0000      -1.169694       -31.8290
  12   2.0000      -1.009704       -27.4754
  13   2.0000      -0.971465       -26.4349
  14   2.0000      -0.897025       -24.4093
  15   2.0000      -0.880235       -23.9524
  16   2.0000      -0.801195       -21.8016
  17   2.0000      -0.741838       -20.1864
  18   2.0000      -0.700613       -19.0646
  19   2.0000      -0.665394       -18.1063
  20   2.0000      -0.658722       -17.9247
  21   2.0000      -0.644335       -17.5332
  22   2.0000      -0.637470       -17.3465
  23   2.0000      -0.591397       -16.0927
  24   2.0000      -0.583420       -15.8757
  25   2.0000      -0.567589       -15.4449
  26   2.0000      -0.560793       -15.2599
  27   2.0000      -0.539386       -14.6774
  28   2.0000      -0.530638       -14.4394
  29   2.0000      -0.504326       -13.7234
  30   2.0000      -0.483398       -13.1539
  31   2.0000      -0.448448       -12.2029
  32   2.0000      -0.427753       -11.6398
  33   2.0000      -0.406385       -11.0583
  34   2.0000      -0.404408       -11.0045
  35   0.0000       0.123378         3.3573
  36   0.0000       0.129103         3.5131
  37   0.0000       0.150417         4.0931
  38   0.0000       0.172085         4.6827
  39   0.0000       0.180899         4.9225

MULLIKEN ATOMIC CHARGES
-----------------------
   0 C :   -0.220549
   1 O :   -0.290957
   2 C :   -0.075248
   3 C :   -0.048796
   4 C :   -0.287036
   5 C :    0.064316
   6 C :   -0.415310
   7 C :    0.075790
   8 O :   -0.287603
   9 H :    0.111907
  10 H :    0.108422
  11 H :    0.142146
  12 H :    0.084431
  13 H :    0.100127
  14 H :    0.150173
  15 H :    0.153563
  16 H :    0.134104
  17 H :    0.135195
  18 H :    0.141034
  19 H :    0.143978
  20 H :    0.080314
Sum of atomic charges:   -0.0000000

LOEWDIN ATOMIC CHARGES
----------------------
   0 C :   -0.362319
   1 O :    0.140746
   2 C :   -0.305572
   3 C :   -0.177147
   4 C :   -0.160310
   5 C :   -0.248268
   6 C :   -0.269661
   7 C :   -0.261088
   8 O :    0.128483
   9 H :    0.101288
  10 H :    0.100427
  11 H :    0.114524
  12 H :    0.121817
  13 H :    0.124194
  14 H :    0.163307
  15 H :    0.143282
  16 H :    0.140225
  17 H :    0.127979
  18 H :    0.129439
  19 H :    0.131516
  20 H :    0.117137

  Mayer bond orders larger than 0.1
B(  0-C ,  1-O ) :   0.9209 B(  0-C ,  9-H ) :   0.9379 B(  0-C , 10-H ) :   0.9357
B(  0-C , 11-H ) :   0.9392 B(  1-O ,  2-C ) :   0.9728 B(  2-C ,  3-C ) :   0.9327
B(  2-C , 12-H ) :   0.9150 B(  2-C , 13-H ) :   0.9273 B(  3-C ,  4-C ) :   0.9200
B(  3-C ,  5-C ) :   0.7951 B(  3-C , 14-H ) :   0.9179 B(  4-C ,  5-C ) :   0.8455
B(  4-C , 15-H ) :   0.9154 B(  4-C , 16-H ) :   0.9235 B(  5-C ,  6-C ) :   0.9001
B(  5-C ,  7-C ) :   0.8925 B(  6-C , 17-H ) :   0.9384 B(  6-C , 18-H ) :   0.9341
B(  6-C , 19-H ) :   0.9325 B(  7-C ,  8-O ) :   1.9624 B(  7-C , 20-H ) :   0.9522

MP2 TOTAL ENERGY:     -423.502360324 Eh
FINAL SINGLE POINT ENERGY      -423.502360324053

DIPOLE MOMENT
-------------
                                X             Y             Z
Electronic contribution:     -0.04464      -7.83607       2.61586
Nuclear contribution   :      0.41040       8.97843      -3.43405
                        -----------------------------------------
Total Dipole Moment    :      0.36575       1.14236      -0.81819
                        -----------------------------------------
Magnitude (a.u.)       :      1.45196
Magnitude (Debye)      :      3.69059

                             ****ORCA TERMINATED NORMALLY****
TOTAL RUN TIME: 0 days 0 hours 16 minutes 54 seconds 405 msec
