                         Program Version 3.0.3 - RELEASE   -
|  1> ! RI-MP2 RIJK def2-TZVP def2-TZVP/C def2-TZVP/JK TIGHTSCF
|  2> % maxcore 2000
|  3> % mp2 density relaxed end
|  4> *xyz 0 1
|  5>  C       -0.0771268092     1.4911336289    -0.0553750963
|  6>  C       -0.0349241516    -0.0097534899     0.0635583966
|  7>  C       -0.7900910626    -0.7229729494     1.1439716931
|  8>  C        0.7347945872    -0.7525479975     1.1367730519
|  9>  C        1.4374645070    -1.8932978514     0.4449486261
| 10>  O        2.2750963924    -2.6144240975     0.9257871172
| 11>  C        1.0632525136    -1.8412108838    -1.0238263833
| 12>  C       -0.3584277389    -2.0149323172    -1.4424925019
| 13>  N        0.1932644795    -0.6762000753    -1.2494297005
| 14>  H        0.8249689842     1.8627937030    -0.5503369908
| 15>  H       -0.9399379772     1.8045375104    -0.6523510893
| 16>  H       -0.1531920196     1.9603224120     0.9301626102
| 17>  H       -1.2307727701    -0.0978858215     1.9139940663
| 18>  H       -1.3504234065    -1.6308240932     0.9617450712
| 19>  H        1.2687993251    -0.2729346308     1.9486101275
| 20>  H        1.8677580071    -2.0337319953    -1.7280372658
| 21>  H       -0.5611494799    -2.2717536626    -2.4787614193
| 22>  H       -1.0750347506    -2.4242460589    -0.7401096129
| 23> *
| 24>
| 25>                          ****END OF INPUT****

CARTESIAN COORDINATES (ANGSTROEM)
---------------------------------
  C     -0.077127    1.491134   -0.055375
  C     -0.034924   -0.009753    0.063558
  C     -0.790091   -0.722973    1.143972
  C      0.734795   -0.752548    1.136773
  C      1.437465   -1.893298    0.444949
  O      2.275096   -2.614424    0.925787
  C      1.063253   -1.841211   -1.023826
  C     -0.358428   -2.014932   -1.442493
  N      0.193264   -0.676200   -1.249430
  H      0.824969    1.862794   -0.550337
  H     -0.939938    1.804538   -0.652351
  H     -0.153192    1.960322    0.930163
  H     -1.230773   -0.097886    1.913994
  H     -1.350423   -1.630824    0.961745
  H      1.268799   -0.272935    1.948610
  H      1.867758   -2.033732   -1.728037
  H     -0.561149   -2.271754   -2.478761
  H     -1.075035   -2.424246   -0.740110

 Total Charge           Charge          ....    0
 Multiplicity           Mult            ....    1
 Number of Electrons    NEL             ....   66
 Basis Dimension        Dim             ....  333

ORBITAL ENERGIES
----------------

  NO   OCC          E(Eh)            E(eV)
   0   2.0000     -20.550726      -559.2137
   1   2.0000     -15.581306      -423.9889
   2   2.0000     -11.338804      -308.5446
   3   2.0000     -11.288951      -307.1880
   4   2.0000     -11.278705      -306.9092
   5   2.0000     -11.273742      -306.7741
   6   2.0000     -11.253754      -306.2302
   7   2.0000     -11.248209      -306.0793
   8   2.0000     -11.228375      -305.5396
   9   2.0000      -1.395107       -37.9628
  10   2.0000      -1.307898       -35.5897
  11   2.0000      -1.159355       -31.5476
  12   2.0000      -1.007320       -27.4106
  13   2.0000      -0.941525       -25.6202
  14   2.0000      -0.914921       -24.8963
  15   2.0000      -0.847620       -23.0649
  16   2.0000      -0.779455       -21.2101
  17   2.0000      -0.762467       -20.7478
  18   2.0000      -0.691334       -18.8121
  19   2.0000      -0.659850       -17.9554
  20   2.0000      -0.638215       -17.3667
  21   2.0000      -0.606248       -16.4968
  22   2.0000      -0.601448       -16.3662
  23   2.0000      -0.586323       -15.9546
  24   2.0000      -0.570921       -15.5356
  25   2.0000      -0.547456       -14.8970
  26   2.0000      -0.540730       -14.7140
  27   2.0000      -0.515084       -14.0161
  28   2.0000      -0.491084       -13.3631
  29   2.0000      -0.443170       -12.0593
  30   2.0000      -0.428646       -11.6641
  31   2.0000      -0.397565       -10.8183
  32   2.0000      -0.385537       -10.4910
  33   0.0000       0.116288         3.1644
  34   0.0000       0.142493         3.8774
  35   0.0000       0.160758         4.3745
  36   0.0000       0.168730         4.5914
  37   0.0000       0.172717         4.6999

MULLIKEN ATOMIC CHARGES
-----------------------
   0 C :   -0.404263
   1 C :    0.133918
   2 C :   -0.274535
   3 C :   -0.105506
   4 C :    0.114088
   5 O :   -0.264053
   6 C :   -0.047121
   7 C :   -0.171223
   8 N :   -0.207725
   9 H :    0.138586
  10 H :    0.137680
  11 H :    0.122879
  12 H :    0.142437
  13 H :    0.132140
  14 H :    0.148385
  15 H :    0.146442
  16 H :    0.137944
  17 H :    0.119927
Sum of atomic charges:    0.0000000

LOEWDIN ATOMIC CHARGES
----------------------
   0 C :   -0.261917
   1 C :   -0.268031
   2 C :   -0.172982
   3 C :   -0.140942
   4 C :   -0.292659
   5 O :    0.161102
   6 C :   -0.197127
   7 C :   -0.225670
   8 N :    0.165005
   9 H :    0.131808
  10 H :    0.131850
  11 H :    0.129194
  12 H :    0.144315
  13 H :    0.133060
  14 H :    0.155930
  15 H :    0.149834
  16 H :    0.132127
  17 H :    0.125102

  Mayer bond orders larger than 0.1
B(  0-C ,  1-C ) :   0.9099 B(  0-C ,  9-H ) :   0.9364 B(  0-C , 10-H ) :   0.9357
B(  0-C , 11-H ) :   0.9327 B(  1-C ,  2-C ) :   0.9072 B(  1-C ,  3-C ) :   0.8213
B(  1-C ,  8-N ) :   0.9020 B(  2-C ,  3-C ) :   0.8357 B(  2-C , 12-H ) :   0.9259
B(  2-C , 13-H ) :   0.9081 B(  3-C ,  4-C ) :   0.9302 B(  3-C ,  6-C ) :  -0.1212
B(  3-C , 14-H ) :   0.9139 B(  4-C ,  5-O ) :   2.0163 B(  4-C ,  6-C ) :   0.9272
B(  6-C ,  7-C ) :   0.9034 B(  6-C ,  8-N ) :   0.8894 B(  6-C , 15-H ) :   0.9069
B(  7-C ,  8-N ) :   0.9131 B(  7-C , 16-H ) :   0.9250 B(  7-C , 17-H ) :   0.9078

MP2 TOTAL ENERGY:     -401.230417465 Eh
FINAL SINGLE POINT ENERGY      -401.230417464642

DIPOLE MOMENT
-------------
                                X             Y             Z
Electronic contribution:      4.52650      -5.02939       0.31632
Nuclear contribution   :     -5.45526       5.52748      -0.37253
                        -----------------------------------------
Total Dipole Moment    :     -0.92876       0.49809      -0.05621
                        -----------------------------------------
Magnitude (a.u.)       :      1.05539
Magnitude (Debye)      :      2.68259

                             ****ORCA TERMINATED NORMALLY****
TOTAL RUN TIME: 0 days 0 hours 18 minutes 7 seconds 112 msec
