                         Program Version 3.0.3 - RELEASE   -
|  1> ! RI-MP2 RIJK def2-TZVP def2-TZVP/C def2-TZVP/JK TIGHTSCF
|  2> % maxcore 2000
|  3> % mp2 density relaxed end
|  4> *xyz 0 1
|  5>  O       -0.0003230373     1.4085373346     0.2472147744
|  6>  C        0.0199486651    -0.0086320141     0.1605136185
|  7>  C       -1.4143021632    -0.4801544369    -0.0500900609
|  8>  C       -1.5095392125    -1.9884492905    -0.1888604345
|  9>  O       -1.0901849188    -2.6907501397     1.0104364566
| 10>  C       -2.3378637871    -3.4174125081     1.1040018956
| 11>  C       -2.8838681898    -2.6590597860    -0.0984688270
| 12>  C       -4.2205767077    -2.1009840658    -0.3784181751
| 13>  N       -3.6879703337    -3.2404522688    -1.1587855131
| 14>  H        0.8873376506     1.7076042009     0.4642323802
| 15>  H        0.6497982633    -0.3478784946    -0.6790828962
| 16>  H        0.4185109056    -0.4661076575     1.0770837989
| 17>  H       -2.0293598088    -0.1471442211     0.7926165118
| 18>  H       -1.8136082674    -0.0063982160    -0.9564311904
| 19>  H       -0.9217043745    -2.3322149393    -1.0558825721
| 20>  H       -2.2070442690    -4.4941295386     0.9398341553
| 21>  H       -2.8393405217    -3.2503505438     2.0647130485
| 22>  H       -5.0604246039    -2.3447775126     0.2670953453
| 23>  H       -4.2808713421    -1.1230353828    -0.8497086037
| 24>  H       -3.3609198868    -2.9238490593    -2.0693705222
| 25> *
| 26>
| 27>                          ****END OF INPUT****

CARTESIAN COORDINATES (ANGSTROEM)
---------------------------------
  O     -0.000323    1.408537    0.247215
  C      0.019949   -0.008632    0.160514
  C     -1.414302   -0.480154   -0.050090
  C     -1.509539   -1.988449   -0.188860
  O     -1.090185   -2.690750    1.010436
  C     -2.337864   -3.417413    1.104002
  C     -2.883868   -2.659060   -0.098469
  C     -4.220577   -2.100984   -0.378418
  N     -3.687970   -3.240452   -1.158786
  H      0.887338    1.707604    0.464232
  H      0.649798   -0.347878   -0.679083
  H      0.418511   -0.466108    1.077084
  H     -2.029360   -0.147144    0.792617
  H     -1.813608   -0.006398   -0.956431
  H     -0.921704   -2.332215   -1.055883
  H     -2.207044   -4.494130    0.939834
  H     -2.839341   -3.250351    2.064713
  H     -5.060425   -2.344778    0.267095
  H     -4.280871   -1.123035   -0.849709
  H     -3.360920   -2.923849   -2.069371

 Total Charge           Charge          ....    0
 Multiplicity           Mult            ....    1
 Number of Electrons    NEL             ....   70
 Basis Dimension        Dim             ....  345

ORBITAL ENERGIES
----------------

  NO   OCC          E(Eh)            E(eV)
   0   2.0000     -20.556519      -559.3713
   1   2.0000     -20.552040      -559.2495
   2   2.0000     -15.566875      -423.5962
   3   2.0000     -11.290830      -307.2391
   4   2.0000     -11.279321      -306.9259
   5   2.0000     -11.276202      -306.8411
   6   2.0000     -11.272734      -306.7467
   7   2.0000     -11.263680      -306.5003
   8   2.0000     -11.226108      -305.4779
   9   2.0000      -1.383963       -37.6595
  10   2.0000      -1.360267       -37.0147
  11   2.0000      -1.267909       -34.5016
  12   2.0000      -1.053456       -28.6660
  13   2.0000      -0.965260       -26.2661
  14   2.0000      -0.922130       -25.0924
  15   2.0000      -0.889936       -24.2164
  16   2.0000      -0.826567       -22.4920
  17   2.0000      -0.748285       -20.3619
  18   2.0000      -0.713932       -19.4271
  19   2.0000      -0.696226       -18.9453
  20   2.0000      -0.667559       -18.1652
  21   2.0000      -0.647674       -17.6241
  22   2.0000      -0.640264       -17.4225
  23   2.0000      -0.589944       -16.0532
  24   2.0000      -0.575576       -15.6622
  25   2.0000      -0.559635       -15.2284
  26   2.0000      -0.542612       -14.7652
  27   2.0000      -0.521767       -14.1980
  28   2.0000      -0.501103       -13.6357
  29   2.0000      -0.493539       -13.4299
  30   2.0000      -0.468182       -12.7399
  31   2.0000      -0.449102       -12.2207
  32   2.0000      -0.443410       -12.0658
  33   2.0000      -0.422846       -11.5062
  34   2.0000      -0.389954       -10.6112
  35   0.0000       0.130820         3.5598
  36   0.0000       0.140065         3.8114
  37   0.0000       0.157195         4.2775
  38   0.0000       0.162553         4.4233
  39   0.0000       0.176193         4.7945

MULLIKEN ATOMIC CHARGES
-----------------------
   0 O :   -0.465362
   1 C :   -0.079822
   2 C :   -0.183823
   3 C :    0.079910
   4 O :   -0.337640
   5 C :    0.002862
   6 C :   -0.011259
   7 C :   -0.177122
   8 N :   -0.358565
   9 H :    0.317101
  10 H :    0.086485
  11 H :    0.121614
  12 H :    0.119063
  13 H :    0.107149
  14 H :    0.089271
  15 H :    0.102845
  16 H :    0.103144
  17 H :    0.126191
  18 H :    0.135626
  19 H :    0.222331
Sum of atomic charges:   -0.0000000

LOEWDIN ATOMIC CHARGES
----------------------
   0 O :   -0.052767
   1 C :   -0.346691
   2 C :   -0.251268
   3 C :   -0.248935
   4 O :    0.135741
   5 C :   -0.223832
   6 C :   -0.288916
   7 C :   -0.237919
   8 N :    0.008213
   9 H :    0.172576
  10 H :    0.114558
  11 H :    0.121596
  12 H :    0.146767
  13 H :    0.145264
  14 H :    0.139356
  15 H :    0.124020
  16 H :    0.121101
  17 H :    0.127783
  18 H :    0.125138
  19 H :    0.168216

  Mayer bond orders larger than 0.1
B(  0-O ,  1-C ) :   1.0218 B(  0-O ,  9-H ) :   0.8487 B(  1-C ,  2-C ) :   0.9316
B(  1-C , 10-H ) :   0.9278 B(  1-C , 11-H ) :   0.9356 B(  2-C ,  3-C ) :   0.9075
B(  2-C , 12-H ) :   0.9129 B(  2-C , 13-H ) :   0.9197 B(  3-C ,  4-O ) :   0.9397
B(  3-C ,  6-C ) :   0.9380 B(  3-C , 14-H ) :   0.9055 B(  4-O ,  5-C ) :   0.9495
B(  5-C ,  6-C ) :   0.9567 B(  5-C , 15-H ) :   0.9049 B(  5-C , 16-H ) :   0.9200
B(  6-C ,  7-C ) :   0.9244 B(  6-C ,  8-N ) :   0.9526 B(  7-C ,  8-N ) :   0.9437
B(  7-C , 17-H ) :   0.9125 B(  7-C , 18-H ) :   0.9163 B(  8-N , 19-H ) :   0.8687

MP2 TOTAL ENERGY:     -439.507854240 Eh
FINAL SINGLE POINT ENERGY      -439.507854240185

DIPOLE MOMENT
-------------
                                X             Y             Z
Electronic contribution:      0.40534      -1.71542       0.55658
Nuclear contribution   :     -0.23265       2.02197      -0.83221
                        -----------------------------------------
Total Dipole Moment    :      0.17269       0.30655      -0.27563
                        -----------------------------------------
Magnitude (a.u.)       :      0.44695
Magnitude (Debye)      :      1.13606

                             ****ORCA TERMINATED NORMALLY****
TOTAL RUN TIME: 0 days 0 hours 15 minutes 19 seconds 242 msec
