                         Program Version 3.0.3 - RELEASE   -
|  1> ! RI-MP2 RIJK def2-TZVP def2-TZVP/C def2-TZVP/JK TIGHTSCF
|  2> % maxcore 2000
|  3> % mp2 density relaxed end
|  4> *xyz 0 1
|  5>  O       -0.4771441475     0.9764947779    -0.3367953079
|  6>  C       -0.0146026817    -0.3463053717    -0.1072181319
|  7>  C        0.9703276284    -0.7736593309    -1.1997554039
|  8>  O        0.3357289148    -0.8126061639    -2.4770763567
|  9>  C        0.3615677599     0.3075546824    -3.2263617479
| 10>  O       -0.2224241608     0.4038196646    -4.2622237354
| 11>  C        0.5827925952    -0.5492673425     1.2771173137
| 12>  C        1.3927198357     0.5267239999     1.9634437530
| 13>  C        0.0168033722     0.1709407906     2.4693364780
| 14>  H        0.2700938796     1.5783936222    -0.2435396308
| 15>  H       -0.9105996875    -0.9704458862    -0.2064725148
| 16>  H        1.8340043158    -0.0932410838    -1.2175672931
| 17>  H        1.3408597867    -1.7852696538    -1.0143487193
| 18>  H        0.9984875991     1.1006067928    -2.7903058538
| 19>  H        0.9178913260    -1.5690742621     1.4483660231
| 20>  H        2.2592185760     0.2222166583     2.5392368380
| 21>  H        1.5133319011     1.4926473097     1.4818643744
| 22>  H       -0.7768750774     0.8834605179     2.2761470294
| 23>  H       -0.0695587757    -0.3685860715     3.4053817560
| 24> *
| 25>
| 26>                          ****END OF INPUT****

CARTESIAN COORDINATES (ANGSTROEM)
---------------------------------
  O     -0.477144    0.976495   -0.336795
  C     -0.014603   -0.346305   -0.107218
  C      0.970328   -0.773659   -1.199755
  O      0.335729   -0.812606   -2.477076
  C      0.361568    0.307555   -3.226362
  O     -0.222424    0.403820   -4.262224
  C      0.582793   -0.549267    1.277117
  C      1.392720    0.526724    1.963444
  C      0.016803    0.170941    2.469336
  H      0.270094    1.578394   -0.243540
  H     -0.910600   -0.970446   -0.206473
  H      1.834004   -0.093241   -1.217567
  H      1.340860   -1.785270   -1.014349
  H      0.998488    1.100607   -2.790306
  H      0.917891   -1.569074    1.448366
  H      2.259219    0.222217    2.539237
  H      1.513332    1.492647    1.481864
  H     -0.776875    0.883461    2.276147
  H     -0.069559   -0.368586    3.405382

 Total Charge           Charge          ....    0
 Multiplicity           Mult            ....    1
 Number of Electrons    NEL             ....   70
 Basis Dimension        Dim             ....  339

ORBITAL ENERGIES
----------------

  NO   OCC          E(Eh)            E(eV)
   0   2.0000     -20.607718      -560.7645
   1   2.0000     -20.579384      -559.9935
   2   2.0000     -20.546230      -559.0913
   3   2.0000     -11.380338      -309.6747
   4   2.0000     -11.309036      -307.7345
   5   2.0000     -11.303802      -307.5921
   6   2.0000     -11.252702      -306.2016
   7   2.0000     -11.247044      -306.0476
   8   2.0000     -11.239723      -305.8484
   9   2.0000      -1.461705       -39.7750
  10   2.0000      -1.389181       -37.8015
  11   2.0000      -1.368634       -37.2424
  12   2.0000      -1.160540       -31.5799
  13   2.0000      -1.039860       -28.2960
  14   2.0000      -0.913731       -24.8639
  15   2.0000      -0.849059       -23.1041
  16   2.0000      -0.837383       -22.7864
  17   2.0000      -0.806788       -21.9538
  18   2.0000      -0.735648       -20.0180
  19   2.0000      -0.704731       -19.1767
  20   2.0000      -0.691891       -18.8273
  21   2.0000      -0.686470       -18.6798
  22   2.0000      -0.661604       -18.0031
  23   2.0000      -0.627605       -17.0780
  24   2.0000      -0.604867       -16.4593
  25   2.0000      -0.582509       -15.8509
  26   2.0000      -0.568500       -15.4697
  27   2.0000      -0.535662       -14.5761
  28   2.0000      -0.532782       -14.4977
  29   2.0000      -0.517930       -14.0936
  30   2.0000      -0.491218       -13.3667
  31   2.0000      -0.464164       -12.6305
  32   2.0000      -0.452871       -12.3233
  33   2.0000      -0.435563       -11.8523
  34   2.0000      -0.420998       -11.4559
  35   0.0000       0.115069         3.1312
  36   0.0000       0.135814         3.6957
  37   0.0000       0.143386         3.9017
  38   0.0000       0.164769         4.4836
  39   0.0000       0.170152         4.6301

MULLIKEN ATOMIC CHARGES
-----------------------
   0 O :   -0.460418
   1 C :    0.100603
   2 C :   -0.129050
   3 O :   -0.205885
   4 C :    0.232913
   5 O :   -0.270968
   6 C :   -0.154119
   7 C :   -0.303876
   8 C :   -0.216593
   9 H :    0.310278
  10 H :    0.114598
  11 H :    0.133041
  12 H :    0.136637
  13 H :    0.052340
  14 H :    0.126705
  15 H :    0.138747
  16 H :    0.112650
  17 H :    0.144790
  18 H :    0.137605
Sum of atomic charges:    0.0000000

LOEWDIN ATOMIC CHARGES
----------------------
   0 O :    0.006451
   1 C :   -0.338544
   2 C :   -0.285506
   3 O :    0.247008
   4 C :   -0.452492
   5 O :    0.121729
   6 C :   -0.220950
   7 C :   -0.234431
   8 C :   -0.220167
   9 H :    0.171548
  10 H :    0.156856
  11 H :    0.127652
  12 H :    0.139265
  13 H :    0.096651
  14 H :    0.154003
  15 H :    0.133052
  16 H :    0.125166
  17 H :    0.140004
  18 H :    0.132704

  Mayer bond orders larger than 0.1
B(  0-O ,  1-C ) :   0.8929 B(  0-O ,  9-H ) :   0.8388 B(  1-C ,  2-C ) :   0.9323
B(  1-C ,  6-C ) :   0.9321 B(  1-C , 10-H ) :   0.9148 B(  2-C ,  3-O ) :   0.8617
B(  2-C , 11-H ) :   0.9411 B(  2-C , 12-H ) :   0.9239 B(  3-O ,  4-C ) :   1.0578
B(  4-C ,  5-O ) :   2.0254 B(  4-C , 13-H ) :   0.9106 B(  6-C ,  7-C ) :   0.8911
B(  6-C ,  8-C ) :   0.8891 B(  6-C , 14-H ) :   0.9147 B(  7-C ,  8-C ) :   0.8849
B(  7-C , 15-H ) :   0.9300 B(  7-C , 16-H ) :   0.9297 B(  8-C , 17-H ) :   0.9221
B(  8-C , 18-H ) :   0.9304

MP2 TOTAL ENERGY:     -459.427627832 Eh
FINAL SINGLE POINT ENERGY      -459.427627831597

DIPOLE MOMENT
-------------
                                X             Y             Z
Electronic contribution:     -2.65346      -0.41700     -10.25174
Nuclear contribution   :      3.91927       0.35274      11.98461
                        -----------------------------------------
Total Dipole Moment    :      1.26581      -0.06426       1.73288
                        -----------------------------------------
Magnitude (a.u.)       :      2.14692
Magnitude (Debye)      :      5.45704

                             ****ORCA TERMINATED NORMALLY****
TOTAL RUN TIME: 0 days 0 hours 18 minutes 16 seconds 143 msec
