                         Program Version 3.0.3 - RELEASE   -
|  1> ! RI-MP2 RIJK def2-TZVP def2-TZVP/C def2-TZVP/JK TIGHTSCF
|  2> % maxcore 2000
|  3> % mp2 density relaxed end
|  4> *xyz 0 1
|  5>  C        0.0205086374     1.4874050671     0.0192284930
|  6>  C       -0.0371317478    -0.0079089818     0.1281444749
|  7>  C       -1.3351892789    -0.8188412543     0.3111643193
|  8>  C       -0.3569400337    -1.9564049144     0.7030657997
|  9>  O       -0.6841752518    -3.0365985500     1.5066385418
| 10>  C        0.5710733689    -2.1449292055    -0.5254480196
| 11>  C        1.6767500757    -1.3520266601     0.0586838079
| 12>  C        0.7096821929    -0.8984416176     1.1783837955
| 13>  N        0.7738863189    -0.7295957713    -0.9623480447
| 14>  H        1.0588088377     1.8333909938    -0.0149642021
| 15>  H       -0.4739668148     1.8220682871    -0.8994034556
| 16>  H       -0.4743445568     1.9638805142     0.8713625932
| 17>  H       -1.8996255050    -0.4707242192     1.1820361417
| 18>  H       -1.9952412716    -0.9501220272    -0.5518842648
| 19>  H       -1.2277628913    -3.6464887384     0.9947028640
| 20>  H        0.5695103111    -2.9244275689    -1.2791015631
| 21>  H        2.7526935714    -1.4035167184    -0.0526718874
| 22>  H        0.8984761879    -0.6582087952     2.2211546062
| 23> *
| 24>
| 25>                          ****END OF INPUT****

CARTESIAN COORDINATES (ANGSTROEM)
---------------------------------
  C      0.020509    1.487405    0.019228
  C     -0.037132   -0.007909    0.128144
  C     -1.335189   -0.818841    0.311164
  C     -0.356940   -1.956405    0.703066
  O     -0.684175   -3.036599    1.506639
  C      0.571073   -2.144929   -0.525448
  C      1.676750   -1.352027    0.058684
  C      0.709682   -0.898442    1.178384
  N      0.773886   -0.729596   -0.962348
  H      1.058809    1.833391   -0.014964
  H     -0.473967    1.822068   -0.899403
  H     -0.474345    1.963881    0.871363
  H     -1.899626   -0.470724    1.182036
  H     -1.995241   -0.950122   -0.551884
  H     -1.227763   -3.646489    0.994703
  H      0.569510   -2.924428   -1.279102
  H      2.752694   -1.403517   -0.052672
  H      0.898476   -0.658209    2.221155

 Total Charge           Charge          ....    0
 Multiplicity           Mult            ....    1
 Number of Electrons    NEL             ....   66
 Basis Dimension        Dim             ....  333

ORBITAL ENERGIES
----------------

  NO   OCC          E(Eh)            E(eV)
   0   2.0000     -20.572145      -559.7965
   1   2.0000     -15.559093      -423.3845
   2   2.0000     -11.298297      -307.4423
   3   2.0000     -11.269160      -306.6494
   4   2.0000     -11.261870      -306.4511
   5   2.0000     -11.258432      -306.3575
   6   2.0000     -11.237387      -305.7849
   7   2.0000     -11.224190      -305.4257
   8   2.0000     -11.217189      -305.2352
   9   2.0000      -1.386143       -37.7189
  10   2.0000      -1.320919       -35.9440
  11   2.0000      -1.081214       -29.4213
  12   2.0000      -1.013081       -27.5673
  13   2.0000      -0.940950       -25.6046
  14   2.0000      -0.899286       -24.4708
  15   2.0000      -0.824953       -22.4481
  16   2.0000      -0.766695       -20.8628
  17   2.0000      -0.713798       -19.4234
  18   2.0000      -0.693162       -18.8619
  19   2.0000      -0.659114       -17.9354
  20   2.0000      -0.646849       -17.6016
  21   2.0000      -0.611962       -16.6523
  22   2.0000      -0.587176       -15.9779
  23   2.0000      -0.562227       -15.2990
  24   2.0000      -0.554511       -15.0890
  25   2.0000      -0.539249       -14.6737
  26   2.0000      -0.511537       -13.9196
  27   2.0000      -0.483276       -13.1506
  28   2.0000      -0.466803       -12.7024
  29   2.0000      -0.426104       -11.5949
  30   2.0000      -0.414363       -11.2754
  31   2.0000      -0.397876       -10.8268
  32   2.0000      -0.353208        -9.6113
  33   0.0000       0.133063         3.6208
  34   0.0000       0.145253         3.9525
  35   0.0000       0.171287         4.6610
  36   0.0000       0.181707         4.9445
  37   0.0000       0.188277         5.1233

MULLIKEN ATOMIC CHARGES
-----------------------
   0 C :   -0.425961
   1 C :    0.098213
   2 C :   -0.242580
   3 C :    0.159514
   4 O :   -0.446672
   5 C :   -0.076707
   6 C :   -0.253569
   7 C :   -0.007122
   8 N :   -0.207607
   9 H :    0.138577
  10 H :    0.138453
  11 H :    0.129847
  12 H :    0.115014
  13 H :    0.118947
  14 H :    0.323807
  15 H :    0.149388
  16 H :    0.140019
  17 H :    0.148439
Sum of atomic charges:    0.0000000

LOEWDIN ATOMIC CHARGES
----------------------
   0 C :   -0.272888
   1 C :   -0.249433
   2 C :   -0.172667
   3 C :   -0.315729
   4 O :    0.030299
   5 C :   -0.177354
   6 C :   -0.169436
   7 C :   -0.086434
   8 N :    0.161700
   9 H :    0.132659
  10 H :    0.133206
  11 H :    0.128899
  12 H :    0.145584
  13 H :    0.129223
  14 H :    0.185247
  15 H :    0.132879
  16 H :    0.127320
  17 H :    0.136926

  Mayer bond orders larger than 0.1
B(  0-C ,  1-C ) :   0.8754 B(  0-C ,  9-H ) :   0.9391 B(  0-C , 10-H ) :   0.9435
B(  0-C , 11-H ) :   0.9379 B(  1-C ,  2-C ) :   0.9512 B(  1-C ,  7-C ) :   0.8841
B(  1-C ,  8-N ) :   0.8766 B(  2-C ,  3-C ) :   1.0005 B(  2-C , 12-H ) :   0.9061
B(  2-C , 13-H ) :   0.9030 B(  3-C ,  4-O ) :   1.0938 B(  3-C ,  5-C ) :   0.8501
B(  3-C ,  7-C ) :   0.8933 B(  4-O , 14-H ) :   0.8332 B(  5-C ,  6-C ) :   0.8759
B(  5-C ,  8-N ) :   0.8740 B(  5-C , 15-H ) :   0.9018 B(  6-C ,  7-C ) :   0.8893
B(  6-C ,  8-N ) :   0.9528 B(  6-C , 16-H ) :   0.8966 B(  7-C , 17-H ) :   0.8898

MP2 TOTAL ENERGY:     -401.176631461 Eh
FINAL SINGLE POINT ENERGY      -401.176631461355

DIPOLE MOMENT
-------------
                                X             Y             Z
Electronic contribution:      1.36127      -4.98003       0.23461
Nuclear contribution   :     -1.71704       4.83725      -0.11225
                        -----------------------------------------
Total Dipole Moment    :     -0.35578      -0.14278       0.12236
                        -----------------------------------------
Magnitude (a.u.)       :      0.40241
Magnitude (Debye)      :      1.02285

                             ****ORCA TERMINATED NORMALLY****
TOTAL RUN TIME: 0 days 0 hours 19 minutes 1 seconds 758 msec
