                         Program Version 3.0.3 - RELEASE   -
|  1> ! RI-MP2 RIJK def2-TZVP def2-TZVP/C def2-TZVP/JK TIGHTSCF
|  2> % maxcore 2000
|  3> % mp2 density relaxed end
|  4> *xyz 0 1
|  5>  C       -0.2421508528     1.5186245885    -0.0055178011
|  6>  C        0.1137993775     0.0504196894    -0.1192684975
|  7>  C        1.3397766441    -0.4014845453    -0.9396434485
|  8>  C        1.7755795904    -1.2211219706     0.2749141152
|  9>  N        0.7416195049    -0.5438944159     1.1699290338
| 10>  H        1.1280350896     0.1943463157     1.7611925366
| 11>  C        0.1137925766    -1.5794573348     1.9817032594
| 12>  C        0.6054574368    -2.7614635035     1.6112720142
| 13>  C        1.5294077986    -2.6210785987     0.4104496202
| 14>  O        1.8973300356    -3.5655644105    -0.2835976957
| 15>  H        0.6361075067     2.1219402195     0.2495560632
| 16>  H       -0.6142830054     1.8736687847    -0.9713225360
| 17>  H       -1.0230034806     1.6960788921     0.7418107362
| 18>  H       -0.7620098070    -0.5669295089    -0.3250969698
| 19>  H        1.1035246388    -0.9841576579    -1.8343009090
| 20>  H        1.9994324024     0.4277183859    -1.2258423860
| 21>  H       -0.5495317187    -1.2862625220     2.7835785233
| 22>  H        0.3328273925    -3.7186315175     2.0368093712
| 23> *
| 24>
| 25>                          ****END OF INPUT****

CARTESIAN COORDINATES (ANGSTROEM)
---------------------------------
  C     -0.242151    1.518625   -0.005518
  C      0.113799    0.050420   -0.119268
  C      1.339777   -0.401485   -0.939643
  C      1.775580   -1.221122    0.274914
  N      0.741620   -0.543894    1.169929
  H      1.128035    0.194346    1.761193
  C      0.113793   -1.579457    1.981703
  C      0.605457   -2.761464    1.611272
  C      1.529408   -2.621079    0.410450
  O      1.897330   -3.565564   -0.283598
  H      0.636108    2.121940    0.249556
  H     -0.614283    1.873669   -0.971323
  H     -1.023003    1.696079    0.741811
  H     -0.762010   -0.566930   -0.325097
  H      1.103525   -0.984158   -1.834301
  H      1.999432    0.427718   -1.225842
  H     -0.549532   -1.286263    2.783579
  H      0.332827   -3.718632    2.036809

 Total Charge           Charge          ....    0
 Multiplicity           Mult            ....    1
 Number of Electrons    NEL             ....   66
 Basis Dimension        Dim             ....  333

ORBITAL ENERGIES
----------------

  NO   OCC          E(Eh)            E(eV)
   0   2.0000     -20.478587      -557.2507
   1   2.0000     -15.670831      -426.4250
   2   2.0000     -11.312023      -307.8158
   3   2.0000     -11.295351      -307.3621
   4   2.0000     -11.292902      -307.2955
   5   2.0000     -11.256912      -306.3161
   6   2.0000     -11.256435      -306.3032
   7   2.0000     -11.237894      -305.7987
   8   2.0000     -11.211279      -305.0744
   9   2.0000      -1.340845       -36.4862
  10   2.0000      -1.313032       -35.7294
  11   2.0000      -1.111501       -30.2455
  12   2.0000      -1.035780       -28.1850
  13   2.0000      -1.017825       -27.6964
  14   2.0000      -0.910152       -24.7665
  15   2.0000      -0.845313       -23.0021
  16   2.0000      -0.810047       -22.0425
  17   2.0000      -0.739130       -20.1128
  18   2.0000      -0.712959       -19.4006
  19   2.0000      -0.662814       -18.0361
  20   2.0000      -0.649890       -17.6844
  21   2.0000      -0.626210       -17.0400
  22   2.0000      -0.590773       -16.0757
  23   2.0000      -0.585735       -15.9387
  24   2.0000      -0.573790       -15.6136
  25   2.0000      -0.550275       -14.9738
  26   2.0000      -0.526172       -14.3179
  27   2.0000      -0.515614       -14.0306
  28   2.0000      -0.504611       -13.7312
  29   2.0000      -0.488817       -13.3014
  30   2.0000      -0.396065       -10.7775
  31   2.0000      -0.374321       -10.1858
  32   2.0000      -0.281615        -7.6631
  33   0.0000       0.099888         2.7181
  34   0.0000       0.107035         2.9126
  35   0.0000       0.140867         3.8332
  36   0.0000       0.152190         4.1413
  37   0.0000       0.163430         4.4472

MULLIKEN ATOMIC CHARGES
-----------------------
   0 C :   -0.407140
   1 C :   -0.060650
   2 C :   -0.223798
   3 C :   -0.111165
   4 N :    0.028603
   5 H :    0.255182
   6 C :   -0.189026
   7 C :   -0.121426
   8 C :    0.091889
   9 O :   -0.398165
  10 H :    0.142345
  11 H :    0.156224
  12 H :    0.144207
  13 H :    0.140977
  14 H :    0.137771
  15 H :    0.107607
  16 H :    0.156303
  17 H :    0.150264
Sum of atomic charges:    0.0000000

LOEWDIN ATOMIC CHARGES
----------------------
   0 C :   -0.296644
   1 C :   -0.203740
   2 C :   -0.220406
   3 C :   -0.236740
   4 N :    0.293680
   5 H :    0.214410
   6 C :   -0.194363
   7 C :   -0.084075
   8 C :   -0.423087
   9 O :    0.039992
  10 H :    0.130104
  11 H :    0.140762
  12 H :    0.128089
  13 H :    0.157982
  14 H :    0.139290
  15 H :    0.130829
  16 H :    0.134804
  17 H :    0.149112

  Mayer bond orders larger than 0.1
B(  0-C ,  1-C ) :   0.9160 B(  0-C , 10-H ) :   0.9220 B(  0-C , 11-H ) :   0.9307
B(  0-C , 12-H ) :   0.9337 B(  1-C ,  2-C ) :   0.9854 B(  1-C ,  4-N ) :   0.8072
B(  1-C , 13-H ) :   0.9192 B(  2-C ,  3-C ) :   0.9800 B(  2-C , 14-H ) :   0.9363
B(  2-C , 15-H ) :   0.8949 B(  3-C ,  4-N ) :   0.8099 B(  3-C ,  8-C ) :   1.2429
B(  4-N ,  5-H ) :   0.8381 B(  4-N ,  6-C ) :   0.9052 B(  6-C ,  7-C ) :   1.6968
B(  6-C , 16-H ) :   0.9092 B(  7-C ,  8-C ) :   0.9349 B(  7-C , 17-H ) :   0.9174
B(  8-C ,  9-O ) :   1.9269

MP2 TOTAL ENERGY:     -401.192050794 Eh
FINAL SINGLE POINT ENERGY      -401.192050793800

DIPOLE MOMENT
-------------
                                X             Y             Z
Electronic contribution:      3.34230      -7.53799       1.71741
Nuclear contribution   :     -5.13381       9.96892      -0.67038
                        -----------------------------------------
Total Dipole Moment    :     -1.79151       2.43094       1.04703
                        -----------------------------------------
Magnitude (a.u.)       :      3.19613
Magnitude (Debye)      :      8.12391

                             ****ORCA TERMINATED NORMALLY****
TOTAL RUN TIME: 0 days 0 hours 18 minutes 15 seconds 640 msec
