                         Program Version 3.0.3 - RELEASE   -
|  1> ! RI-MP2 RIJK def2-TZVP def2-TZVP/C def2-TZVP/JK TIGHTSCF
|  2> % maxcore 2000
|  3> % mp2 density relaxed end
|  4> *xyz 0 1
|  5>  O       -0.0264659692     1.4634995902    -0.0347589195
|  6>  C        0.0367237533     0.0595141752     0.0219339238
|  7>  C       -0.0215057153    -0.6578566349     1.4147790566
|  8>  C       -1.4925411251    -0.1616857559     1.5179692994
|  9>  C       -1.3381115926    -0.6575795970     0.0461779936
| 10>  C       -0.6053602080    -1.8822939559     0.6413535180
| 11>  O        0.2011488088    -2.6111291082    -0.2519497808
| 12>  H        0.8720072492     1.8034782423     0.0051275322
| 13>  H        0.7674180084    -0.3421822366    -0.6836573679
| 14>  H        0.7359754055    -0.6660588432     2.2013445957
| 15>  H       -2.1625713738    -0.7396247176     2.1607705162
| 16>  H       -1.6252063769     0.9099583061     1.6439902940
| 17>  H       -2.0932953099    -0.6622513093    -0.7401381294
| 18>  H       -1.2386313515    -2.5442374726     1.2454802620
| 19>  H        0.7170886471    -3.2424079325     0.2586037860
| 20> *
| 21>
| 22>                          ****END OF INPUT****

CARTESIAN COORDINATES (ANGSTROEM)
---------------------------------
  O     -0.026466    1.463500   -0.034759
  C      0.036724    0.059514    0.021934
  C     -0.021506   -0.657857    1.414779
  C     -1.492541   -0.161686    1.517969
  C     -1.338112   -0.657580    0.046178
  C     -0.605360   -1.882294    0.641354
  O      0.201149   -2.611129   -0.251950
  H      0.872007    1.803478    0.005128
  H      0.767418   -0.342182   -0.683657
  H      0.735975   -0.666059    2.201345
  H     -2.162571   -0.739625    2.160771
  H     -1.625206    0.909958    1.643990
  H     -2.093295   -0.662251   -0.740138
  H     -1.238631   -2.544237    1.245480
  H      0.717089   -3.242408    0.258604

 Total Charge           Charge          ....    0
 Multiplicity           Mult            ....    1
 Number of Electrons    NEL             ....   54
 Basis Dimension        Dim             ....  265

ORBITAL ENERGIES
----------------

  NO   OCC          E(Eh)            E(eV)
   0   2.0000     -20.560135      -559.4697
   1   2.0000     -20.555137      -559.3337
   2   2.0000     -11.287675      -307.1533
   3   2.0000     -11.281838      -306.9944
   4   2.0000     -11.238852      -305.8247
   5   2.0000     -11.237826      -305.7968
   6   2.0000     -11.225846      -305.4708
   7   2.0000      -1.373950       -37.3871
   8   2.0000      -1.362816       -37.0841
   9   2.0000      -1.193783       -32.4845
  10   2.0000      -0.899178       -24.4679
  11   2.0000      -0.883129       -24.0312
  12   2.0000      -0.863245       -23.4901
  13   2.0000      -0.737816       -20.0770
  14   2.0000      -0.705095       -19.1866
  15   2.0000      -0.686191       -18.6722
  16   2.0000      -0.676478       -18.4079
  17   2.0000      -0.612035       -16.6543
  18   2.0000      -0.600906       -16.3515
  19   2.0000      -0.552937       -15.0462
  20   2.0000      -0.529556       -14.4099
  21   2.0000      -0.507846       -13.8192
  22   2.0000      -0.463448       -12.6111
  23   2.0000      -0.451162       -12.2767
  24   2.0000      -0.441439       -12.0122
  25   2.0000      -0.424706       -11.5568
  26   2.0000      -0.407073       -11.0770
  27   0.0000       0.137362         3.7378
  28   0.0000       0.143054         3.8927
  29   0.0000       0.165318         4.4985
  30   0.0000       0.181266         4.9325
  31   0.0000       0.198445         5.4000

MULLIKEN ATOMIC CHARGES
-----------------------
   0 O :   -0.472658
   1 C :   -0.008358
   2 C :   -0.077704
   3 C :   -0.280627
   4 C :   -0.051089
   5 C :   -0.031979
   6 O :   -0.473776
   7 H :    0.321451
   8 H :    0.118300
   9 H :    0.144052
  10 H :    0.115734
  11 H :    0.139247
  12 H :    0.135142
  13 H :    0.100851
  14 H :    0.321415
Sum of atomic charges:    0.0000000

LOEWDIN ATOMIC CHARGES
----------------------
   0 O :   -0.012156
   1 C :   -0.289001
   2 C :   -0.172791
   3 C :   -0.195672
   4 C :   -0.148283
   5 C :   -0.295873
   6 O :   -0.014144
   7 H :    0.177181
   8 H :    0.131921
   9 H :    0.120438
  10 H :    0.126707
  11 H :    0.135198
  12 H :    0.127904
  13 H :    0.130711
  14 H :    0.177860

  Mayer bond orders larger than 0.1
B(  0-O ,  1-C ) :   1.0997 B(  0-O ,  7-H ) :   0.8434 B(  1-C ,  2-C ) :   0.8510
B(  1-C ,  4-C ) :   0.8997 B(  1-C ,  8-H ) :   0.9492 B(  2-C ,  3-C ) :   0.9030
B(  2-C ,  5-C ) :   0.8350 B(  2-C ,  9-H ) :   0.8838 B(  3-C ,  4-C ) :   0.9111
B(  3-C , 10-H ) :   0.9378 B(  3-C , 11-H ) :   0.9098 B(  4-C ,  5-C ) :   0.8787
B(  4-C , 12-H ) :   0.8875 B(  5-C ,  6-O ) :   1.0793 B(  5-C , 13-H ) :   0.9761
B(  6-O , 14-H ) :   0.8426

MP2 TOTAL ENERGY:     -345.040773773 Eh
FINAL SINGLE POINT ENERGY      -345.040773772904

DIPOLE MOMENT
-------------
                                X             Y             Z
Electronic contribution:      1.18772       0.02937      -1.69435
Nuclear contribution   :     -0.58818      -0.38042       2.30133
                        -----------------------------------------
Total Dipole Moment    :      0.59954      -0.35105       0.60698
                        -----------------------------------------
Magnitude (a.u.)       :      0.92256
Magnitude (Debye)      :      2.34495

                             ****ORCA TERMINATED NORMALLY****
TOTAL RUN TIME: 0 days 0 hours 7 minutes 50 seconds 392 msec
