                         Program Version 3.0.3 - RELEASE   -
|  1> ! RI-MP2 RIJK def2-TZVP def2-TZVP/C def2-TZVP/JK TIGHTSCF
|  2> % maxcore 2000
|  3> % mp2 density relaxed end
|  4> *xyz 0 1
|  5>  O       -0.0669761055    -0.2016787613     0.0025679833
|  6>  C       -0.0602084351     0.9975623879     0.0055346343
|  7>  C        1.1798610113     1.8915965564     0.0008648006
|  8>  C        2.4275455982     1.1388336173    -0.0141346473
|  9>  N        3.4334547797     0.5733953139    -0.0260871994
| 10>  O       -1.1546569040     1.7772280035     0.0139885580
| 11>  C       -2.4115560965     1.0561968317     0.0201057892
| 12>  C       -3.4975291241     2.0181194828     0.0298080724
| 13>  C       -4.4191388754     2.7868828533     0.0380070378
| 14>  H        1.1302584335     2.5544143841    -0.8697902358
| 15>  H        1.1445998284     2.5427823484     0.8810124847
| 16>  H       -2.4539997610     0.4103228208    -0.8629762938
| 17>  H       -2.4425678282     0.4052812524     0.8999572170
| 18>  H       -5.2342369913     3.4681963487     0.0456484389
| 19> *
| 20>
| 21>                          ****END OF INPUT****

CARTESIAN COORDINATES (ANGSTROEM)
---------------------------------
  O     -0.066976   -0.201679    0.002568
  C     -0.060208    0.997562    0.005535
  C      1.179861    1.891597    0.000865
  C      2.427546    1.138834   -0.014135
  N      3.433455    0.573395   -0.026087
  O     -1.154657    1.777228    0.013989
  C     -2.411556    1.056197    0.020106
  C     -3.497529    2.018119    0.029808
  C     -4.419139    2.786883    0.038007
  H      1.130258    2.554414   -0.869790
  H      1.144600    2.542782    0.881012
  H     -2.454000    0.410323   -0.862976
  H     -2.442568    0.405281    0.899957
  H     -5.234237    3.468196    0.045648

 Total Charge           Charge          ....    0
 Multiplicity           Mult            ....    1
 Number of Electrons    NEL             ....   64
 Basis Dimension        Dim             ....  309

ORBITAL ENERGIES
----------------

  NO   OCC          E(Eh)            E(eV)
   0   2.0000     -20.638718      -561.6081
   1   2.0000     -20.578851      -559.9790
   2   2.0000     -15.581654      -423.9984
   3   2.0000     -11.419991      -310.7537
   4   2.0000     -11.342358      -308.6413
   5   2.0000     -11.315745      -307.9171
   6   2.0000     -11.285384      -307.0909
   7   2.0000     -11.258598      -306.3620
   8   2.0000     -11.252516      -306.1965
   9   2.0000      -1.498007       -40.7628
  10   2.0000      -1.398537       -38.0561
  11   2.0000      -1.229903       -33.4674
  12   2.0000      -1.107933       -30.1484
  13   2.0000      -1.071669       -29.1616
  14   2.0000      -0.988545       -26.8997
  15   2.0000      -0.836067       -22.7505
  16   2.0000      -0.771760       -21.0007
  17   2.0000      -0.734302       -19.9814
  18   2.0000      -0.730549       -19.8793
  19   2.0000      -0.721931       -19.6448
  20   2.0000      -0.684374       -18.6228
  21   2.0000      -0.659371       -17.9424
  22   2.0000      -0.655778       -17.8446
  23   2.0000      -0.582422       -15.8485
  24   2.0000      -0.579291       -15.7633
  25   2.0000      -0.564705       -15.3664
  26   2.0000      -0.502930       -13.6854
  27   2.0000      -0.496134       -13.5005
  28   2.0000      -0.471361       -12.8264
  29   2.0000      -0.471167       -12.8211
  30   2.0000      -0.422612       -11.4999
  31   2.0000      -0.413881       -11.2623
  32   0.0000       0.111611         3.0371
  33   0.0000       0.134121         3.6496
  34   0.0000       0.141997         3.8639
  35   0.0000       0.151020         4.1095
  36   0.0000       0.155460         4.2303

MULLIKEN ATOMIC CHARGES
-----------------------
   0 O :   -0.285433
   1 C :    0.291928
   2 C :   -0.135527
   3 C :   -0.158331
   4 N :   -0.049019
   5 O :   -0.228426
   6 C :   -0.243372
   7 C :   -0.034663
   8 C :   -0.061203
   9 H :    0.186481
  10 H :    0.186384
  11 H :    0.164036
  12 H :    0.164071
  13 H :    0.203074
Sum of atomic charges:   -0.0000000

LOEWDIN ATOMIC CHARGES
----------------------
   0 O :    0.158421
   1 C :   -0.472866
   2 C :   -0.208976
   3 C :   -0.180479
   4 N :    0.075277
   5 O :    0.260092
   6 C :   -0.250342
   7 C :   -0.109334
   8 C :   -0.068526
   9 H :    0.180290
  10 H :    0.180362
  11 H :    0.152362
  12 H :    0.152359
  13 H :    0.131361

  Mayer bond orders larger than 0.1
B(  0-O ,  1-C ) :   1.9510 B(  1-C ,  2-C ) :   0.9114 B(  1-C ,  5-O ) :   1.1331
B(  2-C ,  3-C ) :   0.9275 B(  2-C ,  9-H ) :   0.8951 B(  2-C , 10-H ) :   0.8947
B(  3-C ,  4-N ) :   2.8529 B(  5-O ,  6-C ) :   0.8495 B(  6-C ,  7-C ) :   1.0727
B(  6-C ,  8-C ) :  -0.1041 B(  6-C , 11-H ) :   0.9364 B(  6-C , 12-H ) :   0.9365
B(  7-C ,  8-C ) :   2.6325 B(  8-C , 13-H ) :   0.8894

MP2 TOTAL ENERGY:     -435.954255845 Eh
FINAL SINGLE POINT ENERGY      -435.954255844659

DIPOLE MOMENT
-------------
                                X             Y             Z
Electronic contribution:      3.40184      -1.39846      -0.03224
Nuclear contribution   :     -5.03474       2.62885       0.05141
                        -----------------------------------------
Total Dipole Moment    :     -1.63290       1.23039       0.01916
                        -----------------------------------------
Magnitude (a.u.)       :      2.04465
Magnitude (Debye)      :      5.19709

                             ****ORCA TERMINATED NORMALLY****
TOTAL RUN TIME: 0 days 0 hours 10 minutes 58 seconds 44 msec
