                         Program Version 3.0.3 - RELEASE   -
|  1> ! RI-MP2 RIJK def2-TZVP def2-TZVP/C def2-TZVP/JK TIGHTSCF
|  2> % maxcore 2000
|  3> % mp2 density relaxed end
|  4> *xyz 0 1
|  5>  C       -0.0659447078     1.5194690146    -0.0423284588
|  6>  C       -0.0771166824     0.0097160033     0.0363431908
|  7>  C       -1.1972765994    -0.7016119867    -0.6860559107
|  8>  O        1.2242266155    -0.6097709837    -0.1011286537
|  9>  C        0.6038357614    -0.6579136007     1.1583475654
| 10>  C        1.1857219250    -0.1437169759     2.4760100502
| 11>  O        0.7268330406    -1.3750125199     3.1221514292
| 12>  C        0.2556993795    -1.9014578539     1.9307612178
| 13>  N       -0.2643388714    -3.0097346255     1.6661297535
| 14>  H        0.8048698115     1.9364629002     0.4693164443
| 15>  H       -0.0335221466     1.8420361484    -1.0883719064
| 16>  H       -0.9728418285     1.9362978211     0.4080796963
| 17>  H       -1.1420390048    -0.4908917673    -1.7594830919
| 18>  H       -1.1363009041    -1.7796413224    -0.5284181949
| 19>  H       -2.1687014980    -0.3488376127    -0.3240529643
| 20>  H        2.2752263612    -0.0642693847     2.5022477020
| 21>  H        0.7170103263     0.7354452917     2.9246698037
| 22>  H       -0.3318246579    -3.6057342960     2.4925133675
| 23> *
| 24>
| 25>                          ****END OF INPUT****

CARTESIAN COORDINATES (ANGSTROEM)
---------------------------------
  C     -0.065945    1.519469   -0.042328
  C     -0.077117    0.009716    0.036343
  C     -1.197277   -0.701612   -0.686056
  O      1.224227   -0.609771   -0.101129
  C      0.603836   -0.657914    1.158348
  C      1.185722   -0.143717    2.476010
  O      0.726833   -1.375013    3.122151
  C      0.255699   -1.901458    1.930761
  N     -0.264339   -3.009735    1.666130
  H      0.804870    1.936463    0.469316
  H     -0.033522    1.842036   -1.088372
  H     -0.972842    1.936298    0.408080
  H     -1.142039   -0.490892   -1.759483
  H     -1.136301   -1.779641   -0.528418
  H     -2.168701   -0.348838   -0.324053
  H      2.275226   -0.064269    2.502248
  H      0.717010    0.735445    2.924670
  H     -0.331825   -3.605734    2.492513

 Total Charge           Charge          ....    0
 Multiplicity           Mult            ....    1
 Number of Electrons    NEL             ....   68
 Basis Dimension        Dim             ....  333

ORBITAL ENERGIES
----------------

  NO   OCC          E(Eh)            E(eV)
   0   2.0000     -20.600099      -560.5572
   1   2.0000     -20.585355      -560.1560
   2   2.0000     -15.547370      -423.0655
   3   2.0000     -11.346297      -308.7484
   4   2.0000     -11.313887      -307.8665
   5   2.0000     -11.313052      -307.8438
   6   2.0000     -11.309149      -307.7376
   7   2.0000     -11.239363      -305.8386
   8   2.0000     -11.226003      -305.4751
   9   2.0000      -1.451214       -39.4895
  10   2.0000      -1.423220       -38.7278
  11   2.0000      -1.205526       -32.8040
  12   2.0000      -1.055926       -28.7332
  13   2.0000      -1.011254       -27.5176
  14   2.0000      -0.962833       -26.2000
  15   2.0000      -0.908021       -24.7085
  16   2.0000      -0.826625       -22.4936
  17   2.0000      -0.725385       -19.7387
  18   2.0000      -0.711626       -19.3643
  19   2.0000      -0.688637       -18.7388
  20   2.0000      -0.681198       -18.5363
  21   2.0000      -0.642763       -17.4905
  22   2.0000      -0.628410       -17.0999
  23   2.0000      -0.593163       -16.1408
  24   2.0000      -0.561268       -15.2729
  25   2.0000      -0.556694       -15.1484
  26   2.0000      -0.547938       -14.9101
  27   2.0000      -0.534796       -14.5525
  28   2.0000      -0.518190       -14.1007
  29   2.0000      -0.511018       -13.9055
  30   2.0000      -0.464771       -12.6471
  31   2.0000      -0.453173       -12.3315
  32   2.0000      -0.435344       -11.8463
  33   2.0000      -0.402886       -10.9631
  34   0.0000       0.125223         3.4075
  35   0.0000       0.150691         4.1005
  36   0.0000       0.160410         4.3650
  37   0.0000       0.165723         4.5095
  38   0.0000       0.178318         4.8523

MULLIKEN ATOMIC CHARGES
-----------------------
   0 C :   -0.403912
   1 C :    0.162702
   2 C :   -0.396973
   3 O :   -0.323363
   4 C :    0.107512
   5 C :    0.003182
   6 O :   -0.263593
   7 C :    0.139532
   8 N :   -0.370899
   9 H :    0.140342
  10 H :    0.144073
  11 H :    0.138892
  12 H :    0.136243
  13 H :    0.178488
  14 H :    0.127036
  15 H :    0.124464
  16 H :    0.123870
  17 H :    0.232402
Sum of atomic charges:   -0.0000000

LOEWDIN ATOMIC CHARGES
----------------------
   0 C :   -0.260834
   1 C :   -0.309822
   2 C :   -0.256979
   3 O :    0.227663
   4 C :   -0.261148
   5 C :   -0.192139
   6 O :    0.213114
   7 C :   -0.360661
   8 N :   -0.040161
   9 H :    0.132137
  10 H :    0.134697
  11 H :    0.133739
  12 H :    0.132060
  13 H :    0.142567
  14 H :    0.133107
  15 H :    0.130160
  16 H :    0.126859
  17 H :    0.175643

  Mayer bond orders larger than 0.1
B(  0-C ,  1-C ) :   0.8988 B(  0-C ,  9-H ) :   0.9394 B(  0-C , 10-H ) :   0.9326
B(  0-C , 11-H ) :   0.9283 B(  1-C ,  2-C ) :   0.8945 B(  1-C ,  3-O ) :   0.8437
B(  1-C ,  4-C ) :   0.9279 B(  2-C , 12-H ) :   0.9303 B(  2-C , 13-H ) :   0.9281
B(  2-C , 14-H ) :   0.9253 B(  3-O ,  4-C ) :   0.9419 B(  4-C ,  5-C ) :   0.9434
B(  4-C ,  7-C ) :   0.8773 B(  5-C ,  6-O ) :   0.8989 B(  5-C , 15-H ) :   0.9076
B(  5-C , 16-H ) :   0.9125 B(  6-O ,  7-C ) :   1.0735 B(  7-C ,  8-N ) :   2.0416
B(  8-N , 17-H ) :   0.8451

MP2 TOTAL ENERGY:     -438.342916833 Eh
FINAL SINGLE POINT ENERGY      -438.342916833298

DIPOLE MOMENT
-------------
                                X             Y             Z
Electronic contribution:      3.81987      -5.43016       4.45864
Nuclear contribution   :     -4.10348       6.52531      -4.18994
                        -----------------------------------------
Total Dipole Moment    :     -0.28361       1.09514       0.26870
                        -----------------------------------------
Magnitude (a.u.)       :      1.16275
Magnitude (Debye)      :      2.95546

                             ****ORCA TERMINATED NORMALLY****
TOTAL RUN TIME: 0 days 0 hours 18 minutes 21 seconds 263 msec
