                         Program Version 3.0.3 - RELEASE   -
|  1> ! RI-MP2 RIJK def2-TZVP def2-TZVP/C def2-TZVP/JK TIGHTSCF
|  2> % maxcore 2000
|  3> % mp2 density relaxed end
|  4> *xyz 0 1
|  5>  C       -0.0858639116     1.4695364010     0.0194339265
|  6>  N       -0.0112235037     0.0271240659     0.0410571783
|  7>  C       -0.0390281752    -0.7644600840    -1.1254142548
|  8>  O       -0.0650919707    -0.3762835191    -2.2760626417
|  9>  N       -0.0348455421    -2.0292831611    -0.6055167837
| 10>  N       -0.0022844199    -2.0741494386     0.7839620942
| 11>  C       -0.0027178997    -0.8193814230     1.1225434059
| 12>  N       -0.0797072807    -0.3453516540     2.4207584368
| 13>  H        0.8472563793     1.9306791680     0.3627322724
| 14>  H       -0.2554084677     1.7584288404    -1.0198965127
| 15>  H       -0.9117190530     1.8244087660     0.6427068260
| 16>  H       -0.0627280662    -2.8804576747    -1.1363148922
| 17>  H       -0.0049630944    -1.1061373005     3.0846892111
| 18>  H        0.5907357755     0.3833382938     2.6335834537
| 19> *
| 20>
| 21>                          ****END OF INPUT****

CARTESIAN COORDINATES (ANGSTROEM)
---------------------------------
  C     -0.085864    1.469536    0.019434
  N     -0.011224    0.027124    0.041057
  C     -0.039028   -0.764460   -1.125414
  O     -0.065092   -0.376284   -2.276063
  N     -0.034846   -2.029283   -0.605517
  N     -0.002284   -2.074149    0.783962
  C     -0.002718   -0.819381    1.122543
  N     -0.079707   -0.345352    2.420758
  H      0.847256    1.930679    0.362732
  H     -0.255408    1.758429   -1.019897
  H     -0.911719    1.824409    0.642707
  H     -0.062728   -2.880458   -1.136315
  H     -0.004963   -1.106137    3.084689
  H      0.590736    0.383338    2.633583

 Total Charge           Charge          ....    0
 Multiplicity           Mult            ....    1
 Number of Electrons    NEL             ....   60
 Basis Dimension        Dim             ....  284

ORBITAL ENERGIES
----------------

  NO   OCC          E(Eh)            E(eV)
   0   2.0000     -20.514370      -558.2244
   1   2.0000     -15.620007      -425.0420
   2   2.0000     -15.615378      -424.9160
   3   2.0000     -15.600220      -424.5036
   4   2.0000     -15.583551      -424.0500
   5   2.0000     -11.379829      -309.6609
   6   2.0000     -11.358009      -309.0671
   7   2.0000     -11.281478      -306.9846
   8   2.0000      -1.428398       -38.8687
   9   2.0000      -1.353027       -36.8177
  10   2.0000      -1.259672       -34.2774
  11   2.0000      -1.224984       -33.3335
  12   2.0000      -1.087808       -29.6008
  13   2.0000      -0.989021       -26.9126
  14   2.0000      -0.864820       -23.5330
  15   2.0000      -0.812708       -22.1149
  16   2.0000      -0.754697       -20.5364
  17   2.0000      -0.692301       -18.8385
  18   2.0000      -0.685518       -18.6539
  19   2.0000      -0.658643       -17.9226
  20   2.0000      -0.649442       -17.6722
  21   2.0000      -0.624372       -16.9900
  22   2.0000      -0.598514       -16.2864
  23   2.0000      -0.570320       -15.5192
  24   2.0000      -0.540145       -14.6981
  25   2.0000      -0.499996       -13.6056
  26   2.0000      -0.479867       -13.0578
  27   2.0000      -0.435397       -11.8477
  28   2.0000      -0.429694       -11.6926
  29   2.0000      -0.328786        -8.9467
  30   0.0000       0.110597         3.0095
  31   0.0000       0.155080         4.2199
  32   0.0000       0.156974         4.2715
  33   0.0000       0.184623         5.0238
  34   0.0000       0.188971         5.1422

MULLIKEN ATOMIC CHARGES
-----------------------
   0 C :   -0.352618
   1 N :   -0.108512
   2 C :    0.275410
   3 O :   -0.388723
   4 N :   -0.208972
   5 N :   -0.228134
   6 C :    0.257412
   7 N :   -0.524740
   8 H :    0.142090
   9 H :    0.186723
  10 H :    0.161467
  11 H :    0.262311
  12 H :    0.266079
  13 H :    0.260207
Sum of atomic charges:   -0.0000000

LOEWDIN ATOMIC CHARGES
----------------------
   0 C :   -0.276196
   1 N :    0.214097
   2 C :   -0.518131
   3 O :    0.043980
   4 N :    0.100937
   5 N :    0.012596
   6 C :   -0.439647
   7 N :   -0.067895
   8 H :    0.119180
   9 H :    0.141948
  10 H :    0.126302
  11 H :    0.186795
  12 H :    0.182229
  13 H :    0.173806

  Mayer bond orders larger than 0.1
B(  0-C ,  1-N ) :   0.8588 B(  0-C ,  8-H ) :   0.9312 B(  0-C ,  9-H ) :   0.9182
B(  0-C , 10-H ) :   0.9280 B(  1-N ,  2-C ) :   1.0145 B(  1-N ,  6-C ) :   1.1267
B(  2-C ,  3-O ) :   1.9577 B(  2-C ,  4-N ) :   1.1627 B(  4-N ,  5-N ) :   0.9156
B(  4-N , 11-H ) :   0.8717 B(  5-N ,  6-C ) :   1.7215 B(  6-C ,  7-N ) :   1.0563
B(  7-N , 12-H ) :   0.8683 B(  7-N , 13-H ) :   0.8636

MP2 TOTAL ENERGY:     -411.422283581 Eh
FINAL SINGLE POINT ENERGY      -411.422283581253

DIPOLE MOMENT
-------------
                                X             Y             Z
Electronic contribution:     -0.01617      -4.61549      -2.60188
Nuclear contribution   :      0.39566       5.10899       3.99934
                        -----------------------------------------
Total Dipole Moment    :      0.37948       0.49350       1.39746
                        -----------------------------------------
Magnitude (a.u.)       :      1.52985
Magnitude (Debye)      :      3.88858

                             ****ORCA TERMINATED NORMALLY****
TOTAL RUN TIME: 0 days 0 hours 10 minutes 39 seconds 984 msec
