                         Program Version 3.0.3 - RELEASE   -
|  1> ! RI-MP2 RIJK def2-TZVP def2-TZVP/C def2-TZVP/JK TIGHTSCF
|  2> % maxcore 2000
|  3> % mp2 density relaxed end
|  4> *xyz 0 1
|  5>  O       -0.1228227905     1.3568868705     0.1090294187
|  6>  N        0.0492409552    -0.0454645966     0.0737277767
|  7>  C       -1.0881466805    -0.6481408150    -0.0471260373
|  8>  C       -2.3970097400    -0.0061286285    -0.1382878458
|  9>  C       -3.5016674777    -0.7453871197    -0.2612021143
| 10>  O       -3.4986300471    -2.1154054640    -0.3100987490
| 11>  C       -2.2899642370    -2.7385870758    -0.2269866546
| 12>  O       -2.4209339893    -4.0724034506    -0.2862398628
| 13>  C       -1.1188898435    -2.0966474925    -0.1017816244
| 14>  H        0.7847643640     1.6626897619     0.1991766529
| 15>  H       -2.4714412416     1.0706142008    -0.1061411749
| 16>  H       -4.5107749025    -0.3634646171    -0.3355423002
| 17>  H       -3.3595601260    -4.2776670622    -0.3756642114
| 18>  H       -0.2021680636    -2.6661952613    -0.0422258035
| 19> *
| 20>
| 21>                          ****END OF INPUT****

CARTESIAN COORDINATES (ANGSTROEM)
---------------------------------
  O     -0.122823    1.356887    0.109029
  N      0.049241   -0.045465    0.073728
  C     -1.088147   -0.648141   -0.047126
  C     -2.397010   -0.006129   -0.138288
  C     -3.501667   -0.745387   -0.261202
  O     -3.498630   -2.115405   -0.310099
  C     -2.289964   -2.738587   -0.226987
  O     -2.420934   -4.072403   -0.286240
  C     -1.118890   -2.096647   -0.101782
  H      0.784764    1.662690    0.199177
  H     -2.471441    1.070614   -0.106141
  H     -4.510775   -0.363465   -0.335542
  H     -3.359560   -4.277667   -0.375664
  H     -0.202168   -2.666195   -0.042226

 Total Charge           Charge          ....    0
 Multiplicity           Mult            ....    1
 Number of Electrons    NEL             ....   66
 Basis Dimension        Dim             ....  309

ORBITAL ENERGIES
----------------

  NO   OCC          E(Eh)            E(eV)
   0   2.0000     -20.648536      -561.8752
   1   2.0000     -20.621011      -561.1262
   2   2.0000     -20.578267      -559.9631
   3   2.0000     -15.594942      -424.3599
   4   2.0000     -11.388163      -309.8877
   5   2.0000     -11.330140      -308.3088
   6   2.0000     -11.287887      -307.1590
   7   2.0000     -11.247986      -306.0733
   8   2.0000     -11.229540      -305.5713
   9   2.0000      -1.505908       -40.9778
  10   2.0000      -1.419350       -38.6225
  11   2.0000      -1.401452       -38.1354
  12   2.0000      -1.169907       -31.8348
  13   2.0000      -1.067958       -29.0606
  14   2.0000      -1.052002       -28.6264
  15   2.0000      -0.903154       -24.5761
  16   2.0000      -0.853311       -23.2198
  17   2.0000      -0.765208       -20.8224
  18   2.0000      -0.743723       -20.2377
  19   2.0000      -0.714234       -19.4353
  20   2.0000      -0.687355       -18.7039
  21   2.0000      -0.667420       -18.1614
  22   2.0000      -0.642774       -17.4908
  23   2.0000      -0.633847       -17.2479
  24   2.0000      -0.606053       -16.4915
  25   2.0000      -0.585253       -15.9255
  26   2.0000      -0.579595       -15.7716
  27   2.0000      -0.561824       -15.2880
  28   2.0000      -0.545472       -14.8430
  29   2.0000      -0.460675       -12.5356
  30   2.0000      -0.429555       -11.6888
  31   2.0000      -0.383410       -10.4331
  32   2.0000      -0.308386        -8.3916
  33   0.0000       0.108312         2.9473
  34   0.0000       0.135505         3.6873
  35   0.0000       0.156272         4.2524
  36   0.0000       0.159450         4.3389
  37   0.0000       0.163349         4.4450

MULLIKEN ATOMIC CHARGES
-----------------------
   0 O :   -0.384672
   1 N :   -0.102438
   2 C :    0.166426
   3 C :   -0.248766
   4 C :    0.052612
   5 O :   -0.253550
   6 C :    0.376971
   7 O :   -0.403214
   8 C :   -0.336959
   9 H :    0.334804
  10 H :    0.159739
  11 H :    0.150893
  12 H :    0.345965
  13 H :    0.142187
Sum of atomic charges:    0.0000000

LOEWDIN ATOMIC CHARGES
----------------------
   0 O :   -0.090084
   1 N :    0.004774
   2 C :   -0.298182
   3 C :   -0.138057
   4 C :   -0.204599
   5 O :    0.301480
   6 C :   -0.381372
   7 O :    0.099273
   8 C :   -0.132974
   9 H :    0.167598
  10 H :    0.162509
  11 H :    0.142724
  12 H :    0.203326
  13 H :    0.163586

  Mayer bond orders larger than 0.1
B(  0-O ,  1-N ) :   0.7836 B(  0-O ,  9-H ) :   0.8465 B(  1-N ,  2-C ) :   1.7804
B(  2-C ,  3-C ) :   1.0101 B(  2-C ,  8-C ) :   1.0583 B(  3-C ,  4-C ) :   1.6581
B(  3-C , 10-H ) :   0.8972 B(  4-C ,  5-O ) :   0.9950 B(  4-C , 11-H ) :   0.9343
B(  5-O ,  6-C ) :   1.0130 B(  6-C ,  7-O ) :   1.1284 B(  6-C ,  8-C ) :   1.6207
B(  7-O , 12-H ) :   0.8134 B(  8-C , 13-H ) :   0.9194

MP2 TOTAL ENERGY:     -473.043096080 Eh
FINAL SINGLE POINT ENERGY      -473.043096079596

DIPOLE MOMENT
-------------
                                X             Y             Z
Electronic contribution:     -0.41042      -1.64122      -0.09467
Nuclear contribution   :     -0.64054       1.50896      -0.00188
                        -----------------------------------------
Total Dipole Moment    :     -1.05097      -0.13226      -0.09655
                        -----------------------------------------
Magnitude (a.u.)       :      1.06365
Magnitude (Debye)      :      2.70357

                             ****ORCA TERMINATED NORMALLY****
TOTAL RUN TIME: 0 days 0 hours 13 minutes 9 seconds 222 msec
