                         Program Version 3.0.3 - RELEASE   -
|  1> ! RI-MP2 RIJK def2-TZVP def2-TZVP/C def2-TZVP/JK TIGHTSCF
|  2> % maxcore 2000
|  3> % mp2 density relaxed end
|  4> *xyz 0 1
|  5>  C       -0.4119943781     1.5227242795     0.0323639100
|  6>  C        0.0479057388     0.0689998955     0.0407533009
|  7>  O       -1.0777320376    -0.8174305409     0.1154532780
|  8>  C        0.9602860773    -0.3237844719    -1.1381591497
|  9>  C        1.6664944881    -1.6276167236    -0.6901287970
| 10>  C        1.4917227704    -1.6888600349     0.8547336558
| 11>  C        0.9045877048    -0.3262355764     1.2589448579
| 12>  O        1.9123481754     0.6731513191     1.3959791062
| 13>  H        0.4390557448     2.2022684755     0.1059809247
| 14>  H       -0.9550163883     1.7478565863    -0.8937820870
| 15>  H       -1.0855112141     1.7103353379     0.8738788155
| 16>  H       -1.6101835356    -0.6749060524    -0.6737395653
| 17>  H        0.3858305847    -0.4416577548    -2.0635459037
| 18>  H        1.6902988923     0.4730588082    -1.3041838587
| 19>  H        1.2154206218    -2.5051378312    -1.1591855695
| 20>  H        2.7201304255    -1.6213158634    -0.9803811416
| 21>  H        0.7908217283    -2.4794101137     1.1328726729
| 22>  H        2.4311724524    -1.8848717457     1.3828554349
| 23>  H        0.2853477491    -0.3843023046     2.1642633395
| 24>  H        2.5400388697     0.3672424414     2.0571045861
| 25> *
| 26>
| 27>                          ****END OF INPUT****

CARTESIAN COORDINATES (ANGSTROEM)
---------------------------------
  C     -0.411994    1.522724    0.032364
  C      0.047906    0.069000    0.040753
  O     -1.077732   -0.817431    0.115453
  C      0.960286   -0.323784   -1.138159
  C      1.666494   -1.627617   -0.690129
  C      1.491723   -1.688860    0.854734
  C      0.904588   -0.326236    1.258945
  O      1.912348    0.673151    1.395979
  H      0.439056    2.202268    0.105981
  H     -0.955016    1.747857   -0.893782
  H     -1.085511    1.710335    0.873879
  H     -1.610184   -0.674906   -0.673740
  H      0.385831   -0.441658   -2.063546
  H      1.690299    0.473059   -1.304184
  H      1.215421   -2.505138   -1.159186
  H      2.720130   -1.621316   -0.980381
  H      0.790822   -2.479410    1.132873
  H      2.431172   -1.884872    1.382855
  H      0.285348   -0.384302    2.164263
  H      2.540039    0.367242    2.057105

 Total Charge           Charge          ....    0
 Multiplicity           Mult            ....    1
 Number of Electrons    NEL             ....   64
 Basis Dimension        Dim             ....  320

ORBITAL ENERGIES
----------------

  NO   OCC          E(Eh)            E(eV)
   0   2.0000     -20.553683      -559.2941
   1   2.0000     -20.550607      -559.2104
   2   2.0000     -11.277367      -306.8728
   3   2.0000     -11.270877      -306.6962
   4   2.0000     -11.215574      -305.1913
   5   2.0000     -11.214856      -305.1718
   6   2.0000     -11.213496      -305.1347
   7   2.0000     -11.207287      -304.9658
   8   2.0000      -1.368193       -37.2304
   9   2.0000      -1.351932       -36.7879
  10   2.0000      -1.097786       -29.8723
  11   2.0000      -1.001047       -27.2399
  12   2.0000      -0.955570       -26.0024
  13   2.0000      -0.894113       -24.3301
  14   2.0000      -0.789540       -21.4845
  15   2.0000      -0.758473       -20.6391
  16   2.0000      -0.700058       -19.0495
  17   2.0000      -0.651070       -17.7165
  18   2.0000      -0.639221       -17.3941
  19   2.0000      -0.632685       -17.2162
  20   2.0000      -0.607396       -16.5281
  21   2.0000      -0.568598       -15.4723
  22   2.0000      -0.547674       -14.9030
  23   2.0000      -0.546872       -14.8811
  24   2.0000      -0.528743       -14.3878
  25   2.0000      -0.505137       -13.7455
  26   2.0000      -0.499718       -13.5980
  27   2.0000      -0.473196       -12.8763
  28   2.0000      -0.463517       -12.6129
  29   2.0000      -0.443199       -12.0601
  30   2.0000      -0.430489       -11.7142
  31   2.0000      -0.424051       -11.5390
  32   0.0000       0.129327         3.5192
  33   0.0000       0.147004         4.0002
  34   0.0000       0.165900         4.5144
  35   0.0000       0.178765         4.8644
  36   0.0000       0.186938         5.0869

MULLIKEN ATOMIC CHARGES
-----------------------
   0 C :   -0.423799
   1 C :    0.262965
   2 O :   -0.486011
   3 C :   -0.322993
   4 C :   -0.175247
   5 C :   -0.282882
   6 C :    0.099630
   7 O :   -0.482039
   8 H :    0.148494
   9 H :    0.119203
  10 H :    0.136461
  11 H :    0.313119
  12 H :    0.115221
  13 H :    0.117420
  14 H :    0.110161
  15 H :    0.111303
  16 H :    0.118875
  17 H :    0.113297
  18 H :    0.093325
  19 H :    0.313498
Sum of atomic charges:   -0.0000000

LOEWDIN ATOMIC CHARGES
----------------------
   0 C :   -0.279251
   1 C :   -0.381274
   2 O :    0.008878
   3 C :   -0.224476
   4 C :   -0.246633
   5 C :   -0.242922
   6 C :   -0.301507
   7 O :   -0.014885
   8 H :    0.133337
   9 H :    0.122263
  10 H :    0.128526
  11 H :    0.174289
  12 H :    0.131768
  13 H :    0.145138
  14 H :    0.133822
  15 H :    0.132131
  16 H :    0.142399
  17 H :    0.129187
  18 H :    0.135572
  19 H :    0.173638

  Mayer bond orders larger than 0.1
B(  0-C ,  1-C ) :   0.9187 B(  0-C ,  8-H ) :   0.9285 B(  0-C ,  9-H ) :   0.9273
B(  0-C , 10-H ) :   0.9426 B(  1-C ,  2-O ) :   0.9194 B(  1-C ,  3-C ) :   0.9481
B(  1-C ,  6-C ) :   0.8532 B(  2-O , 11-H ) :   0.8445 B(  3-C ,  4-C ) :   0.9594
B(  3-C , 12-H ) :   0.9243 B(  3-C , 13-H ) :   0.9107 B(  4-C ,  5-C ) :   0.9468
B(  4-C , 14-H ) :   0.9339 B(  4-C , 15-H ) :   0.9340 B(  5-C ,  6-C ) :   0.9565
B(  5-C , 16-H ) :   0.9110 B(  5-C , 17-H ) :   0.9319 B(  6-C ,  7-O ) :   0.9891
B(  6-C , 18-H ) :   0.9308 B(  7-O , 19-H ) :   0.8457

MP2 TOTAL ENERGY:     -385.537087258 Eh
FINAL SINGLE POINT ENERGY      -385.537087258044

DIPOLE MOMENT
-------------
                                X             Y             Z
Electronic contribution:     -0.54699      -0.19167       2.06430
Nuclear contribution   :      0.71083       0.06081      -2.20634
                        -----------------------------------------
Total Dipole Moment    :      0.16383      -0.13087      -0.14203
                        -----------------------------------------
Magnitude (a.u.)       :      0.25326
Magnitude (Debye)      :      0.64374

                             ****ORCA TERMINATED NORMALLY****
TOTAL RUN TIME: 0 days 0 hours 14 minutes 2 seconds 759 msec
