                         Program Version 3.0.3 - RELEASE   -
|  1> ! RI-MP2 RIJK def2-TZVP def2-TZVP/C def2-TZVP/JK TIGHTSCF
|  2> % maxcore 2000
|  3> % mp2 density relaxed end
|  4> *xyz 0 1
|  5>  C       -0.1256815720     1.4406976633    -0.1852389389
|  6>  C        1.2822835153     0.9763347873     0.0661888646
|  7>  C        0.1494463559    -0.0303748388     0.0543923551
|  8>  C       -0.2959969663    -0.7095685861     1.2933772261
|  9>  C       -0.3523439856    -0.1957879347     2.5744191340
| 10>  N       -0.8272316141    -1.1789721248     3.4081979285
| 11>  C       -1.0784763597    -2.3170927394     2.6895884986
| 12>  C       -0.7591194472    -2.0569342112     1.3775099928
| 13>  H       -0.6383467795     1.9798061258     0.6043293576
| 14>  H       -0.3932704951     1.7571217696    -1.1878112131
| 15>  H        1.9807261871     0.9740815941    -0.7639001721
| 16>  H        1.7332273265     1.1978820238     1.0276773924
| 17>  H        0.0978418272    -0.6634351460    -0.8259922229
| 18>  H       -0.0968575277     0.7781091986     2.9606110238
| 19>  H       -0.9682616456    -1.0754883557     4.3971535315
| 20>  H       -1.4587222809    -3.2055822007     3.1672050839
| 21>  H       -0.8439311884    -2.7508387752     0.5545014580
| 22> *
| 23>
| 24>                          ****END OF INPUT****

CARTESIAN COORDINATES (ANGSTROEM)
---------------------------------
  C     -0.125682    1.440698   -0.185239
  C      1.282284    0.976335    0.066189
  C      0.149446   -0.030375    0.054392
  C     -0.295997   -0.709569    1.293377
  C     -0.352344   -0.195788    2.574419
  N     -0.827232   -1.178972    3.408198
  C     -1.078476   -2.317093    2.689588
  C     -0.759119   -2.056934    1.377510
  H     -0.638347    1.979806    0.604329
  H     -0.393270    1.757122   -1.187811
  H      1.980726    0.974082   -0.763900
  H      1.733227    1.197882    1.027677
  H      0.097842   -0.663435   -0.825992
  H     -0.096858    0.778109    2.960611
  H     -0.968262   -1.075488    4.397154
  H     -1.458722   -3.205582    3.167205
  H     -0.843931   -2.750839    0.554501

 Total Charge           Charge          ....    0
 Multiplicity           Mult            ....    1
 Number of Electrons    NEL             ....   58
 Basis Dimension        Dim             ....  302

ORBITAL ENERGIES
----------------

  NO   OCC          E(Eh)            E(eV)
   0   2.0000     -15.599588      -424.4864
   1   2.0000     -11.248074      -306.0757
   2   2.0000     -11.241554      -305.8982
   3   2.0000     -11.227975      -305.5287
   4   2.0000     -11.219142      -305.2884
   5   2.0000     -11.218485      -305.2705
   6   2.0000     -11.213387      -305.1318
   7   2.0000     -11.202562      -304.8372
   8   2.0000      -1.285491       -34.9800
   9   2.0000      -1.137553       -30.9544
  10   2.0000      -1.037512       -28.2321
  11   2.0000      -0.972899       -26.4739
  12   2.0000      -0.849441       -23.1145
  13   2.0000      -0.815166       -22.1818
  14   2.0000      -0.779049       -21.1990
  15   2.0000      -0.735242       -20.0070
  16   2.0000      -0.724976       -19.7276
  17   2.0000      -0.646845       -17.6015
  18   2.0000      -0.618022       -16.8172
  19   2.0000      -0.578048       -15.7295
  20   2.0000      -0.566668       -15.4198
  21   2.0000      -0.566603       -15.4181
  22   2.0000      -0.526574       -14.3288
  23   2.0000      -0.509231       -13.8569
  24   2.0000      -0.504150       -13.7186
  25   2.0000      -0.440590       -11.9891
  26   2.0000      -0.415016       -11.2932
  27   2.0000      -0.326210        -8.8766
  28   2.0000      -0.285454        -7.7676
  29   0.0000       0.135053         3.6750
  30   0.0000       0.161376         4.3913
  31   0.0000       0.164916         4.4876
  32   0.0000       0.165915         4.5148
  33   0.0000       0.189577         5.1586

MULLIKEN ATOMIC CHARGES
-----------------------
   0 C :   -0.257231
   1 C :   -0.257212
   2 C :   -0.090112
   3 C :    0.089705
   4 C :   -0.157562
   5 N :   -0.253948
   6 C :   -0.058062
   7 C :   -0.287956
   8 H :    0.127061
   9 H :    0.125772
  10 H :    0.125807
  11 H :    0.126972
  12 H :    0.116006
  13 H :    0.144696
  14 H :    0.241163
  15 H :    0.144067
  16 H :    0.120835
Sum of atomic charges:   -0.0000000

LOEWDIN ATOMIC CHARGES
----------------------
   0 C :   -0.222599
   1 C :   -0.222628
   2 C :   -0.189544
   3 C :   -0.175340
   4 C :   -0.215937
   5 N :    0.178090
   6 C :   -0.245041
   7 C :   -0.174378
   8 H :    0.131394
   9 H :    0.129097
  10 H :    0.129115
  11 H :    0.131370
  12 H :    0.153349
  13 H :    0.132776
  14 H :    0.189745
  15 H :    0.130870
  16 H :    0.139663

  Mayer bond orders larger than 0.1
B(  0-C ,  1-C ) :   0.8984 B(  0-C ,  2-C ) :   0.8531 B(  0-C ,  8-H ) :   0.9337
B(  0-C ,  9-H ) :   0.9291 B(  1-C ,  2-C ) :   0.8535 B(  1-C , 10-H ) :   0.9291
B(  1-C , 11-H ) :   0.9337 B(  2-C ,  3-C ) :   0.9468 B(  2-C , 12-H ) :   0.9414
B(  3-C ,  4-C ) :   1.4219 B(  3-C ,  7-C ) :   1.2537 B(  4-C ,  5-N ) :   1.1447
B(  4-C , 13-H ) :   0.9086 B(  5-N ,  6-C ) :   1.1249 B(  5-N , 14-H ) :   0.8790
B(  6-C ,  7-C ) :   1.4839 B(  6-C , 15-H ) :   0.9155 B(  7-C , 16-H ) :   0.9316

MP2 TOTAL ENERGY:     -326.149292450 Eh
FINAL SINGLE POINT ENERGY      -326.149292449645

DIPOLE MOMENT
-------------
                                X             Y             Z
Electronic contribution:     -1.61968      -3.10568       3.33881
Nuclear contribution   :      1.52191       3.16930      -2.66876
                        -----------------------------------------
Total Dipole Moment    :     -0.09777       0.06362       0.67006
                        -----------------------------------------
Magnitude (a.u.)       :      0.68013
Magnitude (Debye)      :      1.72876

                             ****ORCA TERMINATED NORMALLY****
TOTAL RUN TIME: 0 days 0 hours 11 minutes 57 seconds 171 msec
