                         Program Version 3.0.3 - RELEASE   -
|  1> ! RI-MP2 RIJK def2-TZVP def2-TZVP/C def2-TZVP/JK TIGHTSCF
|  2> % maxcore 2000
|  3> % mp2 density relaxed end
|  4> *xyz 0 1
|  5>  C        0.0546128711     1.5240942804    -0.0337357157
|  6>  C        0.0747790865     0.0133526138     0.0222861560
|  7>  C        0.5127998064    -0.7335860107    -1.2346402307
|  8>  C        1.6885434250    -1.6404702820    -1.1511030645
|  9>  N        0.3328961971    -2.1520540370    -0.8697728087
| 10>  C       -0.0743582297    -1.9823800816     0.5359236932
| 11>  C        0.6340991183    -0.7798890905     1.2569748818
| 12>  C       -0.6751115628    -0.5240013885     2.0356533274
| 13>  C       -1.1353052196    -0.8427763583     0.5994843684
| 14>  H        1.0625664990     1.9194450644    -0.2028036931
| 15>  H       -0.5764234267     1.8738098960    -0.8588569446
| 16>  H       -0.3280205748     1.9708108689     0.8881853633
| 17>  H        0.1305160011    -0.4091333011    -2.1997641819
| 18>  H        2.1268183139    -2.0271601386    -2.0669412791
| 19>  H        2.3887631596    -1.5277101015    -0.3289720288
| 20>  H       -0.2371401568    -2.9179369572     1.0714344422
| 21>  H        1.6491472885    -0.7415823675     1.6557788115
| 22>  H       -0.9337922536    -1.2575119348     2.8043718309
| 23>  H       -0.8444907315     0.4899986858     2.4034167212
| 24>  H       -2.1520530911    -0.8814350999     0.2043747713
| 25> *
| 26>
| 27>                          ****END OF INPUT****

CARTESIAN COORDINATES (ANGSTROEM)
---------------------------------
  C      0.054613    1.524094   -0.033736
  C      0.074779    0.013353    0.022286
  C      0.512800   -0.733586   -1.234640
  C      1.688543   -1.640470   -1.151103
  N      0.332896   -2.152054   -0.869773
  C     -0.074358   -1.982380    0.535924
  C      0.634099   -0.779889    1.256975
  C     -0.675112   -0.524001    2.035653
  C     -1.135305   -0.842776    0.599484
  H      1.062566    1.919445   -0.202804
  H     -0.576423    1.873810   -0.858857
  H     -0.328021    1.970811    0.888185
  H      0.130516   -0.409133   -2.199764
  H      2.126818   -2.027160   -2.066941
  H      2.388763   -1.527710   -0.328972
  H     -0.237140   -2.917937    1.071434
  H      1.649147   -0.741582    1.655779
  H     -0.933792   -1.257512    2.804372
  H     -0.844491    0.489999    2.403417
  H     -2.152053   -0.881435    0.204375

 Total Charge           Charge          ....    0
 Multiplicity           Mult            ....    1
 Number of Electrons    NEL             ....   66
 Basis Dimension        Dim             ....  345

ORBITAL ENERGIES
----------------

  NO   OCC          E(Eh)            E(eV)
   0   2.0000     -15.551059      -423.1658
   1   2.0000     -11.260112      -306.4032
   2   2.0000     -11.252153      -306.1866
   3   2.0000     -11.249481      -306.1139
   4   2.0000     -11.247903      -306.0710
   5   2.0000     -11.240162      -305.8604
   6   2.0000     -11.238711      -305.8209
   7   2.0000     -11.226855      -305.4983
   8   2.0000     -11.219543      -305.2993
   9   2.0000      -1.299587       -35.3636
  10   2.0000      -1.179069       -32.0841
  11   2.0000      -1.014845       -27.6153
  12   2.0000      -0.938129       -25.5278
  13   2.0000      -0.895762       -24.3749
  14   2.0000      -0.867723       -23.6119
  15   2.0000      -0.821742       -22.3607
  16   2.0000      -0.770338       -20.9620
  17   2.0000      -0.711897       -19.3717
  18   2.0000      -0.677879       -18.4460
  19   2.0000      -0.660178       -17.9644
  20   2.0000      -0.610090       -16.6014
  21   2.0000      -0.594139       -16.1673
  22   2.0000      -0.573619       -15.6090
  23   2.0000      -0.555516       -15.1164
  24   2.0000      -0.536010       -14.5856
  25   2.0000      -0.499779       -13.5997
  26   2.0000      -0.474858       -12.9215
  27   2.0000      -0.459647       -12.5076
  28   2.0000      -0.450913       -12.2700
  29   2.0000      -0.441130       -12.0038
  30   2.0000      -0.423635       -11.5277
  31   2.0000      -0.406551       -11.0628
  32   2.0000      -0.359207        -9.7745
  33   0.0000       0.140173         3.8143
  34   0.0000       0.159020         4.3271
  35   0.0000       0.164990         4.4896
  36   0.0000       0.177551         4.8314
  37   0.0000       0.189207         5.1486

MULLIKEN ATOMIC CHARGES
-----------------------
   0 C :   -0.422775
   1 C :    0.102891
   2 C :   -0.107138
   3 C :   -0.166891
   4 N :   -0.241447
   5 C :   -0.002706
   6 C :   -0.163427
   7 C :   -0.242325
   8 C :   -0.138817
   9 H :    0.138360
  10 H :    0.135772
  11 H :    0.131441
  12 H :    0.124957
  13 H :    0.124103
  14 H :    0.124664
  15 H :    0.116234
  16 H :    0.127931
  17 H :    0.114778
  18 H :    0.114259
  19 H :    0.130137
Sum of atomic charges:    0.0000000

LOEWDIN ATOMIC CHARGES
----------------------
   0 C :   -0.267402
   1 C :   -0.201247
   2 C :   -0.202879
   3 C :   -0.231791
   4 N :    0.128803
   5 C :   -0.195711
   6 C :   -0.141285
   7 C :   -0.200467
   8 C :   -0.117815
   9 H :    0.130919
  10 H :    0.130121
  11 H :    0.127362
  12 H :    0.140254
  13 H :    0.127238
  14 H :    0.128165
  15 H :    0.138105
  16 H :    0.124633
  17 H :    0.129665
  18 H :    0.125718
  19 H :    0.127611

  Mayer bond orders larger than 0.1
B(  0-C ,  1-C ) :   0.8822 B(  0-C ,  9-H ) :   0.9379 B(  0-C , 10-H ) :   0.9388
B(  0-C , 11-H ) :   0.9360 B(  1-C ,  2-C ) :   0.9484 B(  1-C ,  6-C ) :   0.8520
B(  1-C ,  8-C ) :   0.8803 B(  2-C ,  3-C ) :   0.9582 B(  2-C ,  4-N ) :   0.9139
B(  2-C , 12-H ) :   0.9000 B(  3-C ,  4-N ) :   0.9006 B(  3-C , 13-H ) :   0.9288
B(  3-C , 14-H ) :   0.9019 B(  4-N ,  5-C ) :   0.9323 B(  5-C ,  6-C ) :   0.8643
B(  5-C ,  8-C ) :   0.8578 B(  5-C , 15-H ) :   0.9416 B(  6-C ,  7-C ) :   0.9112
B(  6-C , 16-H ) :   0.9005 B(  7-C ,  8-C ) :   0.9100 B(  7-C , 17-H ) :   0.9229
B(  7-C , 18-H ) :   0.9244 B(  8-C , 19-H ) :   0.8824

MP2 TOTAL ENERGY:     -365.284595918 Eh
FINAL SINGLE POINT ENERGY      -365.284595918185

DIPOLE MOMENT
-------------
                                X             Y             Z
Electronic contribution:     -0.23827      -4.11087      -1.52869
Nuclear contribution   :      0.44744       4.64825       1.82730
                        -----------------------------------------
Total Dipole Moment    :      0.20917       0.53738       0.29860
                        -----------------------------------------
Magnitude (a.u.)       :      0.64938
Magnitude (Debye)      :      1.65060

                             ****ORCA TERMINATED NORMALLY****
TOTAL RUN TIME: 0 days 0 hours 19 minutes 27 seconds 111 msec
