                         Program Version 3.0.3 - RELEASE   -
|  1> ! RI-MP2 RIJK def2-TZVP def2-TZVP/C def2-TZVP/JK TIGHTSCF
|  2> % maxcore 2000
|  3> % mp2 density relaxed end
|  4> *xyz 0 1
|  5>  O       -0.0382408563     1.4240600404    -0.0069142958
|  6>  C        1.2641801492     0.8250077019     0.0250875531
|  7>  C        0.0432237321    -0.0034570218     0.0440638747
|  8>  C        0.0061081795    -0.7082316466    -1.3144196631
|  9>  C        1.4680366520    -0.8486603467    -1.8141404903
| 10>  C        0.9763759893    -0.2631447873    -3.1732730471
| 11>  C        0.9839048061     1.0646688960    -2.5192205576
| 12>  C        1.8783710801     0.5996543312    -1.3551921564
| 13>  N       -0.2582812923     0.2164828638    -2.4853749824
| 14>  H        1.8653970545     1.0527783944     0.9007498217
| 15>  H       -0.3746563158    -0.4658199428     0.9342177701
| 16>  H       -0.6377831342    -1.5857390260    -1.3749325083
| 17>  H        2.1003067519    -1.7149744377    -1.6281020951
| 18>  H        1.0075357003    -0.5856683620    -4.2040974272
| 19>  H        0.8748616318     2.0570335842    -2.9345640214
| 20>  H        2.9324328517     0.8525117691    -1.4679044248
| 21> *
| 22>
| 23>                          ****END OF INPUT****

CARTESIAN COORDINATES (ANGSTROEM)
---------------------------------
  O     -0.038241    1.424060   -0.006914
  C      1.264180    0.825008    0.025088
  C      0.043224   -0.003457    0.044064
  C      0.006108   -0.708232   -1.314420
  C      1.468037   -0.848660   -1.814140
  C      0.976376   -0.263145   -3.173273
  C      0.983905    1.064669   -2.519221
  C      1.878371    0.599654   -1.355192
  N     -0.258281    0.216483   -2.485375
  H      1.865397    1.052778    0.900750
  H     -0.374656   -0.465820    0.934218
  H     -0.637783   -1.585739   -1.374933
  H      2.100307   -1.714974   -1.628102
  H      1.007536   -0.585668   -4.204097
  H      0.874862    2.057034   -2.934564
  H      2.932433    0.852512   -1.467904

 Total Charge           Charge          ....    0
 Multiplicity           Mult            ....    1
 Number of Electrons    NEL             ....   64
 Basis Dimension        Dim             ....  321

ORBITAL ENERGIES
----------------

  NO   OCC          E(Eh)            E(eV)
   0   2.0000     -20.568534      -559.6983
   1   2.0000     -15.563692      -423.5096
   2   2.0000     -11.285411      -307.0916
   3   2.0000     -11.284383      -307.0637
   4   2.0000     -11.268271      -306.6252
   5   2.0000     -11.264248      -306.5158
   6   2.0000     -11.263357      -306.4915
   7   2.0000     -11.250370      -306.1381
   8   2.0000     -11.248613      -306.0903
   9   2.0000      -1.415988       -38.5310
  10   2.0000      -1.317281       -35.8451
  11   2.0000      -1.058089       -28.7921
  12   2.0000      -1.014853       -27.6156
  13   2.0000      -0.930284       -25.3143
  14   2.0000      -0.859965       -23.4008
  15   2.0000      -0.850036       -23.1307
  16   2.0000      -0.747365       -20.3368
  17   2.0000      -0.735158       -20.0047
  18   2.0000      -0.719371       -19.5751
  19   2.0000      -0.694085       -18.8870
  20   2.0000      -0.634829       -17.2746
  21   2.0000      -0.590464       -16.0673
  22   2.0000      -0.570557       -15.5256
  23   2.0000      -0.562595       -15.3090
  24   2.0000      -0.537929       -14.6378
  25   2.0000      -0.523019       -14.2321
  26   2.0000      -0.479613       -13.0509
  27   2.0000      -0.436470       -11.8770
  28   2.0000      -0.432982       -11.7820
  29   2.0000      -0.419504       -11.4153
  30   2.0000      -0.410994       -11.1837
  31   2.0000      -0.367063        -9.9883
  32   0.0000       0.146895         3.9972
  33   0.0000       0.160608         4.3704
  34   0.0000       0.169517         4.6128
  35   0.0000       0.171263         4.6603
  36   0.0000       0.188185         5.1208

MULLIKEN ATOMIC CHARGES
-----------------------
   0 O :   -0.305032
   1 C :   -0.059476
   2 C :   -0.090104
   3 C :    0.094195
   4 C :   -0.100778
   5 C :   -0.144089
   6 C :   -0.096396
   7 C :   -0.025856
   8 N :   -0.233562
   9 H :    0.124166
  10 H :    0.121241
  11 H :    0.140864
  12 H :    0.139814
  13 H :    0.147888
  14 H :    0.143332
  15 H :    0.143792
Sum of atomic charges:    0.0000000

LOEWDIN ATOMIC CHARGES
----------------------
   0 O :    0.186454
   1 C :   -0.231683
   2 C :   -0.232277
   3 C :   -0.196449
   4 C :   -0.126120
   5 C :   -0.174115
   6 C :   -0.177655
   7 C :   -0.165974
   8 N :    0.153606
   9 H :    0.133255
  10 H :    0.134049
  11 H :    0.145395
  12 H :    0.131828
  13 H :    0.130037
  14 H :    0.137519
  15 H :    0.152131

  Mayer bond orders larger than 0.1
B(  0-O ,  1-C ) :   0.9578 B(  0-O ,  2-C ) :   0.9343 B(  1-C ,  2-C ) :   0.9821
B(  1-C ,  7-C ) :   0.8955 B(  1-C ,  9-H ) :   0.9333 B(  2-C ,  3-C ) :   0.8871
B(  2-C , 10-H ) :   0.9368 B(  3-C ,  4-C ) :   0.9535 B(  3-C ,  8-N ) :   0.9139
B(  3-C , 11-H ) :   0.9064 B(  4-C ,  5-C ) :   0.9420 B(  4-C ,  7-C ) :   0.9374
B(  4-C , 12-H ) :   0.9093 B(  5-C ,  6-C ) :   0.8839 B(  5-C ,  8-N ) :   0.8906
B(  5-C , 13-H ) :   0.9070 B(  6-C ,  7-C ) :   0.8671 B(  6-C ,  8-N ) :   0.8957
B(  6-C , 14-H ) :   0.9217 B(  7-C , 15-H ) :   0.9048

MP2 TOTAL ENERGY:     -399.963402312 Eh
FINAL SINGLE POINT ENERGY      -399.963402312259

DIPOLE MOMENT
-------------
                                X             Y             Z
Electronic contribution:     -1.72257       1.39536       0.32082
Nuclear contribution   :      2.76602      -2.16091      -0.14767
                        -----------------------------------------
Total Dipole Moment    :      1.04345      -0.76555       0.17315
                        -----------------------------------------
Magnitude (a.u.)       :      1.30569
Magnitude (Debye)      :      3.31881

                             ****ORCA TERMINATED NORMALLY****
TOTAL RUN TIME: 0 days 0 hours 18 minutes 24 seconds 201 msec
