                         Program Version 3.0.3 - RELEASE   -
|  1> ! RI-MP2 RIJK def2-TZVP def2-TZVP/C def2-TZVP/JK TIGHTSCF
|  2> % maxcore 2000
|  3> % mp2 density relaxed end
|  4> *xyz 0 1
|  5>  C        0.7927759864     1.6563061867    -0.0820123027
|  6>  C        0.5440745511     0.1599610634    -0.2965852054
|  7>  C        1.2902936005    -0.4705946692    -1.4950006727
|  8>  C        0.9251068209     0.2046556439    -2.8222118192
|  9>  O        2.7029147557    -0.2696417097    -1.3563102093
| 10>  C        0.9265020335    -1.9567430554    -1.5825122278
| 11>  C        1.7975673897    -2.9620725783    -2.2896623763
| 12>  C        1.5552002121    -3.0960615118    -0.8034794499
| 13>  C        2.6921940542    -2.9765580683     0.1939366395
| 14>  H        1.8640411918     1.8746822394    -0.0462029405
| 15>  H        0.3585289849     2.2603144729    -0.8840130661
| 16>  H        0.3454353076     1.9904227173     0.8591747841
| 17>  H        0.8401606981    -0.3931671253     0.6059118670
| 18>  H       -0.5300619720    -0.0269762986    -0.4166938249
| 19>  H        1.2020462624     1.2612436516    -2.8104864526
| 20>  H        1.4626569676    -0.2783823016    -3.6422419302
| 21>  H       -0.1483644496     0.1241904431    -3.0185613637
| 22>  H        2.9391806489    -0.4620981097    -0.4438968034
| 23>  H       -0.1426060059    -2.0849163805    -1.7412208299
| 24>  H        1.3466515697    -3.6709786612    -2.9758550285
| 25>  H        2.7829046439    -2.6123787771    -2.5813020494
| 26>  H        0.8377905023    -3.8643890993    -0.5231121413
| 27>  H        3.5237051948    -2.3873308228    -0.1992538715
| 28>  H        2.3661966616    -2.5311465428     1.1420341540
| 29>  H        3.0904900398    -3.9703089267     0.4271788107
| 30> *
| 31>
| 32>                          ****END OF INPUT****

CARTESIAN COORDINATES (ANGSTROEM)
---------------------------------
  C      0.792776    1.656306   -0.082012
  C      0.544075    0.159961   -0.296585
  C      1.290294   -0.470595   -1.495001
  C      0.925107    0.204656   -2.822212
  O      2.702915   -0.269642   -1.356310
  C      0.926502   -1.956743   -1.582512
  C      1.797567   -2.962073   -2.289662
  C      1.555200   -3.096062   -0.803479
  C      2.692194   -2.976558    0.193937
  H      1.864041    1.874682   -0.046203
  H      0.358529    2.260314   -0.884013
  H      0.345435    1.990423    0.859175
  H      0.840161   -0.393167    0.605912
  H     -0.530062   -0.026976   -0.416694
  H      1.202046    1.261244   -2.810486
  H      1.462657   -0.278382   -3.642242
  H     -0.148364    0.124190   -3.018561
  H      2.939181   -0.462098   -0.443897
  H     -0.142606   -2.084916   -1.741221
  H      1.346652   -3.670979   -2.975855
  H      2.782905   -2.612379   -2.581302
  H      0.837791   -3.864389   -0.523112
  H      3.523705   -2.387331   -0.199254
  H      2.366197   -2.531147    1.142034
  H      3.090490   -3.970309    0.427179

 Total Charge           Charge          ....    0
 Multiplicity           Mult            ....    1
 Number of Electrons    NEL             ....   72
 Basis Dimension        Dim             ....  375

ORBITAL ENERGIES
----------------

  NO   OCC          E(Eh)            E(eV)
   0   2.0000     -20.547623      -559.1292
   1   2.0000     -11.284430      -307.0650
   2   2.0000     -11.229783      -305.5779
   3   2.0000     -11.223183      -305.3983
   4   2.0000     -11.221662      -305.3569
   5   2.0000     -11.219512      -305.2985
   6   2.0000     -11.214283      -305.1562
   7   2.0000     -11.211421      -305.0783
   8   2.0000     -11.205626      -304.9206
   9   2.0000      -1.357535       -36.9404
  10   2.0000      -1.142023       -31.0760
  11   2.0000      -1.058571       -28.8052
  12   2.0000      -0.987262       -26.8648
  13   2.0000      -0.958174       -26.0732
  14   2.0000      -0.887588       -24.1525
  15   2.0000      -0.811310       -22.0769
  16   2.0000      -0.787203       -21.4209
  17   2.0000      -0.752161       -20.4673
  18   2.0000      -0.669580       -18.2202
  19   2.0000      -0.658347       -17.9145
  20   2.0000      -0.636395       -17.3172
  21   2.0000      -0.621274       -16.9057
  22   2.0000      -0.572060       -15.5665
  23   2.0000      -0.563374       -15.3302
  24   2.0000      -0.549409       -14.9502
  25   2.0000      -0.547050       -14.8860
  26   2.0000      -0.535756       -14.5786
  27   2.0000      -0.526450       -14.3254
  28   2.0000      -0.519517       -14.1368
  29   2.0000      -0.507540       -13.8109
  30   2.0000      -0.494728       -13.4622
  31   2.0000      -0.481731       -13.1086
  32   2.0000      -0.462828       -12.5942
  33   2.0000      -0.432179       -11.7602
  34   2.0000      -0.397277       -10.8105
  35   2.0000      -0.390607       -10.6290
  36   0.0000       0.128645         3.5006
  37   0.0000       0.154001         4.1906
  38   0.0000       0.157494         4.2856
  39   0.0000       0.174463         4.7474
  40   0.0000       0.183103         4.9825

MULLIKEN ATOMIC CHARGES
-----------------------
   0 C :   -0.406339
   1 C :   -0.240632
   2 C :    0.247995
   3 C :   -0.424323
   4 O :   -0.479806
   5 C :   -0.152588
   6 C :   -0.267622
   7 C :   -0.052508
   8 C :   -0.469155
   9 H :    0.134266
  10 H :    0.131714
  11 H :    0.134885
  12 H :    0.115737
  13 H :    0.110586
  14 H :    0.141390
  15 H :    0.140828
  16 H :    0.119238
  17 H :    0.311200
  18 H :    0.114846
  19 H :    0.129961
  20 H :    0.136664
  21 H :    0.112352
  22 H :    0.139761
  23 H :    0.131797
  24 H :    0.139751
Sum of atomic charges:   -0.0000000

LOEWDIN ATOMIC CHARGES
----------------------
   0 C :   -0.319149
   1 C :   -0.260488
   2 C :   -0.382371
   3 C :   -0.262784
   4 O :    0.013891
   5 C :   -0.184496
   6 C :   -0.207657
   7 C :   -0.230369
   8 C :   -0.308665
   9 H :    0.122931
  10 H :    0.120826
  11 H :    0.121045
  12 H :    0.139309
  13 H :    0.142610
  14 H :    0.126381
  15 H :    0.130826
  16 H :    0.127157
  17 H :    0.169052
  18 H :    0.155254
  19 H :    0.127646
  20 H :    0.140714
  21 H :    0.147368
  22 H :    0.123239
  23 H :    0.119803
  24 H :    0.127926

  Mayer bond orders larger than 0.1
B(  0-C ,  1-C ) :   0.9181 B(  0-C ,  9-H ) :   0.9353 B(  0-C , 10-H ) :   0.9410
B(  0-C , 11-H ) :   0.9410 B(  1-C ,  2-C ) :   0.9486 B(  1-C , 12-H ) :   0.9264
B(  1-C , 13-H ) :   0.9243 B(  2-C ,  3-C ) :   0.8713 B(  2-C ,  4-O ) :   0.9098
B(  2-C ,  5-C ) :   0.9262 B(  3-C , 14-H ) :   0.9434 B(  3-C , 15-H ) :   0.9414
B(  3-C , 16-H ) :   0.9344 B(  4-O , 17-H ) :   0.8450 B(  5-C ,  6-C ) :   0.8696
B(  5-C ,  7-C ) :   0.8888 B(  5-C , 18-H ) :   0.9194 B(  6-C ,  7-C ) :   0.9067
B(  6-C , 19-H ) :   0.9273 B(  6-C , 20-H ) :   0.9184 B(  7-C ,  8-C ) :   0.8786
B(  7-C , 21-H ) :   0.9288 B(  8-C , 22-H ) :   0.9403 B(  8-C , 23-H ) :   0.9403
B(  8-C , 24-H ) :   0.9355

MP2 TOTAL ENERGY:     -388.813240001 Eh
FINAL SINGLE POINT ENERGY      -388.813240001361

DIPOLE MOMENT
-------------
                                X             Y             Z
Electronic contribution:      1.30484      -1.88236      -1.68170
Nuclear contribution   :     -1.68592       1.67756       2.11644
                        -----------------------------------------
Total Dipole Moment    :     -0.38108      -0.20480       0.43473
                        -----------------------------------------
Magnitude (a.u.)       :      0.61331
Magnitude (Debye)      :      1.55892

                             ****ORCA TERMINATED NORMALLY****
TOTAL RUN TIME: 0 days 0 hours 21 minutes 44 seconds 1 msec
