                         Program Version 3.0.3 - RELEASE   -
|  1> ! RI-MP2 RIJK def2-TZVP def2-TZVP/C def2-TZVP/JK TIGHTSCF
|  2> % maxcore 2000
|  3> % mp2 density relaxed end
|  4> *xyz 0 1
|  5>  C       -0.0102167338     1.5809872921     0.0509730001
|  6>  C        0.1131517157     0.0540349755     0.1141937671
|  7>  C        0.6986369850    -0.5405539569    -1.1647004234
|  8>  C        0.8527567730    -2.0614307514    -1.2959586904
|  9>  C       -0.4910956514    -2.7352765820    -1.3077716072
| 10>  C        0.0023742543    -2.0837418907    -2.5762347702
| 11>  C        0.1847885795    -2.8396185046    -3.8623197413
| 12>  C       -0.1786094835    -0.5651424907    -2.4804710445
| 13>  O       -1.4870441292    -0.0338494474    -2.4691041204
| 14>  H        0.9677144403     2.0488862675    -0.1104538200
| 15>  H       -0.6666336226     1.8776296522    -0.7716273727
| 16>  H       -0.4220078009     1.9858656469     0.9808524090
| 17>  H        0.7488289288    -0.2373307504     0.9605978064
| 18>  H       -0.8737059505    -0.3788318372     0.3190970874
| 19>  H        1.6492198950    -0.0399834358    -1.3812701814
| 20>  H        1.7618086477    -2.6162847326    -1.0934631922
| 21>  H       -0.4690550651    -3.8206438252    -1.3265720519
| 22>  H       -1.3240119840    -2.3396060059    -0.7294615689
| 23>  H        0.4956675474    -3.8732027521    -3.6770880282
| 24>  H       -0.7483552692    -2.8734693426    -4.4373688589
| 25>  H        0.9459538752    -2.3698204387    -4.4958206236
| 26>  H        0.3322052824    -0.0488027224    -3.2977765073
| 27>  H       -2.0359155541    -0.6054755676    -1.9225825574
| 28> *
| 29>
| 30>                          ****END OF INPUT****

CARTESIAN COORDINATES (ANGSTROEM)
---------------------------------
  C     -0.010217    1.580987    0.050973
  C      0.113152    0.054035    0.114194
  C      0.698637   -0.540554   -1.164700
  C      0.852757   -2.061431   -1.295959
  C     -0.491096   -2.735277   -1.307772
  C      0.002374   -2.083742   -2.576235
  C      0.184789   -2.839619   -3.862320
  C     -0.178609   -0.565142   -2.480471
  O     -1.487044   -0.033849   -2.469104
  H      0.967714    2.048886   -0.110454
  H     -0.666634    1.877630   -0.771627
  H     -0.422008    1.985866    0.980852
  H      0.748829   -0.237331    0.960598
  H     -0.873706   -0.378832    0.319097
  H      1.649220   -0.039983   -1.381270
  H      1.761809   -2.616285   -1.093463
  H     -0.469055   -3.820644   -1.326572
  H     -1.324012   -2.339606   -0.729462
  H      0.495668   -3.873203   -3.677088
  H     -0.748355   -2.873469   -4.437369
  H      0.945954   -2.369820   -4.495821
  H      0.332205   -0.048803   -3.297777
  H     -2.035916   -0.605476   -1.922583

 Total Charge           Charge          ....    0
 Multiplicity           Mult            ....    1
 Number of Electrons    NEL             ....   70
 Basis Dimension        Dim             ....  363

ORBITAL ENERGIES
----------------

  NO   OCC          E(Eh)            E(eV)
   0   2.0000     -20.551792      -559.2427
   1   2.0000     -11.277058      -306.8644
   2   2.0000     -11.237276      -305.7818
   3   2.0000     -11.231796      -305.6327
   4   2.0000     -11.230960      -305.6099
   5   2.0000     -11.226578      -305.4907
   6   2.0000     -11.220474      -305.3246
   7   2.0000     -11.216438      -305.2148
   8   2.0000     -11.204785      -304.8977
   9   2.0000      -1.359727       -37.0000
  10   2.0000      -1.188555       -32.3422
  11   2.0000      -1.047661       -28.5083
  12   2.0000      -0.976034       -26.5592
  13   2.0000      -0.959727       -26.1155
  14   2.0000      -0.878171       -23.8962
  15   2.0000      -0.824082       -22.4244
  16   2.0000      -0.770084       -20.9550
  17   2.0000      -0.744117       -20.2484
  18   2.0000      -0.677181       -18.4270
  19   2.0000      -0.650505       -17.7011
  20   2.0000      -0.618935       -16.8421
  21   2.0000      -0.604712       -16.4551
  22   2.0000      -0.586561       -15.9611
  23   2.0000      -0.571325       -15.5465
  24   2.0000      -0.559575       -15.2268
  25   2.0000      -0.541566       -14.7367
  26   2.0000      -0.533596       -14.5199
  27   2.0000      -0.529628       -14.4119
  28   2.0000      -0.511689       -13.9238
  29   2.0000      -0.492829       -13.4106
  30   2.0000      -0.476441       -12.9646
  31   2.0000      -0.447984       -12.1903
  32   2.0000      -0.407396       -11.0858
  33   2.0000      -0.401191       -10.9170
  34   2.0000      -0.372349       -10.1321
  35   0.0000       0.134775         3.6674
  36   0.0000       0.143206         3.8968
  37   0.0000       0.155708         4.2370
  38   0.0000       0.173667         4.7257
  39   0.0000       0.188316         5.1243

MULLIKEN ATOMIC CHARGES
-----------------------
   0 C :   -0.401562
   1 C :   -0.187214
   2 C :   -0.086199
   3 C :   -0.066346
   4 C :   -0.333203
   5 C :    0.068992
   6 C :   -0.427983
   7 C :   -0.000211
   8 O :   -0.454143
   9 H :    0.117048
  10 H :    0.151200
  11 H :    0.128093
  12 H :    0.115635
  13 H :    0.075244
  14 H :    0.095542
  15 H :    0.128344
  16 H :    0.133180
  17 H :    0.122589
  18 H :    0.128916
  19 H :    0.141068
  20 H :    0.129640
  21 H :    0.105028
  22 H :    0.316343
Sum of atomic charges:    0.0000000

LOEWDIN ATOMIC CHARGES
----------------------
   0 C :   -0.318495
   1 C :   -0.275716
   2 C :   -0.197992
   3 C :   -0.143452
   4 C :   -0.195367
   5 C :   -0.216077
   6 C :   -0.275083
   7 C :   -0.258576
   8 O :   -0.011513
   9 H :    0.118967
  10 H :    0.125814
  11 H :    0.119041
  12 H :    0.138521
  13 H :    0.130940
  14 H :    0.152783
  15 H :    0.135491
  16 H :    0.142151
  17 H :    0.123249
  18 H :    0.129145
  19 H :    0.131074
  20 H :    0.127208
  21 H :    0.144694
  22 H :    0.173194

  Mayer bond orders larger than 0.1
B(  0-C ,  1-C ) :   0.9120 B(  0-C ,  9-H ) :   0.9370 B(  0-C , 10-H ) :   0.9364
B(  0-C , 11-H ) :   0.9396 B(  1-C ,  2-C ) :   0.9030 B(  1-C , 12-H ) :   0.9379
B(  1-C , 13-H ) :   0.9254 B(  2-C ,  3-C ) :   0.9508 B(  2-C ,  7-C ) :   0.9468
B(  2-C , 14-H ) :   0.9173 B(  3-C ,  4-C ) :   0.8585 B(  3-C ,  5-C ) :   0.7831
B(  3-C , 15-H ) :   0.9129 B(  4-C ,  5-C ) :   0.8652 B(  4-C , 16-H ) :   0.9314
B(  4-C , 17-H ) :   0.9196 B(  5-C ,  6-C ) :   0.9126 B(  5-C ,  7-C ) :   0.9100
B(  6-C , 18-H ) :   0.9373 B(  6-C , 19-H ) :   0.9389 B(  6-C , 20-H ) :   0.9410
B(  7-C ,  8-O ) :   0.9830 B(  7-C , 21-H ) :   0.9454 B(  8-O , 22-H ) :   0.8371

MP2 TOTAL ENERGY:     -387.595553281 Eh
FINAL SINGLE POINT ENERGY      -387.595553281275

DIPOLE MOMENT
-------------
                                X             Y             Z
Electronic contribution:     -1.04993      -1.06952      -2.06955
Nuclear contribution   :      1.29182       0.48454       2.26903
                        -----------------------------------------
Total Dipole Moment    :      0.24189      -0.58498       0.19947
                        -----------------------------------------
Magnitude (a.u.)       :      0.66370
Magnitude (Debye)      :      1.68699

                             ****ORCA TERMINATED NORMALLY****
TOTAL RUN TIME: 0 days 0 hours 33 minutes 5 seconds 965 msec
