                         Program Version 3.0.3 - RELEASE   -
|  1> ! RI-MP2 RIJK def2-TZVP def2-TZVP/C def2-TZVP/JK TIGHTSCF
|  2> % maxcore 2000
|  3> % mp2 density relaxed end
|  4> *xyz 0 1
|  5>  C       -0.0840162848     1.4909760768     0.0159166332
|  6>  C       -0.0001911070    -0.0012845380    -0.0311607176
|  7>  C       -0.1423403830    -0.7853583405    -1.1024877537
|  8>  C       -0.0150077102    -2.2472712071    -0.7808238707
|  9>  O        0.8966366183    -2.9517572044    -1.6232328713
| 10>  C        0.4378647292    -2.2660423577     0.7322889485
| 11>  C       -0.3141780264    -3.3112166403     1.5551062279
| 12>  O        1.8412537352    -2.5138862944     0.7876496256
| 13>  C        0.2314333338    -0.8139976719     1.2231035855
| 14>  H        0.8388914010     1.9215908792     0.4246039425
| 15>  H       -0.2550135779     1.9201845724    -0.9748300281
| 16>  H       -0.8969724959     1.8200757020     0.6758121652
| 17>  H       -0.3400869492    -0.4391381244    -2.1119925887
| 18>  H       -0.9641075886    -2.7826303597    -0.9056276890
| 19>  H        1.6891826280    -2.4032813000    -1.6722288699
| 20>  H       -0.1573791825    -4.3129225908     1.1380041248
| 21>  H        0.0410421844    -3.3130115091     2.5899406482
| 22>  H       -1.3918056878    -3.1142893762     1.5564729570
| 23>  H        1.9881944917    -3.3057150119     0.2542600640
| 24>  H        1.1075316274    -0.4771998670     1.7888785180
| 25>  H       -0.6298811658    -0.7367665470     1.8999348186
| 26> *
| 27>
| 28>                          ****END OF INPUT****

CARTESIAN COORDINATES (ANGSTROEM)
---------------------------------
  C     -0.084016    1.490976    0.015917
  C     -0.000191   -0.001285   -0.031161
  C     -0.142340   -0.785358   -1.102488
  C     -0.015008   -2.247271   -0.780824
  O      0.896637   -2.951757   -1.623233
  C      0.437865   -2.266042    0.732289
  C     -0.314178   -3.311217    1.555106
  O      1.841254   -2.513886    0.787650
  C      0.231433   -0.813998    1.223104
  H      0.838891    1.921591    0.424604
  H     -0.255014    1.920185   -0.974830
  H     -0.896972    1.820076    0.675812
  H     -0.340087   -0.439138   -2.111993
  H     -0.964108   -2.782630   -0.905628
  H      1.689183   -2.403281   -1.672229
  H     -0.157379   -4.312923    1.138004
  H      0.041042   -3.313012    2.589941
  H     -1.391806   -3.114289    1.556473
  H      1.988194   -3.305715    0.254260
  H      1.107532   -0.477200    1.788879
  H     -0.629881   -0.736767    1.899935

 Total Charge           Charge          ....    0
 Multiplicity           Mult            ....    1
 Number of Electrons    NEL             ....   70
 Basis Dimension        Dim             ....  351

ORBITAL ENERGIES
----------------

  NO   OCC          E(Eh)            E(eV)
   0   2.0000     -20.559361      -559.4487
   1   2.0000     -20.550414      -559.2052
   2   2.0000     -11.285881      -307.1044
   3   2.0000     -11.280709      -306.9637
   4   2.0000     -11.242929      -305.9357
   5   2.0000     -11.228668      -305.5476
   6   2.0000     -11.225336      -305.4569
   7   2.0000     -11.216912      -305.2277
   8   2.0000     -11.216489      -305.2162
   9   2.0000      -1.380323       -37.5605
  10   2.0000      -1.344614       -36.5888
  11   2.0000      -1.132897       -30.8277
  12   2.0000      -1.025760       -27.9124
  13   2.0000      -0.975477       -26.5441
  14   2.0000      -0.941576       -25.6216
  15   2.0000      -0.875921       -23.8350
  16   2.0000      -0.778692       -21.1893
  17   2.0000      -0.736871       -20.0513
  18   2.0000      -0.703078       -19.1317
  19   2.0000      -0.662238       -18.0204
  20   2.0000      -0.632648       -17.2152
  21   2.0000      -0.613319       -16.6893
  22   2.0000      -0.595065       -16.1926
  23   2.0000      -0.585599       -15.9350
  24   2.0000      -0.577015       -15.7014
  25   2.0000      -0.569259       -15.4903
  26   2.0000      -0.542596       -14.7648
  27   2.0000      -0.531598       -14.4655
  28   2.0000      -0.525526       -14.3003
  29   2.0000      -0.515087       -14.0162
  30   2.0000      -0.485220       -13.2035
  31   2.0000      -0.478069       -13.0089
  32   2.0000      -0.446863       -12.1598
  33   2.0000      -0.417962       -11.3733
  34   2.0000      -0.349780        -9.5180
  35   0.0000       0.130827         3.5600
  36   0.0000       0.140642         3.8271
  37   0.0000       0.151007         4.1091
  38   0.0000       0.177597         4.8327
  39   0.0000       0.181652         4.9430

MULLIKEN ATOMIC CHARGES
-----------------------
   0 C :   -0.431755
   1 C :    0.013826
   2 C :   -0.258864
   3 C :    0.102775
   4 O :   -0.497751
   5 C :    0.250403
   6 C :   -0.461704
   7 O :   -0.491363
   8 C :   -0.178475
   9 H :    0.144517
  10 H :    0.138850
  11 H :    0.140223
  12 H :    0.128004
  13 H :    0.104641
  14 H :    0.322171
  15 H :    0.132977
  16 H :    0.142919
  17 H :    0.125171
  18 H :    0.318672
  19 H :    0.130035
  20 H :    0.124727
Sum of atomic charges:   -0.0000000

LOEWDIN ATOMIC CHARGES
----------------------
   0 C :   -0.270944
   1 C :   -0.175566
   2 C :   -0.140131
   3 C :   -0.288647
   4 O :   -0.027385
   5 C :   -0.356279
   6 C :   -0.284141
   7 O :    0.002605
   8 C :   -0.170901
   9 H :    0.133937
  10 H :    0.130627
  11 H :    0.132859
  12 H :    0.140332
  13 H :    0.147502
  14 H :    0.175669
  15 H :    0.126655
  16 H :    0.128227
  17 H :    0.126338
  18 H :    0.173138
  19 H :    0.148944
  20 H :    0.147161

  Mayer bond orders larger than 0.1
B(  0-C ,  1-C ) :   0.8871 B(  0-C ,  9-H ) :   0.9357 B(  0-C , 10-H ) :   0.9475
B(  0-C , 11-H ) :   0.9255 B(  1-C ,  2-C ) :   1.7148 B(  1-C ,  8-C ) :   0.9605
B(  2-C ,  3-C ) :   0.9769 B(  2-C , 12-H ) :   0.9360 B(  3-C ,  4-O ) :   0.9109
B(  3-C ,  5-C ) :   0.9090 B(  3-C , 13-H ) :   0.9192 B(  4-O , 14-H ) :   0.8335
B(  5-C ,  6-C ) :   0.9200 B(  5-C ,  7-O ) :   0.9655 B(  5-C ,  8-C ) :   0.8762
B(  6-C , 15-H ) :   0.9293 B(  6-C , 16-H ) :   0.9443 B(  6-C , 17-H ) :   0.9270
B(  7-O , 18-H ) :   0.8255 B(  8-C , 19-H ) :   0.9053 B(  8-C , 20-H ) :   0.9080

MP2 TOTAL ENERGY:     -423.547786405 Eh
FINAL SINGLE POINT ENERGY      -423.547786405230

DIPOLE MOMENT
-------------
                                X             Y             Z
Electronic contribution:      2.73136      -2.63911      -3.31097
Nuclear contribution   :     -3.06276       3.08226       3.42086
                        -----------------------------------------
Total Dipole Moment    :     -0.33139       0.44315       0.10989
                        -----------------------------------------
Magnitude (a.u.)       :      0.56416
Magnitude (Debye)      :      1.43398

                             ****ORCA TERMINATED NORMALLY****
TOTAL RUN TIME: 0 days 0 hours 19 minutes 36 seconds 187 msec
