                         Program Version 3.0.3 - RELEASE   -
|  1> ! RI-MP2 RIJK def2-TZVP def2-TZVP/C def2-TZVP/JK TIGHTSCF
|  2> % maxcore 2000
|  3> % mp2 density relaxed end
|  4> *xyz 0 1
|  5>  C       -0.0348921710     1.4798168232    -0.0013537646
|  6>  C        0.0062655637    -0.0109347740    -0.0471232236
|  7>  N        0.0114357217    -0.7291868035    -1.1397080172
|  8>  C        0.0564918193    -2.0277060775    -0.6655289642
|  9>  N        0.1333138061    -3.0832939002    -1.5313162855
| 10>  N        0.0713896909    -2.1560388025     0.6441524779
| 11>  N        0.0456442730    -0.8388419291     1.0544737737
| 12>  C        0.0503206313    -0.4698916401     2.4003690198
| 13>  O        0.0793840784    -1.2343664930     3.3229504270
| 14>  H        0.8492705477     1.8949333734     0.4926862212
| 15>  H       -0.0656083711     1.8489960932    -1.0268005655
| 16>  H       -0.9189576560     1.8467420466     0.5295556411
| 17>  H       -0.2396261289    -2.9026488845    -2.4499052508
| 18>  H       -0.1126834149    -3.9798254718    -1.1410054339
| 19>  H        0.0226063998     0.6289209797     2.5048053644
| 20> *
| 21>
| 22>                          ****END OF INPUT****

CARTESIAN COORDINATES (ANGSTROEM)
---------------------------------
  C     -0.034892    1.479817   -0.001354
  C      0.006266   -0.010935   -0.047123
  N      0.011436   -0.729187   -1.139708
  C      0.056492   -2.027706   -0.665529
  N      0.133314   -3.083294   -1.531316
  N      0.071390   -2.156039    0.644152
  N      0.045644   -0.838842    1.054474
  C      0.050321   -0.469892    2.400369
  O      0.079384   -1.234366    3.322950
  H      0.849271    1.894933    0.492686
  H     -0.065608    1.848996   -1.026801
  H     -0.918958    1.846742    0.529556
  H     -0.239626   -2.902649   -2.449905
  H     -0.112683   -3.979825   -1.141005
  H      0.022606    0.628921    2.504805

 Total Charge           Charge          ....    0
 Multiplicity           Mult            ....    1
 Number of Electrons    NEL             ....   66
 Basis Dimension        Dim             ....  315

ORBITAL ENERGIES
----------------

  NO   OCC          E(Eh)            E(eV)
   0   2.0000     -20.559514      -559.4528
   1   2.0000     -15.659578      -426.1188
   2   2.0000     -15.580506      -423.9671
   3   2.0000     -15.579255      -423.9331
   4   2.0000     -15.570955      -423.7072
   5   2.0000     -11.378795      -309.6328
   6   2.0000     -11.352198      -308.9090
   7   2.0000     -11.341556      -308.6194
   8   2.0000     -11.269000      -306.6451
   9   2.0000      -1.438532       -39.1444
  10   2.0000      -1.395644       -37.9774
  11   2.0000      -1.252289       -34.0765
  12   2.0000      -1.206988       -32.8438
  13   2.0000      -1.129170       -30.7263
  14   2.0000      -1.022262       -27.8172
  15   2.0000      -0.903684       -24.5905
  16   2.0000      -0.836604       -22.7651
  17   2.0000      -0.802545       -21.8384
  18   2.0000      -0.742522       -20.2051
  19   2.0000      -0.688512       -18.7354
  20   2.0000      -0.679001       -18.4766
  21   2.0000      -0.660420       -17.9709
  22   2.0000      -0.645445       -17.5634
  23   2.0000      -0.610516       -16.6130
  24   2.0000      -0.603356       -16.4182
  25   2.0000      -0.586812       -15.9680
  26   2.0000      -0.561584       -15.2815
  27   2.0000      -0.513622       -13.9764
  28   2.0000      -0.489518       -13.3205
  29   2.0000      -0.469914       -12.7870
  30   2.0000      -0.447001       -12.1635
  31   2.0000      -0.421634       -11.4732
  32   2.0000      -0.346792        -9.4367
  33   0.0000       0.090791         2.4705
  34   0.0000       0.118799         3.2327
  35   0.0000       0.139300         3.7905
  36   0.0000       0.181209         4.9310
  37   0.0000       0.182488         4.9658

MULLIKEN ATOMIC CHARGES
-----------------------
   0 C :   -0.471491
   1 C :    0.164077
   2 N :   -0.312662
   3 C :    0.305232
   4 N :   -0.503152
   5 N :   -0.276552
   6 N :    0.076588
   7 C :    0.117958
   8 O :   -0.247435
   9 H :    0.162975
  10 H :    0.175873
  11 H :    0.161668
  12 H :    0.268053
  13 H :    0.267352
  14 H :    0.111516
Sum of atomic charges:    0.0000000

LOEWDIN ATOMIC CHARGES
----------------------
   0 C :   -0.269829
   1 C :   -0.307453
   2 N :    0.122479
   3 C :   -0.450436
   4 N :   -0.045308
   5 N :    0.059201
   6 N :    0.199305
   7 C :   -0.355584
   8 O :    0.146130
   9 H :    0.138056
  10 H :    0.147503
  11 H :    0.137347
  12 H :    0.177696
  13 H :    0.177687
  14 H :    0.123208

  Mayer bond orders larger than 0.1
B(  0-C ,  1-C ) :   0.8310 B(  0-C ,  9-H ) :   0.9346 B(  0-C , 10-H ) :   0.9388
B(  0-C , 11-H ) :   0.9371 B(  1-C ,  2-N ) :   1.6379 B(  1-C ,  6-N ) :   1.1768
B(  2-N ,  3-C ) :   1.1832 B(  3-C ,  4-N ) :   1.1069 B(  3-C ,  5-N ) :   1.5744
B(  4-N , 12-H ) :   0.8650 B(  4-N , 13-H ) :   0.8677 B(  5-N ,  6-N ) :   0.9366
B(  6-N ,  7-C ) :   0.9545 B(  7-C ,  8-O ) :   2.0163 B(  7-C , 14-H ) :   0.9252

MP2 TOTAL ENERGY:     -449.439137928 Eh
FINAL SINGLE POINT ENERGY      -449.439137928168

DIPOLE MOMENT
-------------
                                X             Y             Z
Electronic contribution:      0.27398      -4.14825       2.76430
Nuclear contribution   :     -0.67655       5.07828      -3.61649
                        -----------------------------------------
Total Dipole Moment    :     -0.40258       0.93003      -0.85218
                        -----------------------------------------
Magnitude (a.u.)       :      1.32410
Magnitude (Debye)      :      3.36560

                             ****ORCA TERMINATED NORMALLY****
TOTAL RUN TIME: 0 days 0 hours 14 minutes 33 seconds 312 msec
