                         Program Version 3.0.3 - RELEASE   -
|  1> ! RI-MP2 RIJK def2-TZVP def2-TZVP/C def2-TZVP/JK TIGHTSCF
|  2> % maxcore 2000
|  3> % mp2 density relaxed end
|  4> *xyz 0 1
|  5>  C       -0.0335716988    -1.1668417057    -0.0854838055
|  6>  C        0.0367246827     0.0227067932     0.0606476030
|  7>  C        0.0838960508     1.4633972180     0.2534829058
|  8>  O        1.3581524342     1.9515035402    -0.1528839386
|  9>  C        1.4584387502     3.3687219314    -0.0638183611
| 10>  C        1.4005721734     3.8518152855     1.3268935549
| 11>  C        1.3255280676     4.2333721384     2.4632959369
| 12>  C        2.7021213982     3.7773686510    -0.7179338833
| 13>  C        3.7070331868     4.1382166335    -1.2648093513
| 14>  H       -0.0869629925    -2.2191289963    -0.2183695785
| 15>  H       -0.7125000197     1.9472241930    -0.3371893335
| 16>  H       -0.1026926924     1.7091413676     1.3094197853
| 17>  H        0.6138239243     3.8239108970    -0.6127636340
| 18>  H        1.2729757180     4.5756440261     3.4677307395
| 19>  H        4.6020550171     4.4489426071    -1.7451441998
| 20> *
| 21>
| 22>                          ****END OF INPUT****

CARTESIAN COORDINATES (ANGSTROEM)
---------------------------------
  C     -0.033572   -1.166842   -0.085484
  C      0.036725    0.022707    0.060648
  C      0.083896    1.463397    0.253483
  O      1.358152    1.951504   -0.152884
  C      1.458439    3.368722   -0.063818
  C      1.400572    3.851815    1.326894
  C      1.325528    4.233372    2.463296
  C      2.702121    3.777369   -0.717934
  C      3.707033    4.138217   -1.264809
  H     -0.086963   -2.219129   -0.218370
  H     -0.712500    1.947224   -0.337189
  H     -0.102693    1.709141    1.309420
  H      0.613824    3.823911   -0.612764
  H      1.272976    4.575644    3.467731
  H      4.602055    4.448943   -1.745144

 Total Charge           Charge          ....    0
 Multiplicity           Mult            ....    1
 Number of Electrons    NEL             ....   62
 Basis Dimension        Dim             ....  315

ORBITAL ENERGIES
----------------

  NO   OCC          E(Eh)            E(eV)
   0   2.0000     -20.587151      -560.2048
   1   2.0000     -11.353845      -308.9538
   2   2.0000     -11.316856      -307.9473
   3   2.0000     -11.251145      -306.1592
   4   2.0000     -11.245832      -306.0146
   5   2.0000     -11.244731      -305.9847
   6   2.0000     -11.239612      -305.8454
   7   2.0000     -11.238437      -305.8134
   8   2.0000     -11.231746      -305.6313
   9   2.0000      -1.407961       -38.3126
  10   2.0000      -1.105752       -30.0891
  11   2.0000      -1.052092       -28.6289
  12   2.0000      -1.034516       -28.1506
  13   2.0000      -0.977977       -26.6121
  14   2.0000      -0.929628       -25.2965
  15   2.0000      -0.773826       -21.0569
  16   2.0000      -0.745556       -20.2876
  17   2.0000      -0.727302       -19.7909
  18   2.0000      -0.704307       -19.1652
  19   2.0000      -0.695618       -18.9287
  20   2.0000      -0.692579       -18.8460
  21   2.0000      -0.629909       -17.1407
  22   2.0000      -0.619268       -16.8511
  23   2.0000      -0.534971       -14.5573
  24   2.0000      -0.475572       -12.9410
  25   2.0000      -0.431000       -11.7281
  26   2.0000      -0.413063       -11.2400
  27   2.0000      -0.406641       -11.0653
  28   2.0000      -0.398679       -10.8486
  29   2.0000      -0.397752       -10.8234
  30   2.0000      -0.391755       -10.6602
  31   0.0000       0.120348         3.2748
  32   0.0000       0.136511         3.7147
  33   0.0000       0.157097         4.2748
  34   0.0000       0.161955         4.4070
  35   0.0000       0.167917         4.5693

MULLIKEN ATOMIC CHARGES
-----------------------
   0 C :   -0.073266
   1 C :   -0.043874
   2 C :   -0.214409
   3 O :   -0.245840
   4 C :   -0.174325
   5 C :   -0.029243
   6 C :   -0.151327
   7 C :   -0.007457
   8 C :   -0.056786
   9 H :    0.195981
  10 H :    0.122407
  11 H :    0.146453
  12 H :    0.134437
  13 H :    0.197831
  14 H :    0.199418
Sum of atomic charges:    0.0000000

LOEWDIN ATOMIC CHARGES
----------------------
   0 C :   -0.080676
   1 C :   -0.102707
   2 C :   -0.295800
   3 O :    0.207978
   4 C :   -0.305091
   5 C :   -0.073528
   6 C :   -0.072166
   7 C :   -0.061573
   8 C :   -0.064318
   9 H :    0.128659
  10 H :    0.139954
  11 H :    0.146415
  12 H :    0.171925
  13 H :    0.130561
  14 H :    0.130366

  Mayer bond orders larger than 0.1
B(  0-C ,  1-C ) :   2.6235 B(  0-C ,  2-C ) :  -0.1092 B(  0-C ,  9-H ) :   0.8925
B(  1-C ,  2-C ) :   1.1382 B(  2-C ,  3-O ) :   0.9708 B(  2-C , 10-H ) :   0.9104
B(  2-C , 11-H ) :   0.9187 B(  3-O ,  4-C ) :   1.0460 B(  4-C ,  5-C ) :   1.0114
B(  4-C ,  7-C ) :   1.1615 B(  4-C ,  8-C ) :  -0.1398 B(  4-C , 12-H ) :   0.9848
B(  5-C ,  6-C ) :   2.6148 B(  6-C , 13-H ) :   0.9013 B(  7-C ,  8-C ) :   2.5804
B(  8-C , 14-H ) :   0.8851

MP2 TOTAL ENERGY:     -382.651188533 Eh
FINAL SINGLE POINT ENERGY      -382.651188533023

DIPOLE MOMENT
-------------
                                X             Y             Z
Electronic contribution:      1.76951       0.39659      -0.45393
Nuclear contribution   :     -2.17457      -0.04598       0.64158
                        -----------------------------------------
Total Dipole Moment    :     -0.40506       0.35060       0.18765
                        -----------------------------------------
Magnitude (a.u.)       :      0.56763
Magnitude (Debye)      :      1.44281

                             ****ORCA TERMINATED NORMALLY****
TOTAL RUN TIME: 0 days 0 hours 12 minutes 3 seconds 491 msec
