                         Program Version 3.0.3 - RELEASE   -
|  1> ! RI-MP2 RIJK def2-TZVP def2-TZVP/C def2-TZVP/JK TIGHTSCF
|  2> % maxcore 2000
|  3> % mp2 density relaxed end
|  4> *xyz 0 1
|  5>  C        2.9155982191    -0.6894861446     0.3813263786
|  6>  N        1.5973443397    -1.2948503867     0.4928883900
|  7>  C        1.4079963896    -2.3188469348     1.5121545204
|  8>  C        0.7419212559    -0.9883885999     1.6441838767
|  9>  C        1.1268763623    -0.0287874312     2.7404485304
| 10>  C        0.8295611345     1.5109947111     2.5412561511
| 11>  C       -0.0761040871     1.4484026993     3.7765835862
| 12>  O       -1.0926437391     0.4758461104     3.5029235436
| 13>  C        0.1823776009     0.0118711843     3.9606111901
| 14>  H        3.4744487863    -0.6148794338     1.3279839996
| 15>  H        3.5158563937    -1.2893399487    -0.3104899169
| 16>  H        2.8203666456     0.3163473774    -0.0408270726
| 17>  H        0.8455709889    -3.1998858091     1.2133176451
| 18>  H        2.2397009115    -2.5221977511     2.1879501138
| 19>  H       -0.3104077374    -0.9176216889     1.3769140917
| 20>  H        2.1596743398    -0.1740370516     3.0657767295
| 21>  H        1.7209147064     2.1276699170     2.6772070894
| 22>  H        0.3234627088     1.7945252752     1.6153284582
| 23>  H       -0.3150566248     2.2217728716     4.4969098852
| 24>  H        0.1917411454    -0.6077635958     4.8503050696
| 25> *
| 26>
| 27>                          ****END OF INPUT****

CARTESIAN COORDINATES (ANGSTROEM)
---------------------------------
  C      2.915598   -0.689486    0.381326
  N      1.597344   -1.294850    0.492888
  C      1.407996   -2.318847    1.512155
  C      0.741921   -0.988389    1.644184
  C      1.126876   -0.028787    2.740449
  C      0.829561    1.510995    2.541256
  C     -0.076104    1.448403    3.776584
  O     -1.092644    0.475846    3.502924
  C      0.182378    0.011871    3.960611
  H      3.474449   -0.614879    1.327984
  H      3.515856   -1.289340   -0.310490
  H      2.820367    0.316347   -0.040827
  H      0.845571   -3.199886    1.213318
  H      2.239701   -2.522198    2.187950
  H     -0.310408   -0.917622    1.376914
  H      2.159674   -0.174037    3.065777
  H      1.720915    2.127670    2.677207
  H      0.323463    1.794525    1.615328
  H     -0.315057    2.221773    4.496910
  H      0.191741   -0.607764    4.850305

 Total Charge           Charge          ....    0
 Multiplicity           Mult            ....    1
 Number of Electrons    NEL             ....   68
 Basis Dimension        Dim             ....  345

ORBITAL ENERGIES
----------------

  NO   OCC          E(Eh)            E(eV)
   0   2.0000     -20.569068      -559.7128
   1   2.0000     -15.554682      -423.2644
   2   2.0000     -11.288984      -307.1889
   3   2.0000     -11.288183      -307.1671
   4   2.0000     -11.253757      -306.2303
   5   2.0000     -11.249045      -306.1021
   6   2.0000     -11.246734      -306.0392
   7   2.0000     -11.246052      -306.0206
   8   2.0000     -11.237034      -305.7752
   9   2.0000      -1.420212       -38.6459
  10   2.0000      -1.268115       -34.5072
  11   2.0000      -1.091632       -29.7048
  12   2.0000      -0.994795       -27.0698
  13   2.0000      -0.929643       -25.2969
  14   2.0000      -0.883046       -24.0289
  15   2.0000      -0.828544       -22.5458
  16   2.0000      -0.801661       -21.8143
  17   2.0000      -0.749583       -20.3972
  18   2.0000      -0.725119       -19.7315
  19   2.0000      -0.658486       -17.9183
  20   2.0000      -0.649692       -17.6790
  21   2.0000      -0.622152       -16.9296
  22   2.0000      -0.588809       -16.0223
  23   2.0000      -0.585435       -15.9305
  24   2.0000      -0.558614       -15.2007
  25   2.0000      -0.544596       -14.8192
  26   2.0000      -0.526999       -14.3404
  27   2.0000      -0.497094       -13.5266
  28   2.0000      -0.488855       -13.3024
  29   2.0000      -0.471934       -12.8420
  30   2.0000      -0.442476       -12.0404
  31   2.0000      -0.430966       -11.7272
  32   2.0000      -0.404333       -11.0025
  33   2.0000      -0.360257        -9.8031
  34   0.0000       0.138303         3.7634
  35   0.0000       0.154225         4.1967
  36   0.0000       0.164781         4.4839
  37   0.0000       0.179659         4.8888
  38   0.0000       0.184698         5.0259

MULLIKEN ATOMIC CHARGES
-----------------------
   0 C :   -0.286865
   1 N :   -0.212767
   2 C :   -0.176957
   3 C :   -0.128491
   4 C :   -0.038535
   5 C :   -0.187665
   6 C :   -0.047531
   7 O :   -0.329152
   8 C :    0.016965
   9 H :    0.100053
  10 H :    0.144275
  11 H :    0.133591
  12 H :    0.128506
  13 H :    0.110753
  14 H :    0.138564
  15 H :    0.114344
  16 H :    0.120449
  17 H :    0.124581
  18 H :    0.135606
  19 H :    0.140275
Sum of atomic charges:    0.0000000

LOEWDIN ATOMIC CHARGES
----------------------
   0 C :   -0.333500
   1 N :    0.087535
   2 C :   -0.247213
   3 C :   -0.240564
   4 C :   -0.201286
   5 C :   -0.193159
   6 C :   -0.245252
   7 O :    0.173569
   8 C :   -0.221453
   9 H :    0.101999
  10 H :    0.119563
  11 H :    0.118057
  12 H :    0.123769
  13 H :    0.122357
  14 H :    0.150744
  15 H :    0.153569
  16 H :    0.135815
  17 H :    0.136420
  18 H :    0.128851
  19 H :    0.130179

  Mayer bond orders larger than 0.1
B(  0-C ,  1-N ) :   0.8875 B(  0-C ,  9-H ) :   0.9261 B(  0-C , 10-H ) :   0.9375
B(  0-C , 11-H ) :   0.9390 B(  1-N ,  2-C ) :   0.9085 B(  1-N ,  3-C ) :   0.9091
B(  2-C ,  3-C ) :   0.9223 B(  2-C , 12-H ) :   0.9196 B(  2-C , 13-H ) :   0.9178
B(  3-C ,  4-C ) :   0.8983 B(  3-C , 14-H ) :   0.9215 B(  4-C ,  5-C ) :   0.9604
B(  4-C ,  8-C ) :   0.8836 B(  4-C , 15-H ) :   0.9022 B(  5-C ,  6-C ) :   0.9316
B(  5-C , 16-H ) :   0.9110 B(  5-C , 17-H ) :   0.9059 B(  6-C ,  7-O ) :   0.9376
B(  6-C ,  8-C ) :   0.9036 B(  6-C , 18-H ) :   0.9330 B(  7-O ,  8-C ) :   0.9006
B(  8-C , 19-H ) :   0.9219

MP2 TOTAL ENERGY:     -402.371396487 Eh
FINAL SINGLE POINT ENERGY      -402.371396487481

DIPOLE MOMENT
-------------
                                X             Y             Z
Electronic contribution:     -5.86142       0.79260       3.00143
Nuclear contribution   :      6.76382      -0.53435      -2.37163
                        -----------------------------------------
Total Dipole Moment    :      0.90240       0.25825       0.62980
                        -----------------------------------------
Magnitude (a.u.)       :      1.13034
Magnitude (Debye)      :      2.87310

                             ****ORCA TERMINATED NORMALLY****
TOTAL RUN TIME: 0 days 0 hours 18 minutes 55 seconds 130 msec
