                         Program Version 3.0.3 - RELEASE   -
|  1> ! RI-MP2 RIJK def2-TZVP def2-TZVP/C def2-TZVP/JK TIGHTSCF
|  2> % maxcore 2000
|  3> % mp2 density relaxed end
|  4> *xyz 0 1
|  5>  C        1.0114394277     1.5372254775    -1.3288286269
|  6>  C        0.0958469678     1.0056289963    -0.2485534203
|  7>  C        0.6448070225     0.7626317756     1.1245378117
|  8>  C       -0.3196284874     1.9095521681     0.8925762703
|  9>  O       -0.8234283025     0.0132019137    -0.6367574952
| 10>  C       -1.7029754203     0.2820480118    -1.7076922217
| 11>  C       -1.2605286788    -0.3491636334    -3.0108169834
| 12>  C       -3.1636081954     0.2562172989    -1.3481005961
| 13>  C       -2.4954971781     1.5643282178    -1.7193656803
| 14>  H        1.7295495597     2.2432830350    -0.9020781739
| 15>  H        1.5727779508     0.7210810611    -1.7958728969
| 16>  H        0.4516060590     2.0626102209    -2.1087488542
| 17>  H        0.2640831079    -0.1057436844     1.6492970473
| 18>  H        1.6895397975     0.9872639914     1.3093554422
| 19>  H        0.0600779026     2.9257311092     0.9212055476
| 20>  H       -1.3235959216     1.7884450268     1.2822922692
| 21>  H       -1.0862493007    -1.4203560377    -2.8663931807
| 22>  H       -2.0283552861    -0.2279973987    -3.7809183352
| 23>  H       -0.3337641540     0.0964979061    -3.3845412638
| 24>  H       -3.8645194276    -0.1898818130    -2.0455726061
| 25>  H       -3.3981897068     0.0980243585    -0.3018263179
| 26>  H       -2.3206403572     2.2830957420    -0.9293281154
| 27>  H       -2.7239960992     2.0062485665    -2.6838369502
| 28> *
| 29>
| 30>                          ****END OF INPUT****

CARTESIAN COORDINATES (ANGSTROEM)
---------------------------------
  C      1.011439    1.537225   -1.328829
  C      0.095847    1.005629   -0.248553
  C      0.644807    0.762632    1.124538
  C     -0.319628    1.909552    0.892576
  O     -0.823428    0.013202   -0.636757
  C     -1.702975    0.282048   -1.707692
  C     -1.260529   -0.349164   -3.010817
  C     -3.163608    0.256217   -1.348101
  C     -2.495497    1.564328   -1.719366
  H      1.729550    2.243283   -0.902078
  H      1.572778    0.721081   -1.795873
  H      0.451606    2.062610   -2.108749
  H      0.264083   -0.105744    1.649297
  H      1.689540    0.987264    1.309355
  H      0.060078    2.925731    0.921206
  H     -1.323596    1.788445    1.282292
  H     -1.086249   -1.420356   -2.866393
  H     -2.028355   -0.227997   -3.780918
  H     -0.333764    0.096498   -3.384541
  H     -3.864519   -0.189882   -2.045573
  H     -3.398190    0.098024   -0.301826
  H     -2.320640    2.283096   -0.929328
  H     -2.723996    2.006249   -2.683837

 Total Charge           Charge          ....    0
 Multiplicity           Mult            ....    1
 Number of Electrons    NEL             ....   70
 Basis Dimension        Dim             ....  363

ORBITAL ENERGIES
----------------

  NO   OCC          E(Eh)            E(eV)
   0   2.0000     -20.553194      -559.2808
   1   2.0000     -11.284591      -307.0693
   2   2.0000     -11.283796      -307.0477
   3   2.0000     -11.222824      -305.3886
   4   2.0000     -11.220256      -305.3187
   5   2.0000     -11.218672      -305.2756
   6   2.0000     -11.218372      -305.2674
   7   2.0000     -11.217563      -305.2454
   8   2.0000     -11.214521      -305.1626
   9   2.0000      -1.379287       -37.5323
  10   2.0000      -1.150222       -31.2991
  11   2.0000      -1.109303       -30.1857
  12   2.0000      -0.970103       -26.3978
  13   2.0000      -0.963061       -26.2062
  14   2.0000      -0.831978       -22.6393
  15   2.0000      -0.828244       -22.5377
  16   2.0000      -0.803258       -21.8578
  17   2.0000      -0.726957       -19.7815
  18   2.0000      -0.673797       -18.3350
  19   2.0000      -0.659545       -17.9471
  20   2.0000      -0.641233       -17.4488
  21   2.0000      -0.620104       -16.8739
  22   2.0000      -0.589149       -16.0316
  23   2.0000      -0.570082       -15.5127
  24   2.0000      -0.550930       -14.9916
  25   2.0000      -0.543020       -14.7763
  26   2.0000      -0.536004       -14.5854
  27   2.0000      -0.530157       -14.4263
  28   2.0000      -0.510761       -13.8985
  29   2.0000      -0.507415       -13.8075
  30   2.0000      -0.492703       -13.4071
  31   2.0000      -0.419549       -11.4165
  32   2.0000      -0.408914       -11.1271
  33   2.0000      -0.389283       -10.5929
  34   2.0000      -0.374989       -10.2040
  35   0.0000       0.137837         3.7507
  36   0.0000       0.160824         4.3762
  37   0.0000       0.163533         4.4500
  38   0.0000       0.173145         4.7115
  39   0.0000       0.184275         5.0144

MULLIKEN ATOMIC CHARGES
-----------------------
   0 C :   -0.426929
   1 C :    0.238381
   2 C :   -0.276883
   3 C :   -0.323572
   4 O :   -0.288145
   5 C :    0.208274
   6 C :   -0.398672
   7 C :   -0.292177
   8 C :   -0.292886
   9 H :    0.132572
  10 H :    0.140716
  11 H :    0.142684
  12 H :    0.132325
  13 H :    0.127884
  14 H :    0.125899
  15 H :    0.131294
  16 H :    0.138378
  17 H :    0.121902
  18 H :    0.128802
  19 H :    0.125756
  20 H :    0.131681
  21 H :    0.144724
  22 H :    0.127992
Sum of atomic charges:    0.0000000

LOEWDIN ATOMIC CHARGES
----------------------
   0 C :   -0.270172
   1 C :   -0.361996
   2 C :   -0.208309
   3 C :   -0.221734
   4 O :    0.263383
   5 C :   -0.356029
   6 C :   -0.270007
   7 C :   -0.207666
   8 C :   -0.213554
   9 H :    0.132138
  10 H :    0.128859
  11 H :    0.128183
  12 H :    0.138595
  13 H :    0.132683
  14 H :    0.130353
  15 H :    0.134286
  16 H :    0.130362
  17 H :    0.128832
  18 H :    0.123651
  19 H :    0.131714
  20 H :    0.136160
  21 H :    0.137390
  22 H :    0.132880

  Mayer bond orders larger than 0.1
B(  0-C ,  1-C ) :   0.9024 B(  0-C ,  9-H ) :   0.9212 B(  0-C , 10-H ) :   0.9388
B(  0-C , 11-H ) :   0.9350 B(  1-C ,  2-C ) :   0.8741 B(  1-C ,  3-C ) :   0.8717
B(  1-C ,  4-O ) :   1.0024 B(  2-C ,  3-C ) :   0.9183 B(  2-C , 12-H ) :   0.9212
B(  2-C , 13-H ) :   0.9256 B(  3-C , 14-H ) :   0.9157 B(  3-C , 15-H ) :   0.9256
B(  4-O ,  5-C ) :   0.9066 B(  5-C ,  6-C ) :   0.9212 B(  5-C ,  7-C ) :   0.8768
B(  5-C ,  8-C ) :   0.8666 B(  6-C , 16-H ) :   0.9372 B(  6-C , 17-H ) :   0.9274
B(  6-C , 18-H ) :   0.9351 B(  7-C ,  8-C ) :   0.9186 B(  7-C , 19-H ) :   0.9284
B(  7-C , 20-H ) :   0.9259 B(  8-C , 21-H ) :   0.9226 B(  8-C , 22-H ) :   0.9211

MP2 TOTAL ENERGY:     -387.574741971 Eh
FINAL SINGLE POINT ENERGY      -387.574741970877

DIPOLE MOMENT
-------------
                                X             Y             Z
Electronic contribution:     -0.88032      -1.92858       2.52324
Nuclear contribution   :      0.93452       2.31174      -2.78216
                        -----------------------------------------
Total Dipole Moment    :      0.05420       0.38316      -0.25892
                        -----------------------------------------
Magnitude (a.u.)       :      0.46560
Magnitude (Debye)      :      1.18347

                             ****ORCA TERMINATED NORMALLY****
TOTAL RUN TIME: 0 days 0 hours 20 minutes 6 seconds 750 msec
