                         Program Version 3.0.3 - RELEASE   -
|  1> ! RI-MP2 RIJK def2-TZVP def2-TZVP/C def2-TZVP/JK TIGHTSCF
|  2> % maxcore 2000
|  3> % mp2 density relaxed end
|  4> *xyz 0 1
|  5>  C       -0.2327736872     1.4791506118     0.0346340066
|  6>  C        0.0636082761    -0.0214157536     0.0009378799
|  7>  C        0.8491734910    -0.3963551846    -1.2466018835
|  8>  O        1.1935486930    -1.7954301920    -1.2409146027
|  9>  C        1.7022663869    -2.2829282120    -0.0926626215
| 10>  N        2.2203518973    -3.4381708746     0.0032680308
| 11>  C        1.5626913917    -1.4197789883     1.1326989351
| 12>  N        2.3371463820    -1.8268404273     2.1809477986
| 13>  N        0.7844577727    -0.4055873863     1.2102426841
| 14>  H        0.6979117709     2.0557953257     0.0400469464
| 15>  H       -0.8307351800     1.7868224167    -0.8295952616
| 16>  H       -0.7825285569     1.7244036560     0.9462841533
| 17>  H       -0.8965564653    -0.5616321327    -0.0220999833
| 18>  H        0.2759002212    -0.2451823669    -2.1639699975
| 19>  H        1.7720480838     0.1966976095    -1.3042912340
| 20>  H        2.2139715473    -3.9140074598    -0.9006682317
| 21>  H        2.6669086207    -2.7791270374     2.1311509508
| 22>  H        2.0897085149    -1.4560535041     3.0844897001
| 23> *
| 24>
| 25>                          ****END OF INPUT****

CARTESIAN COORDINATES (ANGSTROEM)
---------------------------------
  C     -0.232774    1.479151    0.034634
  C      0.063608   -0.021416    0.000938
  C      0.849173   -0.396355   -1.246602
  O      1.193549   -1.795430   -1.240915
  C      1.702266   -2.282928   -0.092663
  N      2.220352   -3.438171    0.003268
  C      1.562691   -1.419779    1.132699
  N      2.337146   -1.826840    2.180948
  N      0.784458   -0.405587    1.210243
  H      0.697912    2.055795    0.040047
  H     -0.830735    1.786822   -0.829595
  H     -0.782529    1.724404    0.946284
  H     -0.896556   -0.561632   -0.022100
  H      0.275900   -0.245182   -2.163970
  H      1.772048    0.196698   -1.304291
  H      2.213972   -3.914007   -0.900668
  H      2.666909   -2.779127    2.131151
  H      2.089709   -1.456054    3.084490

 Total Charge           Charge          ....    0
 Multiplicity           Mult            ....    1
 Number of Electrons    NEL             ....   68
 Basis Dimension        Dim             ....  333

ORBITAL ENERGIES
----------------

  NO   OCC          E(Eh)            E(eV)
   0   2.0000     -20.604793      -560.6849
   1   2.0000     -15.565995      -423.5723
   2   2.0000     -15.552958      -423.2175
   3   2.0000     -15.543226      -422.9527
   4   2.0000     -11.354875      -308.9818
   5   2.0000     -11.326642      -308.2136
   6   2.0000     -11.296880      -307.4037
   7   2.0000     -11.266842      -306.5864
   8   2.0000     -11.220057      -305.3133
   9   2.0000      -1.443054       -39.2675
  10   2.0000      -1.276322       -34.7305
  11   2.0000      -1.215185       -33.0669
  12   2.0000      -1.169037       -31.8111
  13   2.0000      -1.047059       -28.4919
  14   2.0000      -0.947389       -25.7798
  15   2.0000      -0.897908       -24.4333
  16   2.0000      -0.844758       -22.9870
  17   2.0000      -0.745434       -20.2843
  18   2.0000      -0.730915       -19.8892
  19   2.0000      -0.696839       -18.9620
  20   2.0000      -0.688904       -18.7460
  21   2.0000      -0.659536       -17.9469
  22   2.0000      -0.623132       -16.9563
  23   2.0000      -0.599852       -16.3228
  24   2.0000      -0.574628       -15.6364
  25   2.0000      -0.556885       -15.1536
  26   2.0000      -0.534302       -14.5391
  27   2.0000      -0.530815       -14.4442
  28   2.0000      -0.525917       -14.3109
  29   2.0000      -0.485301       -13.2057
  30   2.0000      -0.466993       -12.7075
  31   2.0000      -0.415166       -11.2973
  32   2.0000      -0.396435       -10.7875
  33   2.0000      -0.358899        -9.7661
  34   0.0000       0.105614         2.8739
  35   0.0000       0.138568         3.7706
  36   0.0000       0.156456         4.2574
  37   0.0000       0.167092         4.5468
  38   0.0000       0.174887         4.7589

MULLIKEN ATOMIC CHARGES
-----------------------
   0 C :   -0.372224
   1 C :    0.026611
   2 C :   -0.081454
   3 O :   -0.255143
   4 C :    0.191043
   5 N :   -0.419746
   6 C :    0.151594
   7 N :   -0.477898
   8 N :   -0.255016
   9 H :    0.124117
  10 H :    0.121313
  11 H :    0.142562
  12 H :    0.094516
  13 H :    0.133862
  14 H :    0.117495
  15 H :    0.222999
  16 H :    0.282218
  17 H :    0.253151
Sum of atomic charges:   -0.0000000

LOEWDIN ATOMIC CHARGES
----------------------
   0 C :   -0.288544
   1 C :   -0.332590
   2 C :   -0.258134
   3 O :    0.251041
   4 C :   -0.382822
   5 N :   -0.054472
   6 C :   -0.347677
   7 N :   -0.017815
   8 N :    0.115381
   9 H :    0.124892
  10 H :    0.122708
  11 H :    0.129545
  12 H :    0.150804
  13 H :    0.135652
  14 H :    0.132528
  15 H :    0.168309
  16 H :    0.179516
  17 H :    0.171676

  Mayer bond orders larger than 0.1
B(  0-C ,  1-C ) :   0.9232 B(  0-C ,  9-H ) :   0.9299 B(  0-C , 10-H ) :   0.9348
B(  0-C , 11-H ) :   0.9347 B(  1-C ,  2-C ) :   0.9341 B(  1-C ,  8-N ) :   0.9113
B(  1-C , 12-H ) :   0.9081 B(  2-C ,  3-O ) :   0.8464 B(  2-C , 13-H ) :   0.9243
B(  2-C , 14-H ) :   0.9261 B(  3-O ,  4-C ) :   1.1272 B(  4-C ,  5-N ) :   1.9007
B(  4-C ,  6-C ) :   0.9390 B(  5-N , 15-H ) :   0.8552 B(  6-C ,  7-N ) :   1.1607
B(  6-C ,  8-N ) :   1.8128 B(  7-N , 16-H ) :   0.8476 B(  7-N , 17-H ) :   0.8628

MP2 TOTAL ENERGY:     -434.577750658 Eh
FINAL SINGLE POINT ENERGY      -434.577750657990

DIPOLE MOMENT
-------------
                                X             Y             Z
Electronic contribution:      2.84095      -6.22097       0.49820
Nuclear contribution   :     -3.09452       6.48526      -0.85387
                        -----------------------------------------
Total Dipole Moment    :     -0.25357       0.26429      -0.35566
                        -----------------------------------------
Magnitude (a.u.)       :      0.51053
Magnitude (Debye)      :      1.29766

                             ****ORCA TERMINATED NORMALLY****
TOTAL RUN TIME: 0 days 0 hours 17 minutes 58 seconds 619 msec
