                         Program Version 3.0.3 - RELEASE   -
|  1> ! RI-MP2 RIJK def2-TZVP def2-TZVP/C def2-TZVP/JK TIGHTSCF
|  2> % maxcore 2000
|  3> % mp2 density relaxed end
|  4> *xyz 0 1
|  5>  C       -0.6866820733     1.2514679492    -0.2050929089
|  6>  C       -0.3291833345    -0.2033750541    -0.4390205206
|  7>  C        0.5061266530    -0.8113107330    -1.5588346957
|  8>  C        1.7625613572    -0.0085905327    -1.9364669215
|  9>  C        1.6563403372     1.2918716599    -2.7269039320
| 10>  C        2.1874580964     0.0000809040    -0.4257558174
| 11>  C        0.9677069236    -0.8794463384    -0.1048284797
| 12>  O        1.0422161740    -2.0129418366     0.6923540740
| 13>  H       -1.3921447186     1.6161430275    -0.9598866940
| 14>  H       -1.1640215667     1.3713396215     0.7745030667
| 15>  H        0.1850911147     1.9089231272    -0.2202513778
| 16>  H       -1.1565842774    -0.8786395725    -0.2212679214
| 17>  H        0.0837686997    -1.6023112944    -2.1688392457
| 18>  H        2.4418533097    -0.6796337368    -2.4733648313
| 19>  H        1.0006588214     2.0239072225    -2.2496602604
| 20>  H        2.6426791022     1.7548082772    -2.8457976199
| 21>  H        1.2599000963     1.1008550367    -3.7305584614
| 22>  H        3.1272207775    -0.5277764978    -0.2514171861
| 23>  H        2.2355945947     0.9746721337     0.0720012976
| 24>  H        0.8034379029    -1.7658666231     1.5923057854
| 25> *
| 26>
| 27>                          ****END OF INPUT****

CARTESIAN COORDINATES (ANGSTROEM)
---------------------------------
  C     -0.686682    1.251468   -0.205093
  C     -0.329183   -0.203375   -0.439021
  C      0.506127   -0.811311   -1.558835
  C      1.762561   -0.008591   -1.936467
  C      1.656340    1.291872   -2.726904
  C      2.187458    0.000081   -0.425756
  C      0.967707   -0.879446   -0.104828
  O      1.042216   -2.012942    0.692354
  H     -1.392145    1.616143   -0.959887
  H     -1.164022    1.371340    0.774503
  H      0.185091    1.908923   -0.220251
  H     -1.156584   -0.878640   -0.221268
  H      0.083769   -1.602311   -2.168839
  H      2.441853   -0.679634   -2.473365
  H      1.000659    2.023907   -2.249660
  H      2.642679    1.754808   -2.845798
  H      1.259900    1.100855   -3.730558
  H      3.127221   -0.527776   -0.251417
  H      2.235595    0.974672    0.072001
  H      0.803438   -1.765867    1.592306

 Total Charge           Charge          ....    0
 Multiplicity           Mult            ....    1
 Number of Electrons    NEL             ....   62
 Basis Dimension        Dim             ....  320

ORBITAL ENERGIES
----------------

  NO   OCC          E(Eh)            E(eV)
   0   2.0000     -20.561398      -559.5041
   1   2.0000     -11.280031      -306.9452
   2   2.0000     -11.231252      -305.6179
   3   2.0000     -11.230121      -305.5871
   4   2.0000     -11.222094      -305.3687
   5   2.0000     -11.219616      -305.3013
   6   2.0000     -11.216989      -305.2298
   7   2.0000     -11.209519      -305.0265
   8   2.0000      -1.371538       -37.3214
   9   2.0000      -1.177085       -32.0301
  10   2.0000      -1.028062       -27.9750
  11   2.0000      -0.970640       -26.4124
  12   2.0000      -0.926386       -25.2083
  13   2.0000      -0.843401       -22.9501
  14   2.0000      -0.766756       -20.8645
  15   2.0000      -0.721268       -19.6267
  16   2.0000      -0.703803       -19.1515
  17   2.0000      -0.624853       -17.0031
  18   2.0000      -0.614684       -16.7264
  19   2.0000      -0.606909       -16.5148
  20   2.0000      -0.572368       -15.5749
  21   2.0000      -0.566340       -15.4109
  22   2.0000      -0.555182       -15.1073
  23   2.0000      -0.545355       -14.8399
  24   2.0000      -0.519720       -14.1423
  25   2.0000      -0.503148       -13.6913
  26   2.0000      -0.476953       -12.9786
  27   2.0000      -0.458373       -12.4730
  28   2.0000      -0.438586       -11.9345
  29   2.0000      -0.379882       -10.3371
  30   2.0000      -0.365778        -9.9533
  31   0.0000       0.131683         3.5833
  32   0.0000       0.148012         4.0276
  33   0.0000       0.164984         4.4894
  34   0.0000       0.174531         4.7492
  35   0.0000       0.185950         5.0599

MULLIKEN ATOMIC CHARGES
-----------------------
   0 C :   -0.382441
   1 C :   -0.171937
   2 C :   -0.097995
   3 C :   -0.077248
   4 C :   -0.398465
   5 C :   -0.263565
   6 C :    0.175630
   7 O :   -0.456537
   8 H :    0.135928
   9 H :    0.130462
  10 H :    0.127549
  11 H :    0.113137
  12 H :    0.130949
  13 H :    0.098701
  14 H :    0.118808
  15 H :    0.128442
  16 H :    0.129513
  17 H :    0.119312
  18 H :    0.114791
  19 H :    0.324969
Sum of atomic charges:    0.0000000

LOEWDIN ATOMIC CHARGES
----------------------
   0 C :   -0.298291
   1 C :   -0.207234
   2 C :   -0.130993
   3 C :   -0.229579
   4 C :   -0.300248
   5 C :   -0.180183
   6 C :   -0.316647
   7 O :    0.021716
   8 H :    0.125630
   9 H :    0.124569
  10 H :    0.121460
  11 H :    0.161366
  12 H :    0.137411
  13 H :    0.154160
  14 H :    0.120645
  15 H :    0.123435
  16 H :    0.125167
  17 H :    0.137702
  18 H :    0.126241
  19 H :    0.183672

  Mayer bond orders larger than 0.1
B(  0-C ,  1-C ) :   0.8702 B(  0-C ,  8-H ) :   0.9364 B(  0-C ,  9-H ) :   0.9347
B(  0-C , 10-H ) :   0.9400 B(  1-C ,  2-C ) :   0.8623 B(  1-C ,  6-C ) :   0.9328
B(  1-C , 11-H ) :   0.9357 B(  2-C ,  3-C ) :   0.9242 B(  2-C ,  6-C ) :   0.8139
B(  2-C , 12-H ) :   0.9049 B(  3-C ,  4-C ) :   0.9161 B(  3-C ,  5-C ) :   0.9564
B(  3-C , 13-H ) :   0.9264 B(  4-C , 14-H ) :   0.9338 B(  4-C , 15-H ) :   0.9378
B(  4-C , 16-H ) :   0.9388 B(  5-C ,  6-C ) :   0.9416 B(  5-C , 17-H ) :   0.9120
B(  5-C , 18-H ) :   0.9136 B(  6-C ,  7-O ) :   1.0352 B(  7-O , 19-H ) :   0.8376

MP2 TOTAL ENERGY:     -348.368438512 Eh
FINAL SINGLE POINT ENERGY      -348.368438512134

DIPOLE MOMENT
-------------
                                X             Y             Z
Electronic contribution:      0.40193      -6.42653       3.03013
Nuclear contribution   :     -0.55514       6.86581      -2.78787
                        -----------------------------------------
Total Dipole Moment    :     -0.15321       0.43928       0.24226
                        -----------------------------------------
Magnitude (a.u.)       :      0.52453
Magnitude (Debye)      :      1.33324

                             ****ORCA TERMINATED NORMALLY****
TOTAL RUN TIME: 0 days 0 hours 13 minutes 56 seconds 295 msec
