                         Program Version 3.0.3 - RELEASE   -
|  1> ! RI-MP2 RIJK def2-TZVP def2-TZVP/C def2-TZVP/JK TIGHTSCF
|  2> % maxcore 2000
|  3> % mp2 density relaxed end
|  4> *xyz 0 1
|  5>  C       -0.0585817442     1.3824797870     0.2245612482
|  6>  C        1.2979688744     0.7775464698    -0.0402670057
|  7>  N        1.7835024135    -0.0110157749     1.1172310324
|  8>  C        0.6383935498    -0.8575667335     1.0181694067
|  9>  N        0.3437908003    -1.9968889265     1.4702471998
| 10>  C       -0.7708644589    -2.6029413628     0.7152763068
| 11>  C       -1.5349602388    -1.6800110589    -0.2650579934
| 12>  O       -0.6743703613    -0.8077971006    -1.0326388083
| 13>  C        0.0502952678    -0.0994764459    -0.1032274801
| 14>  H       -0.3242579369     1.7389520091     1.2175719312
| 15>  H       -0.4658430818     1.9647173445    -0.5983809565
| 16>  H        1.9863897348     1.0941153730    -0.8127999982
| 17>  H        1.9772865921     0.4763705659     1.9869243875
| 18>  H       -0.3472757916    -3.4544499283     0.1674666273
| 19>  H       -1.5004206419    -3.0210152903     1.4193564317
| 20>  H       -2.0838523340    -2.2798366708    -0.9943655117
| 21>  H       -2.2558703733    -1.0597826768     0.2864764725
| 22> *
| 23>
| 24>                          ****END OF INPUT****

CARTESIAN COORDINATES (ANGSTROEM)
---------------------------------
  C     -0.058582    1.382480    0.224561
  C      1.297969    0.777546   -0.040267
  N      1.783502   -0.011016    1.117231
  C      0.638394   -0.857567    1.018169
  N      0.343791   -1.996889    1.470247
  C     -0.770864   -2.602941    0.715276
  C     -1.534960   -1.680011   -0.265058
  O     -0.674370   -0.807797   -1.032639
  C      0.050295   -0.099476   -0.103227
  H     -0.324258    1.738952    1.217572
  H     -0.465843    1.964717   -0.598381
  H      1.986390    1.094115   -0.812800
  H      1.977287    0.476371    1.986924
  H     -0.347276   -3.454450    0.167467
  H     -1.500421   -3.021015    1.419356
  H     -2.083852   -2.279837   -0.994366
  H     -2.255870   -1.059783    0.286476

 Total Charge           Charge          ....    0
 Multiplicity           Mult            ....    1
 Number of Electrons    NEL             ....   66
 Basis Dimension        Dim             ....  327

ORBITAL ENERGIES
----------------

  NO   OCC          E(Eh)            E(eV)
   0   2.0000     -20.579495      -559.9965
   1   2.0000     -15.577089      -423.8742
   2   2.0000     -15.543922      -422.9716
   3   2.0000     -11.307797      -307.7008
   4   2.0000     -11.303215      -307.5761
   5   2.0000     -11.289028      -307.1901
   6   2.0000     -11.288827      -307.1846
   7   2.0000     -11.258090      -306.3482
   8   2.0000     -11.251912      -306.1801
   9   2.0000      -1.407759       -38.3071
  10   2.0000      -1.300528       -35.3892
  11   2.0000      -1.210325       -32.9346
  12   2.0000      -1.084178       -29.5020
  13   2.0000      -1.004710       -27.3395
  14   2.0000      -0.890397       -24.2289
  15   2.0000      -0.869776       -23.6678
  16   2.0000      -0.827436       -22.5157
  17   2.0000      -0.732677       -19.9372
  18   2.0000      -0.697966       -18.9926
  19   2.0000      -0.692676       -18.8487
  20   2.0000      -0.660764       -17.9803
  21   2.0000      -0.616473       -16.7751
  22   2.0000      -0.607800       -16.5391
  23   2.0000      -0.583957       -15.8903
  24   2.0000      -0.569447       -15.4954
  25   2.0000      -0.550942       -14.9919
  26   2.0000      -0.528188       -14.3727
  27   2.0000      -0.508373       -13.8335
  28   2.0000      -0.503218       -13.6933
  29   2.0000      -0.452702       -12.3186
  30   2.0000      -0.397002       -10.8030
  31   2.0000      -0.382080       -10.3969
  32   2.0000      -0.358442        -9.7537
  33   0.0000       0.138342         3.7645
  34   0.0000       0.150236         4.0881
  35   0.0000       0.157857         4.2955
  36   0.0000       0.171281         4.6608
  37   0.0000       0.173841         4.7304

MULLIKEN ATOMIC CHARGES
-----------------------
   0 C :   -0.237456
   1 C :   -0.086920
   2 N :   -0.310474
   3 C :    0.039959
   4 N :   -0.210359
   5 C :   -0.090613
   6 C :   -0.075897
   7 O :   -0.301452
   8 C :    0.138115
   9 H :    0.135038
  10 H :    0.134000
  11 H :    0.153616
  12 H :    0.227976
  13 H :    0.119714
  14 H :    0.120886
  15 H :    0.138164
  16 H :    0.105702
Sum of atomic charges:    0.0000000

LOEWDIN ATOMIC CHARGES
----------------------
   0 C :   -0.182904
   1 C :   -0.177896
   2 N :    0.089835
   3 C :   -0.305680
   4 N :    0.105120
   5 C :   -0.281569
   6 C :   -0.279729
   7 O :    0.206502
   8 C :   -0.293580
   9 H :    0.131023
  10 H :    0.147754
  11 H :    0.139604
  12 H :    0.170165
  13 H :    0.136243
  14 H :    0.136656
  15 H :    0.133249
  16 H :    0.125207

  Mayer bond orders larger than 0.1
B(  0-C ,  1-C ) :   0.8709 B(  0-C ,  8-C ) :   0.8588 B(  0-C ,  9-H ) :   0.9024
B(  0-C , 10-H ) :   0.9139 B(  1-C ,  2-N ) :   0.9555 B(  1-C ,  8-C ) :   0.8280
B(  1-C , 11-H ) :   0.9090 B(  2-N ,  3-C ) :   1.0587 B(  2-N , 12-H ) :   0.8511
B(  3-C ,  4-N ) :   1.8878 B(  3-C ,  8-C ) :   0.9423 B(  4-N ,  5-C ) :   0.8977
B(  5-C ,  6-C ) :   0.9359 B(  5-C , 13-H ) :   0.9199 B(  5-C , 14-H ) :   0.9189
B(  6-C ,  7-O ) :   0.8724 B(  6-C , 15-H ) :   0.9222 B(  6-C , 16-H ) :   0.9370
B(  7-O ,  8-C ) :   1.0034

MP2 TOTAL ENERGY:     -417.240729136 Eh
FINAL SINGLE POINT ENERGY      -417.240729136346

DIPOLE MOMENT
-------------
                                X             Y             Z
Electronic contribution:      2.92250       0.04673      -0.08185
Nuclear contribution   :     -3.51935       0.72896       0.01716
                        -----------------------------------------
Total Dipole Moment    :     -0.59685       0.77569      -0.06469
                        -----------------------------------------
Magnitude (a.u.)       :      0.98087
Magnitude (Debye)      :      2.49318

                             ****ORCA TERMINATED NORMALLY****
TOTAL RUN TIME: 0 days 0 hours 16 minutes 37 seconds 91 msec
