                         Program Version 3.0.3 - RELEASE   -
|  1> ! RI-MP2 RIJK def2-TZVP def2-TZVP/C def2-TZVP/JK TIGHTSCF
|  2> % maxcore 2000
|  3> % mp2 density relaxed end
|  4> *xyz 0 1
|  5>  C       -0.0858075230     1.5870132426     0.0685517249
|  6>  C       -0.0227025918     0.0814173624    -0.0336155292
|  7>  O       -1.1401046491    -0.5839888610     0.4781149469
|  8>  C        0.5742955823    -0.6108763185    -1.2016088030
|  9>  N        1.0545176731     0.0927264089    -2.3471058820
| 10>  C        1.3188418653    -0.6656914457     0.1733184753
| 11>  C        2.5353017924     0.0650933396     0.3159787862
| 12>  N        3.5116356932     0.6860148167     0.3862004995
| 13>  H        0.8285912016     2.0700628857    -0.2817157596
| 14>  H       -0.9315782230     1.9630188440    -0.5138454049
| 15>  H       -0.2242937045     1.8871327027     1.1136924954
| 16>  H       -1.2346214138    -0.3408383418     1.4068825768
| 17>  H        0.0935131470    -1.5516365767    -1.4493795611
| 18>  H        1.5293553695     0.9523339612    -2.0924869334
| 19>  H        1.7314064920    -0.4740381840    -2.8488402357
| 20>  H        1.2538861786    -1.5986937560     0.7217782039
| 21> *
| 22>
| 23>                          ****END OF INPUT****

CARTESIAN COORDINATES (ANGSTROEM)
---------------------------------
  C     -0.085808    1.587013    0.068552
  C     -0.022703    0.081417   -0.033616
  O     -1.140105   -0.583989    0.478115
  C      0.574296   -0.610876   -1.201609
  N      1.054518    0.092726   -2.347106
  C      1.318842   -0.665691    0.173318
  C      2.535302    0.065093    0.315979
  N      3.511636    0.686015    0.386200
  H      0.828591    2.070063   -0.281716
  H     -0.931578    1.963019   -0.513845
  H     -0.224294    1.887133    1.113692
  H     -1.234621   -0.340838    1.406883
  H      0.093513   -1.551637   -1.449380
  H      1.529355    0.952334   -2.092487
  H      1.731406   -0.474038   -2.848840
  H      1.253886   -1.598694    0.721778

 Total Charge           Charge          ....    0
 Multiplicity           Mult            ....    1
 Number of Electrons    NEL             ....   60
 Basis Dimension        Dim             ....  296

ORBITAL ENERGIES
----------------

  NO   OCC          E(Eh)            E(eV)
   0   2.0000     -20.587716      -560.2202
   1   2.0000     -15.569225      -423.6601
   2   2.0000     -15.568151      -423.6309
   3   2.0000     -11.325240      -308.1754
   4   2.0000     -11.294782      -307.3466
   5   2.0000     -11.276923      -306.8607
   6   2.0000     -11.274410      -306.7923
   7   2.0000     -11.243101      -305.9403
   8   2.0000      -1.402856       -38.1737
   9   2.0000      -1.238123       -33.6911
  10   2.0000      -1.211396       -32.9637
  11   2.0000      -1.120585       -30.4927
  12   2.0000      -1.000284       -27.2191
  13   2.0000      -0.913270       -24.8513
  14   2.0000      -0.797970       -21.7139
  15   2.0000      -0.738927       -20.1072
  16   2.0000      -0.718285       -19.5455
  17   2.0000      -0.684850       -18.6357
  18   2.0000      -0.646567       -17.5940
  19   2.0000      -0.609191       -16.5769
  20   2.0000      -0.595294       -16.1988
  21   2.0000      -0.581530       -15.8242
  22   2.0000      -0.567166       -15.4334
  23   2.0000      -0.553758       -15.0685
  24   2.0000      -0.545069       -14.8321
  25   2.0000      -0.502571       -13.6757
  26   2.0000      -0.491292       -13.3687
  27   2.0000      -0.465407       -12.6644
  28   2.0000      -0.413433       -11.2501
  29   2.0000      -0.377116       -10.2618
  30   0.0000       0.118222         3.2170
  31   0.0000       0.137382         3.7384
  32   0.0000       0.152861         4.1596
  33   0.0000       0.170105         4.6288
  34   0.0000       0.178455         4.8560

MULLIKEN ATOMIC CHARGES
-----------------------
   0 C :   -0.399091
   1 C :    0.200906
   2 O :   -0.443315
   3 C :   -0.041117
   4 N :   -0.493573
   5 C :   -0.066036
   6 C :   -0.241451
   7 N :   -0.056909
   8 H :    0.134317
   9 H :    0.161718
  10 H :    0.132676
  11 H :    0.322917
  12 H :    0.144581
  13 H :    0.236749
  14 H :    0.241664
  15 H :    0.165965
Sum of atomic charges:   -0.0000000

LOEWDIN ATOMIC CHARGES
----------------------
   0 C :   -0.261105
   1 C :   -0.349412
   2 O :    0.039884
   3 C :   -0.233971
   4 N :   -0.113410
   5 C :   -0.180852
   6 C :   -0.200549
   7 N :    0.051883
   8 H :    0.134807
   9 H :    0.138359
  10 H :    0.132484
  11 H :    0.184890
  12 H :    0.158295
  13 H :    0.162548
  14 H :    0.167167
  15 H :    0.168982

  Mayer bond orders larger than 0.1
B(  0-C ,  1-C ) :   0.9557 B(  0-C ,  8-H ) :   0.9210 B(  0-C ,  9-H ) :   0.9341
B(  0-C , 10-H ) :   0.9181 B(  1-C ,  2-O ) :   1.0095 B(  1-C ,  3-C ) :   0.8810
B(  1-C ,  5-C ) :   0.7818 B(  2-O , 11-H ) :   0.8364 B(  3-C ,  4-N ) :   1.0468
B(  3-C ,  5-C ) :   0.7962 B(  3-C , 12-H ) :   0.9289 B(  4-N , 13-H ) :   0.8805
B(  4-N , 14-H ) :   0.8855 B(  5-C ,  6-C ) :   0.9424 B(  5-C , 15-H ) :   0.9100
B(  6-C ,  7-N ) :   2.8316

MP2 TOTAL ENERGY:     -379.286429663 Eh
FINAL SINGLE POINT ENERGY      -379.286429662957

DIPOLE MOMENT
-------------
                                X             Y             Z
Electronic contribution:      3.08739      -2.35240       1.75594
Nuclear contribution   :     -3.89550       2.05271      -1.55938
                        -----------------------------------------
Total Dipole Moment    :     -0.80811      -0.29969       0.19656
                        -----------------------------------------
Magnitude (a.u.)       :      0.88402
Magnitude (Debye)      :      2.24699

                             ****ORCA TERMINATED NORMALLY****
TOTAL RUN TIME: 0 days 0 hours 12 minutes 11 seconds 101 msec
