                         Program Version 3.0.3 - RELEASE   -
|  1> ! RI-MP2 RIJK def2-TZVP def2-TZVP/C def2-TZVP/JK TIGHTSCF
|  2> % maxcore 2000
|  3> % mp2 density relaxed end
|  4> *xyz 0 1
|  5>  C        0.1733711911     1.4528779245     0.2277679865
|  6>  N        0.1825504392     0.0032538574     0.1046526836
|  7>  C       -1.0360353939    -0.7897551499     0.5364572573
|  8>  C       -0.0745954501    -2.0301567540     0.4742467939
|  9>  O        0.4031121205    -2.4410747970    -0.7531176676
| 10>  C        0.6744373183    -0.8854861666     1.2409856827
| 11>  C       -0.6369507030    -0.6686404984     2.0410241028
| 12>  C       -0.8644476703     0.5372508669     2.9114572909
| 13>  O       -0.0197963265     1.0240310385     3.6220803632
| 14>  H        1.2056620601     1.8156098164     0.2437326475
| 15>  H       -0.3173082444     1.8695690793    -0.6581920252
| 16>  H       -0.3364739646     1.8576982546     1.1132294834
| 17>  H       -2.0119132527    -0.6530906838     0.0671600162
| 18>  H       -0.3626973510    -2.9043690111     1.0589941677
| 19>  H        0.6403701391    -1.6130490186    -1.2023206775
| 20>  H        1.7032860980    -0.8483745844     1.5982923186
| 21>  H       -0.9591984550    -1.5330905280     2.6430495643
| 22>  H       -1.9134932349     0.9150441342     2.9239251317
| 23> *
| 24>
| 25>                          ****END OF INPUT****

CARTESIAN COORDINATES (ANGSTROEM)
---------------------------------
  C      0.173371    1.452878    0.227768
  N      0.182550    0.003254    0.104653
  C     -1.036035   -0.789755    0.536457
  C     -0.074595   -2.030157    0.474247
  O      0.403112   -2.441075   -0.753118
  C      0.674437   -0.885486    1.240986
  C     -0.636951   -0.668640    2.041024
  C     -0.864448    0.537251    2.911457
  O     -0.019796    1.024031    3.622080
  H      1.205662    1.815610    0.243733
  H     -0.317308    1.869569   -0.658192
  H     -0.336474    1.857698    1.113229
  H     -2.011913   -0.653091    0.067160
  H     -0.362697   -2.904369    1.058994
  H      0.640370   -1.613049   -1.202321
  H      1.703286   -0.848375    1.598292
  H     -0.959198   -1.533091    2.643050
  H     -1.913493    0.915044    2.923925

 Total Charge           Charge          ....    0
 Multiplicity           Mult            ....    1
 Number of Electrons    NEL             ....   68
 Basis Dimension        Dim             ....  333

ORBITAL ENERGIES
----------------

  NO   OCC          E(Eh)            E(eV)
   0   2.0000     -20.564070      -559.5768
   1   2.0000     -20.558659      -559.4296
   2   2.0000     -15.573574      -423.7785
   3   2.0000     -11.344886      -308.7100
   4   2.0000     -11.304089      -307.5999
   5   2.0000     -11.293118      -307.3014
   6   2.0000     -11.289019      -307.1898
   7   2.0000     -11.264790      -306.5305
   8   2.0000     -11.254090      -306.2394
   9   2.0000      -1.404034       -38.2057
  10   2.0000      -1.385646       -37.7054
  11   2.0000      -1.290763       -35.1235
  12   2.0000      -1.081701       -29.4346
  13   2.0000      -0.977988       -26.6124
  14   2.0000      -0.895083       -24.3564
  15   2.0000      -0.893197       -24.3051
  16   2.0000      -0.815897       -22.2017
  17   2.0000      -0.751692       -20.4546
  18   2.0000      -0.713196       -19.4071
  19   2.0000      -0.692845       -18.8533
  20   2.0000      -0.678219       -18.4553
  21   2.0000      -0.653870       -17.7927
  22   2.0000      -0.608428       -16.5562
  23   2.0000      -0.603109       -16.4114
  24   2.0000      -0.575666       -15.6647
  25   2.0000      -0.572854       -15.5881
  26   2.0000      -0.563115       -15.3231
  27   2.0000      -0.524801       -14.2805
  28   2.0000      -0.493881       -13.4392
  29   2.0000      -0.489341       -13.3157
  30   2.0000      -0.464579       -12.6418
  31   2.0000      -0.426950       -11.6179
  32   2.0000      -0.415688       -11.3114
  33   2.0000      -0.383441       -10.4339
  34   0.0000       0.121091         3.2950
  35   0.0000       0.140864         3.8331
  36   0.0000       0.147297         4.0082
  37   0.0000       0.164610         4.4793
  38   0.0000       0.170186         4.6310

MULLIKEN ATOMIC CHARGES
-----------------------
   0 C :   -0.333975
   1 N :   -0.266513
   2 C :   -0.067724
   3 C :    0.121659
   4 O :   -0.468340
   5 C :   -0.053562
   6 C :   -0.075251
   7 C :    0.031204
   8 O :   -0.255739
   9 H :    0.147034
  10 H :    0.144289
  11 H :    0.107212
  12 H :    0.145709
  13 H :    0.118648
  14 H :    0.330617
  15 H :    0.151782
  16 H :    0.126361
  17 H :    0.096590
Sum of atomic charges:   -0.0000000

LOEWDIN ATOMIC CHARGES
----------------------
   0 C :   -0.330463
   1 N :    0.088299
   2 C :   -0.167410
   3 C :   -0.302229
   4 O :    0.007314
   5 C :   -0.157843
   6 C :   -0.197364
   7 C :   -0.300957
   8 O :    0.135293
   9 H :    0.124729
  10 H :    0.120503
  11 H :    0.113464
  12 H :    0.127372
  13 H :    0.140198
  14 H :    0.184068
  15 H :    0.131736
  16 H :    0.169418
  17 H :    0.113872

  Mayer bond orders larger than 0.1
B(  0-C ,  1-N ) :   0.9282 B(  0-C ,  9-H ) :   0.9358 B(  0-C , 10-H ) :   0.9342
B(  0-C , 11-H ) :   0.9127 B(  1-N ,  2-C ) :   0.8039 B(  1-N ,  5-C ) :   0.7930
B(  2-C ,  3-C ) :   0.8654 B(  2-C ,  6-C ) :   0.8858 B(  2-C , 12-H ) :   0.8938
B(  3-C ,  4-O ) :   1.0183 B(  3-C ,  5-C ) :   0.8731 B(  3-C , 13-H ) :   0.9590
B(  4-O , 14-H ) :   0.7988 B(  5-C ,  6-C ) :   0.8911 B(  5-C , 15-H ) :   0.8977
B(  6-C ,  7-C ) :   0.8210 B(  6-C , 16-H ) :   0.8769 B(  7-C ,  8-O ) :   2.0217
B(  7-C , 17-H ) :   0.9624

MP2 TOTAL ENERGY:     -438.285082489 Eh
FINAL SINGLE POINT ENERGY      -438.285082489077

DIPOLE MOMENT
-------------
                                X             Y             Z
Electronic contribution:      0.52075      -2.22976       2.17073
Nuclear contribution   :     -1.20801       2.44444      -2.28551
                        -----------------------------------------
Total Dipole Moment    :     -0.68726       0.21468      -0.11478
                        -----------------------------------------
Magnitude (a.u.)       :      0.72910
Magnitude (Debye)      :      1.85323

                             ****ORCA TERMINATED NORMALLY****
TOTAL RUN TIME: 0 days 0 hours 16 minutes 54 seconds 330 msec
