                         Program Version 3.0.3 - RELEASE   -
|  1> ! RI-MP2 RIJK def2-TZVP def2-TZVP/C def2-TZVP/JK TIGHTSCF
|  2> % maxcore 2000
|  3> % mp2 density relaxed end
|  4> *xyz 0 1
|  5>  O       -0.0251916426    -0.0637225498     0.0029841797
|  6>  C        0.0380800990     1.1366201531     0.0087224009
|  7>  N       -1.1430516328     1.9202112278     0.0286671950
|  8>  N       -1.2287270132     3.2436365516     0.0369296084
|  9>  N       -0.1410049658     3.9143367487     0.0260374766
| 10>  C        1.0421072325     3.1898241228     0.0065111385
| 11>  N        1.1968498036     1.9062933696    -0.0025827605
| 12>  H       -2.0340575425     1.4372325529     0.0379534964
| 13>  H        1.9310222918     3.8169666733    -0.0022865051
| 14> *
| 15>
| 16>                          ****END OF INPUT****

CARTESIAN COORDINATES (ANGSTROEM)
---------------------------------
  O     -0.025192   -0.063723    0.002984
  C      0.038080    1.136620    0.008722
  N     -1.143052    1.920211    0.028667
  N     -1.228727    3.243637    0.036930
  N     -0.141005    3.914337    0.026037
  C      1.042107    3.189824    0.006511
  N      1.196850    1.906293   -0.002583
  H     -2.034058    1.437233    0.037953
  H      1.931022    3.816967   -0.002287

 Total Charge           Charge          ....    0
 Multiplicity           Mult            ....    1
 Number of Electrons    NEL             ....   50
 Basis Dimension        Dim             ....  229

ORBITAL ENERGIES
----------------

  NO   OCC          E(Eh)            E(eV)
   0   2.0000     -20.556109      -559.3602
   1   2.0000     -15.743786      -428.4102
   2   2.0000     -15.692123      -427.0044
   3   2.0000     -15.648045      -425.8050
   4   2.0000     -15.610272      -424.7771
   5   2.0000     -11.418345      -310.7090
   6   2.0000     -11.369250      -309.3730
   7   2.0000      -1.492153       -40.6036
   8   2.0000      -1.420661       -38.6581
   9   2.0000      -1.287653       -35.0388
  10   2.0000      -1.257902       -34.2293
  11   2.0000      -1.020787       -27.7770
  12   2.0000      -0.957011       -26.0416
  13   2.0000      -0.825967       -22.4757
  14   2.0000      -0.797086       -21.6898
  15   2.0000      -0.724791       -19.7226
  16   2.0000      -0.694894       -18.9090
  17   2.0000      -0.654917       -17.8212
  18   2.0000      -0.596971       -16.2444
  19   2.0000      -0.574654       -15.6371
  20   2.0000      -0.539185       -14.6720
  21   2.0000      -0.515487       -14.0271
  22   2.0000      -0.496346       -13.5063
  23   2.0000      -0.438766       -11.9394
  24   2.0000      -0.418148       -11.3784
  25   0.0000       0.029289         0.7970
  26   0.0000       0.112146         3.0516
  27   0.0000       0.127477         3.4688
  28   0.0000       0.162395         4.4190
  29   0.0000       0.184468         5.0196

MULLIKEN ATOMIC CHARGES
-----------------------
   0 O :   -0.286930
   1 C :    0.274363
   2 N :   -0.110426
   3 N :   -0.045901
   4 N :   -0.143460
   5 C :    0.061461
   6 N :   -0.195575
   7 H :    0.284369
   8 H :    0.162099
Sum of atomic charges:   -0.0000000

LOEWDIN ATOMIC CHARGES
----------------------
   0 O :    0.128125
   1 C :   -0.514608
   2 N :    0.121876
   3 N :    0.006006
   4 N :    0.016756
   5 C :   -0.268780
   6 N :    0.159556
   7 H :    0.206241
   8 H :    0.144828

  Mayer bond orders larger than 0.1
B(  0-O ,  1-C ) :   2.0087 B(  1-C ,  2-N ) :   1.0011 B(  1-C ,  6-N ) :   1.0902
B(  2-N ,  3-N ) :   1.0897 B(  2-N ,  7-H ) :   0.8483 B(  3-N ,  4-N ) :   1.3871
B(  4-N ,  5-C ) :   1.1548 B(  5-C ,  6-N ) :   1.6040 B(  5-C ,  8-H ) :   0.9255

MP2 TOTAL ENERGY:     -370.943639651 Eh
FINAL SINGLE POINT ENERGY      -370.943639651038

DIPOLE MOMENT
-------------
                                X             Y             Z
Electronic contribution:     -0.43291      -0.38200       0.00399
Nuclear contribution   :      0.01209       0.89001       0.00446
                        -----------------------------------------
Total Dipole Moment    :     -0.42082       0.50801       0.00845
                        -----------------------------------------
Magnitude (a.u.)       :      0.65972
Magnitude (Debye)      :      1.67688

                             ****ORCA TERMINATED NORMALLY****
TOTAL RUN TIME: 0 days 0 hours 6 minutes 24 seconds 815 msec
