                         Program Version 3.0.3 - RELEASE   -
|  1> ! RI-MP2 RIJK def2-TZVP def2-TZVP/C def2-TZVP/JK TIGHTSCF
|  2> % maxcore 2000
|  3> % mp2 density relaxed end
|  4> *xyz 0 1
|  5>  C       -0.0804459347    -1.2108948501     0.0277180156
|  6>  C       -0.0692393605    -0.0088704284     0.0061868999
|  7>  C       -0.0211792034     1.4474542389    -0.0170740110
|  8>  C        1.4150541396     2.0021393632     0.0664244505
|  9>  C        1.4503895614     3.5261565299     0.0361468928
| 10>  C        2.8564741876     4.1417913685     0.0657002381
| 11>  C        2.6516060888     5.4537032708    -0.7038931289
| 12>  C        1.6296341542     5.0310982898    -1.7657511446
| 13>  O        0.8440504371     3.9954188745    -1.1765700116
| 14>  H       -0.1054303637    -2.2719764909     0.0440332113
| 15>  H       -0.4876193024     1.8244198509    -0.9338831332
| 16>  H       -0.6156935172     1.8461892861     0.8159445348
| 17>  H        1.8917507688     1.6496618870     0.9885487593
| 18>  H        2.0025855734     1.6127394118    -0.7724591738
| 19>  H        0.8611361075     3.9136747440     0.8851075283
| 20>  H        3.2293708030     4.2841440714     1.0827446927
| 21>  H        3.5617581139     3.4913876341    -0.4651688041
| 22>  H        2.2257147253     6.2192496001    -0.0465219209
| 23>  H        3.5709852904     5.8547285537    -1.1372162566
| 24>  H        0.9661352294     5.8466896792    -2.0739750911
| 25>  H        2.1313503314     4.6462645056    -2.6662688175
| 26> *
| 27>
| 28>                          ****END OF INPUT****

CARTESIAN COORDINATES (ANGSTROEM)
---------------------------------
  C     -0.080446   -1.210895    0.027718
  C     -0.069239   -0.008870    0.006187
  C     -0.021179    1.447454   -0.017074
  C      1.415054    2.002139    0.066424
  C      1.450390    3.526157    0.036147
  C      2.856474    4.141791    0.065700
  C      2.651606    5.453703   -0.703893
  C      1.629634    5.031098   -1.765751
  O      0.844050    3.995419   -1.176570
  H     -0.105430   -2.271976    0.044033
  H     -0.487619    1.824420   -0.933883
  H     -0.615694    1.846189    0.815945
  H      1.891751    1.649662    0.988549
  H      2.002586    1.612739   -0.772459
  H      0.861136    3.913675    0.885108
  H      3.229371    4.284144    1.082745
  H      3.561758    3.491388   -0.465169
  H      2.225715    6.219250   -0.046522
  H      3.570985    5.854729   -1.137216
  H      0.966135    5.846690   -2.073975
  H      2.131350    4.646265   -2.666269

 Total Charge           Charge          ....    0
 Multiplicity           Mult            ....    1
 Number of Electrons    NEL             ....   68
 Basis Dimension        Dim             ....  351

ORBITAL ENERGIES
----------------

  NO   OCC          E(Eh)            E(eV)
   0   2.0000     -20.547281      -559.1199
   1   2.0000     -11.279741      -306.9374
   2   2.0000     -11.273259      -306.7610
   3   2.0000     -11.243381      -305.9479
   4   2.0000     -11.229645      -305.5742
   5   2.0000     -11.228939      -305.5550
   6   2.0000     -11.227730      -305.5221
   7   2.0000     -11.226795      -305.4966
   8   2.0000     -11.212196      -305.0994
   9   2.0000      -1.371567       -37.3222
  10   2.0000      -1.088447       -29.6182
  11   2.0000      -1.061540       -28.8860
  12   2.0000      -1.021532       -27.7973
  13   2.0000      -0.963296       -26.2126
  14   2.0000      -0.874875       -23.8065
  15   2.0000      -0.815063       -22.1790
  16   2.0000      -0.780587       -21.2409
  17   2.0000      -0.713086       -19.4041
  18   2.0000      -0.691448       -18.8152
  19   2.0000      -0.672065       -18.2878
  20   2.0000      -0.628761       -17.1095
  21   2.0000      -0.616763       -16.7830
  22   2.0000      -0.592334       -16.1182
  23   2.0000      -0.585274       -15.9261
  24   2.0000      -0.564250       -15.3540
  25   2.0000      -0.522233       -14.2107
  26   2.0000      -0.508347       -13.8328
  27   2.0000      -0.504674       -13.7329
  28   2.0000      -0.484200       -13.1758
  29   2.0000      -0.477751       -13.0003
  30   2.0000      -0.464698       -12.6451
  31   2.0000      -0.409889       -11.1537
  32   2.0000      -0.378109       -10.2889
  33   2.0000      -0.376780       -10.2527
  34   0.0000       0.132262         3.5990
  35   0.0000       0.152298         4.1442
  36   0.0000       0.157960         4.2983
  37   0.0000       0.170476         4.6389
  38   0.0000       0.173798         4.7293

MULLIKEN ATOMIC CHARGES
-----------------------
   0 C :   -0.129768
   1 C :    0.003511
   2 C :   -0.404580
   3 C :   -0.185669
   4 C :    0.058647
   5 C :   -0.234052
   6 C :   -0.228078
   7 C :   -0.038349
   8 O :   -0.324484
   9 H :    0.187033
  10 H :    0.163983
  11 H :    0.135495
  12 H :    0.115706
  13 H :    0.115410
  14 H :    0.077915
  15 H :    0.126947
  16 H :    0.117172
  17 H :    0.114951
  18 H :    0.127871
  19 H :    0.108219
  20 H :    0.092120
Sum of atomic charges:   -0.0000000

LOEWDIN ATOMIC CHARGES
----------------------
   0 C :   -0.114656
   1 C :   -0.112304
   2 C :   -0.246841
   3 C :   -0.232601
   4 C :   -0.308966
   5 C :   -0.240626
   6 C :   -0.264892
   7 C :   -0.302506
   8 O :    0.156670
   9 H :    0.124734
  10 H :    0.162122
  11 H :    0.155961
  12 H :    0.145632
  13 H :    0.144753
  14 H :    0.138139
  15 H :    0.138259
  16 H :    0.141471
  17 H :    0.137796
  18 H :    0.136425
  19 H :    0.122413
  20 H :    0.119016

  Mayer bond orders larger than 0.1
B(  0-C ,  1-C ) :   2.6133 B(  0-C ,  2-C ) :  -0.1210 B(  0-C ,  9-H ) :   0.8964
B(  1-C ,  2-C ) :   1.0997 B(  2-C ,  3-C ) :   0.9277 B(  2-C , 10-H ) :   0.9278
B(  2-C , 11-H ) :   0.9257 B(  3-C ,  4-C ) :   0.9251 B(  3-C , 12-H ) :   0.9283
B(  3-C , 13-H ) :   0.9126 B(  4-C ,  5-C ) :   0.9216 B(  4-C ,  8-O ) :   0.9134
B(  4-C , 14-H ) :   0.9283 B(  5-C ,  6-C ) :   0.9201 B(  5-C , 15-H ) :   0.9244
B(  5-C , 16-H ) :   0.9303 B(  6-C ,  7-C ) :   0.9582 B(  6-C , 17-H ) :   0.9271
B(  6-C , 18-H ) :   0.9265 B(  7-C ,  8-O ) :   0.9431 B(  7-C , 19-H ) :   0.9258
B(  7-C , 20-H ) :   0.9270

MP2 TOTAL ENERGY:     -386.384190931 Eh
FINAL SINGLE POINT ENERGY      -386.384190930613

DIPOLE MOMENT
-------------
                                X             Y             Z
Electronic contribution:     -3.70298      -4.39086      -0.35363
Nuclear contribution   :      4.34958       4.98307       0.55923
                        -----------------------------------------
Total Dipole Moment    :      0.64660       0.59221       0.20561
                        -----------------------------------------
Magnitude (a.u.)       :      0.90060
Magnitude (Debye)      :      2.28915

                             ****ORCA TERMINATED NORMALLY****
TOTAL RUN TIME: 0 days 0 hours 16 minutes 44 seconds 164 msec
