                         Program Version 3.0.3 - RELEASE   -
|  1> ! RI-MP2 RIJK def2-TZVP def2-TZVP/C def2-TZVP/JK TIGHTSCF
|  2> % maxcore 2000
|  3> % mp2 density relaxed end
|  4> *xyz 0 1
|  5>  N       -0.3526849996     1.8038928958    -0.5470415207
|  6>  C       -0.6687956663     0.5578673554     0.1508674907
|  7>  C       -2.0609479522     0.0820040961    -0.3182721816
|  8>  O       -2.4539778230    -1.1418606010     0.2808137485
|  9>  C       -3.3141956646    -1.0393567124     1.3865359388
| 10>  C       -2.6852540938    -0.4447449948     2.5836616674
| 11>  N       -2.1854531307     0.0400179498     3.5058722086
| 12>  C        0.3371267747    -0.5067494225    -0.0471899224
| 13>  N        1.1563387517    -1.2975412880    -0.2469312388
| 14>  H        0.4664272933     2.2374936432    -0.1334984305
| 15>  H       -0.1179062338     1.6114904795    -1.5170134138
| 16>  H       -0.7179624655     0.7727505732     1.2225450218
| 17>  H       -2.7774890065     0.8872436870    -0.1178644699
| 18>  H       -2.0353558568    -0.0933635581    -1.3991416500
| 19>  H       -4.2140438466    -0.4524298237     1.1488085260
| 20>  H       -3.6318524900    -2.0575546196     1.6293684760
| 21> *
| 22>
| 23>                          ****END OF INPUT****

CARTESIAN COORDINATES (ANGSTROEM)
---------------------------------
  N     -0.352685    1.803893   -0.547042
  C     -0.668796    0.557867    0.150867
  C     -2.060948    0.082004   -0.318272
  O     -2.453978   -1.141861    0.280814
  C     -3.314196   -1.039357    1.386536
  C     -2.685254   -0.444745    2.583662
  N     -2.185453    0.040018    3.505872
  C      0.337127   -0.506749   -0.047190
  N      1.156339   -1.297541   -0.246931
  H      0.466427    2.237494   -0.133498
  H     -0.117906    1.611490   -1.517013
  H     -0.717962    0.772751    1.222545
  H     -2.777489    0.887244   -0.117864
  H     -2.035356   -0.093364   -1.399142
  H     -4.214044   -0.452430    1.148809
  H     -3.631852   -2.057555    1.629368

 Total Charge           Charge          ....    0
 Multiplicity           Mult            ....    1
 Number of Electrons    NEL             ....   66
 Basis Dimension        Dim             ....  321

ORBITAL ENERGIES
----------------

  NO   OCC          E(Eh)            E(eV)
   0   2.0000     -20.608501      -560.7858
   1   2.0000     -15.595284      -424.3693
   2   2.0000     -15.583698      -424.0540
   3   2.0000     -15.575817      -423.8395
   4   2.0000     -11.356666      -309.0306
   5   2.0000     -11.323853      -308.1377
   6   2.0000     -11.321159      -308.0644
   7   2.0000     -11.293432      -307.3099
   8   2.0000     -11.274490      -306.7945
   9   2.0000      -1.431190       -38.9447
  10   2.0000      -1.244591       -33.8671
  11   2.0000      -1.240019       -33.7426
  12   2.0000      -1.208449       -32.8836
  13   2.0000      -1.063512       -28.9396
  14   2.0000      -0.999836       -27.2069
  15   2.0000      -0.902175       -24.5494
  16   2.0000      -0.761502       -20.7215
  17   2.0000      -0.752836       -20.4857
  18   2.0000      -0.726612       -19.7721
  19   2.0000      -0.697711       -18.9857
  20   2.0000      -0.661689       -18.0055
  21   2.0000      -0.647113       -17.6088
  22   2.0000      -0.600276       -16.3343
  23   2.0000      -0.587208       -15.9787
  24   2.0000      -0.576154       -15.6780
  25   2.0000      -0.565802       -15.3963
  26   2.0000      -0.535119       -14.5613
  27   2.0000      -0.501909       -13.6576
  28   2.0000      -0.488388       -13.2897
  29   2.0000      -0.481324       -13.0975
  30   2.0000      -0.475883       -12.9494
  31   2.0000      -0.456157       -12.4127
  32   2.0000      -0.440207       -11.9786
  33   0.0000       0.111697         3.0394
  34   0.0000       0.115897         3.1537
  35   0.0000       0.138046         3.7564
  36   0.0000       0.156618         4.2618
  37   0.0000       0.159284         4.3343

MULLIKEN ATOMIC CHARGES
-----------------------
   0 N :   -0.530333
   1 C :    0.097477
   2 C :   -0.050668
   3 O :   -0.289094
   4 C :    0.016748
   5 C :   -0.161720
   6 N :   -0.067691
   7 C :   -0.208028
   8 N :   -0.058744
   9 H :    0.247870
  10 H :    0.242358
  11 H :    0.162936
  12 H :    0.137315
  13 H :    0.133797
  14 H :    0.156800
  15 H :    0.170976
Sum of atomic charges:   -0.0000000

LOEWDIN ATOMIC CHARGES
----------------------
   0 N :   -0.119154
   1 C :   -0.330291
   2 C :   -0.276112
   3 O :    0.187773
   4 C :   -0.310571
   5 C :   -0.191320
   6 N :    0.070394
   7 C :   -0.181860
   8 N :    0.065859
   9 H :    0.164959
  10 H :    0.163534
  11 H :    0.174284
  12 H :    0.136176
  13 H :    0.138436
  14 H :    0.148226
  15 H :    0.159666

  Mayer bond orders larger than 0.1
B(  0-N ,  1-C ) :   0.9633 B(  0-N ,  9-H ) :   0.8921 B(  0-N , 10-H ) :   0.8866
B(  1-C ,  2-C ) :   0.9295 B(  1-C ,  7-C ) :   0.9243 B(  1-C , 11-H ) :   0.9116
B(  2-C ,  3-O ) :   0.8849 B(  2-C , 12-H ) :   0.9269 B(  2-C , 13-H ) :   0.9116
B(  3-O ,  4-C ) :   0.9705 B(  4-C ,  5-C ) :   0.8587 B(  4-C , 14-H ) :   0.9398
B(  4-C , 15-H ) :   0.9083 B(  5-C ,  6-N ) :   2.8033 B(  7-C ,  8-N ) :   2.8547

MP2 TOTAL ENERGY:     -433.345407065 Eh
FINAL SINGLE POINT ENERGY      -433.345407064885

DIPOLE MOMENT
-------------
                                X             Y             Z
Electronic contribution:      1.86605      -3.28171       3.06274
Nuclear contribution   :     -3.16777       3.97314      -3.86224
                        -----------------------------------------
Total Dipole Moment    :     -1.30173       0.69143      -0.79950
                        -----------------------------------------
Magnitude (a.u.)       :      1.67683
Magnitude (Debye)      :      4.26216

                             ****ORCA TERMINATED NORMALLY****
TOTAL RUN TIME: 0 days 0 hours 14 minutes 40 seconds 880 msec
