                         Program Version 3.0.3 - RELEASE   -
|  1> ! RI-MP2 RIJK def2-TZVP def2-TZVP/C def2-TZVP/JK TIGHTSCF
|  2> % maxcore 2000
|  3> % mp2 density relaxed end
|  4> *xyz 0 1
|  5>  N       -0.2633837269    -1.1756879111     0.7309032654
|  6>  C       -0.1737014580    -0.0686147324     0.4120575625
|  7>  C       -0.1079256070     1.3302049712     0.0117122807
|  8>  C        0.7189886603     2.2390756831     0.8345261988
|  9>  O        1.1839036960     1.7586794513    -0.4270092817
| 10>  C       -1.2896279071     1.8158455899    -0.7762380299
| 11>  C       -1.1475009444     3.0182032932    -1.6718485367
| 12>  C       -1.3000883081     1.6444133456    -2.2751801110
| 13>  H        0.4437367378     3.2912302560     0.8618304024
| 14>  H        1.2463995930     1.8524976297     1.7034394602
| 15>  H       -2.2342610409     1.6820902059    -0.2578371030
| 16>  H       -1.9820163795     3.7076058976    -1.7237577103
| 17>  H       -0.1669316753     3.4747302613    -1.7375476922
| 18>  H       -0.4200743665     1.2059881910    -2.7321730299
| 19>  H       -2.2380056534     1.3794926677    -2.7486521153
| 20> *
| 21>
| 22>                          ****END OF INPUT****

CARTESIAN COORDINATES (ANGSTROEM)
---------------------------------
  N     -0.263384   -1.175688    0.730903
  C     -0.173701   -0.068615    0.412058
  C     -0.107926    1.330205    0.011712
  C      0.718989    2.239076    0.834526
  O      1.183904    1.758679   -0.427009
  C     -1.289628    1.815846   -0.776238
  C     -1.147501    3.018203   -1.671849
  C     -1.300088    1.644413   -2.275180
  H      0.443737    3.291230    0.861830
  H      1.246400    1.852498    1.703439
  H     -2.234261    1.682090   -0.257837
  H     -1.982016    3.707606   -1.723758
  H     -0.166932    3.474730   -1.737548
  H     -0.420074    1.205988   -2.732173
  H     -2.238006    1.379493   -2.748652

 Total Charge           Charge          ....    0
 Multiplicity           Mult            ....    1
 Number of Electrons    NEL             ....   58
 Basis Dimension        Dim             ....  290

ORBITAL ENERGIES
----------------

  NO   OCC          E(Eh)            E(eV)
   0   2.0000     -20.607580      -560.7608
   1   2.0000     -15.582545      -424.0226
   2   2.0000     -11.352366      -308.9136
   3   2.0000     -11.318457      -307.9909
   4   2.0000     -11.281229      -306.9778
   5   2.0000     -11.263689      -306.5006
   6   2.0000     -11.246104      -306.0221
   7   2.0000     -11.244704      -305.9839
   8   2.0000      -1.454195       -39.5707
   9   2.0000      -1.226603       -33.3776
  10   2.0000      -1.166932       -31.7538
  11   2.0000      -1.009279       -27.4639
  12   2.0000      -0.928277       -25.2597
  13   2.0000      -0.846458       -23.0333
  14   2.0000      -0.831912       -22.6375
  15   2.0000      -0.754794       -20.5390
  16   2.0000      -0.711482       -19.3604
  17   2.0000      -0.674083       -18.3427
  18   2.0000      -0.628612       -17.1054
  19   2.0000      -0.607832       -16.5399
  20   2.0000      -0.567499       -15.4424
  21   2.0000      -0.549566       -14.9545
  22   2.0000      -0.543297       -14.7839
  23   2.0000      -0.531748       -14.4696
  24   2.0000      -0.493861       -13.4386
  25   2.0000      -0.479885       -13.0583
  26   2.0000      -0.461445       -12.5566
  27   2.0000      -0.442976       -12.0540
  28   2.0000      -0.421045       -11.4572
  29   0.0000       0.138821         3.7775
  30   0.0000       0.142652         3.8818
  31   0.0000       0.147182         4.0050
  32   0.0000       0.161980         4.4077
  33   0.0000       0.169445         4.6108

MULLIKEN ATOMIC CHARGES
-----------------------
   0 N :   -0.038989
   1 C :   -0.230300
   2 C :    0.300648
   3 C :   -0.074830
   4 O :   -0.317372
   5 C :   -0.112578
   6 C :   -0.262129
   7 C :   -0.272444
   8 H :    0.137058
   9 H :    0.143048
  10 H :    0.142829
  11 H :    0.139547
  12 H :    0.153403
  13 H :    0.150004
  14 H :    0.142107
Sum of atomic charges:    0.0000000

LOEWDIN ATOMIC CHARGES
----------------------
   0 N :    0.081734
   1 C :   -0.134065
   2 C :   -0.309427
   3 C :   -0.205129
   4 O :    0.200152
   5 C :   -0.186418
   6 C :   -0.213333
   7 C :   -0.205811
   8 H :    0.129334
   9 H :    0.130876
  10 H :    0.160600
  11 H :    0.133896
  12 H :    0.140721
  13 H :    0.142091
  14 H :    0.134781

  Mayer bond orders larger than 0.1
B(  0-N ,  1-C ) :   2.8670 B(  1-C ,  2-C ) :   0.9177 B(  2-C ,  3-C ) :   0.9441
B(  2-C ,  4-O ) :   0.8333 B(  2-C ,  5-C ) :   0.9106 B(  3-C ,  4-O ) :   0.8928
B(  3-C ,  8-H ) :   0.9066 B(  3-C ,  9-H ) :   0.9109 B(  5-C ,  6-C ) :   0.8906
B(  5-C ,  7-C ) :   0.8902 B(  5-C , 10-H ) :   0.9169 B(  6-C ,  7-C ) :   0.9022
B(  6-C , 11-H ) :   0.9281 B(  6-C , 12-H ) :   0.9204 B(  7-C , 13-H ) :   0.9215
B(  7-C , 14-H ) :   0.9298

MP2 TOTAL ENERGY:     -362.010857754 Eh
FINAL SINGLE POINT ENERGY      -362.010857754068

DIPOLE MOMENT
-------------
                                X             Y             Z
Electronic contribution:      2.76080      -5.14187       3.49111
Nuclear contribution   :     -3.20680       6.63786      -3.51644
                        -----------------------------------------
Total Dipole Moment    :     -0.44600       1.49599      -0.02533
                        -----------------------------------------
Magnitude (a.u.)       :      1.56126
Magnitude (Debye)      :      3.96841

                             ****ORCA TERMINATED NORMALLY****
TOTAL RUN TIME: 0 days 0 hours 11 minutes 12 seconds 31 msec
