                         Program Version 3.0.3 - RELEASE   -
|  1> ! RI-MP2 RIJK def2-TZVP def2-TZVP/C def2-TZVP/JK TIGHTSCF
|  2> % maxcore 2000
|  3> % mp2 density relaxed end
|  4> *xyz 0 1
|  5>  C        0.1173819927     1.3857079605    -0.1292148312
|  6>  N       -0.0263063876    -0.0407194645     0.0920606561
|  7>  C       -1.3888619027    -0.5392699287    -0.0066863158
|  8>  C       -1.4067263833    -2.0638558970    -0.0488867366
|  9>  O       -2.2172317118    -2.7045438011    -0.6541470112
| 10>  O       -0.4130452035    -2.6997917062     0.6316023973
| 11>  C        0.3725820150    -1.9715980208     1.5491444247
| 12>  C        1.7435773127    -1.5067385277     1.1470452040
| 13>  C        0.6025523006    -0.5154419516     1.2907021767
| 14>  H        1.1797199089     1.6470811336    -0.1354177555
| 15>  H       -0.3052314726     1.6528920330    -1.1024915680
| 16>  H       -0.3826352447     2.0007499314     0.6422503088
| 17>  H       -2.0434430311    -0.2050815055     0.8223830135
| 18>  H       -1.8483957422    -0.2004385444    -0.9375709411
| 19>  H        0.2124455284    -2.3175607148     2.5647394575
| 20>  H        2.5248613041    -1.5324522673     1.8984575043
| 21>  H        2.0523237141    -1.7204913738     0.1308016471
| 22>  H        0.5940754231     0.1559020848     2.1530642094
| 23> *
| 24>
| 25>                          ****END OF INPUT****

CARTESIAN COORDINATES (ANGSTROEM)
---------------------------------
  C      0.117382    1.385708   -0.129215
  N     -0.026306   -0.040719    0.092061
  C     -1.388862   -0.539270   -0.006686
  C     -1.406726   -2.063856   -0.048887
  O     -2.217232   -2.704544   -0.654147
  O     -0.413045   -2.699792    0.631602
  C      0.372582   -1.971598    1.549144
  C      1.743577   -1.506739    1.147045
  C      0.602552   -0.515442    1.290702
  H      1.179720    1.647081   -0.135418
  H     -0.305231    1.652892   -1.102492
  H     -0.382635    2.000750    0.642250
  H     -2.043443   -0.205082    0.822383
  H     -1.848396   -0.200439   -0.937571
  H      0.212446   -2.317561    2.564739
  H      2.524861   -1.532452    1.898458
  H      2.052324   -1.720491    0.130802
  H      0.594075    0.155902    2.153064

 Total Charge           Charge          ....    0
 Multiplicity           Mult            ....    1
 Number of Electrons    NEL             ....   68
 Basis Dimension        Dim             ....  333

ORBITAL ENERGIES
----------------

  NO   OCC          E(Eh)            E(eV)
   0   2.0000     -20.604286      -560.6711
   1   2.0000     -20.539280      -558.9022
   2   2.0000     -15.574806      -423.8120
   3   2.0000     -11.380441      -309.6775
   4   2.0000     -11.307007      -307.6793
   5   2.0000     -11.282026      -306.9995
   6   2.0000     -11.280671      -306.9627
   7   2.0000     -11.264806      -306.5309
   8   2.0000     -11.242281      -305.9180
   9   2.0000      -1.460157       -39.7329
  10   2.0000      -1.367673       -37.2163
  11   2.0000      -1.264940       -34.4208
  12   2.0000      -1.138871       -30.9903
  13   2.0000      -1.006520       -27.3888
  14   2.0000      -0.915863       -24.9219
  15   2.0000      -0.883859       -24.0510
  16   2.0000      -0.828718       -22.5505
  17   2.0000      -0.740321       -20.1452
  18   2.0000      -0.732268       -19.9260
  19   2.0000      -0.704607       -19.1733
  20   2.0000      -0.675747       -18.3880
  21   2.0000      -0.645806       -17.5733
  22   2.0000      -0.630852       -17.1663
  23   2.0000      -0.604884       -16.4597
  24   2.0000      -0.600730       -16.3467
  25   2.0000      -0.574339       -15.6286
  26   2.0000      -0.562352       -15.3024
  27   2.0000      -0.549110       -14.9421
  28   2.0000      -0.532221       -14.4825
  29   2.0000      -0.487113       -13.2550
  30   2.0000      -0.468231       -12.7412
  31   2.0000      -0.441236       -12.0066
  32   2.0000      -0.418021       -11.3749
  33   2.0000      -0.368518       -10.0279
  34   0.0000       0.126123         3.4320
  35   0.0000       0.149862         4.0780
  36   0.0000       0.156785         4.2663
  37   0.0000       0.168713         4.5909
  38   0.0000       0.175359         4.7718

MULLIKEN ATOMIC CHARGES
-----------------------
   0 C :   -0.335352
   1 N :   -0.165505
   2 C :   -0.159017
   3 C :    0.244544
   4 O :   -0.278966
   5 O :   -0.204757
   6 C :    0.037659
   7 C :   -0.253716
   8 C :   -0.085702
   9 H :    0.148126
  10 H :    0.141630
  11 H :    0.114817
  12 H :    0.117171
  13 H :    0.148225
  14 H :    0.132270
  15 H :    0.135817
  16 H :    0.150082
  17 H :    0.112675
Sum of atomic charges:   -0.0000000

LOEWDIN ATOMIC CHARGES
----------------------
   0 C :   -0.317506
   1 N :    0.088073
   2 C :   -0.248337
   3 C :   -0.457794
   4 O :    0.144776
   5 O :    0.292687
   6 C :   -0.258987
   7 C :   -0.196139
   8 C :   -0.249667
   9 H :    0.124014
  10 H :    0.121709
  11 H :    0.104779
  12 H :    0.137239
  13 H :    0.152518
  14 H :    0.141696
  15 H :    0.135463
  16 H :    0.146226
  17 H :    0.139251

  Mayer bond orders larger than 0.1
B(  0-C ,  1-N ) :   0.9152 B(  0-C ,  9-H ) :   0.9346 B(  0-C , 10-H ) :   0.9359
B(  0-C , 11-H ) :   0.9308 B(  1-N ,  2-C ) :   0.8782 B(  1-N ,  8-C ) :   0.9630
B(  2-C ,  3-C ) :   0.9425 B(  2-C , 12-H ) :   0.8867 B(  2-C , 13-H ) :   0.9151
B(  3-C ,  4-O ) :   2.0459 B(  3-C ,  5-O ) :   1.1102 B(  5-O ,  6-C ) :   0.9136
B(  6-C ,  7-C ) :   0.8931 B(  6-C ,  8-C ) :   0.8829 B(  6-C , 14-H ) :   0.9464
B(  7-C ,  8-C ) :   0.8673 B(  7-C , 15-H ) :   0.9216 B(  7-C , 16-H ) :   0.9162
B(  8-C , 17-H ) :   0.9188

MP2 TOTAL ENERGY:     -438.362856057 Eh
FINAL SINGLE POINT ENERGY      -438.362856056806

DIPOLE MOMENT
-------------
                                X             Y             Z
Electronic contribution:     -3.70636      -8.02128      -1.28048
Nuclear contribution   :      4.48709       9.44545       2.15016
                        -----------------------------------------
Total Dipole Moment    :      0.78073       1.42417       0.86968
                        -----------------------------------------
Magnitude (a.u.)       :      1.84232
Magnitude (Debye)      :      4.68280

                             ****ORCA TERMINATED NORMALLY****
TOTAL RUN TIME: 0 days 0 hours 16 minutes 33 seconds 332 msec
