                         Program Version 3.0.3 - RELEASE   -
|  1> ! RI-MP2 RIJK def2-TZVP def2-TZVP/C def2-TZVP/JK TIGHTSCF
|  2> % maxcore 2000
|  3> % mp2 density relaxed end
|  4> *xyz 0 1
|  5>  N       -0.1464969235    -1.1206023071    -0.0539818640
|  6>  C       -0.0602358987     0.0262756307     0.0588647253
|  7>  C        0.0711434364     1.4744715888     0.1910204024
|  8>  C        1.4507604317     1.9883860740    -0.2699740882
|  9>  C        1.5488812664     3.4942830279    -0.1005497791
| 10>  O        1.3050165753     3.9383507917     1.2691366988
| 11>  C        2.5062749479     4.7180653222     1.2391823884
| 12>  C        3.7063613113     3.8403965493     1.1115314705
| 13>  C        2.9034568787     4.2032741913    -0.1244795209
| 14>  H       -0.7287299564     1.9509383152    -0.3882691831
| 15>  H       -0.0856266023     1.7550493864     1.2376635962
| 16>  H        2.2337036444     1.4899901488     0.3082164665
| 17>  H        1.6117643768     1.7359035332    -1.3240067558
| 18>  H        0.8311496515     3.9981557297    -0.7629895312
| 19>  H        2.4765706301     5.7103003264     1.6726921112
| 20>  H        4.6644606769     4.3468823553     1.1749330481
| 21>  H        3.6889166336     2.8393223994     1.5317903784
| 22>  H        3.3289222499     4.7150752770    -0.9763024537
| 23> *
| 24>
| 25>                          ****END OF INPUT****

CARTESIAN COORDINATES (ANGSTROEM)
---------------------------------
  N     -0.146497   -1.120602   -0.053982
  C     -0.060236    0.026276    0.058865
  C      0.071143    1.474472    0.191020
  C      1.450760    1.988386   -0.269974
  C      1.548881    3.494283   -0.100550
  O      1.305017    3.938351    1.269137
  C      2.506275    4.718065    1.239182
  C      3.706361    3.840397    1.111531
  C      2.903457    4.203274   -0.124480
  H     -0.728730    1.950938   -0.388269
  H     -0.085627    1.755049    1.237664
  H      2.233704    1.489990    0.308216
  H      1.611764    1.735904   -1.324007
  H      0.831150    3.998156   -0.762990
  H      2.476571    5.710300    1.672692
  H      4.664461    4.346882    1.174933
  H      3.688917    2.839322    1.531790
  H      3.328922    4.715075   -0.976302

 Total Charge           Charge          ....    0
 Multiplicity           Mult            ....    1
 Number of Electrons    NEL             ....   66
 Basis Dimension        Dim             ....  333

ORBITAL ENERGIES
----------------

  NO   OCC          E(Eh)            E(eV)
   0   2.0000     -20.568893      -559.7080
   1   2.0000     -15.564816      -423.5402
   2   2.0000     -11.308353      -307.7159
   3   2.0000     -11.302554      -307.5581
   4   2.0000     -11.280180      -306.9493
   5   2.0000     -11.269889      -306.6693
   6   2.0000     -11.253894      -306.2340
   7   2.0000     -11.253795      -306.2313
   8   2.0000     -11.247947      -306.0722
   9   2.0000      -1.407795       -38.3081
  10   2.0000      -1.215226       -33.0680
  11   2.0000      -1.131450       -30.7883
  12   2.0000      -1.097811       -29.8730
  13   2.0000      -0.986048       -26.8317
  14   2.0000      -0.884087       -24.0572
  15   2.0000      -0.830731       -22.6053
  16   2.0000      -0.761159       -20.7122
  17   2.0000      -0.730166       -19.8688
  18   2.0000      -0.701126       -19.0786
  19   2.0000      -0.664114       -18.0714
  20   2.0000      -0.654973       -17.8227
  21   2.0000      -0.624223       -16.9860
  22   2.0000      -0.588672       -16.0186
  23   2.0000      -0.572456       -15.5773
  24   2.0000      -0.554347       -15.0845
  25   2.0000      -0.550431       -14.9780
  26   2.0000      -0.522341       -14.2136
  27   2.0000      -0.511256       -13.9120
  28   2.0000      -0.494450       -13.4547
  29   2.0000      -0.454443       -12.3660
  30   2.0000      -0.450303       -12.2534
  31   2.0000      -0.419820       -11.4239
  32   2.0000      -0.396318       -10.7844
  33   0.0000       0.126003         3.4287
  34   0.0000       0.145392         3.9563
  35   0.0000       0.153115         4.1665
  36   0.0000       0.157347         4.2816
  37   0.0000       0.178361         4.8535

MULLIKEN ATOMIC CHARGES
-----------------------
   0 N :   -0.059839
   1 C :   -0.180354
   2 C :   -0.130941
   3 C :   -0.265320
   4 C :    0.108507
   5 O :   -0.340175
   6 C :    0.052166
   7 C :   -0.259104
   8 C :   -0.194030
   9 H :    0.153735
  10 H :    0.178707
  11 H :    0.135652
  12 H :    0.136399
  13 H :    0.107147
  14 H :    0.135574
  15 H :    0.135020
  16 H :    0.141274
  17 H :    0.145586
Sum of atomic charges:    0.0000000

LOEWDIN ATOMIC CHARGES
----------------------
   0 N :    0.053297
   1 C :   -0.194373
   2 C :   -0.239807
   3 C :   -0.225906
   4 C :   -0.253942
   5 O :    0.160351
   6 C :   -0.242579
   7 C :   -0.207150
   8 C :   -0.177543
   9 H :    0.164158
  10 H :    0.170188
  11 H :    0.148137
  12 H :    0.150978
  13 H :    0.146321
  14 H :    0.131530
  15 H :    0.144630
  16 H :    0.133471
  17 H :    0.138238

  Mayer bond orders larger than 0.1
B(  0-N ,  1-C ) :   2.8860 B(  1-C ,  2-C ) :   0.9240 B(  2-C ,  3-C ) :   0.9068
B(  2-C ,  9-H ) :   0.9065 B(  2-C , 10-H ) :   0.9075 B(  3-C ,  4-C ) :   0.9357
B(  3-C , 11-H ) :   0.9298 B(  3-C , 12-H ) :   0.9268 B(  4-C ,  5-O ) :   0.8891
B(  4-C ,  8-C ) :   0.9260 B(  4-C , 13-H ) :   0.9055 B(  5-O ,  6-C ) :   0.9535
B(  6-C ,  7-C ) :   0.8791 B(  6-C ,  8-C ) :   0.9093 B(  6-C , 14-H ) :   0.9238
B(  7-C ,  8-C ) :   0.8900 B(  7-C , 15-H ) :   0.9215 B(  7-C , 16-H ) :   0.9157
B(  8-C , 17-H ) :   0.9158

MP2 TOTAL ENERGY:     -401.224466527 Eh
FINAL SINGLE POINT ENERGY      -401.224466527066

DIPOLE MOMENT
-------------
                                X             Y             Z
Electronic contribution:     -3.58978      -3.52719       0.59253
Nuclear contribution   :      4.37311       5.30142      -0.91369
                        -----------------------------------------
Total Dipole Moment    :      0.78333       1.77423      -0.32116
                        -----------------------------------------
Magnitude (a.u.)       :      1.96587
Magnitude (Debye)      :      4.99685

                             ****ORCA TERMINATED NORMALLY****
TOTAL RUN TIME: 0 days 0 hours 14 minutes 53 seconds 735 msec
