                         Program Version 3.0.3 - RELEASE   -
|  1> ! RI-MP2 RIJK def2-TZVP def2-TZVP/C def2-TZVP/JK TIGHTSCF
|  2> % maxcore 2000
|  3> % mp2 density relaxed end
|  4> *xyz 0 1
|  5>  C        0.0520144026     1.5645160431    -0.0363668026
|  6>  C        0.0582899647     0.0407761854    -0.0056473979
|  7>  N        0.7621712114    -0.5018051126    -1.1675391596
|  8>  C        0.7465404863    -1.9539035008    -1.2309502565
|  9>  C        1.2748941165    -2.5675259104     0.0400753834
| 10>  C        1.7529176417    -3.9859971657    -0.0463137666
| 11>  C        1.2864657054    -1.8557984000     1.1778530593
| 12>  C        0.7221661913    -0.5000945463     1.2693812458
| 13>  O        0.7185090371     0.1306938489     2.3088718491
| 14>  H        1.0728484424     1.9439943210    -0.1362621349
| 15>  H       -0.5405605972     1.9341589679    -0.8798975166
| 16>  H       -0.3723619599     1.9526817142     0.8906048556
| 17>  H       -0.9935832236    -0.3168834128     0.0452116549
| 18>  H        0.3694485107    -0.1127003191    -2.0178743788
| 19>  H       -0.2638023271    -2.3816112289    -1.4109604504
| 20>  H        1.3656703164    -2.2780982072    -2.0767468719
| 21>  H        2.6170420933    -4.0647292440    -0.7180496432
| 22>  H        2.0376077956    -4.3777708454     0.9325473072
| 23>  H        0.9735980327    -4.6351005516    -0.4654583408
| 24>  H        1.6743317598    -2.2686186658     2.1049010948
| 25> *
| 26>
| 27>                          ****END OF INPUT****

CARTESIAN COORDINATES (ANGSTROEM)
---------------------------------
  C      0.052014    1.564516   -0.036367
  C      0.058290    0.040776   -0.005647
  N      0.762171   -0.501805   -1.167539
  C      0.746540   -1.953904   -1.230950
  C      1.274894   -2.567526    0.040075
  C      1.752918   -3.985997   -0.046314
  C      1.286466   -1.855798    1.177853
  C      0.722166   -0.500095    1.269381
  O      0.718509    0.130694    2.308872
  H      1.072848    1.943994   -0.136262
  H     -0.540561    1.934159   -0.879898
  H     -0.372362    1.952682    0.890605
  H     -0.993583   -0.316883    0.045212
  H      0.369449   -0.112700   -2.017874
  H     -0.263802   -2.381611   -1.410960
  H      1.365670   -2.278098   -2.076747
  H      2.617042   -4.064729   -0.718050
  H      2.037608   -4.377771    0.932547
  H      0.973598   -4.635101   -0.465458
  H      1.674332   -2.268619    2.104901

 Total Charge           Charge          ....    0
 Multiplicity           Mult            ....    1
 Number of Electrons    NEL             ....   68
 Basis Dimension        Dim             ....  345

ORBITAL ENERGIES
----------------

  NO   OCC          E(Eh)            E(eV)
   0   2.0000     -20.531189      -558.6820
   1   2.0000     -15.558443      -423.3667
   2   2.0000     -11.319082      -308.0079
   3   2.0000     -11.273923      -306.7790
   4   2.0000     -11.270477      -306.6853
   5   2.0000     -11.267398      -306.6015
   6   2.0000     -11.241753      -305.9036
   7   2.0000     -11.226962      -305.5012
   8   2.0000     -11.213900      -305.1457
   9   2.0000      -1.374104       -37.3913
  10   2.0000      -1.236081       -33.6355
  11   2.0000      -1.104961       -30.0675
  12   2.0000      -1.031630       -28.0721
  13   2.0000      -0.978994       -26.6398
  14   2.0000      -0.920963       -25.0607
  15   2.0000      -0.864233       -23.5170
  16   2.0000      -0.788530       -21.4570
  17   2.0000      -0.706551       -19.2262
  18   2.0000      -0.673555       -18.3284
  19   2.0000      -0.668411       -18.1884
  20   2.0000      -0.636151       -17.3105
  21   2.0000      -0.621478       -16.9113
  22   2.0000      -0.609730       -16.5916
  23   2.0000      -0.581300       -15.8180
  24   2.0000      -0.569127       -15.4867
  25   2.0000      -0.561350       -15.2751
  26   2.0000      -0.537313       -14.6210
  27   2.0000      -0.524204       -14.2643
  28   2.0000      -0.514598       -14.0029
  29   2.0000      -0.500300       -13.6139
  30   2.0000      -0.489144       -13.3103
  31   2.0000      -0.413203       -11.2438
  32   2.0000      -0.379725       -10.3328
  33   2.0000      -0.365265        -9.9394
  34   0.0000       0.099266         2.7012
  35   0.0000       0.121119         3.2958
  36   0.0000       0.139501         3.7960
  37   0.0000       0.169339         4.6080
  38   0.0000       0.174237         4.7412

MULLIKEN ATOMIC CHARGES
-----------------------
   0 C :   -0.411540
   1 C :    0.067433
   2 N :   -0.351518
   3 C :   -0.153598
   4 C :    0.149553
   5 C :   -0.413696
   6 C :   -0.316023
   7 C :    0.221454
   8 O :   -0.300182
   9 H :    0.134575
  10 H :    0.126424
  11 H :    0.152482
  12 H :    0.081380
  13 H :    0.203825
  14 H :    0.115598
  15 H :    0.131065
  16 H :    0.149303
  17 H :    0.144931
  18 H :    0.142960
  19 H :    0.125577
Sum of atomic charges:   -0.0000000

LOEWDIN ATOMIC CHARGES
----------------------
   0 C :   -0.289221
   1 C :   -0.294070
   2 N :    0.009700
   3 C :   -0.268096
   4 C :   -0.159701
   5 C :   -0.263499
   6 C :   -0.114859
   7 C :   -0.302144
   8 O :    0.145271
   9 H :    0.129449
  10 H :    0.120270
  11 H :    0.134179
  12 H :    0.145958
  13 H :    0.172542
  14 H :    0.132768
  15 H :    0.143048
  16 H :    0.136105
  17 H :    0.132932
  18 H :    0.135592
  19 H :    0.153776

  Mayer bond orders larger than 0.1
B(  0-C ,  1-C ) :   0.8979 B(  0-C ,  9-H ) :   0.9354 B(  0-C , 10-H ) :   0.9392
B(  0-C , 11-H ) :   0.9295 B(  1-C ,  2-N ) :   0.9127 B(  1-C ,  7-C ) :   0.8728
B(  1-C , 12-H ) :   0.8971 B(  2-N ,  3-C ) :   0.9890 B(  2-N , 13-H ) :   0.8787
B(  3-C ,  4-C ) :   0.9228 B(  3-C , 14-H ) :   0.9255 B(  3-C , 15-H ) :   0.9109
B(  4-C ,  5-C ) :   0.8845 B(  4-C ,  6-C ) :   1.6499 B(  5-C , 16-H ) :   0.9274
B(  5-C , 17-H ) :   0.9438 B(  5-C , 18-H ) :   0.9251 B(  6-C ,  7-C ) :   1.0433
B(  6-C , 19-H ) :   0.9250 B(  7-C ,  8-O ) :   1.9621

MP2 TOTAL ENERGY:     -402.483897904 Eh
FINAL SINGLE POINT ENERGY      -402.483897904151

DIPOLE MOMENT
-------------
                                X             Y             Z
Electronic contribution:      0.56762       1.93950       4.75412
Nuclear contribution   :     -0.87596      -2.89260      -6.02230
                        -----------------------------------------
Total Dipole Moment    :     -0.30834      -0.95310      -1.26818
                        -----------------------------------------
Magnitude (a.u.)       :      1.61609
Magnitude (Debye)      :      4.10778

                             ****ORCA TERMINATED NORMALLY****
TOTAL RUN TIME: 0 days 0 hours 19 minutes 50 seconds 645 msec
