                         Program Version 3.0.3 - RELEASE   -
|  1> ! RI-MP2 RIJK def2-TZVP def2-TZVP/C def2-TZVP/JK TIGHTSCF
|  2> % maxcore 2000
|  3> % mp2 density relaxed end
|  4> *xyz 0 1
|  5>  O       -0.0236941291     1.4662636563    -0.0865503230
|  6>  C        0.0467182011     0.0681599266    -0.0267690176
|  7>  C        0.0164821119    -0.6174756124     1.3550585448
|  8>  C       -1.5121090182    -0.3120280712     1.5548213449
|  9>  C       -1.8353078456    -1.7841255304     1.8726427670
| 10>  C       -0.7481520112    -1.8624945541     0.7833383896
| 11>  C       -1.3295899438    -0.6142408374     0.0134917532
| 12>  C       -2.3593685199    -0.6302937521    -0.9889194574
| 13>  N       -3.1846661224    -0.6482749153    -1.7994399038
| 14>  H        0.8699831214     1.8221543911    -0.0920568009
| 15>  H        0.7554758990    -0.3464290106    -0.7570050250
| 16>  H        0.7728534941    -0.6381847616     2.1387071513
| 17>  H       -1.9430914530     0.6011958783     1.9590782842
| 18>  H       -1.5511392198    -2.1406324393     2.8667230457
| 19>  H       -2.8323529026    -2.1420349019     1.6015637303
| 20>  H       -0.3024393720    -2.7327941960     0.3017945668
| 21> *
| 22>
| 23>                          ****END OF INPUT****

CARTESIAN COORDINATES (ANGSTROEM)
---------------------------------
  O     -0.023694    1.466264   -0.086550
  C      0.046718    0.068160   -0.026769
  C      0.016482   -0.617476    1.355059
  C     -1.512109   -0.312028    1.554821
  C     -1.835308   -1.784126    1.872643
  C     -0.748152   -1.862495    0.783338
  C     -1.329590   -0.614241    0.013492
  C     -2.359369   -0.630294   -0.988919
  N     -3.184666   -0.648275   -1.799440
  H      0.869983    1.822154   -0.092057
  H      0.755476   -0.346429   -0.757005
  H      0.772853   -0.638185    2.138707
  H     -1.943091    0.601196    1.959078
  H     -1.551139   -2.140632    2.866723
  H     -2.832353   -2.142035    1.601564
  H     -0.302439   -2.732794    0.301795

 Total Charge           Charge          ....    0
 Multiplicity           Mult            ....    1
 Number of Electrons    NEL             ....   64
 Basis Dimension        Dim             ....  321

ORBITAL ENERGIES
----------------

  NO   OCC          E(Eh)            E(eV)
   0   2.0000     -20.577202      -559.9341
   1   2.0000     -15.567826      -423.6221
   2   2.0000     -11.312591      -307.8312
   3   2.0000     -11.291493      -307.2572
   4   2.0000     -11.275866      -306.8319
   5   2.0000     -11.272651      -306.7444
   6   2.0000     -11.269322      -306.6538
   7   2.0000     -11.264992      -306.5360
   8   2.0000     -11.246866      -306.0428
   9   2.0000      -1.390498       -37.8374
  10   2.0000      -1.270022       -34.5591
  11   2.0000      -1.210254       -32.9327
  12   2.0000      -1.022922       -27.8351
  13   2.0000      -0.945503       -25.7285
  14   2.0000      -0.891682       -24.2639
  15   2.0000      -0.851342       -23.1662
  16   2.0000      -0.773873       -21.0581
  17   2.0000      -0.718917       -19.5627
  18   2.0000      -0.711170       -19.3519
  19   2.0000      -0.675707       -18.3869
  20   2.0000      -0.637275       -17.3411
  21   2.0000      -0.597946       -16.2709
  22   2.0000      -0.562412       -15.3040
  23   2.0000      -0.540907       -14.7188
  24   2.0000      -0.521101       -14.1799
  25   2.0000      -0.507473       -13.8090
  26   2.0000      -0.488998       -13.3063
  27   2.0000      -0.475895       -12.9498
  28   2.0000      -0.462791       -12.5932
  29   2.0000      -0.438416       -11.9299
  30   2.0000      -0.432623       -11.7723
  31   2.0000      -0.420171       -11.4334
  32   0.0000       0.123143         3.3509
  33   0.0000       0.140453         3.8219
  34   0.0000       0.142361         3.8738
  35   0.0000       0.160158         4.3581
  36   0.0000       0.174858         4.7581

MULLIKEN ATOMIC CHARGES
-----------------------
   0 O :   -0.451649
   1 C :   -0.000133
   2 C :   -0.087792
   3 C :   -0.119432
   4 C :   -0.215798
   5 C :   -0.129070
   6 C :    0.184967
   7 C :   -0.290173
   8 N :   -0.025934
   9 H :    0.324917
  10 H :    0.106642
  11 H :    0.149917
  12 H :    0.152245
  13 H :    0.122249
  14 H :    0.134722
  15 H :    0.144322
Sum of atomic charges:    0.0000000

LOEWDIN ATOMIC CHARGES
----------------------
   0 O :    0.005359
   1 C :   -0.265307
   2 C :   -0.118437
   3 C :   -0.092006
   4 C :   -0.192498
   5 C :   -0.097286
   6 C :   -0.149428
   7 C :   -0.148587
   8 N :    0.074651
   9 H :    0.181228
  10 H :    0.133549
  11 H :    0.131407
  12 H :    0.137344
  13 H :    0.131576
  14 H :    0.134404
  15 H :    0.134029

  Mayer bond orders larger than 0.1
B(  0-O ,  1-C ) :   1.2050 B(  0-O ,  2-C ) :  -0.1274 B(  0-O ,  6-C ) :  -0.1841
B(  0-O ,  9-H ) :   0.8393 B(  1-C ,  2-C ) :   0.8563 B(  1-C ,  6-C ) :   0.8522
B(  1-C , 10-H ) :   0.9747 B(  2-C ,  3-C ) :   0.8658 B(  2-C ,  5-C ) :   0.8460
B(  2-C , 11-H ) :   0.8827 B(  3-C ,  4-C ) :   0.9310 B(  3-C ,  6-C ) :   0.8302
B(  3-C , 12-H ) :   0.8854 B(  4-C ,  5-C ) :   0.9225 B(  4-C , 13-H ) :   0.9303
B(  4-C , 14-H ) :   0.9182 B(  5-C ,  6-C ) :   0.8207 B(  5-C , 15-H ) :   0.8997
B(  6-C ,  7-C ) :   0.8575 B(  7-C ,  8-N ) :   2.8950

MP2 TOTAL ENERGY:     -399.996846509 Eh
FINAL SINGLE POINT ENERGY      -399.996846509269

DIPOLE MOMENT
-------------
                                X             Y             Z
Electronic contribution:     -2.08088       1.69226      -4.29694
Nuclear contribution   :      3.73448      -1.93276       5.53746
                        -----------------------------------------
Total Dipole Moment    :      1.65360      -0.24050       1.24052
                        -----------------------------------------
Magnitude (a.u.)       :      2.08113
Magnitude (Debye)      :      5.28982

                             ****ORCA TERMINATED NORMALLY****
TOTAL RUN TIME: 0 days 0 hours 17 minutes 1 seconds 473 msec
