                         Program Version 3.0.3 - RELEASE   -
|  1> ! RI-MP2 RIJK def2-TZVP def2-TZVP/C def2-TZVP/JK TIGHTSCF
|  2> % maxcore 2000
|  3> % mp2 density relaxed end
|  4> *xyz 0 1
|  5>  C       -0.0234524586     1.4768955909     0.0290540117
|  6>  C        1.3216853119     0.8040908841     0.0140154728
|  7>  O        1.9853769364     0.6314279185     1.2665123249
|  8>  C        1.3380085161    -0.3808074689     1.9743942284
|  9>  C        0.0015927603    -0.1735625010     2.6595073862
| 10>  C        0.0670606881    -0.7852982706     1.2876469624
| 11>  O        0.3891673912    -2.1869498405     1.3275405958
| 12>  C        1.7046220200    -1.8646172284     1.8764124125
| 13>  C        0.0506790078    -0.0375257032    -0.0146594475
| 14>  H       -0.3471777380     1.9729010963     0.9364295835
| 15>  H       -0.3400925003     1.9729576161    -0.8830710636
| 16>  H        2.0076634125     0.9318418240    -0.8159664424
| 17>  H       -0.2715154337    -0.8089595553     3.4966115261
| 18>  H       -0.3301635640     0.8538248759     2.7353462812
| 19>  H        2.4954724698    -2.0478836321     1.1414746486
| 20>  H        1.9105673900    -2.4137812069     2.8017118800
| 21>  H       -0.2765377195    -0.5680039291    -0.8996472106
| 22> *
| 23>
| 24>                          ****END OF INPUT****

CARTESIAN COORDINATES (ANGSTROEM)
---------------------------------
  C     -0.023452    1.476896    0.029054
  C      1.321685    0.804091    0.014015
  O      1.985377    0.631428    1.266512
  C      1.338009   -0.380807    1.974394
  C      0.001593   -0.173563    2.659507
  C      0.067061   -0.785298    1.287647
  O      0.389167   -2.186950    1.327541
  C      1.704622   -1.864617    1.876412
  C      0.050679   -0.037526   -0.014659
  H     -0.347178    1.972901    0.936430
  H     -0.340093    1.972958   -0.883071
  H      2.007663    0.931842   -0.815966
  H     -0.271515   -0.808960    3.496612
  H     -0.330164    0.853825    2.735346
  H      2.495472   -2.047884    1.141475
  H      1.910567   -2.413781    2.801712
  H     -0.276538   -0.568004   -0.899647

 Total Charge           Charge          ....    0
 Multiplicity           Mult            ....    1
 Number of Electrons    NEL             ....   66
 Basis Dimension        Dim             ....  327

ORBITAL ENERGIES
----------------

  NO   OCC          E(Eh)            E(eV)
   0   2.0000     -20.576177      -559.9062
   1   2.0000     -20.562234      -559.5268
   2   2.0000     -11.293493      -307.3116
   3   2.0000     -11.293423      -307.3097
   4   2.0000     -11.288451      -307.1744
   5   2.0000     -11.281201      -306.9771
   6   2.0000     -11.254923      -306.2620
   7   2.0000     -11.253291      -306.2176
   8   2.0000     -11.242020      -305.9109
   9   2.0000      -1.421017       -38.6678
  10   2.0000      -1.374832       -37.4111
  11   2.0000      -1.148325       -31.2475
  12   2.0000      -1.114720       -30.3331
  13   2.0000      -0.950330       -25.8598
  14   2.0000      -0.896036       -24.3824
  15   2.0000      -0.840623       -22.8745
  16   2.0000      -0.795159       -21.6374
  17   2.0000      -0.738050       -20.0834
  18   2.0000      -0.720052       -19.5936
  19   2.0000      -0.671913       -18.2837
  20   2.0000      -0.644120       -17.5274
  21   2.0000      -0.628972       -17.1152
  22   2.0000      -0.602196       -16.3866
  23   2.0000      -0.587592       -15.9892
  24   2.0000      -0.576513       -15.6877
  25   2.0000      -0.557444       -15.1688
  26   2.0000      -0.545784       -14.8515
  27   2.0000      -0.527013       -14.3407
  28   2.0000      -0.472275       -12.8513
  29   2.0000      -0.439084       -11.9481
  30   2.0000      -0.431257       -11.7351
  31   2.0000      -0.386289       -10.5115
  32   2.0000      -0.347825        -9.4648
  33   0.0000       0.149790         4.0760
  34   0.0000       0.157307         4.2806
  35   0.0000       0.162464         4.4209
  36   0.0000       0.175944         4.7877
  37   0.0000       0.186903         5.0859

MULLIKEN ATOMIC CHARGES
-----------------------
   0 C :   -0.240590
   1 C :    0.025545
   2 O :   -0.301971
   3 C :    0.099321
   4 C :   -0.248934
   5 C :    0.256799
   6 O :   -0.337235
   7 C :   -0.059961
   8 C :   -0.243531
   9 H :    0.134641
  10 H :    0.135624
  11 H :    0.128143
  12 H :    0.142856
  13 H :    0.137843
  14 H :    0.110468
  15 H :    0.115097
  16 H :    0.145886
Sum of atomic charges:    0.0000000

LOEWDIN ATOMIC CHARGES
----------------------
   0 C :   -0.195638
   1 C :   -0.238695
   2 O :    0.229367
   3 C :   -0.285325
   4 C :   -0.152827
   5 C :   -0.252346
   6 O :    0.159681
   7 C :   -0.211710
   8 C :   -0.161953
   9 H :    0.136569
  10 H :    0.139138
  11 H :    0.135080
  12 H :    0.144681
  13 H :    0.146120
  14 H :    0.131020
  15 H :    0.122024
  16 H :    0.154814

  Mayer bond orders larger than 0.1
B(  0-C ,  1-C ) :   0.8650 B(  0-C ,  8-C ) :   0.8683 B(  0-C ,  9-H ) :   0.9171
B(  0-C , 10-H ) :   0.9217 B(  1-C ,  2-O ) :   0.9435 B(  1-C ,  8-C ) :   0.9021
B(  1-C , 11-H ) :   0.9386 B(  2-O ,  3-C ) :   1.0254 B(  3-C ,  4-C ) :   0.8857
B(  3-C ,  5-C ) :   0.7806 B(  3-C ,  7-C ) :   0.9540 B(  4-C ,  5-C ) :   0.9240
B(  4-C , 12-H ) :   0.9042 B(  4-C , 13-H ) :   0.9105 B(  5-C ,  6-O ) :   0.9316
B(  5-C ,  8-C ) :   0.9343 B(  6-O ,  7-C ) :   0.9257 B(  7-C , 14-H ) :   0.9002
B(  7-C , 15-H ) :   0.9196 B(  8-C , 16-H ) :   0.9169

MP2 TOTAL ENERGY:     -421.021246188 Eh
FINAL SINGLE POINT ENERGY      -421.021246188302

DIPOLE MOMENT
-------------
                                X             Y             Z
Electronic contribution:      1.17882      -1.73206       0.48980
Nuclear contribution   :     -1.27065       2.09413      -0.72076
                        -----------------------------------------
Total Dipole Moment    :     -0.09183       0.36207      -0.23096
                        -----------------------------------------
Magnitude (a.u.)       :      0.43917
Magnitude (Debye)      :      1.11628

                             ****ORCA TERMINATED NORMALLY****
TOTAL RUN TIME: 0 days 0 hours 18 minutes 4 seconds 276 msec
