                         Program Version 3.0.3 - RELEASE   -
|  1> ! RI-MP2 RIJK def2-TZVP def2-TZVP/C def2-TZVP/JK TIGHTSCF
|  2> % maxcore 2000
|  3> % mp2 density relaxed end
|  4> *xyz 0 1
|  5>  C        0.0317371881     1.3106135774     0.2538795411
|  6>  N       -0.0388019481    -0.0690886822    -0.1935922024
|  7>  C       -1.2213308807    -0.7700223067    -0.0623281990
|  8>  N       -1.3055132648    -2.0849653159     0.0286041607
|  9>  C       -2.6519870364    -2.3497370474     0.0618702843
| 10>  O       -3.1003281745    -3.6221726179     0.1570449322
| 11>  C       -3.4010033078    -1.2121234632     0.0005319104
| 12>  N       -2.4447010646    -0.1839625472    -0.0677256195
| 13>  H        1.0618823542     1.6595077108     0.1592309139
| 14>  H       -0.5812316172     1.9525397359    -0.3903452434
| 15>  H       -0.2943995024     1.4569428367     1.2953315205
| 16>  H        0.7457777481    -0.6451578626     0.0739134777
| 17>  H       -2.3128437996    -4.1787157042     0.1727764668
| 18>  H       -4.4576454347    -1.0200359194     0.0238147181
| 19>  H       -2.6412106396     0.7938066858    -0.1843023911
| 20> *
| 21>
| 22>                          ****END OF INPUT****

CARTESIAN COORDINATES (ANGSTROEM)
---------------------------------
  C      0.031737    1.310614    0.253880
  N     -0.038802   -0.069089   -0.193592
  C     -1.221331   -0.770022   -0.062328
  N     -1.305513   -2.084965    0.028604
  C     -2.651987   -2.349737    0.061870
  O     -3.100328   -3.622173    0.157045
  C     -3.401003   -1.212123    0.000532
  N     -2.444701   -0.183963   -0.067726
  H      1.061882    1.659508    0.159231
  H     -0.581232    1.952540   -0.390345
  H     -0.294400    1.456943    1.295332
  H      0.745778   -0.645158    0.073913
  H     -2.312844   -4.178716    0.172776
  H     -4.457645   -1.020036    0.023815
  H     -2.641211    0.793807   -0.184302

 Total Charge           Charge          ....    0
 Multiplicity           Mult            ....    1
 Number of Electrons    NEL             ....   60
 Basis Dimension        Dim             ....  290

ORBITAL ENERGIES
----------------

  NO   OCC          E(Eh)            E(eV)
   0   2.0000     -20.573039      -559.8209
   1   2.0000     -15.605024      -424.6343
   2   2.0000     -15.583109      -424.0380
   3   2.0000     -15.528987      -422.5652
   4   2.0000     -11.338270      -308.5300
   5   2.0000     -11.300044      -307.4898
   6   2.0000     -11.276528      -306.8499
   7   2.0000     -11.228884      -305.5535
   8   2.0000      -1.400788       -38.1174
   9   2.0000      -1.340415       -36.4745
  10   2.0000      -1.229661       -33.4608
  11   2.0000      -1.159073       -31.5400
  12   2.0000      -0.992964       -27.0199
  13   2.0000      -0.935643       -25.4601
  14   2.0000      -0.819842       -22.3090
  15   2.0000      -0.800173       -21.7738
  16   2.0000      -0.750751       -20.4290
  17   2.0000      -0.708131       -19.2692
  18   2.0000      -0.646101       -17.5813
  19   2.0000      -0.631234       -17.1768
  20   2.0000      -0.622969       -16.9518
  21   2.0000      -0.607184       -16.5223
  22   2.0000      -0.598283       -16.2801
  23   2.0000      -0.557181       -15.1617
  24   2.0000      -0.547131       -14.8882
  25   2.0000      -0.539373       -14.6771
  26   2.0000      -0.447722       -12.1831
  27   2.0000      -0.441437       -12.0121
  28   2.0000      -0.383958       -10.4480
  29   2.0000      -0.277389        -7.5481
  30   0.0000       0.119579         3.2539
  31   0.0000       0.151034         4.1098
  32   0.0000       0.170515         4.6400
  33   0.0000       0.173424         4.7191
  34   0.0000       0.190227         5.1763

MULLIKEN ATOMIC CHARGES
-----------------------
   0 C :   -0.308523
   1 N :   -0.329299
   2 C :    0.305381
   3 N :   -0.358196
   4 C :    0.218596
   5 O :   -0.447964
   6 C :   -0.182144
   7 N :   -0.289974
   8 H :    0.148208
   9 H :    0.125890
  10 H :    0.138342
  11 H :    0.245184
  12 H :    0.337738
  13 H :    0.149619
  14 H :    0.247143
Sum of atomic charges:   -0.0000000

LOEWDIN ATOMIC CHARGES
----------------------
   0 C :   -0.334096
   1 N :    0.039386
   2 C :   -0.407701
   3 N :    0.079318
   4 C :   -0.416728
   5 O :    0.059291
   6 C :   -0.250398
   7 N :    0.175741
   8 H :    0.123067
   9 H :    0.113457
  10 H :    0.108215
  11 H :    0.191488
  12 H :    0.196579
  13 H :    0.132987
  14 H :    0.189395

  Mayer bond orders larger than 0.1
B(  0-C ,  1-N ) :   0.9116 B(  0-C ,  8-H ) :   0.9372 B(  0-C ,  9-H ) :   0.9341
B(  0-C , 10-H ) :   0.9285 B(  1-N ,  2-C ) :   1.0954 B(  1-N , 11-H ) :   0.8685
B(  2-C ,  3-N ) :   1.5568 B(  2-C ,  7-N ) :   1.1910 B(  3-N ,  4-C ) :   1.2482
B(  4-C ,  5-O ) :   1.0814 B(  4-C ,  6-C ) :   1.5776 B(  5-O , 12-H ) :   0.8216
B(  6-C ,  7-N ) :   1.0165 B(  6-C , 13-H ) :   0.9078 B(  7-N , 14-H ) :   0.8669

MP2 TOTAL ENERGY:     -395.363966571 Eh
FINAL SINGLE POINT ENERGY      -395.363966571417

DIPOLE MOMENT
-------------
                                X             Y             Z
Electronic contribution:     -3.04345      -5.92207      -0.67062
Nuclear contribution   :      3.54007       7.35767       0.87834
                        -----------------------------------------
Total Dipole Moment    :      0.49663       1.43561       0.20772
                        -----------------------------------------
Magnitude (a.u.)       :      1.53322
Magnitude (Debye)      :      3.89713

                             ****ORCA TERMINATED NORMALLY****
TOTAL RUN TIME: 0 days 0 hours 10 minutes 16 seconds 991 msec
