                         Program Version 3.0.3 - RELEASE   -
|  1> ! RI-MP2 RIJK def2-TZVP def2-TZVP/C def2-TZVP/JK TIGHTSCF
|  2> % maxcore 2000
|  3> % mp2 density relaxed end
|  4> *xyz 0 1
|  5>  C       -0.0934404397     1.5324997968     0.0002298783
|  6>  C        0.0700532798     0.0012196382    -0.0715948300
|  7>  C        0.8888588581    -0.4172358177    -1.3071418705
|  8>  C        0.6691503782    -0.5428209485     1.1842218808
|  9>  C        0.1787414135    -1.3156594168     2.1981035097
| 10>  N       -1.0843476794    -1.8943882503     2.3619747390
| 11>  N        1.2099384903    -1.5161796567     3.0857381386
| 12>  N        2.2585019402    -0.9337765544     2.6885762204
| 13>  O        1.9521070947    -0.2727789595     1.4752033676
| 14>  H        0.8811138923     2.0206134042     0.0966869703
| 15>  H       -0.5737497845     1.9054426075    -0.9094763625
| 16>  H       -0.7055524454     1.8300043584     0.8568914503
| 17>  H       -0.9257060327    -0.4524459752    -0.1463514625
| 18>  H        1.9021709053    -0.0084606531    -1.2569571908
| 19>  H        0.9653336412    -1.5055188186    -1.3814344326
| 20>  H        0.4133444329    -0.0429802080    -2.2185772897
| 21>  H       -1.8222976434    -1.2094658935     2.4746583960
| 22>  H       -1.0852243512    -2.5088763728     3.1673263076
| 23> *
| 24>
| 25>                          ****END OF INPUT****

CARTESIAN COORDINATES (ANGSTROEM)
---------------------------------
  C     -0.093440    1.532500    0.000230
  C      0.070053    0.001220   -0.071595
  C      0.888859   -0.417236   -1.307142
  C      0.669150   -0.542821    1.184222
  C      0.178741   -1.315659    2.198104
  N     -1.084348   -1.894388    2.361975
  N      1.209938   -1.516180    3.085738
  N      2.258502   -0.933777    2.688576
  O      1.952107   -0.272779    1.475203
  H      0.881114    2.020613    0.096687
  H     -0.573750    1.905443   -0.909476
  H     -0.705552    1.830004    0.856891
  H     -0.925706   -0.452446   -0.146351
  H      1.902171   -0.008461   -1.256957
  H      0.965334   -1.505519   -1.381434
  H      0.413344   -0.042980   -2.218577
  H     -1.822298   -1.209466    2.474658
  H     -1.085224   -2.508876    3.167326

 Total Charge           Charge          ....    0
 Multiplicity           Mult            ....    1
 Number of Electrons    NEL             ....   68
 Basis Dimension        Dim             ....  333

ORBITAL ENERGIES
----------------

  NO   OCC          E(Eh)            E(eV)
   0   2.0000     -20.651676      -561.9607
   1   2.0000     -15.681718      -426.7212
   2   2.0000     -15.628382      -425.2699
   3   2.0000     -15.576534      -423.8590
   4   2.0000     -11.309722      -307.7532
   5   2.0000     -11.297091      -307.4095
   6   2.0000     -11.261306      -306.4357
   7   2.0000     -11.232084      -305.6405
   8   2.0000     -11.228631      -305.5466
   9   2.0000      -1.521945       -41.4142
  10   2.0000      -1.308193       -35.5978
  11   2.0000      -1.223989       -33.3064
  12   2.0000      -1.108939       -30.1758
  13   2.0000      -1.040477       -28.3128
  14   2.0000      -0.945952       -25.7407
  15   2.0000      -0.891664       -24.2634
  16   2.0000      -0.849136       -23.1062
  17   2.0000      -0.798771       -21.7357
  18   2.0000      -0.717371       -19.5207
  19   2.0000      -0.691564       -18.8184
  20   2.0000      -0.669136       -18.2081
  21   2.0000      -0.648458       -17.6454
  22   2.0000      -0.627590       -17.0776
  23   2.0000      -0.593875       -16.1602
  24   2.0000      -0.575788       -15.6680
  25   2.0000      -0.557524       -15.1710
  26   2.0000      -0.551233       -14.9998
  27   2.0000      -0.508601       -13.8397
  28   2.0000      -0.508063       -13.8251
  29   2.0000      -0.502758       -13.6807
  30   2.0000      -0.497648       -13.5417
  31   2.0000      -0.467009       -12.7080
  32   2.0000      -0.455013       -12.3815
  33   2.0000      -0.332471        -9.0470
  34   0.0000       0.104611         2.8466
  35   0.0000       0.118512         3.2249
  36   0.0000       0.143806         3.9132
  37   0.0000       0.174647         4.7524
  38   0.0000       0.181409         4.9364

MULLIKEN ATOMIC CHARGES
-----------------------
   0 C :   -0.396727
   1 C :   -0.044523
   2 C :   -0.410693
   3 C :    0.114768
   4 C :    0.091623
   5 N :   -0.548291
   6 N :   -0.109369
   7 N :   -0.053467
   8 O :   -0.114443
   9 H :    0.143773
  10 H :    0.136816
  11 H :    0.131493
  12 H :    0.111935
  13 H :    0.143771
  14 H :    0.143909
  15 H :    0.135283
  16 H :    0.260976
  17 H :    0.263165
Sum of atomic charges:    0.0000000

LOEWDIN ATOMIC CHARGES
----------------------
   0 C :   -0.280201
   1 C :   -0.275086
   2 C :   -0.278571
   3 C :   -0.260183
   4 C :   -0.356547
   5 N :   -0.093565
   6 N :    0.021612
   7 N :   -0.033146
   8 O :    0.280077
   9 H :    0.129503
  10 H :    0.125680
  11 H :    0.124306
  12 H :    0.165252
  13 H :    0.129060
  14 H :    0.128523
  15 H :    0.125566
  16 H :    0.171229
  17 H :    0.176490

  Mayer bond orders larger than 0.1
B(  0-C ,  1-C ) :   0.9058 B(  0-C ,  9-H ) :   0.9299 B(  0-C , 10-H ) :   0.9361
B(  0-C , 11-H ) :   0.9353 B(  1-C ,  2-C ) :   0.9166 B(  1-C ,  3-C ) :   0.9177
B(  1-C , 12-H ) :   0.9355 B(  2-C , 13-H ) :   0.9295 B(  2-C , 14-H ) :   0.9359
B(  2-C , 15-H ) :   0.9355 B(  3-C ,  4-C ) :   1.4609 B(  3-C ,  8-O ) :   1.1213
B(  4-C ,  5-N ) :   1.0211 B(  4-C ,  6-N ) :   1.3088 B(  4-C ,  7-N ) :   0.1012
B(  5-N , 16-H ) :   0.8704 B(  5-N , 17-H ) :   0.8736 B(  6-N ,  7-N ) :   1.3801
B(  7-N ,  8-O ) :   0.8829

MP2 TOTAL ENERGY:     -434.532237468 Eh
FINAL SINGLE POINT ENERGY      -434.532237467778

DIPOLE MOMENT
-------------
                                X             Y             Z
Electronic contribution:      5.07472      -4.53461       9.48494
Nuclear contribution   :     -6.46521       4.93762     -10.11234
                        -----------------------------------------
Total Dipole Moment    :     -1.39050       0.40301      -0.62740
                        -----------------------------------------
Magnitude (a.u.)       :      1.57783
Magnitude (Debye)      :      4.01051

                             ****ORCA TERMINATED NORMALLY****
TOTAL RUN TIME: 0 days 0 hours 17 minutes 13 seconds 194 msec
