                         Program Version 3.0.3 - RELEASE   -
|  1> ! RI-MP2 RIJK def2-TZVP def2-TZVP/C def2-TZVP/JK TIGHTSCF
|  2> % maxcore 2000
|  3> % mp2 density relaxed end
|  4> *xyz 0 1
|  5>  C       -0.0260136284     1.5002246974     0.0888744216
|  6>  C       -0.0241290410     0.0079807207    -0.0080113231
|  7>  C        0.0084919296    -0.7418698322    -1.1165200515
|  8>  C       -0.0315624329    -2.2268451899    -0.8165501208
|  9>  O        0.9572424222    -3.0110406371    -1.4765365374
| 10>  C        0.0343475499    -2.2747038938     0.7142079561
| 11>  O       -0.6813522851    -3.2724221729     1.3716989776
| 12>  C        1.2584788162    -1.6921359575     1.3827973343
| 13>  C       -0.0151230014    -0.8635370422     1.2156170353
| 14>  H        0.8312243324     1.8576807291     0.6731373318
| 15>  H        0.0079844755     1.9690125727    -0.8979930331
| 16>  H       -0.9250957209     1.8590402453     0.6054727728
| 17>  H        0.0568952890    -0.3656748841    -2.1324894285
| 18>  H       -0.9826360319    -2.6733955322    -1.1347960599
| 19>  H        1.8159094510    -2.6369761306    -1.2483875615
| 20>  H       -0.2514958938    -4.1126656396     1.1736023132
| 21>  H        1.4602280759    -2.0769545550     2.3768613980
| 22>  H        2.1334095643    -1.4084487177     0.8047182094
| 23>  H       -0.5771480106    -0.5911887104     2.1017902856
| 24> *
| 25>
| 26>                          ****END OF INPUT****

CARTESIAN COORDINATES (ANGSTROEM)
---------------------------------
  C     -0.026014    1.500225    0.088874
  C     -0.024129    0.007981   -0.008011
  C      0.008492   -0.741870   -1.116520
  C     -0.031562   -2.226845   -0.816550
  O      0.957242   -3.011041   -1.476537
  C      0.034348   -2.274704    0.714208
  O     -0.681352   -3.272422    1.371699
  C      1.258479   -1.692136    1.382797
  C     -0.015123   -0.863537    1.215617
  H      0.831224    1.857681    0.673137
  H      0.007984    1.969013   -0.897993
  H     -0.925096    1.859040    0.605473
  H      0.056895   -0.365675   -2.132489
  H     -0.982636   -2.673396   -1.134796
  H      1.815909   -2.636976   -1.248388
  H     -0.251496   -4.112666    1.173602
  H      1.460228   -2.076955    2.376861
  H      2.133410   -1.408449    0.804718
  H     -0.577148   -0.591189    2.101790

 Total Charge           Charge          ....    0
 Multiplicity           Mult            ....    1
 Number of Electrons    NEL             ....   68
 Basis Dimension        Dim             ....  339

ORBITAL ENERGIES
----------------

  NO   OCC          E(Eh)            E(eV)
   0   2.0000     -20.566206      -559.6349
   1   2.0000     -20.556934      -559.3826
   2   2.0000     -11.287277      -307.1424
   3   2.0000     -11.283678      -307.0445
   4   2.0000     -11.247177      -306.0512
   5   2.0000     -11.237940      -305.7999
   6   2.0000     -11.235623      -305.7368
   7   2.0000     -11.230419      -305.5952
   8   2.0000     -11.219153      -305.2887
   9   2.0000      -1.381446       -37.5910
  10   2.0000      -1.357969       -36.9522
  11   2.0000      -1.178640       -32.0724
  12   2.0000      -1.055996       -28.7351
  13   2.0000      -0.990191       -26.9445
  14   2.0000      -0.898734       -24.4558
  15   2.0000      -0.846854       -23.0441
  16   2.0000      -0.784549       -21.3487
  17   2.0000      -0.744968       -20.2716
  18   2.0000      -0.711525       -19.3616
  19   2.0000      -0.669223       -18.2105
  20   2.0000      -0.636056       -17.3080
  21   2.0000      -0.617688       -16.8081
  22   2.0000      -0.600542       -16.3416
  23   2.0000      -0.591776       -16.1030
  24   2.0000      -0.574164       -15.6238
  25   2.0000      -0.573897       -15.6165
  26   2.0000      -0.550156       -14.9705
  27   2.0000      -0.523493       -14.2450
  28   2.0000      -0.501317       -13.6415
  29   2.0000      -0.495601       -13.4860
  30   2.0000      -0.460288       -12.5251
  31   2.0000      -0.422610       -11.4998
  32   2.0000      -0.402106       -10.9419
  33   2.0000      -0.336628        -9.1601
  34   0.0000       0.132671         3.6102
  35   0.0000       0.141336         3.8460
  36   0.0000       0.149696         4.0734
  37   0.0000       0.166469         4.5299
  38   0.0000       0.180656         4.9159

MULLIKEN ATOMIC CHARGES
-----------------------
   0 C :   -0.445064
   1 C :    0.067872
   2 C :   -0.327805
   3 C :    0.151124
   4 O :   -0.464411
   5 C :    0.174409
   6 O :   -0.459191
   7 C :   -0.355214
   8 C :   -0.055891
   9 H :    0.143193
  10 H :    0.141503
  11 H :    0.145821
  12 H :    0.127334
  13 H :    0.112805
  14 H :    0.310787
  15 H :    0.328054
  16 H :    0.135639
  17 H :    0.126867
  18 H :    0.142168
Sum of atomic charges:   -0.0000000

LOEWDIN ATOMIC CHARGES
----------------------
   0 C :   -0.267794
   1 C :   -0.158675
   2 C :   -0.125773
   3 C :   -0.287859
   4 O :   -0.022575
   5 C :   -0.324391
   6 O :    0.028861
   7 C :   -0.184739
   8 C :   -0.133356
   9 H :    0.133887
  10 H :    0.131224
  11 H :    0.134091
  12 H :    0.139588
  13 H :    0.154460
  14 H :    0.171663
  15 H :    0.187574
  16 H :    0.139976
  17 H :    0.130759
  18 H :    0.153081

  Mayer bond orders larger than 0.1
B(  0-C ,  1-C ) :   0.8759 B(  0-C ,  9-H ) :   0.9286 B(  0-C , 10-H ) :   0.9516
B(  0-C , 11-H ) :   0.9325 B(  1-C ,  2-C ) :   1.7211 B(  1-C ,  8-C ) :   0.8922
B(  2-C ,  3-C ) :   0.9434 B(  2-C , 12-H ) :   0.9324 B(  3-C ,  4-O ) :   0.9154
B(  3-C ,  5-C ) :   0.9581 B(  3-C , 13-H ) :   0.9030 B(  4-O , 14-H ) :   0.8408
B(  5-C ,  6-O ) :   1.0079 B(  5-C ,  7-C ) :   0.8880 B(  5-C ,  8-C ) :   0.8613
B(  6-O , 15-H ) :   0.8354 B(  7-C ,  8-C ) :   0.8475 B(  7-C , 16-H ) :   0.9210
B(  7-C , 17-H ) :   0.9067 B(  8-C , 18-H ) :   0.9033

MP2 TOTAL ENERGY:     -422.316262731 Eh
FINAL SINGLE POINT ENERGY      -422.316262731294

DIPOLE MOMENT
-------------
                                X             Y             Z
Electronic contribution:     -1.15661      -5.45257      -0.59200
Nuclear contribution   :      1.67573       5.98477       0.81875
                        -----------------------------------------
Total Dipole Moment    :      0.51912       0.53219       0.22675
                        -----------------------------------------
Magnitude (a.u.)       :      0.77726
Magnitude (Debye)      :      1.97563

                             ****ORCA TERMINATED NORMALLY****
TOTAL RUN TIME: 0 days 0 hours 18 minutes 56 seconds 942 msec
