                         Program Version 3.0.3 - RELEASE   -
|  1> ! RI-MP2 RIJK def2-TZVP def2-TZVP/C def2-TZVP/JK TIGHTSCF
|  2> % maxcore 2000
|  3> % mp2 density relaxed end
|  4> *xyz 0 1
|  5>  C       -0.0167663486     1.5300625972     0.0289411819
|  6>  C       -0.0627680007     0.0322671559     0.0432367562
|  7>  N        1.1490254593    -0.7160676714    -0.2709376565
|  8>  C        0.5358822962    -0.9571378636     1.0437611670
|  9>  C        1.3060353894    -0.6961868458     2.2222461603
| 10>  N        1.8966217601    -0.4915436208     3.1958251789
| 11>  C       -0.7084836332    -1.8191894079     0.9661632674
| 12>  C       -1.9313131923    -1.0115453408     1.3129679994
| 13>  C       -1.3074251695    -0.8368166822    -0.0470208937
| 14>  H        0.9509556052     1.8867710047     0.3882800781
| 15>  H       -0.1582427294     1.9048429183    -0.9910711138
| 16>  H       -0.8073299884     1.9516608619     0.6566904422
| 17>  H        0.9818847910    -1.5028024128    -0.8957229763
| 18>  H       -0.7096683194    -2.9020132537     0.9321861402
| 19>  H       -2.8663999651    -1.5633525116     1.3381082518
| 20>  H       -1.8641207859    -0.2176086001     2.0510217893
| 21>  H       -1.8348453088    -1.0752153274    -0.9633776623
| 22> *
| 23>
| 24>                          ****END OF INPUT****

CARTESIAN COORDINATES (ANGSTROEM)
---------------------------------
  C     -0.016766    1.530063    0.028941
  C     -0.062768    0.032267    0.043237
  N      1.149025   -0.716068   -0.270938
  C      0.535882   -0.957138    1.043761
  C      1.306035   -0.696187    2.222246
  N      1.896622   -0.491544    3.195825
  C     -0.708484   -1.819189    0.966163
  C     -1.931313   -1.011545    1.312968
  C     -1.307425   -0.836817   -0.047021
  H      0.950956    1.886771    0.388280
  H     -0.158243    1.904843   -0.991071
  H     -0.807330    1.951661    0.656690
  H      0.981885   -1.502802   -0.895723
  H     -0.709668   -2.902013    0.932186
  H     -2.866400   -1.563353    1.338108
  H     -1.864121   -0.217609    2.051022
  H     -1.834845   -1.075215   -0.963378

 Total Charge           Charge          ....    0
 Multiplicity           Mult            ....    1
 Number of Electrons    NEL             ....   64
 Basis Dimension        Dim             ....  327

ORBITAL ENERGIES
----------------

  NO   OCC          E(Eh)            E(eV)
   0   2.0000     -15.589151      -424.2024
   1   2.0000     -15.568728      -423.6466
   2   2.0000     -11.313487      -307.8556
   3   2.0000     -11.304393      -307.6082
   4   2.0000     -11.272528      -306.7411
   5   2.0000     -11.269840      -306.6679
   6   2.0000     -11.265953      -306.5622
   7   2.0000     -11.259809      -306.3950
   8   2.0000     -11.236883      -305.7711
   9   2.0000      -1.328846       -36.1597
  10   2.0000      -1.212317       -32.9888
  11   2.0000      -1.167212       -31.7615
  12   2.0000      -1.016964       -27.6730
  13   2.0000      -0.961705       -26.1693
  14   2.0000      -0.893607       -24.3163
  15   2.0000      -0.843744       -22.9594
  16   2.0000      -0.791387       -21.5347
  17   2.0000      -0.722107       -19.6495
  18   2.0000      -0.685828       -18.6623
  19   2.0000      -0.662660       -18.0319
  20   2.0000      -0.597516       -16.2592
  21   2.0000      -0.584740       -15.9116
  22   2.0000      -0.576445       -15.6859
  23   2.0000      -0.565020       -15.3750
  24   2.0000      -0.536444       -14.5974
  25   2.0000      -0.525351       -14.2955
  26   2.0000      -0.497215       -13.5299
  27   2.0000      -0.469534       -12.7767
  28   2.0000      -0.452595       -12.3157
  29   2.0000      -0.444084       -12.0841
  30   2.0000      -0.423766       -11.5313
  31   2.0000      -0.397924       -10.8281
  32   0.0000       0.129897         3.5347
  33   0.0000       0.137897         3.7524
  34   0.0000       0.144523         3.9327
  35   0.0000       0.157709         4.2915
  36   0.0000       0.171623         4.6701

MULLIKEN ATOMIC CHARGES
-----------------------
   0 C :   -0.414758
   1 C :    0.066735
   2 N :   -0.333232
   3 C :    0.168917
   4 C :   -0.249764
   5 N :   -0.044616
   6 C :   -0.085006
   7 C :   -0.280898
   8 C :   -0.081786
   9 H :    0.161599
  10 H :    0.141351
  11 H :    0.138377
  12 H :    0.227358
  13 H :    0.148095
  14 H :    0.138027
  15 H :    0.155225
  16 H :    0.144378
Sum of atomic charges:    0.0000000

LOEWDIN ATOMIC CHARGES
----------------------
   0 C :   -0.258130
   1 C :   -0.234357
   2 N :    0.094855
   3 C :   -0.228899
   4 C :   -0.146717
   5 N :    0.073837
   6 C :   -0.133075
   7 C :   -0.176982
   8 C :   -0.142990
   9 H :    0.141004
  10 H :    0.135043
  11 H :    0.133239
  12 H :    0.174659
  13 H :    0.143379
  14 H :    0.142498
  15 H :    0.140581
  16 H :    0.142055

  Mayer bond orders larger than 0.1
B(  0-C ,  1-C ) :   0.8992 B(  0-C ,  9-H ) :   0.9324 B(  0-C , 10-H ) :   0.9315
B(  0-C , 11-H ) :   0.9379 B(  1-C ,  2-N ) :   0.9611 B(  1-C ,  3-C ) :   0.8058
B(  1-C ,  8-C ) :   0.9210 B(  2-N ,  3-C ) :   0.9099 B(  2-N , 12-H ) :   0.8599
B(  3-C ,  4-C ) :   0.9654 B(  3-C ,  6-C ) :   0.9167 B(  4-C ,  5-N ) :   2.8738
B(  6-C ,  7-C ) :   0.8784 B(  6-C ,  8-C ) :   0.8382 B(  6-C , 13-H ) :   0.9244
B(  7-C ,  8-C ) :   0.8707 B(  7-C , 14-H ) :   0.9224 B(  7-C , 15-H ) :   0.9126
B(  8-C , 16-H ) :   0.9245

MP2 TOTAL ENERGY:     -380.154941765 Eh
FINAL SINGLE POINT ENERGY      -380.154941765055

DIPOLE MOMENT
-------------
                                X             Y             Z
Electronic contribution:      4.96598      -2.89359       3.23270
Nuclear contribution   :     -6.53034       2.54733      -4.53015
                        -----------------------------------------
Total Dipole Moment    :     -1.56436      -0.34626      -1.29745
                        -----------------------------------------
Magnitude (a.u.)       :      2.06167
Magnitude (Debye)      :      5.24035

                             ****ORCA TERMINATED NORMALLY****
TOTAL RUN TIME: 0 days 0 hours 17 minutes 56 seconds 693 msec
