                         Program Version 3.0.3 - RELEASE   -
|  1> ! RI-MP2 RIJK def2-TZVP def2-TZVP/C def2-TZVP/JK TIGHTSCF
|  2> % maxcore 2000
|  3> % mp2 density relaxed end
|  4> *xyz 0 1
|  5>  C       -0.0465785345     1.6009966609    -0.0624633466
|  6>  C        0.0254218566     0.0808677440     0.0089052379
|  7>  C        0.7069455370    -0.6726825165    -1.1636021335
|  8>  O        2.0630720815    -0.2383965193    -1.2140459277
|  9>  C        1.7198222498    -1.2779536758    -0.2686969527
| 10>  C        1.0925644351    -0.5852353771     0.8992697534
| 11>  N        1.3321755419    -0.6947093357     2.1366209127
| 12>  O        0.4484980624     0.0933597534     2.8959706541
| 13>  H        0.9229358891     2.0119119571    -0.3544137298
| 14>  H       -0.7947808170     1.9204403638    -0.7955148907
| 15>  H       -0.3196427904     2.0143633890     0.9114679257
| 16>  H       -0.9527923851    -0.3543995460     0.2467823293
| 17>  H        0.2652999254    -1.0636156775    -2.0724146760
| 18>  H        2.2701012892    -2.2079775204    -0.3210845632
| 19>  H        0.7440443190    -0.0800624898     3.7963881970
| 20> *
| 21>
| 22>                          ****END OF INPUT****

CARTESIAN COORDINATES (ANGSTROEM)
---------------------------------
  C     -0.046579    1.600997   -0.062463
  C      0.025422    0.080868    0.008905
  C      0.706946   -0.672683   -1.163602
  O      2.063072   -0.238397   -1.214046
  C      1.719822   -1.277954   -0.268697
  C      1.092564   -0.585235    0.899270
  N      1.332176   -0.694709    2.136621
  O      0.448498    0.093360    2.895971
  H      0.922936    2.011912   -0.354414
  H     -0.794781    1.920440   -0.795515
  H     -0.319643    2.014363    0.911468
  H     -0.952792   -0.354400    0.246782
  H      0.265300   -1.063616   -2.072415
  H      2.270101   -2.207978   -0.321085
  H      0.744044   -0.080062    3.796388

 Total Charge           Charge          ....    0
 Multiplicity           Mult            ....    1
 Number of Electrons    NEL             ....   60
 Basis Dimension        Dim             ....  290

ORBITAL ENERGIES
----------------

  NO   OCC          E(Eh)            E(eV)
   0   2.0000     -20.597809      -560.4949
   1   2.0000     -20.586320      -560.1823
   2   2.0000     -15.623849      -425.1465
   3   2.0000     -11.304767      -307.6183
   4   2.0000     -11.304014      -307.5979
   5   2.0000     -11.287908      -307.1596
   6   2.0000     -11.260852      -306.4234
   7   2.0000     -11.220877      -305.3356
   8   2.0000      -1.436710       -39.0949
   9   2.0000      -1.421959       -38.6935
  10   2.0000      -1.173868       -31.9426
  11   2.0000      -1.075809       -29.2742
  12   2.0000      -0.976971       -26.5847
  13   2.0000      -0.879634       -23.9361
  14   2.0000      -0.836890       -22.7729
  15   2.0000      -0.744570       -20.2608
  16   2.0000      -0.717653       -19.5283
  17   2.0000      -0.698027       -18.9943
  18   2.0000      -0.642127       -17.4732
  19   2.0000      -0.613135       -16.6843
  20   2.0000      -0.605052       -16.4643
  21   2.0000      -0.590190       -16.0599
  22   2.0000      -0.558409       -15.1951
  23   2.0000      -0.549248       -14.9458
  24   2.0000      -0.528070       -14.3695
  25   2.0000      -0.501548       -13.6478
  26   2.0000      -0.485173       -13.2022
  27   2.0000      -0.433706       -11.8017
  28   2.0000      -0.418003       -11.3745
  29   2.0000      -0.386773       -10.5246
  30   0.0000       0.134805         3.6682
  31   0.0000       0.145991         3.9726
  32   0.0000       0.158749         4.3198
  33   0.0000       0.166308         4.5255
  34   0.0000       0.181721         4.9449

MULLIKEN ATOMIC CHARGES
-----------------------
   0 C :   -0.425368
   1 C :    0.015449
   2 C :    0.015240
   3 O :   -0.313179
   4 C :   -0.031847
   5 C :   -0.002889
   6 N :   -0.077406
   7 O :   -0.359196
   8 H :    0.149633
   9 H :    0.129461
  10 H :    0.149914
  11 H :    0.118768
  12 H :    0.148002
  13 H :    0.144404
  14 H :    0.339014
Sum of atomic charges:    0.0000000

LOEWDIN ATOMIC CHARGES
----------------------
   0 C :   -0.286963
   1 C :   -0.202013
   2 C :   -0.211737
   3 O :    0.183483
   4 C :   -0.191516
   5 C :   -0.243481
   6 N :    0.032441
   7 O :   -0.071648
   8 H :    0.131642
   9 H :    0.124584
  10 H :    0.130318
  11 H :    0.163869
  12 H :    0.132460
  13 H :    0.137420
  14 H :    0.171140

  Mayer bond orders larger than 0.1
B(  0-C ,  1-C ) :   0.8718 B(  0-C ,  8-H ) :   0.9341 B(  0-C ,  9-H ) :   0.9329
B(  0-C , 10-H ) :   0.9330 B(  1-C ,  2-C ) :   0.9097 B(  1-C ,  5-C ) :   0.9557
B(  1-C , 11-H ) :   0.8991 B(  2-C ,  3-O ) :   0.9136 B(  2-C ,  4-C ) :   0.9207
B(  2-C , 12-H ) :   0.9146 B(  3-O ,  4-C ) :   0.9119 B(  4-C ,  5-C ) :   0.9046
B(  4-C , 13-H ) :   0.9294 B(  5-C ,  6-N ) :   1.8715 B(  6-N ,  7-O ) :   0.8093
B(  7-O , 14-H ) :   0.8427

MP2 TOTAL ENERGY:     -399.053258433 Eh
FINAL SINGLE POINT ENERGY      -399.053258432571

DIPOLE MOMENT
-------------
                                X             Y             Z
Electronic contribution:      3.33097      -3.58951       1.67579
Nuclear contribution   :     -3.96489       3.26644      -1.62862
                        -----------------------------------------
Total Dipole Moment    :     -0.63392      -0.32307       0.04716
                        -----------------------------------------
Magnitude (a.u.)       :      0.71306
Magnitude (Debye)      :      1.81245

                             ****ORCA TERMINATED NORMALLY****
TOTAL RUN TIME: 0 days 0 hours 10 minutes 23 seconds 418 msec
