                         Program Version 3.0.3 - RELEASE   -
|  1> ! RI-MP2 RIJK def2-TZVP def2-TZVP/C def2-TZVP/JK TIGHTSCF
|  2> % maxcore 2000
|  3> % mp2 density relaxed end
|  4> *xyz 0 1
|  5>  C        0.2197906022     1.5793962937    -0.2165344996
|  6>  C        0.0951632758     0.1328713070    -0.1216739095
|  7>  C       -0.0147139410    -1.0634737184    -0.0318952303
|  8>  C       -0.1136582964    -2.5110713542     0.0247892527
|  9>  O        0.1653179077    -3.1117327867     1.3320704627
| 10>  C       -1.0163880142    -3.9154544661     1.2274953421
| 11>  C       -2.2541472917    -3.0756117155     1.2515227249
| 12>  C       -2.4102434342    -1.8140903086     2.0705186299
| 13>  C       -1.4693114997    -3.2268521036    -0.0427178800
| 14>  H        0.8697007974     1.9680384137     0.5751967424
| 15>  H        0.6537679582     1.8787765454    -1.1768272235
| 16>  H       -0.7533684875     2.0731259592    -0.1200870199
| 17>  H        0.5784072204    -2.9537858807    -0.7038250667
| 18>  H       -0.9346467055    -4.9589861707     1.5096462226
| 19>  H       -3.1496442682    -3.6948890831     1.2037105913
| 20>  H       -1.4463051881    -1.3287578521     2.2289960827
| 21>  H       -3.0772062928    -1.0992912615     1.5779357474
| 22>  H       -2.8362129667    -2.0526758080     3.0512677812
| 23>  H       -1.8994374755    -3.6238909497    -0.9522844502
| 24> *
| 25>
| 26>                          ****END OF INPUT****

CARTESIAN COORDINATES (ANGSTROEM)
---------------------------------
  C      0.219791    1.579396   -0.216534
  C      0.095163    0.132871   -0.121674
  C     -0.014714   -1.063474   -0.031895
  C     -0.113658   -2.511071    0.024789
  O      0.165318   -3.111733    1.332070
  C     -1.016388   -3.915454    1.227495
  C     -2.254147   -3.075612    1.251523
  C     -2.410243   -1.814090    2.070519
  C     -1.469311   -3.226852   -0.042718
  H      0.869701    1.968038    0.575197
  H      0.653768    1.878777   -1.176827
  H     -0.753368    2.073126   -0.120087
  H      0.578407   -2.953786   -0.703825
  H     -0.934647   -4.958986    1.509646
  H     -3.149644   -3.694889    1.203711
  H     -1.446305   -1.328758    2.228996
  H     -3.077206   -1.099291    1.577936
  H     -2.836213   -2.052676    3.051268
  H     -1.899437   -3.623891   -0.952284

 Total Charge           Charge          ....    0
 Multiplicity           Mult            ....    1
 Number of Electrons    NEL             ....   66
 Basis Dimension        Dim             ....  339

ORBITAL ENERGIES
----------------

  NO   OCC          E(Eh)            E(eV)
   0   2.0000     -20.556803      -559.3791
   1   2.0000     -11.310848      -307.7838
   2   2.0000     -11.286205      -307.1133
   3   2.0000     -11.248655      -306.0915
   4   2.0000     -11.240880      -305.8799
   5   2.0000     -11.240150      -305.8600
   6   2.0000     -11.229846      -305.5796
   7   2.0000     -11.217020      -305.2306
   8   2.0000     -11.209672      -305.0307
   9   2.0000      -1.392645       -37.8958
  10   2.0000      -1.124239       -30.5921
  11   2.0000      -1.065965       -29.0064
  12   2.0000      -1.000974       -27.2379
  13   2.0000      -0.964991       -26.2588
  14   2.0000      -0.919002       -25.0073
  15   2.0000      -0.784970       -21.3601
  16   2.0000      -0.773530       -21.0488
  17   2.0000      -0.717983       -19.5373
  18   2.0000      -0.679808       -18.4985
  19   2.0000      -0.627496       -17.0750
  20   2.0000      -0.622318       -16.9341
  21   2.0000      -0.592541       -16.1239
  22   2.0000      -0.587707       -15.9923
  23   2.0000      -0.582818       -15.8593
  24   2.0000      -0.567275       -15.4363
  25   2.0000      -0.551270       -15.0008
  26   2.0000      -0.504556       -13.7297
  27   2.0000      -0.496342       -13.5061
  28   2.0000      -0.493832       -13.4379
  29   2.0000      -0.404100       -10.9961
  30   2.0000      -0.391270       -10.6470
  31   2.0000      -0.376776       -10.2526
  32   2.0000      -0.359323        -9.7777
  33   0.0000       0.133781         3.6404
  34   0.0000       0.150058         4.0833
  35   0.0000       0.158784         4.3207
  36   0.0000       0.170281         4.6336
  37   0.0000       0.178682         4.8622

MULLIKEN ATOMIC CHARGES
-----------------------
   0 C :   -0.481045
   1 C :    0.081478
   2 C :   -0.025371
   3 C :   -0.046699
   4 O :   -0.324210
   5 C :    0.058793
   6 C :   -0.103238
   7 C :   -0.392051
   8 C :   -0.179637
   9 H :    0.166918
  10 H :    0.163684
  11 H :    0.162997
  12 H :    0.119106
  13 H :    0.130825
  14 H :    0.114052
  15 H :    0.161067
  16 H :    0.125634
  17 H :    0.128769
  18 H :    0.138928
Sum of atomic charges:   -0.0000000

LOEWDIN ATOMIC CHARGES
----------------------
   0 C :   -0.292299
   1 C :   -0.086325
   2 C :   -0.062572
   3 C :   -0.242838
   4 O :    0.169867
   5 C :   -0.228858
   6 C :   -0.218587
   7 C :   -0.288806
   8 C :   -0.151166
   9 H :    0.143922
  10 H :    0.142045
  11 H :    0.141265
  12 H :    0.160668
  13 H :    0.129648
  14 H :    0.160367
  15 H :    0.135184
  16 H :    0.125623
  17 H :    0.125414
  18 H :    0.137449

  Mayer bond orders larger than 0.1
B(  0-C ,  1-C ) :   0.8598 B(  0-C ,  9-H ) :   0.9429 B(  0-C , 10-H ) :   0.9497
B(  0-C , 11-H ) :   0.9446 B(  1-C ,  2-C ) :   2.6349 B(  1-C ,  3-C ) :  -0.1166
B(  2-C ,  3-C ) :   1.1251 B(  3-C ,  4-O ) :   0.9793 B(  3-C ,  8-C ) :   0.9326
B(  3-C , 12-H ) :   0.9119 B(  4-O ,  5-C ) :   0.9440 B(  5-C ,  6-C ) :   0.8793
B(  5-C ,  8-C ) :   0.8863 B(  5-C , 13-H ) :   0.9245 B(  6-C ,  7-C ) :   0.9124
B(  6-C ,  8-C ) :   0.8752 B(  6-C , 14-H ) :   0.9228 B(  7-C , 15-H ) :   0.9311
B(  7-C , 16-H ) :   0.9362 B(  7-C , 17-H ) :   0.9341 B(  8-C , 18-H ) :   0.9155

MP2 TOTAL ENERGY:     -385.127351767 Eh
FINAL SINGLE POINT ENERGY      -385.127351766729

DIPOLE MOMENT
-------------
                                X             Y             Z
Electronic contribution:      3.59100      -4.54405      -1.18879
Nuclear contribution   :     -4.09126       4.74890       0.72720
                        -----------------------------------------
Total Dipole Moment    :     -0.50026       0.20484      -0.46159
                        -----------------------------------------
Magnitude (a.u.)       :      0.71083
Magnitude (Debye)      :      1.80679

                             ****ORCA TERMINATED NORMALLY****
TOTAL RUN TIME: 0 days 0 hours 19 minutes 0 seconds 168 msec
