                         Program Version 3.0.3 - RELEASE   -
|  1> ! RI-MP2 RIJK def2-TZVP def2-TZVP/C def2-TZVP/JK TIGHTSCF
|  2> % maxcore 2000
|  3> % mp2 density relaxed end
|  4> *xyz 0 1
|  5>  C        0.0373894377     1.5995629986    -0.1140885524
|  6>  O        1.5121758570     1.4763572518     0.0052705531
|  7>  C        1.2028165125     0.2831697520     0.8323062998
|  8>  C        1.2940993237    -1.2834118689     1.0862813413
|  9>  C       -0.3225942396    -1.1023885414     1.1249796312
| 10>  C       -0.0591845150     0.0526064995     0.0914532576
| 11>  C        0.2002309568    -0.6619177448    -1.2694171532
| 12>  C        1.5068874514    -1.4612431933    -1.2292012498
| 13>  O        1.7009146094    -2.0972295818     0.0360981537
| 14>  H       -0.3631239741     2.2048185456     0.7083290125
| 15>  H       -0.2479827374     2.0154221129    -1.0841215543
| 16>  H        1.0097476240     0.6828691776     1.8387433575
| 17>  H        1.7904780938    -1.6341252580     1.9940548642
| 18>  H       -0.8770736476    -1.9736516747     0.7685732118
| 19>  H       -0.6844826619    -0.7900216818     2.1054117039
| 20>  H       -0.6534720773    -1.3157362537    -1.4819045087
| 21>  H        0.2654404744     0.0607523583    -2.0870349271
| 22>  H        1.5390601002    -2.2526006093    -1.9823721957
| 23>  H        2.3449873818    -0.7744161284    -1.4056062353
| 24> *
| 25>
| 26>                          ****END OF INPUT****

CARTESIAN COORDINATES (ANGSTROEM)
---------------------------------
  C      0.037389    1.599563   -0.114089
  O      1.512176    1.476357    0.005271
  C      1.202817    0.283170    0.832306
  C      1.294099   -1.283412    1.086281
  C     -0.322594   -1.102389    1.124980
  C     -0.059185    0.052606    0.091453
  C      0.200231   -0.661918   -1.269417
  C      1.506887   -1.461243   -1.229201
  O      1.700915   -2.097230    0.036098
  H     -0.363124    2.204819    0.708329
  H     -0.247983    2.015422   -1.084122
  H      1.009748    0.682869    1.838743
  H      1.790478   -1.634125    1.994055
  H     -0.877074   -1.973652    0.768573
  H     -0.684483   -0.790022    2.105412
  H     -0.653472   -1.315736   -1.481905
  H      0.265440    0.060752   -2.087035
  H      1.539060   -2.252601   -1.982372
  H      2.344987   -0.774416   -1.405606

 Total Charge           Charge          ....    0
 Multiplicity           Mult            ....    1
 Number of Electrons    NEL             ....   68
 Basis Dimension        Dim             ....  339

ORBITAL ENERGIES
----------------

  NO   OCC          E(Eh)            E(eV)
   0   2.0000     -20.562016      -559.5209
   1   2.0000     -20.557248      -559.3911
   2   2.0000     -11.309843      -307.7565
   3   2.0000     -11.296263      -307.3870
   4   2.0000     -11.282587      -307.0148
   5   2.0000     -11.275083      -306.8106
   6   2.0000     -11.249604      -306.1173
   7   2.0000     -11.240373      -305.8661
   8   2.0000     -11.229481      -305.5697
   9   2.0000      -1.394161       -37.9371
  10   2.0000      -1.365589       -37.1596
  11   2.0000      -1.132720       -30.8229
  12   2.0000      -1.036971       -28.2174
  13   2.0000      -0.939959       -25.5776
  14   2.0000      -0.890715       -24.2376
  15   2.0000      -0.871466       -23.7138
  16   2.0000      -0.825852       -22.4726
  17   2.0000      -0.734418       -19.9845
  18   2.0000      -0.690846       -18.7989
  19   2.0000      -0.657281       -17.8855
  20   2.0000      -0.651454       -17.7270
  21   2.0000      -0.624640       -16.9973
  22   2.0000      -0.605625       -16.4799
  23   2.0000      -0.585233       -15.9250
  24   2.0000      -0.562270       -15.3001
  25   2.0000      -0.553279       -15.0555
  26   2.0000      -0.544872       -14.8267
  27   2.0000      -0.520011       -14.1502
  28   2.0000      -0.490131       -13.3372
  29   2.0000      -0.476598       -12.9689
  30   2.0000      -0.456692       -12.4272
  31   2.0000      -0.426282       -11.5997
  32   2.0000      -0.395392       -10.7592
  33   2.0000      -0.371558       -10.1106
  34   0.0000       0.138137         3.7589
  35   0.0000       0.145712         3.9650
  36   0.0000       0.160058         4.3554
  37   0.0000       0.172942         4.7060
  38   0.0000       0.187444         5.1006

MULLIKEN ATOMIC CHARGES
-----------------------
   0 C :   -0.061177
   1 O :   -0.333870
   2 C :   -0.008603
   3 C :    0.094930
   4 C :   -0.289128
   5 C :    0.103214
   6 C :   -0.300337
   7 C :   -0.064804
   8 O :   -0.303174
   9 H :    0.099827
  10 H :    0.117229
  11 H :    0.092974
  12 H :    0.122255
  13 H :    0.126604
  14 H :    0.131468
  15 H :    0.118627
  16 H :    0.116911
  17 H :    0.121724
  18 H :    0.115329
Sum of atomic charges:    0.0000000

LOEWDIN ATOMIC CHARGES
----------------------
   0 C :   -0.221065
   1 O :    0.092839
   2 C :   -0.242057
   3 C :   -0.253472
   4 C :   -0.168315
   5 C :   -0.226501
   6 C :   -0.214182
   7 C :   -0.289861
   8 O :    0.183544
   9 H :    0.122818
  10 H :    0.119730
  11 H :    0.155537
  12 H :    0.130949
  13 H :    0.130657
  14 H :    0.134502
  15 H :    0.139849
  16 H :    0.146467
  17 H :    0.127539
  18 H :    0.131022

  Mayer bond orders larger than 0.1
B(  0-C ,  1-O ) :   0.9099 B(  0-C ,  5-C ) :   0.9360 B(  0-C ,  9-H ) :   0.9114
B(  0-C , 10-H ) :   0.9020 B(  1-O ,  2-C ) :   0.9140 B(  2-C ,  3-C ) :   0.8419
B(  2-C ,  5-C ) :   0.9181 B(  2-C , 11-H ) :   0.9517 B(  3-C ,  4-C ) :   0.8551
B(  3-C ,  8-O ) :   0.9830 B(  3-C , 12-H ) :   0.9343 B(  4-C ,  5-C ) :   0.8936
B(  4-C , 13-H ) :   0.9126 B(  4-C , 14-H ) :   0.9138 B(  5-C ,  6-C ) :   0.8638
B(  6-C ,  7-C ) :   0.9665 B(  6-C , 15-H ) :   0.9283 B(  6-C , 16-H ) :   0.9113
B(  7-C ,  8-O ) :   0.9098 B(  7-C , 17-H ) :   0.9249 B(  7-C , 18-H ) :   0.9279

MP2 TOTAL ENERGY:     -422.201124557 Eh
FINAL SINGLE POINT ENERGY      -422.201124557037

DIPOLE MOMENT
-------------
                                X             Y             Z
Electronic contribution:      2.88866       0.18518       1.12728
Nuclear contribution   :     -3.68729      -0.22128      -1.05694
                        -----------------------------------------
Total Dipole Moment    :     -0.79863      -0.03610       0.07034
                        -----------------------------------------
Magnitude (a.u.)       :      0.80253
Magnitude (Debye)      :      2.03988

                             ****ORCA TERMINATED NORMALLY****
TOTAL RUN TIME: 0 days 0 hours 19 minutes 52 seconds 489 msec
