                         Program Version 3.0.3 - RELEASE   -
|  1> ! RI-MP2 RIJK def2-TZVP def2-TZVP/C def2-TZVP/JK TIGHTSCF
|  2> % maxcore 2000
|  3> % mp2 density relaxed end
|  4> *xyz 0 1
|  5>  C        0.9385930673     0.6837395776    -1.1206032298
|  6>  C        0.1016564458     0.3539238014     0.1212324296
|  7>  C        0.8942338751    -0.3096083729     1.2696358632
|  8>  C        0.1952137846    -0.1648312376     2.6535996378
|  9>  C        0.3283286920     1.2693785743     3.1929387639
| 10>  C       -1.2755314751    -0.6128616567     2.6742548616
| 11>  C        1.2957477514    -1.7540276546     0.8948163178
| 12>  C        2.1954774405    -2.4545652720     1.9161650063
| 13>  O        0.1048680071    -2.5109021572     0.6619910767
| 14>  H        1.3478495119    -0.2134825359    -1.5955869504
| 15>  H        0.3311852923     1.1973574864    -1.8727938065
| 16>  H        1.7805179018     1.3398203309    -0.8705575407
| 17>  H       -0.3466158195     1.2833553553     0.4885470889
| 18>  H       -0.7279123837    -0.3013346965    -0.1610678469
| 19>  H        1.8517955048     0.2258059847     1.3572070924
| 20>  H        0.7401886896    -0.8069305087     3.3562513044
| 21>  H        1.3765659825     1.5832176398     3.2478575732
| 22>  H       -0.2036149606     1.9931929568     2.5657382672
| 23>  H       -0.0955212695     1.3425426849     4.2001650990
| 24>  H       -1.3825851932    -1.6381292223     2.3181932596
| 25>  H       -1.6750824899    -0.5494011647     3.6925197385
| 26>  H       -1.8970284469     0.0301812230     2.0415838637
| 27>  H        1.8647285103    -1.6870468103    -0.0464639660
| 28>  H        1.6639436750    -2.6543050266     2.8501757878
| 29>  H        2.5427958216    -3.4157493863     1.5185202557
| 30>  H        3.0828024741    -1.8530910455     2.1400980011
| 31>  H        0.3648115608    -3.4019528574     0.4088187118
| 32> *
| 33>
| 34>                          ****END OF INPUT****

CARTESIAN COORDINATES (ANGSTROEM)
---------------------------------
  C      0.938593    0.683740   -1.120603
  C      0.101656    0.353924    0.121232
  C      0.894234   -0.309608    1.269636
  C      0.195214   -0.164831    2.653600
  C      0.328329    1.269379    3.192939
  C     -1.275531   -0.612862    2.674255
  C      1.295748   -1.754028    0.894816
  C      2.195477   -2.454565    1.916165
  O      0.104868   -2.510902    0.661991
  H      1.347850   -0.213483   -1.595587
  H      0.331185    1.197357   -1.872794
  H      1.780518    1.339820   -0.870558
  H     -0.346616    1.283355    0.488547
  H     -0.727912   -0.301335   -0.161068
  H      1.851796    0.225806    1.357207
  H      0.740189   -0.806931    3.356251
  H      1.376566    1.583218    3.247858
  H     -0.203615    1.993193    2.565738
  H     -0.095521    1.342543    4.200165
  H     -1.382585   -1.638129    2.318193
  H     -1.675082   -0.549401    3.692520
  H     -1.897028    0.030181    2.041584
  H      1.864729   -1.687047   -0.046464
  H      1.663944   -2.654305    2.850176
  H      2.542796   -3.415749    1.518520
  H      3.082802   -1.853091    2.140098
  H      0.364812   -3.401953    0.408819

 Total Charge           Charge          ....    0
 Multiplicity           Mult            ....    1
 Number of Electrons    NEL             ....   74
 Basis Dimension        Dim             ....  387

ORBITAL ENERGIES
----------------

  NO   OCC          E(Eh)            E(eV)
   0   2.0000     -20.549896      -559.1911
   1   2.0000     -11.276158      -306.8399
   2   2.0000     -11.219423      -305.2960
   3   2.0000     -11.217763      -305.2508
   4   2.0000     -11.217186      -305.2351
   5   2.0000     -11.207645      -304.9755
   6   2.0000     -11.206948      -304.9565
   7   2.0000     -11.204730      -304.8962
   8   2.0000     -11.193927      -304.6022
   9   2.0000      -1.356456       -36.9110
  10   2.0000      -1.097014       -29.8513
  11   2.0000      -1.023874       -27.8610
  12   2.0000      -1.006190       -27.3798
  13   2.0000      -0.919880       -25.0312
  14   2.0000      -0.916257       -24.9326
  15   2.0000      -0.831606       -22.6292
  16   2.0000      -0.809351       -22.0236
  17   2.0000      -0.729358       -19.8468
  18   2.0000      -0.691459       -18.8155
  19   2.0000      -0.633783       -17.2461
  20   2.0000      -0.621628       -16.9154
  21   2.0000      -0.599711       -16.3190
  22   2.0000      -0.586524       -15.9601
  23   2.0000      -0.579199       -15.7608
  24   2.0000      -0.557074       -15.1587
  25   2.0000      -0.542978       -14.7752
  26   2.0000      -0.540084       -14.6964
  27   2.0000      -0.526595       -14.3294
  28   2.0000      -0.515227       -14.0200
  29   2.0000      -0.503180       -13.6922
  30   2.0000      -0.495786       -13.4910
  31   2.0000      -0.481537       -13.1033
  32   2.0000      -0.468453       -12.7472
  33   2.0000      -0.451538       -12.2870
  34   2.0000      -0.444407       -12.0929
  35   2.0000      -0.426829       -11.6146
  36   2.0000      -0.414161       -11.2699
  37   0.0000       0.125760         3.4221
  38   0.0000       0.151003         4.1090
  39   0.0000       0.155488         4.2311
  40   0.0000       0.167808         4.5663
  41   0.0000       0.184636         5.0242

MULLIKEN ATOMIC CHARGES
-----------------------
   0 C :   -0.414537
   1 C :   -0.245430
   2 C :    0.018724
   3 C :   -0.047354
   4 C :   -0.400738
   5 C :   -0.423084
   6 C :    0.077683
   7 C :   -0.445678
   8 O :   -0.480029
   9 H :    0.126492
  10 H :    0.134208
  11 H :    0.120492
  12 H :    0.111701
  13 H :    0.141958
  14 H :    0.079690
  15 H :    0.079378
  16 H :    0.124657
  17 H :    0.120363
  18 H :    0.130188
  19 H :    0.154501
  20 H :    0.122851
  21 H :    0.122365
  22 H :    0.080365
  23 H :    0.146097
  24 H :    0.128161
  25 H :    0.128573
  26 H :    0.308403
Sum of atomic charges:    0.0000000

LOEWDIN ATOMIC CHARGES
----------------------
   0 C :   -0.320826
   1 C :   -0.267208
   2 C :   -0.220876
   3 C :   -0.278508
   4 C :   -0.296689
   5 C :   -0.295950
   6 C :   -0.348223
   7 C :   -0.307599
   8 O :   -0.020270
   9 H :    0.117196
  10 H :    0.121032
  11 H :    0.119071
  12 H :    0.136306
  13 H :    0.143759
  14 H :    0.160003
  15 H :    0.151251
  16 H :    0.119902
  17 H :    0.119557
  18 H :    0.122385
  19 H :    0.126249
  20 H :    0.119656
  21 H :    0.122434
  22 H :    0.135456
  23 H :    0.123213
  24 H :    0.119514
  25 H :    0.127652
  26 H :    0.171513

  Mayer bond orders larger than 0.1
B(  0-C ,  1-C ) :   0.9090 B(  0-C ,  9-H ) :   0.9432 B(  0-C , 10-H ) :   0.9434
B(  0-C , 11-H ) :   0.9384 B(  1-C ,  2-C ) :   0.8935 B(  1-C , 12-H ) :   0.9382
B(  1-C , 13-H ) :   0.9300 B(  2-C ,  3-C ) :   0.8906 B(  2-C ,  6-C ) :   0.8949
B(  2-C , 14-H ) :   0.9304 B(  3-C ,  4-C ) :   0.9141 B(  3-C ,  5-C ) :   0.9195
B(  3-C , 15-H ) :   0.9339 B(  4-C , 16-H ) :   0.9401 B(  4-C , 17-H ) :   0.9337
B(  4-C , 18-H ) :   0.9423 B(  5-C , 19-H ) :   0.9318 B(  5-C , 20-H ) :   0.9380
B(  5-C , 21-H ) :   0.9314 B(  6-C ,  7-C ) :   0.9060 B(  6-C ,  8-O ) :   0.9526
B(  6-C , 22-H ) :   0.9284 B(  7-C , 23-H ) :   0.9425 B(  7-C , 24-H ) :   0.9346
B(  7-C , 25-H ) :   0.9331 B(  8-O , 26-H ) :   0.8462

MP2 TOTAL ENERGY:     -390.031120080 Eh
FINAL SINGLE POINT ENERGY      -390.031120080006

DIPOLE MOMENT
-------------
                                X             Y             Z
Electronic contribution:     -0.52101      -4.08414      -1.31902
Nuclear contribution   :      1.07136       3.75960       1.24938
                        -----------------------------------------
Total Dipole Moment    :      0.55034      -0.32454      -0.06964
                        -----------------------------------------
Magnitude (a.u.)       :      0.64269
Magnitude (Debye)      :      1.63359

                             ****ORCA TERMINATED NORMALLY****
TOTAL RUN TIME: 0 days 0 hours 24 minutes 40 seconds 632 msec
