                         Program Version 3.0.3 - RELEASE   -
|  1> ! RI-MP2 RIJK def2-TZVP def2-TZVP/C def2-TZVP/JK TIGHTSCF
|  2> % maxcore 2000
|  3> % mp2 density relaxed end
|  4> *xyz 0 1
|  5>  C       -0.4932479567     1.4318845670    -0.0212384213
|  6>  C       -0.0042283167    -0.0245598161    -0.0550952228
|  7>  C        0.9607555290    -0.2831028002    -1.1884981681
|  8>  C        2.1152745973    -0.8135755052    -0.7921366813
|  9>  C        2.1816769327    -1.0054326109     0.7010027817
| 10>  O        3.3020263329    -0.3501422785     1.2952569874
| 11>  C        0.7966774045    -0.5041719956     1.1772318437
| 12>  C        0.7001017109     0.1651030890     2.5275115142
| 13>  C        0.1145224979    -1.2054261460     2.3250130768
| 14>  H        0.3390576577     2.1249496977     0.1386904241
| 15>  H       -0.9764375803     1.6966554743    -0.9679392087
| 16>  H       -1.2262356210     1.5922040522     0.7757773397
| 17>  H       -0.8895007264    -0.6642460192    -0.1862013605
| 18>  H        0.7001164865    -0.0496087677    -2.2164971029
| 19>  H        2.9491742590    -1.0790754040    -1.4324266281
| 20>  H        2.3325949101    -2.0580066048     0.9699340702
| 21>  H        3.2505008857     0.5792001586     1.0436019751
| 22>  H        1.6219360296     0.2477511694     3.0921747913
| 23>  H        0.0201852433     1.0014505782     2.6451568452
| 24>  H       -0.9669234797    -1.2995539501     2.2916427504
| 25>  H        0.6213725136    -2.0527935682     2.7768076638
| 26> *
| 27>
| 28>                          ****END OF INPUT****

CARTESIAN COORDINATES (ANGSTROEM)
---------------------------------
  C     -0.493248    1.431885   -0.021238
  C     -0.004228   -0.024560   -0.055095
  C      0.960756   -0.283103   -1.188498
  C      2.115275   -0.813576   -0.792137
  C      2.181677   -1.005433    0.701003
  O      3.302026   -0.350142    1.295257
  C      0.796677   -0.504172    1.177232
  C      0.700102    0.165103    2.527512
  C      0.114522   -1.205426    2.325013
  H      0.339058    2.124950    0.138690
  H     -0.976438    1.696655   -0.967939
  H     -1.226236    1.592204    0.775777
  H     -0.889501   -0.664246   -0.186201
  H      0.700116   -0.049609   -2.216497
  H      2.949174   -1.079075   -1.432427
  H      2.332595   -2.058007    0.969934
  H      3.250501    0.579200    1.043602
  H      1.621936    0.247751    3.092175
  H      0.020185    1.001451    2.645157
  H     -0.966923   -1.299554    2.291643
  H      0.621373   -2.052794    2.776808

 Total Charge           Charge          ....    0
 Multiplicity           Mult            ....    1
 Number of Electrons    NEL             ....   68
 Basis Dimension        Dim             ....  351

ORBITAL ENERGIES
----------------

  NO   OCC          E(Eh)            E(eV)
   0   2.0000     -20.550260      -559.2010
   1   2.0000     -11.280410      -306.9556
   2   2.0000     -11.237652      -305.7921
   3   2.0000     -11.233789      -305.6870
   4   2.0000     -11.232786      -305.6596
   5   2.0000     -11.223511      -305.4072
   6   2.0000     -11.223179      -305.3982
   7   2.0000     -11.221344      -305.3483
   8   2.0000     -11.219859      -305.3079
   9   2.0000      -1.355898       -36.8959
  10   2.0000      -1.164211       -31.6798
  11   2.0000      -1.092069       -29.7167
  12   2.0000      -1.008527       -27.4434
  13   2.0000      -0.912158       -24.8211
  14   2.0000      -0.873576       -23.7712
  15   2.0000      -0.822808       -22.3897
  16   2.0000      -0.760986       -20.7075
  17   2.0000      -0.737977       -20.0814
  18   2.0000      -0.687743       -18.7144
  19   2.0000      -0.650313       -17.6959
  20   2.0000      -0.620602       -16.8874
  21   2.0000      -0.612818       -16.6756
  22   2.0000      -0.597787       -16.2666
  23   2.0000      -0.591933       -16.1073
  24   2.0000      -0.555476       -15.1153
  25   2.0000      -0.532944       -14.5021
  26   2.0000      -0.520162       -14.1543
  27   2.0000      -0.508196       -13.8287
  28   2.0000      -0.493265       -13.4224
  29   2.0000      -0.468587       -12.7509
  30   2.0000      -0.432394       -11.7660
  31   2.0000      -0.412644       -11.2286
  32   2.0000      -0.400752       -10.9050
  33   2.0000      -0.359322        -9.7777
  34   0.0000       0.133746         3.6394
  35   0.0000       0.138890         3.7794
  36   0.0000       0.155029         4.2186
  37   0.0000       0.167757         4.5649
  38   0.0000       0.174946         4.7605

MULLIKEN ATOMIC CHARGES
-----------------------
   0 C :   -0.437204
   1 C :    0.087385
   2 C :   -0.181080
   3 C :   -0.233283
   4 C :    0.162904
   5 O :   -0.466464
   6 C :   -0.026099
   7 C :   -0.263868
   8 C :   -0.329399
   9 H :    0.130041
  10 H :    0.134091
  11 H :    0.131283
  12 H :    0.100354
  13 H :    0.128395
  14 H :    0.126519
  15 H :    0.099357
  16 H :    0.309355
  17 H :    0.142943
  18 H :    0.128819
  19 H :    0.125047
  20 H :    0.130904
Sum of atomic charges:    0.0000000

LOEWDIN ATOMIC CHARGES
----------------------
   0 C :   -0.287211
   1 C :   -0.216866
   2 C :   -0.123353
   3 C :   -0.144629
   4 C :   -0.279343
   5 O :   -0.020262
   6 C :   -0.182168
   7 C :   -0.206796
   8 C :   -0.205998
   9 H :    0.124206
  10 H :    0.124331
  11 H :    0.121897
  12 H :    0.159365
  13 H :    0.139866
  14 H :    0.139755
  15 H :    0.148512
  16 H :    0.173472
  17 H :    0.137131
  18 H :    0.131545
  19 H :    0.132466
  20 H :    0.134079

  Mayer bond orders larger than 0.1
B(  0-C ,  1-C ) :   0.8725 B(  0-C ,  9-H ) :   0.9375 B(  0-C , 10-H ) :   0.9374
B(  0-C , 11-H ) :   0.9369 B(  1-C ,  2-C ) :   0.9196 B(  1-C ,  6-C ) :   0.8657
B(  1-C , 12-H ) :   0.9063 B(  2-C ,  3-C ) :   1.7641 B(  2-C , 13-H ) :   0.9248
B(  3-C ,  4-C ) :   0.9635 B(  3-C , 14-H ) :   0.9371 B(  4-C ,  5-O ) :   0.9270
B(  4-C ,  6-C ) :   0.9257 B(  4-C , 15-H ) :   0.9112 B(  5-O , 16-H ) :   0.8417
B(  6-C ,  7-C ) :   0.8586 B(  6-C ,  8-C ) :   0.8513 B(  7-C ,  8-C ) :   0.9442
B(  7-C , 17-H ) :   0.9171 B(  7-C , 18-H ) :   0.9252 B(  8-C , 19-H ) :   0.9247
B(  8-C , 20-H ) :   0.9273

MP2 TOTAL ENERGY:     -386.409345534 Eh
FINAL SINGLE POINT ENERGY      -386.409345533691

DIPOLE MOMENT
-------------
                                X             Y             Z
Electronic contribution:      4.55660      -2.67906      -0.98273
Nuclear contribution   :     -5.11020       2.97783       0.60350
                        -----------------------------------------
Total Dipole Moment    :     -0.55361       0.29877      -0.37923
                        -----------------------------------------
Magnitude (a.u.)       :      0.73455
Magnitude (Debye)      :      1.86707

                             ****ORCA TERMINATED NORMALLY****
TOTAL RUN TIME: 0 days 0 hours 19 minutes 51 seconds 593 msec
