                         Program Version 3.0.3 - RELEASE   -
|  1> ! RI-MP2 RIJK def2-TZVP def2-TZVP/C def2-TZVP/JK TIGHTSCF
|  2> % maxcore 2000
|  3> % mp2 density relaxed end
|  4> *xyz 0 1
|  5>  O        0.0509709293     1.1058148565    -0.6829666642
|  6>  C        0.0603307937    -0.2116387605    -0.1696751368
|  7>  C       -1.3495780718    -0.6474581701     0.1842824218
|  8>  O       -2.2311127134    -0.5324986530    -0.9706455138
|  9>  C       -2.6821892561    -1.8980060981    -0.8293243665
| 10>  C       -1.7105486346    -2.1443598664     0.3605501954
| 11>  N       -1.0159731631    -3.1130300801    -0.4894173323
| 12>  C       -1.8070832908    -2.8733903983    -1.6229846137
| 13>  N       -1.8291300235    -3.2499275239    -2.8265688034
| 14>  H       -0.5849653058     1.1061688634    -1.4092873747
| 15>  H        0.4985921160    -0.9187827243    -0.8899506267
| 16>  H        0.6903834510    -0.2035014777     0.7271447274
| 17>  H       -1.7428645724    -0.0301043749     1.0023009526
| 18>  H       -3.7664237668    -2.0022236844    -0.8294262850
| 19>  H       -1.9856372478    -2.5010576041     1.3521589900
| 20>  H       -0.0340258576    -3.3530663605    -0.4715185551
| 21>  H       -1.0413800961    -3.8597951738    -3.0540093450
| 22> *
| 23>
| 24>                          ****END OF INPUT****

CARTESIAN COORDINATES (ANGSTROEM)
---------------------------------
  O      0.050971    1.105815   -0.682967
  C      0.060331   -0.211639   -0.169675
  C     -1.349578   -0.647458    0.184282
  O     -2.231113   -0.532499   -0.970646
  C     -2.682189   -1.898006   -0.829324
  C     -1.710549   -2.144360    0.360550
  N     -1.015973   -3.113030   -0.489417
  C     -1.807083   -2.873390   -1.622985
  N     -1.829130   -3.249928   -2.826569
  H     -0.584965    1.106169   -1.409287
  H      0.498592   -0.918783   -0.889951
  H      0.690383   -0.203501    0.727145
  H     -1.742865   -0.030104    1.002301
  H     -3.766424   -2.002224   -0.829426
  H     -1.985637   -2.501058    1.352159
  H     -0.034026   -3.353066   -0.471519
  H     -1.041380   -3.859795   -3.054009

 Total Charge           Charge          ....    0
 Multiplicity           Mult            ....    1
 Number of Electrons    NEL             ....   68
 Basis Dimension        Dim             ....  327

ORBITAL ENERGIES
----------------

  NO   OCC          E(Eh)            E(eV)
   0   2.0000     -20.575002      -559.8743
   1   2.0000     -20.560140      -559.4699
   2   2.0000     -15.594503      -424.3480
   3   2.0000     -15.538432      -422.8222
   4   2.0000     -11.325304      -308.1772
   5   2.0000     -11.311662      -307.8060
   6   2.0000     -11.301961      -307.5420
   7   2.0000     -11.295525      -307.3669
   8   2.0000     -11.287954      -307.1608
   9   2.0000      -1.414666       -38.4950
  10   2.0000      -1.364420       -37.1278
  11   2.0000      -1.289212       -35.0812
  12   2.0000      -1.179825       -32.1047
  13   2.0000      -1.024236       -27.8709
  14   2.0000      -0.989919       -26.9371
  15   2.0000      -0.909424       -24.7467
  16   2.0000      -0.820638       -22.3307
  17   2.0000      -0.770004       -20.9529
  18   2.0000      -0.724879       -19.7250
  19   2.0000      -0.716256       -19.4903
  20   2.0000      -0.699939       -19.0463
  21   2.0000      -0.657898       -17.9023
  22   2.0000      -0.641011       -17.4428
  23   2.0000      -0.602827       -16.4037
  24   2.0000      -0.578481       -15.7413
  25   2.0000      -0.573134       -15.5958
  26   2.0000      -0.557408       -15.1678
  27   2.0000      -0.525364       -14.2959
  28   2.0000      -0.493451       -13.4275
  29   2.0000      -0.478333       -13.0161
  30   2.0000      -0.462669       -12.5899
  31   2.0000      -0.439301       -11.9540
  32   2.0000      -0.420684       -11.4474
  33   2.0000      -0.374994       -10.2041
  34   0.0000       0.118470         3.2237
  35   0.0000       0.143483         3.9044
  36   0.0000       0.145047         3.9469
  37   0.0000       0.164384         4.4731
  38   0.0000       0.179561         4.8861

MULLIKEN ATOMIC CHARGES
-----------------------
   0 O :   -0.474172
   1 C :   -0.032970
   2 C :    0.063897
   3 O :   -0.348141
   4 C :    0.130326
   5 C :   -0.017619
   6 N :   -0.354657
   7 C :    0.037069
   8 N :   -0.359788
   9 H :    0.333448
  10 H :    0.093337
  11 H :    0.114112
  12 H :    0.096361
  13 H :    0.129489
  14 H :    0.143041
  15 H :    0.234750
  16 H :    0.211517
Sum of atomic charges:    0.0000000

LOEWDIN ATOMIC CHARGES
----------------------
   0 O :   -0.037884
   1 C :   -0.335486
   2 C :   -0.269208
   3 O :    0.155217
   4 C :   -0.179657
   5 C :   -0.203694
   6 N :    0.110844
   7 C :   -0.357385
   8 N :   -0.062070
   9 H :    0.182310
  10 H :    0.117473
  11 H :    0.132665
  12 H :    0.143627
  13 H :    0.136844
  14 H :    0.135425
  15 H :    0.166335
  16 H :    0.164644

  Mayer bond orders larger than 0.1
B(  0-O ,  1-C ) :   0.9295 B(  0-O ,  9-H ) :   0.8299 B(  1-C ,  2-C ) :   0.9476
B(  1-C , 10-H ) :   0.9110 B(  1-C , 11-H ) :   0.9249 B(  2-C ,  3-O ) :   0.8947
B(  2-C ,  5-C ) :   0.9270 B(  2-C , 12-H ) :   0.9101 B(  3-O ,  4-C ) :   0.9305
B(  4-C ,  5-C ) :   0.9227 B(  4-C ,  7-C ) :   0.8324 B(  4-C , 13-H ) :   0.9243
B(  5-C ,  6-N ) :   0.9498 B(  5-C , 14-H ) :   0.9209 B(  6-N ,  7-C ) :   1.0926
B(  6-N , 15-H ) :   0.8613 B(  7-C ,  8-N ) :   2.0826 B(  8-N , 16-H ) :   0.8506

MP2 TOTAL ENERGY:     -454.362403669 Eh
FINAL SINGLE POINT ENERGY      -454.362403668967

DIPOLE MOMENT
-------------
                                X             Y             Z
Electronic contribution:     -2.16112      -0.65167      -1.44884
Nuclear contribution   :      2.64982      -0.15514       2.58043
                        -----------------------------------------
Total Dipole Moment    :      0.48870      -0.80681       1.13159
                        -----------------------------------------
Magnitude (a.u.)       :      1.47318
Magnitude (Debye)      :      3.74453

                             ****ORCA TERMINATED NORMALLY****
TOTAL RUN TIME: 0 days 0 hours 25 minutes 16 seconds 736 msec
