                         Program Version 3.0.3 - RELEASE   -
|  1> ! RI-MP2 RIJK def2-TZVP def2-TZVP/C def2-TZVP/JK TIGHTSCF
|  2> % maxcore 2000
|  3> % mp2 density relaxed end
|  4> *xyz 0 1
|  5>  C        0.0594011589     1.5471196215    -0.1088508832
|  6>  C        0.0143388522     0.0299669994    -0.0315920721
|  7>  O        0.6696431911    -0.4837615938    -1.1922339936
|  8>  C        0.3838153315    -1.8559775273    -1.3878015682
|  9>  C        0.8755493951    -2.6968753193    -0.2260560387
| 10>  C        2.2428864429    -2.3911027148     0.3172045383
| 11>  C        1.0099484692    -2.0088034991     1.1143542699
| 12>  C        0.6322017378    -0.5369791391     1.2691846943
| 13>  O        1.7183962569     0.2381725334     1.7632404306
| 14>  H        1.0929928215     1.8973611364    -0.0907656932
| 15>  H       -0.4197356250     1.8884744764    -1.0298425678
| 16>  H       -0.4596752599     1.9894905171     0.7462850433
| 17>  H       -1.0371522374    -0.3073852684    -0.0562755285
| 18>  H       -0.7020986092    -1.9990326835    -1.5241729973
| 19>  H        0.8803271926    -2.1458831226    -2.3202245403
| 20>  H        0.5453797040    -3.7315470242    -0.2334704241
| 21>  H        2.8565312113    -3.2015733509     0.6929306660
| 22>  H        2.7945899521    -1.6046011024    -0.1897641402
| 23>  H        0.8317677729    -2.6155018015     1.9959802386
| 24>  H       -0.1372661497    -0.4535109046     2.0458612990
| 25>  H        2.5084802811    -0.0383325926     1.2874663272
| 26> *
| 27>
| 28>                          ****END OF INPUT****

CARTESIAN COORDINATES (ANGSTROEM)
---------------------------------
  C      0.059401    1.547120   -0.108851
  C      0.014339    0.029967   -0.031592
  O      0.669643   -0.483762   -1.192234
  C      0.383815   -1.855978   -1.387802
  C      0.875549   -2.696875   -0.226056
  C      2.242886   -2.391103    0.317205
  C      1.009948   -2.008803    1.114354
  C      0.632202   -0.536979    1.269185
  O      1.718396    0.238173    1.763240
  H      1.092993    1.897361   -0.090766
  H     -0.419736    1.888474   -1.029843
  H     -0.459675    1.989491    0.746285
  H     -1.037152   -0.307385   -0.056276
  H     -0.702099   -1.999033   -1.524173
  H      0.880327   -2.145883   -2.320225
  H      0.545380   -3.731547   -0.233470
  H      2.856531   -3.201573    0.692931
  H      2.794590   -1.604601   -0.189764
  H      0.831768   -2.615502    1.995980
  H     -0.137266   -0.453511    2.045861
  H      2.508480   -0.038333    1.287466

 Total Charge           Charge          ....    0
 Multiplicity           Mult            ....    1
 Number of Electrons    NEL             ....   70
 Basis Dimension        Dim             ....  351

ORBITAL ENERGIES
----------------

  NO   OCC          E(Eh)            E(eV)
   0   2.0000     -20.554661      -559.3208
   1   2.0000     -20.548754      -559.1600
   2   2.0000     -11.281182      -306.9766
   3   2.0000     -11.278928      -306.9152
   4   2.0000     -11.277058      -306.8643
   5   2.0000     -11.239358      -305.8385
   6   2.0000     -11.237967      -305.8006
   7   2.0000     -11.230988      -305.6107
   8   2.0000     -11.206671      -304.9490
   9   2.0000      -1.381836       -37.6017
  10   2.0000      -1.353697       -36.8360
  11   2.0000      -1.153307       -31.3831
  12   2.0000      -1.045932       -28.4613
  13   2.0000      -0.944290       -25.6954
  14   2.0000      -0.934087       -25.4178
  15   2.0000      -0.825973       -22.4759
  16   2.0000      -0.808020       -21.9873
  17   2.0000      -0.754992       -20.5444
  18   2.0000      -0.716208       -19.4890
  19   2.0000      -0.669928       -18.2297
  20   2.0000      -0.646738       -17.5986
  21   2.0000      -0.640993       -17.4423
  22   2.0000      -0.619821       -16.8662
  23   2.0000      -0.597099       -16.2479
  24   2.0000      -0.574474       -15.6322
  25   2.0000      -0.549588       -14.9550
  26   2.0000      -0.528182       -14.3726
  27   2.0000      -0.515260       -14.0210
  28   2.0000      -0.514001       -13.9867
  29   2.0000      -0.496674       -13.5152
  30   2.0000      -0.478629       -13.0242
  31   2.0000      -0.465016       -12.6537
  32   2.0000      -0.420871       -11.4525
  33   2.0000      -0.407770       -11.0960
  34   2.0000      -0.398190       -10.8353
  35   0.0000       0.136425         3.7123
  36   0.0000       0.148018         4.0278
  37   0.0000       0.159198         4.3320
  38   0.0000       0.168716         4.5910
  39   0.0000       0.188809         5.1377

MULLIKEN ATOMIC CHARGES
-----------------------
   0 C :   -0.338518
   1 C :    0.032717
   2 O :   -0.313585
   3 C :   -0.045014
   4 C :   -0.091841
   5 C :   -0.358613
   6 C :   -0.104633
   7 C :    0.051557
   8 O :   -0.459408
   9 H :    0.124577
  10 H :    0.134407
  11 H :    0.120558
  12 H :    0.073977
  13 H :    0.095759
  14 H :    0.123714
  15 H :    0.124781
  16 H :    0.138197
  17 H :    0.146974
  18 H :    0.125215
  19 H :    0.099856
  20 H :    0.319322
Sum of atomic charges:    0.0000000

LOEWDIN ATOMIC CHARGES
----------------------
   0 C :   -0.289138
   1 C :   -0.324586
   2 O :    0.176209
   3 C :   -0.301661
   4 C :   -0.213127
   5 C :   -0.212769
   6 C :   -0.183039
   7 C :   -0.310923
   8 O :   -0.009807
   9 H :    0.126998
  10 H :    0.124684
  11 H :    0.129388
  12 H :    0.139131
  13 H :    0.123350
  14 H :    0.132995
  15 H :    0.148289
  16 H :    0.133030
  17 H :    0.136511
  18 H :    0.149452
  19 H :    0.151294
  20 H :    0.173718

  Mayer bond orders larger than 0.1
B(  0-C ,  1-C ) :   0.9329 B(  0-C ,  9-H ) :   0.9280 B(  0-C , 10-H ) :   0.9400
B(  0-C , 11-H ) :   0.9279 B(  1-C ,  2-O ) :   0.9172 B(  1-C ,  7-C ) :   0.9209
B(  1-C , 12-H ) :   0.9346 B(  2-O ,  3-C ) :   0.9385 B(  3-C ,  4-C ) :   0.9400
B(  3-C , 13-H ) :   0.9359 B(  3-C , 14-H ) :   0.9240 B(  4-C ,  5-C ) :   0.8683
B(  4-C ,  6-C ) :   0.8778 B(  4-C , 15-H ) :   0.9162 B(  5-C ,  6-C ) :   0.8630
B(  5-C , 16-H ) :   0.9291 B(  5-C , 17-H ) :   0.9259 B(  6-C ,  7-C ) :   0.9275
B(  6-C , 18-H ) :   0.9292 B(  7-C ,  8-O ) :   0.9530 B(  7-C , 19-H ) :   0.9235
B(  8-O , 20-H ) :   0.8373

MP2 TOTAL ENERGY:     -423.519541228 Eh
FINAL SINGLE POINT ENERGY      -423.519541227811

DIPOLE MOMENT
-------------
                                X             Y             Z
Electronic contribution:      1.18354      -0.73147       0.54214
Nuclear contribution   :     -1.41324      -0.05536      -0.67261
                        -----------------------------------------
Total Dipole Moment    :     -0.22971      -0.78682      -0.13047
                        -----------------------------------------
Magnitude (a.u.)       :      0.82998
Magnitude (Debye)      :      2.10965

                             ****ORCA TERMINATED NORMALLY****
TOTAL RUN TIME: 0 days 0 hours 18 minutes 38 seconds 965 msec
