                         Program Version 3.0.3 - RELEASE   -
|  1> ! RI-MP2 RIJK def2-TZVP def2-TZVP/C def2-TZVP/JK TIGHTSCF
|  2> % maxcore 2000
|  3> % mp2 density relaxed end
|  4> *xyz 0 1
|  5>  C       -0.0148023736     1.4478367754    -0.1673574145
|  6>  C        0.0825490285    -0.0592858320     0.1038501347
|  7>  C        0.7419106838    -0.3571192104     1.4569825087
|  8>  C       -1.2991184741    -0.6963213040     0.0460719908
|  9>  O       -1.9865440687    -0.5127852556    -1.2324880944
| 10>  C       -2.2775295059    -1.9106392084    -1.2882119292
| 11>  C       -1.0249484819    -2.7164328002    -1.4044425000
| 12>  C       -1.4785260150    -2.2151106843    -0.0448258429
| 13>  H        0.9787502807     1.9072504094    -0.1820990681
| 14>  H       -0.4984625851     1.6378763427    -1.1289263391
| 15>  H       -0.6020007790     1.9488739506     0.6117470353
| 16>  H        0.6929080845    -0.5118155444    -0.6877077110
| 17>  H        1.7434749996     0.0812765231     1.5055976793
| 18>  H        0.1565094152     0.0654806598     2.2824546950
| 19>  H        0.8387586001    -1.4339075332     1.6296850054
| 20>  H       -1.9330997081    -0.2801093226     0.8428985855
| 21>  H       -3.2640153880    -2.2120744086    -1.6203998601
| 22>  H       -1.1669856927    -3.7831506200    -1.5493039593
| 23>  H       -0.1590583109    -2.2960744725    -1.9070171647
| 24>  H       -1.6928642193    -2.8760291645     0.7836196684
| 25> *
| 26>
| 27>                          ****END OF INPUT****

CARTESIAN COORDINATES (ANGSTROEM)
---------------------------------
  C     -0.014802    1.447837   -0.167357
  C      0.082549   -0.059286    0.103850
  C      0.741911   -0.357119    1.456983
  C     -1.299118   -0.696321    0.046072
  O     -1.986544   -0.512785   -1.232488
  C     -2.277530   -1.910639   -1.288212
  C     -1.024948   -2.716433   -1.404443
  C     -1.478526   -2.215111   -0.044826
  H      0.978750    1.907250   -0.182099
  H     -0.498463    1.637876   -1.128926
  H     -0.602001    1.948874    0.611747
  H      0.692908   -0.511816   -0.687708
  H      1.743475    0.081277    1.505598
  H      0.156509    0.065481    2.282455
  H      0.838759   -1.433908    1.629685
  H     -1.933100   -0.280109    0.842899
  H     -3.264015   -2.212074   -1.620400
  H     -1.166986   -3.783151   -1.549304
  H     -0.159058   -2.296074   -1.907017
  H     -1.692864   -2.876029    0.783620

 Total Charge           Charge          ....    0
 Multiplicity           Mult            ....    1
 Number of Electrons    NEL             ....   62
 Basis Dimension        Dim             ....  320

ORBITAL ENERGIES
----------------

  NO   OCC          E(Eh)            E(eV)
   0   2.0000     -20.548550      -559.1545
   1   2.0000     -11.285536      -307.0951
   2   2.0000     -11.283380      -307.0364
   3   2.0000     -11.236101      -305.7498
   4   2.0000     -11.232658      -305.6562
   5   2.0000     -11.225388      -305.4583
   6   2.0000     -11.215681      -305.1942
   7   2.0000     -11.207257      -304.9650
   8   2.0000      -1.387464       -37.7548
   9   2.0000      -1.113924       -30.3114
  10   2.0000      -1.079216       -29.3670
  11   2.0000      -0.934184       -25.4204
  12   2.0000      -0.927702       -25.2441
  13   2.0000      -0.832761       -22.6606
  14   2.0000      -0.789752       -21.4902
  15   2.0000      -0.737676       -20.0732
  16   2.0000      -0.709409       -19.3040
  17   2.0000      -0.646227       -17.5847
  18   2.0000      -0.625777       -17.0283
  19   2.0000      -0.613462       -16.6932
  20   2.0000      -0.562235       -15.2992
  21   2.0000      -0.551575       -15.0091
  22   2.0000      -0.542555       -14.7637
  23   2.0000      -0.534649       -14.5485
  24   2.0000      -0.526402       -14.3241
  25   2.0000      -0.501846       -13.6559
  26   2.0000      -0.474161       -12.9026
  27   2.0000      -0.468053       -12.7364
  28   2.0000      -0.451295       -12.2803
  29   2.0000      -0.398156       -10.8344
  30   2.0000      -0.377667       -10.2768
  31   0.0000       0.139618         3.7992
  32   0.0000       0.158199         4.3048
  33   0.0000       0.164526         4.4770
  34   0.0000       0.173013         4.7079
  35   0.0000       0.196308         5.3418

MULLIKEN ATOMIC CHARGES
-----------------------
   0 C :   -0.399319
   1 C :   -0.014549
   2 C :   -0.431753
   3 C :    0.089470
   4 O :   -0.335592
   5 C :    0.053132
   6 C :   -0.260111
   7 C :   -0.204198
   8 H :    0.129049
   9 H :    0.153266
  10 H :    0.116440
  11 H :    0.074356
  12 H :    0.135891
  13 H :    0.123723
  14 H :    0.137699
  15 H :    0.097307
  16 H :    0.127706
  17 H :    0.128552
  18 H :    0.138672
  19 H :    0.140259
Sum of atomic charges:   -0.0000000

LOEWDIN ATOMIC CHARGES
----------------------
   0 C :   -0.290078
   1 C :   -0.293891
   2 C :   -0.289036
   3 C :   -0.233644
   4 O :    0.162926
   5 C :   -0.250188
   6 C :   -0.211655
   7 C :   -0.181240
   8 H :    0.122550
   9 H :    0.129397
  10 H :    0.123111
  11 H :    0.152350
  12 H :    0.125278
  13 H :    0.123840
  14 H :    0.124749
  15 H :    0.146523
  16 H :    0.129347
  17 H :    0.141706
  18 H :    0.132020
  19 H :    0.135935

  Mayer bond orders larger than 0.1
B(  0-C ,  1-C ) :   0.9178 B(  0-C ,  8-H ) :   0.9384 B(  0-C ,  9-H ) :   0.9356
B(  0-C , 10-H ) :   0.9296 B(  1-C ,  2-C ) :   0.9150 B(  1-C ,  3-C ) :   0.9381
B(  1-C , 11-H ) :   0.9161 B(  2-C , 12-H ) :   0.9377 B(  2-C , 13-H ) :   0.9318
B(  2-C , 14-H ) :   0.9386 B(  3-C ,  4-O ) :   0.8924 B(  3-C ,  7-C ) :   0.9222
B(  3-C , 15-H ) :   0.9082 B(  4-O ,  5-C ) :   0.9692 B(  5-C ,  6-C ) :   0.8770
B(  5-C ,  7-C ) :   0.9138 B(  5-C , 16-H ) :   0.9267 B(  6-C ,  7-C ) :   0.8803
B(  6-C , 17-H ) :   0.9212 B(  6-C , 18-H ) :   0.9153 B(  7-C , 19-H ) :   0.9159

MP2 TOTAL ENERGY:     -348.358417612 Eh
FINAL SINGLE POINT ENERGY      -348.358417611939

DIPOLE MOMENT
-------------
                                X             Y             Z
Electronic contribution:     -5.26637      -2.70319      -3.62316
Nuclear contribution   :      5.42069       2.18355       4.01596
                        -----------------------------------------
Total Dipole Moment    :      0.15432      -0.51963       0.39280
                        -----------------------------------------
Magnitude (a.u.)       :      0.66942
Magnitude (Debye)      :      1.70153

                             ****ORCA TERMINATED NORMALLY****
TOTAL RUN TIME: 0 days 0 hours 13 minutes 3 seconds 227 msec
