                         Program Version 3.0.3 - RELEASE   -
|  1> ! RI-MP2 RIJK def2-TZVP def2-TZVP/C def2-TZVP/JK TIGHTSCF
|  2> % maxcore 2000
|  3> % mp2 density relaxed end
|  4> *xyz 0 1
|  5>  C        0.3530366526     1.3441800431     0.3365645679
|  6>  C        0.3296253072    -0.1626858920     0.0562178440
|  7>  C        0.6817525942    -0.5193601364    -1.3914421121
|  8>  O       -0.2330436668     0.0666912111    -2.3065399221
|  9>  C        2.1943492201    -0.3700243038    -1.7687223079
| 10>  C        2.3516516243    -1.9204948942    -1.7714650470
| 11>  C        3.1315520529    -2.5096431914    -0.6010509789
| 12>  C        0.7928999625    -2.0382198953    -1.6764174050
| 13>  O        0.2336453706    -2.8601197062    -0.6758912656
| 14>  H        1.3276036697     1.7879042497     0.1036010266
| 15>  H       -0.4091313870     1.8773700101    -0.2434599558
| 16>  H        0.1435854352     1.5453439666     1.3911409863
| 17>  H        1.0236174210    -0.6718080377     0.7322312366
| 18>  H       -0.6632947272    -0.5693693961     0.2720041943
| 19>  H       -0.1994732336     1.0224096380    -2.1947021739
| 20>  H        2.3173011446     0.0820458461    -2.7552393156
| 21>  H        2.8212792479     0.1655753439    -1.0500224331
| 22>  H        2.7537544550    -2.3178739472    -2.7082938580
| 23>  H        2.7654721655    -2.1428890275     0.3618649041
| 24>  H        3.0537692671    -3.6019604417    -0.5814388476
| 25>  H        4.1930008777    -2.2510557559    -0.6797858223
| 26>  H        0.3459382709    -2.2428061696    -2.6570737944
| 27>  H        0.2297367056    -3.7672686636    -0.9947650706
| 28> *
| 29>
| 30>                          ****END OF INPUT****

CARTESIAN COORDINATES (ANGSTROEM)
---------------------------------
  C      0.353037    1.344180    0.336565
  C      0.329625   -0.162686    0.056218
  C      0.681753   -0.519360   -1.391442
  O     -0.233044    0.066691   -2.306540
  C      2.194349   -0.370024   -1.768722
  C      2.351652   -1.920495   -1.771465
  C      3.131552   -2.509643   -0.601051
  C      0.792900   -2.038220   -1.676417
  O      0.233645   -2.860120   -0.675891
  H      1.327604    1.787904    0.103601
  H     -0.409131    1.877370   -0.243460
  H      0.143585    1.545344    1.391141
  H      1.023617   -0.671808    0.732231
  H     -0.663295   -0.569369    0.272004
  H     -0.199473    1.022410   -2.194702
  H      2.317301    0.082046   -2.755239
  H      2.821279    0.165575   -1.050022
  H      2.753754   -2.317874   -2.708294
  H      2.765472   -2.142889    0.361865
  H      3.053769   -3.601960   -0.581439
  H      4.193001   -2.251056   -0.679786
  H      0.345938   -2.242806   -2.657074
  H      0.229737   -3.767269   -0.994765

 Total Charge           Charge          ....    0
 Multiplicity           Mult            ....    1
 Number of Electrons    NEL             ....   72
 Basis Dimension        Dim             ....  363

ORBITAL ENERGIES
----------------

  NO   OCC          E(Eh)            E(eV)
   0   2.0000     -20.555084      -559.3323
   1   2.0000     -20.549103      -559.1695
   2   2.0000     -11.277097      -306.8654
   3   2.0000     -11.270440      -306.6843
   4   2.0000     -11.224714      -305.4400
   5   2.0000     -11.217644      -305.2476
   6   2.0000     -11.215829      -305.1982
   7   2.0000     -11.214792      -305.1700
   8   2.0000     -11.212722      -305.1137
   9   2.0000      -1.367992       -37.2250
  10   2.0000      -1.352559       -36.8050
  11   2.0000      -1.118310       -30.4308
  12   2.0000      -1.032802       -28.1040
  13   2.0000      -0.968286       -26.3484
  14   2.0000      -0.894588       -24.3430
  15   2.0000      -0.874099       -23.7854
  16   2.0000      -0.795434       -21.6449
  17   2.0000      -0.735813       -20.0225
  18   2.0000      -0.694910       -18.9095
  19   2.0000      -0.673972       -18.3397
  20   2.0000      -0.653051       -17.7704
  21   2.0000      -0.612304       -16.6616
  22   2.0000      -0.607832       -16.5399
  23   2.0000      -0.599403       -16.3106
  24   2.0000      -0.562009       -15.2930
  25   2.0000      -0.547574       -14.9003
  26   2.0000      -0.535045       -14.5593
  27   2.0000      -0.530415       -14.4333
  28   2.0000      -0.512076       -13.9343
  29   2.0000      -0.507728       -13.8160
  30   2.0000      -0.498234       -13.5576
  31   2.0000      -0.470923       -12.8145
  32   2.0000      -0.469962       -12.7883
  33   2.0000      -0.424810       -11.5597
  34   2.0000      -0.416457       -11.3324
  35   2.0000      -0.398340       -10.8394
  36   0.0000       0.129184         3.5153
  37   0.0000       0.136454         3.7131
  38   0.0000       0.166146         4.5211
  39   0.0000       0.167878         4.5682
  40   0.0000       0.190876         5.1940

MULLIKEN ATOMIC CHARGES
-----------------------
   0 C :   -0.429634
   1 C :   -0.255709
   2 C :    0.221660
   3 O :   -0.469802
   4 C :   -0.254206
   5 C :   -0.035987
   6 C :   -0.422298
   7 C :    0.034352
   8 O :   -0.453913
   9 H :    0.131721
  10 H :    0.117664
  11 H :    0.142030
  12 H :    0.109083
  13 H :    0.132417
  14 H :    0.313406
  15 H :    0.115969
  16 H :    0.109325
  17 H :    0.100072
  18 H :    0.131682
  19 H :    0.112895
  20 H :    0.132629
  21 H :    0.100957
  22 H :    0.315687
Sum of atomic charges:    0.0000000

LOEWDIN ATOMIC CHARGES
----------------------
   0 C :   -0.322746
   1 C :   -0.255432
   2 C :   -0.337818
   3 O :    0.006847
   4 C :   -0.186984
   5 C :   -0.240089
   6 C :   -0.300715
   7 C :   -0.269485
   8 O :   -0.005467
   9 H :    0.120450
  10 H :    0.115977
  11 H :    0.124924
  12 H :    0.143177
  13 H :    0.147108
  14 H :    0.171575
  15 H :    0.134265
  16 H :    0.130874
  17 H :    0.140087
  18 H :    0.123295
  19 H :    0.121135
  20 H :    0.124052
  21 H :    0.138099
  22 H :    0.176872

  Mayer bond orders larger than 0.1
B(  0-C ,  1-C ) :   0.8934 B(  0-C ,  9-H ) :   0.9366 B(  0-C , 10-H ) :   0.9408
B(  0-C , 11-H ) :   0.9435 B(  1-C ,  2-C ) :   0.9425 B(  1-C , 12-H ) :   0.9147
B(  1-C , 13-H ) :   0.9327 B(  2-C ,  3-O ) :   0.9741 B(  2-C ,  4-C ) :   0.9278
B(  2-C ,  7-C ) :   0.8665 B(  3-O , 14-H ) :   0.8419 B(  4-C ,  5-C ) :   0.9272
B(  4-C , 15-H ) :   0.9013 B(  4-C , 16-H ) :   0.9153 B(  5-C ,  6-C ) :   0.8978
B(  5-C ,  7-C ) :   0.9040 B(  5-C ,  8-O ) :  -0.1098 B(  5-C , 17-H ) :   0.9195
B(  6-C , 18-H ) :   0.9297 B(  6-C , 19-H ) :   0.9399 B(  6-C , 20-H ) :   0.9422
B(  7-C ,  8-O ) :   1.1316 B(  7-C , 21-H ) :   0.9569 B(  8-O , 22-H ) :   0.8449

MP2 TOTAL ENERGY:     -424.721990532 Eh
FINAL SINGLE POINT ENERGY      -424.721990532049

DIPOLE MOMENT
-------------
                                X             Y             Z
Electronic contribution:     -4.04812      -2.71259      -3.89716
Nuclear contribution   :      4.53128       2.70958       3.85718
                        -----------------------------------------
Total Dipole Moment    :      0.48316      -0.00302      -0.03997
                        -----------------------------------------
Magnitude (a.u.)       :      0.48482
Magnitude (Debye)      :      1.23232

                             ****ORCA TERMINATED NORMALLY****
TOTAL RUN TIME: 0 days 0 hours 19 minutes 32 seconds 621 msec
