                         Program Version 3.0.3 - RELEASE   -
|  1> ! RI-MP2 RIJK def2-TZVP def2-TZVP/C def2-TZVP/JK TIGHTSCF
|  2> % maxcore 2000
|  3> % mp2 density relaxed end
|  4> *xyz 0 1
|  5>  C       -0.1183514331     1.4658505223     0.0330798770
|  6>  C       -0.0164735546     0.0169191798     0.0144312864
|  7>  C        0.0651602125    -1.1864716618    -0.0010515585
|  8>  C        0.1647855093    -2.5895109597    -0.0187177872
|  9>  C        1.2284318136    -3.4445521489     0.0321008271
| 10>  C        0.6402729593    -4.7377108079    -0.0257957678
| 11>  C        1.3136029304    -6.0724959048    -0.0069733003
| 12>  N       -0.6698382555    -4.6593406544    -0.1049046544
| 13>  O       -0.9822237484    -3.3081834635    -0.1013051546
| 14>  H        0.8725847634     1.9298380224    -0.0134583538
| 15>  H       -0.7006546529     1.8304785524    -0.8201898994
| 16>  H       -0.6102073613     1.8153415685     0.9475875954
| 17>  H        2.2712519102    -3.1847496787     0.1005051020
| 18>  H        1.8956451763    -6.2045197338     0.9108448966
| 19>  H        0.5678653601    -6.8673919541    -0.0656788248
| 20>  H        2.0030546509    -6.1751820079    -0.8511956938
| 21> *
| 22>
| 23>                          ****END OF INPUT****

CARTESIAN COORDINATES (ANGSTROEM)
---------------------------------
  C     -0.118351    1.465851    0.033080
  C     -0.016474    0.016919    0.014431
  C      0.065160   -1.186472   -0.001052
  C      0.164786   -2.589511   -0.018718
  C      1.228432   -3.444552    0.032101
  C      0.640273   -4.737711   -0.025796
  C      1.313603   -6.072496   -0.006973
  N     -0.669838   -4.659341   -0.104905
  O     -0.982224   -3.308183   -0.101305
  H      0.872585    1.929838   -0.013458
  H     -0.700655    1.830479   -0.820190
  H     -0.610207    1.815342    0.947588
  H      2.271252   -3.184750    0.100505
  H      1.895645   -6.204520    0.910845
  H      0.567865   -6.867392   -0.065679
  H      2.003055   -6.175182   -0.851196

 Total Charge           Charge          ....    0
 Multiplicity           Mult            ....    1
 Number of Electrons    NEL             ....   64
 Basis Dimension        Dim             ....  321

ORBITAL ENERGIES
----------------

  NO   OCC          E(Eh)            E(eV)
   0   2.0000     -20.638202      -561.5940
   1   2.0000     -15.613222      -424.8574
   2   2.0000     -11.332605      -308.3759
   3   2.0000     -11.282851      -307.0220
   4   2.0000     -11.263036      -306.4828
   5   2.0000     -11.259425      -306.3845
   6   2.0000     -11.241452      -305.8955
   7   2.0000     -11.238893      -305.8258
   8   2.0000     -11.238787      -305.8229
   9   2.0000      -1.487691       -40.4821
  10   2.0000      -1.171725       -31.8842
  11   2.0000      -1.104134       -30.0450
  12   2.0000      -1.061262       -28.8784
  13   2.0000      -0.983123       -26.7521
  14   2.0000      -0.977434       -26.5973
  15   2.0000      -0.853918       -23.2363
  16   2.0000      -0.791857       -21.5475
  17   2.0000      -0.734853       -19.9964
  18   2.0000      -0.659502       -17.9460
  19   2.0000      -0.657460       -17.8904
  20   2.0000      -0.633854       -17.2481
  21   2.0000      -0.604673       -16.4540
  22   2.0000      -0.603504       -16.4222
  23   2.0000      -0.589226       -16.0337
  24   2.0000      -0.582219       -15.8430
  25   2.0000      -0.554094       -15.0777
  26   2.0000      -0.543838       -14.7986
  27   2.0000      -0.478430       -13.0187
  28   2.0000      -0.444903       -12.1064
  29   2.0000      -0.408731       -11.1221
  30   2.0000      -0.399099       -10.8600
  31   2.0000      -0.333967        -9.0877
  32   0.0000       0.091812         2.4983
  33   0.0000       0.129232         3.5166
  34   0.0000       0.141487         3.8501
  35   0.0000       0.166738         4.5372
  36   0.0000       0.180850         4.9212

MULLIKEN ATOMIC CHARGES
-----------------------
   0 C :   -0.465330
   1 C :    0.064387
   2 C :    0.070202
   3 C :    0.040352
   4 C :   -0.242047
   5 C :    0.099453
   6 C :   -0.450240
   7 N :   -0.120347
   8 O :   -0.108464
   9 H :    0.167088
  10 H :    0.169835
  11 H :    0.169201
  12 H :    0.150760
  13 H :    0.147124
  14 H :    0.160898
  15 H :    0.147129
Sum of atomic charges:   -0.0000000

LOEWDIN ATOMIC CHARGES
----------------------
   0 C :   -0.286690
   1 C :   -0.059087
   2 C :   -0.046694
   3 C :   -0.268114
   4 C :   -0.123993
   5 C :   -0.303775
   6 C :   -0.266927
   7 N :    0.058333
   8 O :    0.301072
   9 H :    0.145109
  10 H :    0.145669
  11 H :    0.145285
  12 H :    0.151216
  13 H :    0.134744
  14 H :    0.139103
  15 H :    0.134747

  Mayer bond orders larger than 0.1
B(  0-C ,  1-C ) :   0.8560 B(  0-C ,  9-H ) :   0.9426 B(  0-C , 10-H ) :   0.9409
B(  0-C , 11-H ) :   0.9411 B(  1-C ,  2-C ) :   2.6130 B(  1-C ,  3-C ) :  -0.1432
B(  2-C ,  3-C ) :   1.1396 B(  3-C ,  4-C ) :   1.4677 B(  3-C ,  8-O ) :   1.1170
B(  4-C ,  5-C ) :   1.2225 B(  4-C , 12-H ) :   0.9155 B(  5-C ,  6-C ) :   0.8463
B(  5-C ,  7-N ) :   1.6204 B(  6-C , 13-H ) :   0.9325 B(  6-C , 14-H ) :   0.9532
B(  6-C , 15-H ) :   0.9324 B(  7-N ,  8-O ) :   0.8950

MP2 TOTAL ENERGY:     -400.020791001 Eh
FINAL SINGLE POINT ENERGY      -400.020791000825

DIPOLE MOMENT
-------------
                                X             Y             Z
Electronic contribution:     -3.70904      -1.50412      -0.25462
Nuclear contribution   :      4.77065       2.27096       0.33239
                        -----------------------------------------
Total Dipole Moment    :      1.06161       0.76684       0.07777
                        -----------------------------------------
Magnitude (a.u.)       :      1.31191
Magnitude (Debye)      :      3.33462

                             ****ORCA TERMINATED NORMALLY****
TOTAL RUN TIME: 0 days 0 hours 13 minutes 25 seconds 884 msec
