                         Program Version 3.0.3 - RELEASE   -
|  1> ! RI-MP2 RIJK def2-TZVP def2-TZVP/C def2-TZVP/JK TIGHTSCF
|  2> % maxcore 2000
|  3> % mp2 density relaxed end
|  4> *xyz 0 1
|  5>  C       -0.2993479178     1.4964942850     0.1915490813
|  6>  C        0.2760744043     0.1283262333    -0.1987138285
|  7>  C        1.0196007073    -0.5046189181     0.9527820536
|  8>  O        0.2495797997    -1.0348687583     2.0347268175
|  9>  C        1.0539755702    -1.9556598097     1.2671803182
| 10>  C        0.2967742390    -2.9997951257     0.4717207333
| 11>  C        2.2206774075    -2.4636093941     1.9583343416
| 12>  C        3.1883571836    -2.9130056304     2.5122359207
| 13>  H        0.4930808280     2.1869023017     0.4997648551
| 14>  H       -0.8325732627     1.9513328385    -0.6481325788
| 15>  H       -0.9986921342     1.3943999341     1.0265407976
| 16>  H       -0.5307367613    -0.5273555925    -0.5366727541
| 17>  H        0.9732041041     0.2400550553    -1.0390943388
| 18>  H        1.8885747296     0.0670462905     1.2878729414
| 19>  H       -0.5947181505    -2.5746608567     0.0095718001
| 20>  H        0.9373788575    -3.4250239376    -0.3068258848
| 21>  H       -0.0140701588    -3.8130686173     1.1339097044
| 22>  H        4.0436255446    -3.2999655380     3.0089177902
| 23> *
| 24>
| 25>                          ****END OF INPUT****

CARTESIAN COORDINATES (ANGSTROEM)
---------------------------------
  C     -0.299348    1.496494    0.191549
  C      0.276074    0.128326   -0.198714
  C      1.019601   -0.504619    0.952782
  O      0.249580   -1.034869    2.034727
  C      1.053976   -1.955660    1.267180
  C      0.296774   -2.999795    0.471721
  C      2.220677   -2.463609    1.958334
  C      3.188357   -2.913006    2.512236
  H      0.493081    2.186902    0.499765
  H     -0.832573    1.951333   -0.648133
  H     -0.998692    1.394400    1.026541
  H     -0.530737   -0.527356   -0.536673
  H      0.973204    0.240055   -1.039094
  H      1.888575    0.067046    1.287873
  H     -0.594718   -2.574661    0.009572
  H      0.937379   -3.425024   -0.306826
  H     -0.014070   -3.813069    1.133910
  H      4.043626   -3.299966    3.008918

 Total Charge           Charge          ....    0
 Multiplicity           Mult            ....    1
 Number of Electrons    NEL             ....   60
 Basis Dimension        Dim             ....  308

ORBITAL ENERGIES
----------------

  NO   OCC          E(Eh)            E(eV)
   0   2.0000     -20.570604      -559.7546
   1   2.0000     -11.316930      -307.9493
   2   2.0000     -11.292987      -307.2978
   3   2.0000     -11.238259      -305.8086
   4   2.0000     -11.235025      -305.7206
   5   2.0000     -11.231822      -305.6334
   6   2.0000     -11.231781      -305.6323
   7   2.0000     -11.220580      -305.3275
   8   2.0000      -1.415935       -38.5295
   9   2.0000      -1.064065       -28.9547
  10   2.0000      -1.056834       -28.7579
  11   2.0000      -0.999546       -27.1990
  12   2.0000      -0.919400       -25.0181
  13   2.0000      -0.871044       -23.7023
  14   2.0000      -0.797201       -21.6929
  15   2.0000      -0.734883       -19.9972
  16   2.0000      -0.697654       -18.9841
  17   2.0000      -0.647540       -17.6205
  18   2.0000      -0.627858       -17.0849
  19   2.0000      -0.593279       -16.1439
  20   2.0000      -0.573636       -15.6094
  21   2.0000      -0.560906       -15.2630
  22   2.0000      -0.538129       -14.6432
  23   2.0000      -0.532117       -14.4796
  24   2.0000      -0.504073       -13.7165
  25   2.0000      -0.492477       -13.4010
  26   2.0000      -0.466270       -12.6879
  27   2.0000      -0.443150       -12.0587
  28   2.0000      -0.400075       -10.8866
  29   2.0000      -0.377772       -10.2797
  30   0.0000       0.139285         3.7901
  31   0.0000       0.153341         4.1726
  32   0.0000       0.161512         4.3950
  33   0.0000       0.164527         4.4770
  34   0.0000       0.174970         4.7612

MULLIKEN ATOMIC CHARGES
-----------------------
   0 C :   -0.399934
   1 C :   -0.178672
   2 C :    0.055748
   3 O :   -0.326248
   4 C :   -0.047682
   5 C :   -0.393631
   6 C :    0.026423
   7 C :   -0.103873
   8 H :    0.125218
   9 H :    0.135459
  10 H :    0.144546
  11 H :    0.109911
  12 H :    0.112537
  13 H :    0.123946
  14 H :    0.134644
  15 H :    0.140293
  16 H :    0.147065
  17 H :    0.194250
Sum of atomic charges:   -0.0000000

LOEWDIN ATOMIC CHARGES
----------------------
   0 C :   -0.310511
   1 C :   -0.273785
   2 C :   -0.236660
   3 O :    0.192490
   4 C :   -0.312695
   5 C :   -0.248037
   6 C :   -0.062546
   7 C :   -0.078026
   8 H :    0.122111
   9 H :    0.121774
  10 H :    0.127356
  11 H :    0.139678
  12 H :    0.144134
  13 H :    0.145776
  14 H :    0.128249
  15 H :    0.135791
  16 H :    0.136525
  17 H :    0.128378

  Mayer bond orders larger than 0.1
B(  0-C ,  1-C ) :   0.9230 B(  0-C ,  8-H ) :   0.9373 B(  0-C ,  9-H ) :   0.9398
B(  0-C , 10-H ) :   0.9366 B(  1-C ,  2-C ) :   0.9018 B(  1-C , 11-H ) :   0.9350
B(  1-C , 12-H ) :   0.9240 B(  2-C ,  3-O ) :   0.8416 B(  2-C ,  4-C ) :   0.9740
B(  2-C , 13-H ) :   0.9066 B(  3-O ,  4-C ) :   0.9542 B(  4-C ,  5-C ) :   0.9312
B(  4-C ,  6-C ) :   1.1246 B(  4-C ,  7-C ) :  -0.1528 B(  5-C , 14-H ) :   0.9364
B(  5-C , 15-H ) :   0.9279 B(  5-C , 16-H ) :   0.9336 B(  6-C ,  7-C ) :   2.5847
B(  7-C , 17-H ) :   0.8902

MP2 TOTAL ENERGY:     -347.142545984 Eh
FINAL SINGLE POINT ENERGY      -347.142545983807

DIPOLE MOMENT
-------------
                                X             Y             Z
Electronic contribution:      3.97304      -4.20269       5.59348
Nuclear contribution   :     -3.71149       4.18781      -6.29746
                        -----------------------------------------
Total Dipole Moment    :      0.26155      -0.01488      -0.70398
                        -----------------------------------------
Magnitude (a.u.)       :      0.75114
Magnitude (Debye)      :      1.90925

                             ****ORCA TERMINATED NORMALLY****
TOTAL RUN TIME: 0 days 0 hours 12 minutes 47 seconds 506 msec
