                         Program Version 3.0.3 - RELEASE   -
|  1> ! RI-MP2 RIJK def2-TZVP def2-TZVP/C def2-TZVP/JK TIGHTSCF
|  2> % maxcore 2000
|  3> % mp2 density relaxed end
|  4> *xyz 0 1
|  5>  C       -0.2639615804     1.5593494857    -0.0451803493
|  6>  C        0.0340689943     0.0678353561    -0.1205059461
|  7>  C        0.7543488644    -0.5643405262    -1.3217175379
|  8>  C        2.2838618927    -0.4224986790    -1.2047780306
|  9>  C        2.8731650923     0.5987203188    -0.2466747485
| 10>  O        2.2331364935     0.3477176856     1.0143749432
| 11>  C        1.1552506454    -0.5535869755     0.7849519724
| 12>  C        1.5580309986    -1.4628472265    -0.4116864546
| 13>  O        1.7068966745    -2.8314908700    -0.4507586416
| 14>  H       -0.9625583920     1.8528707283    -0.8366086703
| 15>  H       -0.7255589820     1.8120475036     0.9156210353
| 16>  H        0.6353269826     2.1696475113    -0.1472848975
| 17>  H       -0.8896514443    -0.4989252868     0.0500677341
| 18>  H        0.3135734666    -0.8053687844    -2.2826048489
| 19>  H        2.8457920827    -0.7343816164    -2.0776271994
| 20>  H        3.9560537492     0.4582913253    -0.1275978012
| 21>  H        2.7035161304     1.6381802729    -0.5560328121
| 22>  H        0.8616703990    -0.9968454490     1.7359666112
| 23>  H        2.5756193924    -3.0544421636    -0.0971848482
| 24> *
| 25>
| 26>                          ****END OF INPUT****

CARTESIAN COORDINATES (ANGSTROEM)
---------------------------------
  C     -0.263962    1.559349   -0.045180
  C      0.034069    0.067835   -0.120506
  C      0.754349   -0.564341   -1.321718
  C      2.283862   -0.422499   -1.204778
  C      2.873165    0.598720   -0.246675
  O      2.233136    0.347718    1.014375
  C      1.155251   -0.553587    0.784952
  C      1.558031   -1.462847   -0.411686
  O      1.706897   -2.831491   -0.450759
  H     -0.962558    1.852871   -0.836609
  H     -0.725559    1.812048    0.915621
  H      0.635327    2.169648   -0.147285
  H     -0.889651   -0.498925    0.050068
  H      0.313573   -0.805369   -2.282605
  H      2.845792   -0.734382   -2.077627
  H      3.956054    0.458291   -0.127598
  H      2.703516    1.638180   -0.556033
  H      0.861670   -0.996845    1.735967
  H      2.575619   -3.054442   -0.097185

 Total Charge           Charge          ....    0
 Multiplicity           Mult            ....    1
 Number of Electrons    NEL             ....   68
 Basis Dimension        Dim             ....  339

ORBITAL ENERGIES
----------------

  NO   OCC          E(Eh)            E(eV)
   0   2.0000     -20.575968      -559.9005
   1   2.0000     -20.551672      -559.2394
   2   2.0000     -11.286685      -307.1263
   3   2.0000     -11.281068      -306.9735
   4   2.0000     -11.276836      -306.8583
   5   2.0000     -11.238174      -305.8063
   6   2.0000     -11.237386      -305.7848
   7   2.0000     -11.233569      -305.6809
   8   2.0000     -11.210125      -305.0430
   9   2.0000      -1.392416       -37.8896
  10   2.0000      -1.371347       -37.3162
  11   2.0000      -1.179131       -32.0858
  12   2.0000      -1.036333       -28.2001
  13   2.0000      -0.973018       -26.4772
  14   2.0000      -0.871254       -23.7080
  15   2.0000      -0.857211       -23.3259
  16   2.0000      -0.796206       -21.6659
  17   2.0000      -0.735152       -20.0045
  18   2.0000      -0.714422       -19.4404
  19   2.0000      -0.674424       -18.3520
  20   2.0000      -0.645484       -17.5645
  21   2.0000      -0.616450       -16.7745
  22   2.0000      -0.590229       -16.0609
  23   2.0000      -0.586140       -15.9497
  24   2.0000      -0.572098       -15.5676
  25   2.0000      -0.552313       -15.0292
  26   2.0000      -0.542783       -14.7699
  27   2.0000      -0.519712       -14.1421
  28   2.0000      -0.502672       -13.6784
  29   2.0000      -0.482129       -13.1194
  30   2.0000      -0.452717       -12.3191
  31   2.0000      -0.421239       -11.4625
  32   2.0000      -0.389175       -10.5900
  33   2.0000      -0.366023        -9.9600
  34   0.0000       0.133304         3.6274
  35   0.0000       0.147569         4.0156
  36   0.0000       0.168606         4.5880
  37   0.0000       0.171203         4.6587
  38   0.0000       0.189532         5.1574

MULLIKEN ATOMIC CHARGES
-----------------------
   0 C :   -0.403625
   1 C :   -0.053231
   2 C :   -0.157825
   3 C :   -0.189491
   4 C :   -0.034181
   5 O :   -0.327660
   6 C :    0.074831
   7 C :    0.114270
   8 O :   -0.449726
   9 H :    0.129123
  10 H :    0.129677
  11 H :    0.123980
  12 H :    0.101975
  13 H :    0.135439
  14 H :    0.137304
  15 H :    0.108559
  16 H :    0.098491
  17 H :    0.130116
  18 H :    0.331974
Sum of atomic charges:   -0.0000000

LOEWDIN ATOMIC CHARGES
----------------------
   0 C :   -0.294046
   1 C :   -0.219185
   2 C :   -0.119196
   3 C :   -0.175943
   4 C :   -0.273826
   5 O :    0.163479
   6 C :   -0.217859
   7 C :   -0.295452
   8 O :    0.033946
   9 H :    0.124750
  10 H :    0.126851
  11 H :    0.123711
  12 H :    0.157717
  13 H :    0.140099
  14 H :    0.154543
  15 H :    0.124875
  16 H :    0.118695
  17 H :    0.137588
  18 H :    0.189251

  Mayer bond orders larger than 0.1
B(  0-C ,  1-C ) :   0.8994 B(  0-C ,  9-H ) :   0.9383 B(  0-C , 10-H ) :   0.9348
B(  0-C , 11-H ) :   0.9349 B(  1-C ,  2-C ) :   0.9297 B(  1-C ,  6-C ) :   0.8894
B(  1-C , 12-H ) :   0.9206 B(  2-C ,  3-C ) :   0.8584 B(  2-C ,  7-C ) :   0.8554
B(  2-C , 13-H ) :   0.9082 B(  3-C ,  4-C ) :   0.9415 B(  3-C ,  7-C ) :   0.8869
B(  3-C , 14-H ) :   0.9258 B(  4-C ,  5-O ) :   0.9432 B(  4-C , 15-H ) :   0.9195
B(  4-C , 16-H ) :   0.9221 B(  5-O ,  6-C ) :   0.9548 B(  6-C ,  7-C ) :   0.9175
B(  6-C , 17-H ) :   0.9196 B(  7-C ,  8-O ) :   1.0268 B(  8-O , 18-H ) :   0.8327

MP2 TOTAL ENERGY:     -422.288138244 Eh
FINAL SINGLE POINT ENERGY      -422.288138244187

DIPOLE MOMENT
-------------
                                X             Y             Z
Electronic contribution:      2.68408      -5.25550       0.97386
Nuclear contribution   :     -2.40283       5.21313      -1.31972
                        -----------------------------------------
Total Dipole Moment    :      0.28125      -0.04237      -0.34586
                        -----------------------------------------
Magnitude (a.u.)       :      0.44779
Magnitude (Debye)      :      1.13820

                             ****ORCA TERMINATED NORMALLY****
TOTAL RUN TIME: 0 days 0 hours 17 minutes 33 seconds 554 msec
