                         Program Version 3.0.3 - RELEASE   -
|  1> ! RI-MP2 RIJK def2-TZVP def2-TZVP/C def2-TZVP/JK TIGHTSCF
|  2> % maxcore 2000
|  3> % mp2 density relaxed end
|  4> *xyz 0 1
|  5>  C        0.1652769931     1.5462293198    -0.3228131282
|  6>  C        0.0631755589     0.0894388246     0.0595196116
|  7>  N        1.2949296617    -0.7251258080     0.0552311337
|  8>  C        0.5638254615    -0.5380097312     1.3148867212
|  9>  C        1.2950828829     0.1194864514     2.4759348427
| 10>  C        2.3392962666    -0.8492923032     3.1134058099
| 11>  O        3.5894446407    -0.1241600031     3.0414330127
| 12>  C        3.2834778362     1.0523394035     2.4513489433
| 13>  N        2.0903654157     1.3069248321     2.1150251689
| 14>  H        1.0685521717     1.9956272529     0.0860137823
| 15>  H        0.1723195979     1.6443892689    -1.4142348550
| 16>  H       -0.7009065809     2.1000921033     0.0565511169
| 17>  H       -0.8249591082    -0.4017726937    -0.3418067032
| 18>  H        1.1209373613    -1.6472712138    -0.3338439364
| 19>  H       -0.0321350475    -1.3822860130     1.6683054207
| 20>  H        0.5409285503     0.4212622770     3.2134945076
| 21>  H        2.1425305908    -1.0842536965     4.1624308134
| 22>  H        2.4537182526    -1.7772659648     2.5464637742
| 23>  H        4.1289550447     1.7183417239     2.3187574236
| 24> *
| 25>
| 26>                          ****END OF INPUT****

CARTESIAN COORDINATES (ANGSTROEM)
---------------------------------
  C      0.165277    1.546229   -0.322813
  C      0.063176    0.089439    0.059520
  N      1.294930   -0.725126    0.055231
  C      0.563825   -0.538010    1.314887
  C      1.295083    0.119486    2.475935
  C      2.339296   -0.849292    3.113406
  O      3.589445   -0.124160    3.041433
  C      3.283478    1.052339    2.451349
  N      2.090365    1.306925    2.115025
  H      1.068552    1.995627    0.086014
  H      0.172320    1.644389   -1.414235
  H     -0.700907    2.100092    0.056551
  H     -0.824959   -0.401773   -0.341807
  H      1.120937   -1.647271   -0.333844
  H     -0.032135   -1.382286    1.668305
  H      0.540929    0.421262    3.213495
  H      2.142531   -1.084254    4.162431
  H      2.453718   -1.777266    2.546464
  H      4.128955    1.718342    2.318757

 Total Charge           Charge          ....    0
 Multiplicity           Mult            ....    1
 Number of Electrons    NEL             ....   68
 Basis Dimension        Dim             ....  339

ORBITAL ENERGIES
----------------

  NO   OCC          E(Eh)            E(eV)
   0   2.0000     -20.592537      -560.3514
   1   2.0000     -15.552323      -423.2002
   2   2.0000     -15.542091      -422.9218
   3   2.0000     -11.327940      -308.2489
   4   2.0000     -11.289707      -307.2085
   5   2.0000     -11.269542      -306.6598
   6   2.0000     -11.261419      -306.4388
   7   2.0000     -11.259357      -306.3827
   8   2.0000     -11.201650      -304.8124
   9   2.0000      -1.435240       -39.0549
  10   2.0000      -1.262340       -34.3500
  11   2.0000      -1.207041       -32.8453
  12   2.0000      -1.036304       -28.1993
  13   2.0000      -0.979766       -26.6608
  14   2.0000      -0.907818       -24.7030
  15   2.0000      -0.828062       -22.5327
  16   2.0000      -0.808815       -22.0090
  17   2.0000      -0.761759       -20.7285
  18   2.0000      -0.709154       -19.2971
  19   2.0000      -0.706752       -19.2317
  20   2.0000      -0.673702       -18.3324
  21   2.0000      -0.609872       -16.5955
  22   2.0000      -0.583921       -15.8893
  23   2.0000      -0.571531       -15.5522
  24   2.0000      -0.563010       -15.3203
  25   2.0000      -0.548982       -14.9386
  26   2.0000      -0.526020       -14.3137
  27   2.0000      -0.522349       -14.2138
  28   2.0000      -0.496190       -13.5020
  29   2.0000      -0.459726       -12.5098
  30   2.0000      -0.453885       -12.3508
  31   2.0000      -0.424861       -11.5611
  32   2.0000      -0.388051       -10.5594
  33   2.0000      -0.378697       -10.3049
  34   0.0000       0.127039         3.4569
  35   0.0000       0.153317         4.1720
  36   0.0000       0.164549         4.4776
  37   0.0000       0.171384         4.6636
  38   0.0000       0.184572         5.0225

MULLIKEN ATOMIC CHARGES
-----------------------
   0 C :   -0.388419
   1 C :   -0.009450
   2 N :   -0.413107
   3 C :   -0.087989
   4 C :    0.093046
   5 C :   -0.069248
   6 O :   -0.269039
   7 C :    0.120935
   8 N :   -0.310786
   9 H :    0.168033
  10 H :    0.119882
  11 H :    0.114926
  12 H :    0.110499
  13 H :    0.216303
  14 H :    0.120199
  15 H :    0.106846
  16 H :    0.116305
  17 H :    0.114430
  18 H :    0.146634
Sum of atomic charges:    0.0000000

LOEWDIN ATOMIC CHARGES
----------------------
   0 C :   -0.298455
   1 C :   -0.274221
   2 N :    0.002950
   3 C :   -0.257183
   4 C :   -0.259700
   5 C :   -0.231028
   6 O :    0.214365
   7 C :   -0.345978
   8 N :    0.088135
   9 H :    0.133207
  10 H :    0.123802
  11 H :    0.125313
  12 H :    0.135787
  13 H :    0.162975
  14 H :    0.141440
  15 H :    0.151047
  16 H :    0.123925
  17 H :    0.129182
  18 H :    0.134437

  Mayer bond orders larger than 0.1
B(  0-C ,  1-C ) :   0.8839 B(  0-C ,  9-H ) :   0.9344 B(  0-C , 10-H ) :   0.9300
B(  0-C , 11-H ) :   0.9338 B(  1-C ,  2-N ) :   0.9197 B(  1-C ,  3-C ) :   0.9023
B(  1-C , 12-H ) :   0.9282 B(  2-N ,  3-C ) :   0.8503 B(  2-N , 13-H ) :   0.8653
B(  3-C ,  4-C ) :   0.9109 B(  3-C , 14-H ) :   0.9234 B(  4-C ,  5-C ) :   0.9285
B(  4-C ,  8-N ) :   0.9164 B(  4-C , 15-H ) :   0.9236 B(  5-C ,  6-O ) :   0.8803
B(  5-C , 16-H ) :   0.9208 B(  5-C , 17-H ) :   0.9182 B(  6-O ,  7-C ) :   1.0711
B(  7-C ,  8-N ) :   1.7956 B(  7-C , 18-H ) :   0.9206

MP2 TOTAL ENERGY:     -418.483582894 Eh
FINAL SINGLE POINT ENERGY      -418.483582894047

DIPOLE MOMENT
-------------
                                X             Y             Z
Electronic contribution:      5.33624      -0.38702       3.92577
Nuclear contribution   :     -5.96161      -0.36070      -3.65846
                        -----------------------------------------
Total Dipole Moment    :     -0.62538      -0.74772       0.26731
                        -----------------------------------------
Magnitude (a.u.)       :      1.01076
Magnitude (Debye)      :      2.56914

                             ****ORCA TERMINATED NORMALLY****
TOTAL RUN TIME: 0 days 0 hours 17 minutes 41 seconds 623 msec
