                         Program Version 3.0.3 - RELEASE   -
|  1> ! RI-MP2 RIJK def2-TZVP def2-TZVP/C def2-TZVP/JK TIGHTSCF
|  2> % maxcore 2000
|  3> % mp2 density relaxed end
|  4> *xyz 0 1
|  5>  O       -0.4066313380     0.6394749826    -0.7186791814
|  6>  C        0.1946328251     0.9948634021     0.2545212793
|  7>  C        1.3575635633     2.0090821064     0.1936765728
|  8>  C        1.4205785442     2.6970322654    -1.1898701141
|  9>  C        2.6775107574     3.4055224926    -1.4056422330
| 10>  N        3.6809408702     3.9526422515    -1.5717259504
| 11>  C        1.2442730413     2.9499579684     1.3066065446
| 12>  N        1.1083909854     3.6747860408     2.1957756846
| 13>  H       -0.0225186987     0.6078263723     1.2694604051
| 14>  H        2.2738054158     1.4202302902     0.3499348583
| 15>  H        1.2918043790     1.9265956483    -1.9551321518
| 16>  H        0.5832655350     3.3928199895    -1.2972417540
| 17> *
| 18>
| 19>                          ****END OF INPUT****

CARTESIAN COORDINATES (ANGSTROEM)
---------------------------------
  O     -0.406631    0.639475   -0.718679
  C      0.194633    0.994863    0.254521
  C      1.357564    2.009082    0.193677
  C      1.420579    2.697032   -1.189870
  C      2.677511    3.405522   -1.405642
  N      3.680941    3.952642   -1.571726
  C      1.244273    2.949958    1.306607
  N      1.108391    3.674786    2.195776
  H     -0.022519    0.607826    1.269460
  H      2.273805    1.420230    0.349935
  H      1.291804    1.926596   -1.955132
  H      0.583266    3.392820   -1.297242

 Total Charge           Charge          ....    0
 Multiplicity           Mult            ....    1
 Number of Electrons    NEL             ....   56
 Basis Dimension        Dim             ....  272

ORBITAL ENERGIES
----------------

  NO   OCC          E(Eh)            E(eV)
   0   2.0000     -20.614333      -560.9445
   1   2.0000     -15.608844      -424.7382
   2   2.0000     -15.593576      -424.3228
   3   2.0000     -11.391488      -309.9782
   4   2.0000     -11.345074      -308.7152
   5   2.0000     -11.323478      -308.1275
   6   2.0000     -11.308467      -307.7190
   7   2.0000     -11.296010      -307.3800
   8   2.0000      -1.456593       -39.6359
   9   2.0000      -1.258196       -34.2373
  10   2.0000      -1.241734       -33.7893
  11   2.0000      -1.153098       -31.3774
  12   2.0000      -1.018777       -27.7223
  13   2.0000      -0.864094       -23.5132
  14   2.0000      -0.785824       -21.3834
  15   2.0000      -0.751356       -20.4454
  16   2.0000      -0.704431       -19.1685
  17   2.0000      -0.678410       -18.4605
  18   2.0000      -0.647925       -17.6309
  19   2.0000      -0.626543       -17.0491
  20   2.0000      -0.590879       -16.0786
  21   2.0000      -0.575635       -15.6638
  22   2.0000      -0.570337       -15.5197
  23   2.0000      -0.518751       -14.1159
  24   2.0000      -0.503622       -13.7042
  25   2.0000      -0.483716       -13.1626
  26   2.0000      -0.481739       -13.1088
  27   2.0000      -0.462652       -12.5894
  28   0.0000       0.077599         2.1116
  29   0.0000       0.102442         2.7876
  30   0.0000       0.125099         3.4041
  31   0.0000       0.144710         3.9378
  32   0.0000       0.150714         4.1011

MULLIKEN ATOMIC CHARGES
-----------------------
   0 O :   -0.235928
   1 C :    0.096047
   2 C :    0.077117
   3 C :   -0.144185
   4 C :   -0.184327
   5 N :   -0.042256
   6 C :   -0.212726
   7 N :   -0.035869
   8 H :    0.134356
   9 H :    0.173058
  10 H :    0.193825
  11 H :    0.180888
Sum of atomic charges:   -0.0000000

LOEWDIN ATOMIC CHARGES
----------------------
   0 O :    0.171579
   1 C :   -0.241140
   2 C :   -0.225176
   3 C :   -0.198919
   4 C :   -0.188010
   5 N :    0.076621
   6 C :   -0.168919
   7 N :    0.091758
   8 H :    0.130727
   9 H :    0.198235
  10 H :    0.177012
  11 H :    0.176231

  Mayer bond orders larger than 0.1
B(  0-O ,  1-C ) :   1.9857 B(  1-C ,  2-C ) :   0.8158 B(  1-C ,  8-H ) :   0.9377
B(  2-C ,  3-C ) :   0.8654 B(  2-C ,  6-C ) :   0.9165 B(  2-C ,  9-H ) :   0.8878
B(  3-C ,  4-C ) :   0.9341 B(  3-C , 10-H ) :   0.9030 B(  3-C , 11-H ) :   0.8996
B(  4-C ,  5-N ) :   2.8544 B(  6-C ,  7-N ) :   2.8356

MP2 TOTAL ENERGY:     -376.911124038 Eh
FINAL SINGLE POINT ENERGY      -376.911124038181

DIPOLE MOMENT
-------------
                                X             Y             Z
Electronic contribution:      0.62122       1.15897       0.85635
Nuclear contribution   :     -1.26577      -2.46785      -1.03235
                        -----------------------------------------
Total Dipole Moment    :     -0.64455      -1.30887      -0.17601
                        -----------------------------------------
Magnitude (a.u.)       :      1.46955
Magnitude (Debye)      :      3.73530

                             ****ORCA TERMINATED NORMALLY****
TOTAL RUN TIME: 0 days 0 hours 8 minutes 27 seconds 367 msec
