                         Program Version 3.0.3 - RELEASE   -
|  1> ! RI-MP2 RIJK def2-TZVP def2-TZVP/C def2-TZVP/JK TIGHTSCF
|  2> % maxcore 2000
|  3> % mp2 density relaxed end
|  4> *xyz 0 1
|  5>  N       -0.0571027423     1.3132777594     0.0163479235
|  6>  C       -0.0001968679     0.0588613351    -0.0027843216
|  7>  N       -1.1092606337    -0.7837740910     0.0261421216
|  8>  C       -0.7818569912    -2.1143203585    -0.0090651186
|  9>  O       -1.5062964286    -3.0746742672    -0.0026388761
| 10>  C        0.7576146512    -2.0976402216    -0.0260028026
| 11>  O        1.1180145765    -0.7263937030    -0.0690869074
| 12>  C        1.3057705435    -2.8034864114     1.2156102968
| 13>  O        1.9279738215    -2.2493220606     2.0755500848
| 14>  H        0.8748823439     1.7212975930    -0.0081657916
| 15>  H       -2.0504578427    -0.4259411533     0.0699526445
| 16>  H        1.1225758219    -2.6185864157    -0.9203396452
| 17>  H        1.0548274479    -3.8842085051     1.2419365419
| 18> *
| 19>
| 20>                          ****END OF INPUT****

CARTESIAN COORDINATES (ANGSTROEM)
---------------------------------
  N     -0.057103    1.313278    0.016348
  C     -0.000197    0.058861   -0.002784
  N     -1.109261   -0.783774    0.026142
  C     -0.781857   -2.114320   -0.009065
  O     -1.506296   -3.074674   -0.002639
  C      0.757615   -2.097640   -0.026003
  O      1.118015   -0.726394   -0.069087
  C      1.305771   -2.803486    1.215610
  O      1.927974   -2.249322    2.075550
  H      0.874882    1.721298   -0.008166
  H     -2.050458   -0.425941    0.069953
  H      1.122576   -2.618586   -0.920340
  H      1.054827   -3.884209    1.241937

 Total Charge           Charge          ....    0
 Multiplicity           Mult            ....    1
 Number of Electrons    NEL             ....   66
 Basis Dimension        Dim             ....  303

ORBITAL ENERGIES
----------------

  NO   OCC          E(Eh)            E(eV)
   0   2.0000     -20.640673      -561.6613
   1   2.0000     -20.593428      -560.3757
   2   2.0000     -20.577367      -559.9386
   3   2.0000     -15.644446      -425.7070
   4   2.0000     -15.553915      -423.2435
   5   2.0000     -11.408455      -310.4399
   6   2.0000     -11.407110      -310.4033
   7   2.0000     -11.368386      -309.3495
   8   2.0000     -11.353984      -308.9576
   9   2.0000      -1.500915       -40.8420
  10   2.0000      -1.434890       -39.0453
  11   2.0000      -1.431055       -38.9410
  12   2.0000      -1.296390       -35.2766
  13   2.0000      -1.220571       -33.2134
  14   2.0000      -1.063852       -28.9489
  15   2.0000      -0.900589       -24.5063
  16   2.0000      -0.885841       -24.1050
  17   2.0000      -0.841130       -22.8883
  18   2.0000      -0.757982       -20.6257
  19   2.0000      -0.737983       -20.0816
  20   2.0000      -0.707152       -19.2426
  21   2.0000      -0.693400       -18.8684
  22   2.0000      -0.678676       -18.4677
  23   2.0000      -0.654034       -17.7972
  24   2.0000      -0.622913       -16.9503
  25   2.0000      -0.617874       -16.8132
  26   2.0000      -0.601893       -16.3783
  27   2.0000      -0.554738       -15.0952
  28   2.0000      -0.498113       -13.5544
  29   2.0000      -0.483714       -13.1625
  30   2.0000      -0.470717       -12.8089
  31   2.0000      -0.449220       -12.2239
  32   2.0000      -0.410060       -11.1583
  33   0.0000       0.095051         2.5865
  34   0.0000       0.121577         3.3083
  35   0.0000       0.132696         3.6108
  36   0.0000       0.152736         4.1562
  37   0.0000       0.165798         4.5116

MULLIKEN ATOMIC CHARGES
-----------------------
   0 N :   -0.387595
   1 C :    0.258983
   2 N :   -0.261602
   3 C :    0.183082
   4 O :   -0.293423
   5 C :    0.115574
   6 O :   -0.242586
   7 C :    0.073655
   8 O :   -0.228808
   9 H :    0.244484
  10 H :    0.274033
  11 H :    0.152507
  12 H :    0.111698
Sum of atomic charges:   -0.0000000

LOEWDIN ATOMIC CHARGES
----------------------
   0 N :   -0.062247
   1 C :   -0.465480
   2 N :    0.192032
   3 C :   -0.413273
   4 O :    0.132463
   5 C :   -0.251297
   6 O :    0.279300
   7 C :   -0.264384
   8 O :    0.169859
   9 H :    0.179513
  10 H :    0.209204
  11 H :    0.168214
  12 H :    0.126095

  Mayer bond orders larger than 0.1
B(  0-N ,  1-C ) :   2.0137 B(  0-N ,  9-H ) :   0.8482 B(  1-C ,  2-N ) :   1.0148
B(  1-C ,  6-O ) :   1.0670 B(  2-N ,  3-C ) :   1.1345 B(  2-N , 10-H ) :   0.8515
B(  3-C ,  4-O ) :   2.0175 B(  3-C ,  5-C ) :   0.8704 B(  5-C ,  6-O ) :   0.9214
B(  5-C ,  7-C ) :   0.8407 B(  5-C , 11-H ) :   0.8910 B(  7-C ,  8-O ) :   2.0231
B(  7-C , 12-H ) :   0.9225

MP2 TOTAL ENERGY:     -489.169022350 Eh
FINAL SINGLE POINT ENERGY      -489.169022350131

DIPOLE MOMENT
-------------
                                X             Y             Z
Electronic contribution:     -0.15896      -0.60397       0.36911
Nuclear contribution   :      0.22201       0.32555      -1.01334
                        -----------------------------------------
Total Dipole Moment    :      0.06305      -0.27841      -0.64422
                        -----------------------------------------
Magnitude (a.u.)       :      0.70463
Magnitude (Debye)      :      1.79104

                             ****ORCA TERMINATED NORMALLY****
TOTAL RUN TIME: 0 days 0 hours 12 minutes 20 seconds 719 msec
