                         Program Version 3.0.3 - RELEASE   -
|  1> ! RI-MP2 RIJK def2-TZVP def2-TZVP/C def2-TZVP/JK TIGHTSCF
|  2> % maxcore 2000
|  3> % mp2 density relaxed end
|  4> *xyz 0 1
|  5>  C       -0.2375213142     1.2864833090    -0.0310939619
|  6>  O        0.1387874127    -0.0791406988     0.1297061521
|  7>  C        0.6316144126    -0.6985843083    -0.9682479909
|  8>  C        0.9962955996    -2.1287168659    -0.6543319209
|  9>  N        0.7434908407    -0.0800740635    -2.0676791010
| 10>  C        1.2946744419    -0.7561568809    -3.2296460345
| 11>  C        0.9231646704    -0.0171555252    -4.5246954139
| 12>  C        1.6680588079    -0.6169397207    -5.7224297173
| 13>  C       -0.5932075454    -0.0191036643    -4.7467550588
| 14>  H        0.6134554934     1.8902834362    -0.3589214251
| 15>  H       -1.0335379296     1.3879831076    -0.7745964767
| 16>  H       -0.5865680428     1.6139654554     0.9495157821
| 17>  H        0.7746700389    -2.3589474033     0.3876543640
| 18>  H        0.4391856988    -2.8166880269    -1.2981214071
| 19>  H        2.0608669464    -2.3015097584    -0.8411149978
| 20>  H        2.3921777856    -0.7934388849    -3.1464591898
| 21>  H        0.9557016854    -1.8032125322    -3.3084694364
| 22>  H        1.2469954231     1.0242366203    -4.3957146207
| 23>  H        1.3878858572    -1.6663533500    -5.8768252162
| 24>  H        1.4323559790    -0.0760184353    -6.6445486854
| 25>  H        2.7539608791    -0.5804378249    -5.5811800409
| 26>  H       -0.9626725385    -1.0394191801    -4.9116130923
| 27>  H       -1.1102388631     0.3904132363    -3.8750738524
| 28>  H       -0.8671463594     0.5777661789    -5.6229276481
| 29> *
| 30>
| 31>                          ****END OF INPUT****

CARTESIAN COORDINATES (ANGSTROEM)
---------------------------------
  C     -0.237521    1.286483   -0.031094
  O      0.138787   -0.079141    0.129706
  C      0.631614   -0.698584   -0.968248
  C      0.996296   -2.128717   -0.654332
  N      0.743491   -0.080074   -2.067679
  C      1.294674   -0.756157   -3.229646
  C      0.923165   -0.017156   -4.524695
  C      1.668059   -0.616940   -5.722430
  C     -0.593208   -0.019104   -4.746755
  H      0.613455    1.890283   -0.358921
  H     -1.033538    1.387983   -0.774596
  H     -0.586568    1.613965    0.949516
  H      0.774670   -2.358947    0.387654
  H      0.439186   -2.816688   -1.298121
  H      2.060867   -2.301510   -0.841115
  H      2.392178   -0.793439   -3.146459
  H      0.955702   -1.803213   -3.308469
  H      1.246995    1.024237   -4.395715
  H      1.387886   -1.666353   -5.876825
  H      1.432356   -0.076018   -6.644549
  H      2.753961   -0.580438   -5.581180
  H     -0.962673   -1.039419   -4.911613
  H     -1.110239    0.390413   -3.875074
  H     -0.867146    0.577766   -5.622928

 Total Charge           Charge          ....    0
 Multiplicity           Mult            ....    1
 Number of Electrons    NEL             ....   72
 Basis Dimension        Dim             ....  369

ORBITAL ENERGIES
----------------

  NO   OCC          E(Eh)            E(eV)
   0   2.0000     -20.581942      -560.0631
   1   2.0000     -15.526637      -422.5013
   2   2.0000     -11.329316      -308.2863
   3   2.0000     -11.269116      -306.6482
   4   2.0000     -11.243617      -305.9544
   5   2.0000     -11.233900      -305.6900
   6   2.0000     -11.216961      -305.2290
   7   2.0000     -11.207582      -304.9738
   8   2.0000     -11.200731      -304.7874
   9   2.0000      -1.416393       -38.5420
  10   2.0000      -1.209509       -32.9124
  11   2.0000      -1.070101       -29.1189
  12   2.0000      -1.010466       -27.4962
  13   2.0000      -0.934043       -25.4166
  14   2.0000      -0.921131       -25.0652
  15   2.0000      -0.914106       -24.8741
  16   2.0000      -0.772104       -21.0100
  17   2.0000      -0.736863       -20.0511
  18   2.0000      -0.674892       -18.3647
  19   2.0000      -0.661859       -18.0101
  20   2.0000      -0.657608       -17.8944
  21   2.0000      -0.623130       -16.9562
  22   2.0000      -0.590022       -16.0553
  23   2.0000      -0.585857       -15.9420
  24   2.0000      -0.576767       -15.6946
  25   2.0000      -0.553264       -15.0551
  26   2.0000      -0.544836       -14.8257
  27   2.0000      -0.531099       -14.4519
  28   2.0000      -0.522604       -14.2208
  29   2.0000      -0.509079       -13.8527
  30   2.0000      -0.489428       -13.3180
  31   2.0000      -0.467540       -12.7224
  32   2.0000      -0.464796       -12.6478
  33   2.0000      -0.456847       -12.4314
  34   2.0000      -0.396055       -10.7772
  35   2.0000      -0.372917       -10.1476
  36   0.0000       0.131002         3.5647
  37   0.0000       0.154600         4.2069
  38   0.0000       0.160838         4.3766
  39   0.0000       0.179299         4.8790
  40   0.0000       0.181565         4.9406

MULLIKEN ATOMIC CHARGES
-----------------------
   0 C :   -0.199290
   1 O :   -0.269278
   2 C :    0.245040
   3 C :   -0.413390
   4 N :   -0.290476
   5 C :   -0.178630
   6 C :    0.033523
   7 C :   -0.404552
   8 C :   -0.414208
   9 H :    0.128858
  10 H :    0.128055
  11 H :    0.137986
  12 H :    0.158785
  13 H :    0.148692
  14 H :    0.146791
  15 H :    0.116085
  16 H :    0.090455
  17 H :    0.078291
  18 H :    0.118184
  19 H :    0.132953
  20 H :    0.126876
  21 H :    0.109990
  22 H :    0.142859
  23 H :    0.126400
Sum of atomic charges:    0.0000000

LOEWDIN ATOMIC CHARGES
----------------------
   0 C :   -0.326237
   1 O :    0.222196
   2 C :   -0.404671
   3 C :   -0.277263
   4 N :    0.092986
   5 C :   -0.278138
   6 C :   -0.314282
   7 C :   -0.299176
   8 C :   -0.298991
   9 H :    0.110495
  10 H :    0.109686
  11 H :    0.111178
  12 H :    0.135087
  13 H :    0.135744
  14 H :    0.136727
  15 H :    0.133765
  16 H :    0.127778
  17 H :    0.150685
  18 H :    0.121581
  19 H :    0.123450
  20 H :    0.121155
  21 H :    0.120440
  22 H :    0.124605
  23 H :    0.121199

  Mayer bond orders larger than 0.1
B(  0-C ,  1-O ) :   0.8519 B(  0-C ,  9-H ) :   0.9365 B(  0-C , 10-H ) :   0.9371
B(  0-C , 11-H ) :   0.9325 B(  1-O ,  2-C ) :   1.1127 B(  2-C ,  3-C ) :   0.9095
B(  2-C ,  4-N ) :   1.7455 B(  3-C , 12-H ) :   0.9327 B(  3-C , 13-H ) :   0.9266
B(  3-C , 14-H ) :   0.9233 B(  4-N ,  5-C ) :   0.9335 B(  5-C ,  6-C ) :   0.9319
B(  5-C , 15-H ) :   0.9188 B(  5-C , 16-H ) :   0.9177 B(  6-C ,  7-C ) :   0.9137
B(  6-C ,  8-C ) :   0.9191 B(  6-C , 17-H ) :   0.9247 B(  7-C , 18-H ) :   0.9293
B(  7-C , 19-H ) :   0.9414 B(  7-C , 20-H ) :   0.9395 B(  8-C , 21-H ) :   0.9308
B(  8-C , 22-H ) :   0.9364 B(  8-C , 23-H ) :   0.9386

MP2 TOTAL ENERGY:     -404.867609195 Eh
FINAL SINGLE POINT ENERGY      -404.867609195231

DIPOLE MOMENT
-------------
                                X             Y             Z
Electronic contribution:     -0.23689       1.06307       8.60955
Nuclear contribution   :      0.35842      -1.30214      -8.55281
                        -----------------------------------------
Total Dipole Moment    :      0.12153      -0.23907       0.05674
                        -----------------------------------------
Magnitude (a.u.)       :      0.27412
Magnitude (Debye)      :      0.69676

                             ****ORCA TERMINATED NORMALLY****
TOTAL RUN TIME: 0 days 0 hours 19 minutes 45 seconds 241 msec
