                         Program Version 3.0.3 - RELEASE   -
|  1> ! RI-MP2 RIJK def2-TZVP def2-TZVP/C def2-TZVP/JK TIGHTSCF
|  2> % maxcore 2000
|  3> % mp2 density relaxed end
|  4> *xyz 0 1
|  5>  C        0.7302288636     1.4331315628    -0.0144715365
|  6>  N        0.8996734161     0.0016573994    -0.1850155694
|  7>  C        0.2075819748    -0.6603968363    -1.1567083425
|  8>  N       -0.5000422121    -0.0546442983    -2.0300560329
|  9>  C        0.4361207099    -2.1614733063    -1.1188211194
| 10>  C        1.8150715467    -2.7085391772    -1.1055792328
| 11>  O        1.0159668289    -2.7058444318     0.0741024490
| 12>  C       -0.6160127303    -2.9654720524    -1.7131534514
| 13>  N       -1.4504773556    -3.5986663912    -2.2003253295
| 14>  H        0.9488872490     1.9416630217    -0.9559457538
| 15>  H       -0.2945964509     1.6981169757     0.2744822385
| 16>  H        1.4245809811     1.7807639671     0.7531614763
| 17>  H        1.1482365074    -0.5499044813     0.6213870972
| 18>  H       -0.9051767228    -0.7035970005    -2.7017598407
| 19>  H        2.0007036549    -3.6875070152    -1.5408151073
| 20>  H        2.6384233594    -1.9987313463    -1.1163348250
| 21> *
| 22>
| 23>                          ****END OF INPUT****

CARTESIAN COORDINATES (ANGSTROEM)
---------------------------------
  C      0.730229    1.433132   -0.014472
  N      0.899673    0.001657   -0.185016
  C      0.207582   -0.660397   -1.156708
  N     -0.500042   -0.054644   -2.030056
  C      0.436121   -2.161473   -1.118821
  C      1.815072   -2.708539   -1.105579
  O      1.015967   -2.705844    0.074102
  C     -0.616013   -2.965472   -1.713153
  N     -1.450477   -3.598666   -2.200325
  H      0.948887    1.941663   -0.955946
  H     -0.294596    1.698117    0.274482
  H      1.424581    1.780764    0.753161
  H      1.148237   -0.549904    0.621387
  H     -0.905177   -0.703597   -2.701760
  H      2.000704   -3.687507   -1.540815
  H      2.638423   -1.998731   -1.116335

 Total Charge           Charge          ....    0
 Multiplicity           Mult            ....    1
 Number of Electrons    NEL             ....   66
 Basis Dimension        Dim             ....  321

ORBITAL ENERGIES
----------------

  NO   OCC          E(Eh)            E(eV)
   0   2.0000     -20.631748      -561.4184
   1   2.0000     -15.598823      -424.4655
   2   2.0000     -15.588375      -424.1812
   3   2.0000     -15.541663      -422.9101
   4   2.0000     -11.372505      -309.4616
   5   2.0000     -11.342475      -308.6444
   6   2.0000     -11.340215      -308.5829
   7   2.0000     -11.297155      -307.4112
   8   2.0000     -11.262999      -306.4818
   9   2.0000      -1.477638       -40.2086
  10   2.0000      -1.291398       -35.1407
  11   2.0000      -1.241838       -33.7921
  12   2.0000      -1.174416       -31.9575
  13   2.0000      -1.028874       -27.9971
  14   2.0000      -0.962328       -26.1863
  15   2.0000      -0.938834       -25.5470
  16   2.0000      -0.820396       -22.3241
  17   2.0000      -0.785517       -21.3750
  18   2.0000      -0.742162       -20.1953
  19   2.0000      -0.662148       -18.0180
  20   2.0000      -0.656443       -17.8627
  21   2.0000      -0.636132       -17.3100
  22   2.0000      -0.624036       -16.9809
  23   2.0000      -0.607411       -16.5285
  24   2.0000      -0.578756       -15.7487
  25   2.0000      -0.562506       -15.3066
  26   2.0000      -0.554462       -15.0877
  27   2.0000      -0.524474       -14.2717
  28   2.0000      -0.494026       -13.4431
  29   2.0000      -0.490251       -13.3404
  30   2.0000      -0.458883       -12.4868
  31   2.0000      -0.436650       -11.8819
  32   2.0000      -0.372708       -10.1419
  33   0.0000       0.120092         3.2679
  34   0.0000       0.132488         3.6052
  35   0.0000       0.143899         3.9157
  36   0.0000       0.149041         4.0556
  37   0.0000       0.166548         4.5320

MULLIKEN ATOMIC CHARGES
-----------------------
   0 C :   -0.277299
   1 N :   -0.334676
   2 C :    0.109438
   3 N :   -0.395010
   4 C :    0.317646
   5 C :   -0.069012
   6 O :   -0.319963
   7 C :   -0.216419
   8 N :   -0.029097
   9 H :    0.154074
  10 H :    0.139534
  11 H :    0.136108
  12 H :    0.260612
  13 H :    0.222610
  14 H :    0.151191
  15 H :    0.150261
Sum of atomic charges:    0.0000000

LOEWDIN ATOMIC CHARGES
----------------------
   0 C :   -0.310550
   1 N :    0.078426
   2 C :   -0.364050
   3 N :   -0.056064
   4 C :   -0.279947
   5 C :   -0.200891
   6 O :    0.196451
   7 C :   -0.143542
   8 N :    0.093698
   9 H :    0.126566
  10 H :    0.117480
  11 H :    0.117923
  12 H :    0.190556
  13 H :    0.167873
  14 H :    0.133484
  15 H :    0.132587

  Mayer bond orders larger than 0.1
B(  0-C ,  1-N ) :   0.8846 B(  0-C ,  9-H ) :   0.9336 B(  0-C , 10-H ) :   0.9369
B(  0-C , 11-H ) :   0.9296 B(  1-N ,  2-C ) :   1.1617 B(  1-N , 12-H ) :   0.8579
B(  2-C ,  3-N ) :   1.9274 B(  2-C ,  4-C ) :   0.8849 B(  3-N , 13-H ) :   0.8608
B(  4-C ,  5-C ) :   0.9186 B(  4-C ,  6-O ) :   0.8603 B(  4-C ,  7-C ) :   0.9201
B(  5-C ,  6-O ) :   0.8671 B(  5-C , 14-H ) :   0.9158 B(  5-C , 15-H ) :   0.9054
B(  7-C ,  8-N ) :   2.8376

MP2 TOTAL ENERGY:     -433.330790286 Eh
FINAL SINGLE POINT ENERGY      -433.330790286409

DIPOLE MOMENT
-------------
                                X             Y             Z
Electronic contribution:     -2.91706      -7.69368      -1.65821
Nuclear contribution   :      4.45929       8.04882       2.28202
                        -----------------------------------------
Total Dipole Moment    :      1.54223       0.35514       0.62381
                        -----------------------------------------
Magnitude (a.u.)       :      1.70110
Magnitude (Debye)      :      4.32385

                             ****ORCA TERMINATED NORMALLY****
TOTAL RUN TIME: 0 days 0 hours 15 minutes 18 seconds 183 msec
