                         Program Version 3.0.3 - RELEASE   -
|  1> ! RI-MP2 RIJK def2-TZVP def2-TZVP/C def2-TZVP/JK TIGHTSCF
|  2> % maxcore 2000
|  3> % mp2 density relaxed end
|  4> *xyz 0 1
|  5>  C        0.9454014941    -0.8992203984    -1.5531323644
|  6>  C        0.5848369779    -2.3154012610    -1.1374700805
|  7>  O       -0.8014668226    -2.3683333891    -0.8720772520
|  8>  C       -1.2449147211    -3.6524465295    -0.4776391417
|  9>  C       -2.7413213788    -3.5939603115    -0.3034984139
| 10>  C       -3.4815812306    -4.4557106939     0.6740273096
| 11>  C       -2.8208446803    -5.4805301196     1.5742740209
| 12>  N       -3.3876060316    -3.0086828328     0.8719153348
| 13>  C       -2.5860542849    -2.4439356122     1.9472050564
| 14>  H        2.0156300205    -0.8247423208    -1.7680487324
| 15>  H        0.3892810712    -0.6098725722    -2.4492642023
| 16>  H        0.7005491673    -0.1916253431    -0.7559277785
| 17>  H        0.8467878247    -3.0319494172    -1.9351500691
| 18>  H        1.1570009835    -2.6132551683    -0.2415852597
| 19>  H       -0.9998266665    -4.3973051407    -1.2552352418
| 20>  H       -0.7241498983    -3.9674125746     0.4380827248
| 21>  H       -3.2437617551    -3.3353216553    -1.2357484631
| 22>  H       -4.4838850891    -4.7628562980     0.3725937232
| 23>  H       -1.8017671510    -5.2209371143     1.8647852965
| 24>  H       -3.4049328867    -5.6120311351     2.4919021933
| 25>  H       -2.7839430460    -6.4512343856     1.0680823705
| 26>  H       -1.7016851680    -3.0241640030     2.2464683847
| 27>  H       -2.2431697810    -1.4531306135     1.6363478093
| 28>  H       -3.2207704378    -2.3269504903     2.8317807154
| 29> *
| 30>
| 31>                          ****END OF INPUT****

CARTESIAN COORDINATES (ANGSTROEM)
---------------------------------
  C      0.945401   -0.899220   -1.553132
  C      0.584837   -2.315401   -1.137470
  O     -0.801467   -2.368333   -0.872077
  C     -1.244915   -3.652447   -0.477639
  C     -2.741321   -3.593960   -0.303498
  C     -3.481581   -4.455711    0.674027
  C     -2.820845   -5.480530    1.574274
  N     -3.387606   -3.008683    0.871915
  C     -2.586054   -2.443936    1.947205
  H      2.015630   -0.824742   -1.768049
  H      0.389281   -0.609873   -2.449264
  H      0.700549   -0.191625   -0.755928
  H      0.846788   -3.031949   -1.935150
  H      1.157001   -2.613255   -0.241585
  H     -0.999827   -4.397305   -1.255235
  H     -0.724150   -3.967413    0.438083
  H     -3.243762   -3.335322   -1.235748
  H     -4.483885   -4.762856    0.372594
  H     -1.801767   -5.220937    1.864785
  H     -3.404933   -5.612031    2.491902
  H     -2.783943   -6.451234    1.068082
  H     -1.701685   -3.024164    2.246468
  H     -2.243170   -1.453131    1.636348
  H     -3.220770   -2.326950    2.831781

 Total Charge           Charge          ....    0
 Multiplicity           Mult            ....    1
 Number of Electrons    NEL             ....   72
 Basis Dimension        Dim             ....  369

ORBITAL ENERGIES
----------------

  NO   OCC          E(Eh)            E(eV)
   0   2.0000     -20.553295      -559.2836
   1   2.0000     -15.546217      -423.0341
   2   2.0000     -11.277813      -306.8849
   3   2.0000     -11.275222      -306.8144
   4   2.0000     -11.255575      -306.2798
   5   2.0000     -11.248563      -306.0890
   6   2.0000     -11.237178      -305.7792
   7   2.0000     -11.223703      -305.4125
   8   2.0000     -11.214247      -305.1552
   9   2.0000      -1.376353       -37.4525
  10   2.0000      -1.261952       -34.3394
  11   2.0000      -1.032880       -28.1061
  12   2.0000      -1.008212       -27.4348
  13   2.0000      -0.970591       -26.4111
  14   2.0000      -0.932019       -25.3615
  15   2.0000      -0.833335       -22.6762
  16   2.0000      -0.777855       -21.1665
  17   2.0000      -0.770207       -20.9584
  18   2.0000      -0.693049       -18.8588
  19   2.0000      -0.667957       -18.1760
  20   2.0000      -0.645878       -17.5752
  21   2.0000      -0.634334       -17.2611
  22   2.0000      -0.602194       -16.3865
  23   2.0000      -0.579004       -15.7555
  24   2.0000      -0.565693       -15.3933
  25   2.0000      -0.559146       -15.2151
  26   2.0000      -0.542898       -14.7730
  27   2.0000      -0.540350       -14.7037
  28   2.0000      -0.534658       -14.5488
  29   2.0000      -0.504628       -13.7316
  30   2.0000      -0.490304       -13.3418
  31   2.0000      -0.475464       -12.9380
  32   2.0000      -0.444639       -12.0992
  33   2.0000      -0.435117       -11.8401
  34   2.0000      -0.417695       -11.3661
  35   2.0000      -0.352763        -9.5992
  36   0.0000       0.131118         3.5679
  37   0.0000       0.147886         4.0242
  38   0.0000       0.165463         4.5025
  39   0.0000       0.168734         4.5915
  40   0.0000       0.186308         5.0697

MULLIKEN ATOMIC CHARGES
-----------------------
   0 C :   -0.361330
   1 C :   -0.048797
   2 O :   -0.291022
   3 C :   -0.089873
   4 C :   -0.025943
   5 C :   -0.051131
   6 C :   -0.391403
   7 N :   -0.220987
   8 C :   -0.288632
   9 H :    0.120882
  10 H :    0.130276
  11 H :    0.129539
  12 H :    0.089826
  13 H :    0.086821
  14 H :    0.108959
  15 H :    0.095804
  16 H :    0.115351
  17 H :    0.112310
  18 H :    0.120743
  19 H :    0.139430
  20 H :    0.139287
  21 H :    0.096738
  22 H :    0.146033
  23 H :    0.137119
Sum of atomic charges:    0.0000000

LOEWDIN ATOMIC CHARGES
----------------------
   0 C :   -0.316884
   1 C :   -0.357443
   2 O :    0.161517
   3 C :   -0.315069
   4 C :   -0.243231
   5 C :   -0.260220
   6 C :   -0.300638
   7 N :    0.106371
   8 C :   -0.330957
   9 H :    0.123844
  10 H :    0.124378
  11 H :    0.123871
  12 H :    0.115609
  13 H :    0.114997
  14 H :    0.126983
  15 H :    0.119525
  16 H :    0.144833
  17 H :    0.141828
  18 H :    0.119698
  19 H :    0.128631
  20 H :    0.130729
  21 H :    0.101175
  22 H :    0.122701
  23 H :    0.117754

  Mayer bond orders larger than 0.1
B(  0-C ,  1-C ) :   0.9529 B(  0-C ,  9-H ) :   0.9326 B(  0-C , 10-H ) :   0.9357
B(  0-C , 11-H ) :   0.9368 B(  1-C ,  2-O ) :   0.9265 B(  1-C , 12-H ) :   0.9236
B(  1-C , 13-H ) :   0.9230 B(  2-O ,  3-C ) :   0.9174 B(  3-C ,  4-C ) :   0.9423
B(  3-C , 14-H ) :   0.9157 B(  3-C , 15-H ) :   0.9336 B(  4-C ,  5-C ) :   0.9264
B(  4-C ,  7-N ) :   0.9147 B(  4-C , 16-H ) :   0.9153 B(  5-C ,  6-C ) :   0.9035
B(  5-C ,  7-N ) :   0.9118 B(  5-C , 17-H ) :   0.9166 B(  6-C , 18-H ) :   0.9392
B(  6-C , 19-H ) :   0.9352 B(  6-C , 20-H ) :   0.9308 B(  7-N ,  8-C ) :   0.8975
B(  8-C , 21-H ) :   0.9289 B(  8-C , 22-H ) :   0.9358 B(  8-C , 23-H ) :   0.9347

MP2 TOTAL ENERGY:     -404.811482721 Eh
FINAL SINGLE POINT ENERGY      -404.811482721063

DIPOLE MOMENT
-------------
                                X             Y             Z
Electronic contribution:     -4.54753       0.38128      -1.85689
Nuclear contribution   :      5.25702      -1.00549       1.97410
                        -----------------------------------------
Total Dipole Moment    :      0.70949      -0.62421       0.11721
                        -----------------------------------------
Magnitude (a.u.)       :      0.95224
Magnitude (Debye)      :      2.42040

                             ****ORCA TERMINATED NORMALLY****
TOTAL RUN TIME: 0 days 0 hours 18 minutes 21 seconds 983 msec
