                         Program Version 3.0.3 - RELEASE   -
|  1> ! RI-MP2 RIJK def2-TZVP def2-TZVP/C def2-TZVP/JK TIGHTSCF
|  2> % maxcore 2000
|  3> % mp2 density relaxed end
|  4> *xyz 0 1
|  5>  O       -0.0131369015     1.4026419770    -0.1988438472
|  6>  C       -0.0089319110     0.0002601554    -0.0447819957
|  7>  C        0.3370655497    -0.5999737026     1.3650113626
|  8>  C       -1.0629165673    -1.2330270997     1.4018080284
|  9>  C       -1.3617156605    -2.6164534580     1.9203844543
| 10>  C       -1.3361641130    -2.6621045667     3.4371299858
| 11>  O       -0.6636879637    -3.4156159713     4.0917894213
| 12>  C       -2.0922356616    -0.1399859321     1.2978901159
| 13>  C       -1.4033748052    -0.6034819832     0.0424264350
| 14>  H        0.8999071583     1.7074591341    -0.2082961338
| 15>  H        0.5893405081    -0.4808443784    -0.8296861066
| 16>  H        1.1477210820    -1.3320926731     1.3238624069
| 17>  H        0.5531003627     0.1323969048     2.1494379153
| 18>  H       -2.3709773216    -2.9135680072     1.6004797376
| 19>  H       -0.6515425396    -3.3588662603     1.5417315158
| 20>  H       -2.0032391972    -1.9137491933     3.9244364184
| 21>  H       -3.1260880183    -0.4587943997     1.3893260210
| 22>  H       -1.8915386586     0.8520690102     1.6911469389
| 23>  H       -1.9557947918    -1.0263911660    -0.7881642441
| 24> *
| 25>
| 26>                          ****END OF INPUT****

CARTESIAN COORDINATES (ANGSTROEM)
---------------------------------
  O     -0.013137    1.402642   -0.198844
  C     -0.008932    0.000260   -0.044782
  C      0.337066   -0.599974    1.365011
  C     -1.062917   -1.233027    1.401808
  C     -1.361716   -2.616453    1.920384
  C     -1.336164   -2.662105    3.437130
  O     -0.663688   -3.415616    4.091789
  C     -2.092236   -0.139986    1.297890
  C     -1.403375   -0.603482    0.042426
  H      0.899907    1.707459   -0.208296
  H      0.589341   -0.480844   -0.829686
  H      1.147721   -1.332093    1.323862
  H      0.553100    0.132397    2.149438
  H     -2.370977   -2.913568    1.600480
  H     -0.651543   -3.358866    1.541732
  H     -2.003239   -1.913749    3.924436
  H     -3.126088   -0.458794    1.389326
  H     -1.891539    0.852069    1.691147
  H     -1.955795   -1.026391   -0.788164

 Total Charge           Charge          ....    0
 Multiplicity           Mult            ....    1
 Number of Electrons    NEL             ....   68
 Basis Dimension        Dim             ....  339

ORBITAL ENERGIES
----------------

  NO   OCC          E(Eh)            E(eV)
   0   2.0000     -20.561548      -559.5082
   1   2.0000     -20.556932      -559.3826
   2   2.0000     -11.331209      -308.3379
   3   2.0000     -11.292382      -307.2813
   4   2.0000     -11.255917      -306.2891
   5   2.0000     -11.246719      -306.0388
   6   2.0000     -11.239393      -305.8394
   7   2.0000     -11.236183      -305.7521
   8   2.0000     -11.233777      -305.6866
   9   2.0000      -1.395685       -37.9785
  10   2.0000      -1.369894       -37.2767
  11   2.0000      -1.201202       -32.6864
  12   2.0000      -1.033735       -28.1294
  13   2.0000      -0.986340       -26.8397
  14   2.0000      -0.890834       -24.2408
  15   2.0000      -0.820786       -22.3347
  16   2.0000      -0.782614       -21.2960
  17   2.0000      -0.734238       -19.9796
  18   2.0000      -0.711845       -19.3703
  19   2.0000      -0.685133       -18.6434
  20   2.0000      -0.657247       -17.8846
  21   2.0000      -0.637461       -17.3462
  22   2.0000      -0.627420       -17.0730
  23   2.0000      -0.590423       -16.0662
  24   2.0000      -0.579511       -15.7693
  25   2.0000      -0.570115       -15.5136
  26   2.0000      -0.533079       -14.5058
  27   2.0000      -0.529822       -14.4172
  28   2.0000      -0.501342       -13.6422
  29   2.0000      -0.475589       -12.9414
  30   2.0000      -0.438423       -11.9301
  31   2.0000      -0.434972       -11.8362
  32   2.0000      -0.412630       -11.2282
  33   2.0000      -0.381151       -10.3716
  34   0.0000       0.126129         3.4322
  35   0.0000       0.128527         3.4974
  36   0.0000       0.148601         4.0436
  37   0.0000       0.154277         4.1981
  38   0.0000       0.167381         4.5547

MULLIKEN ATOMIC CHARGES
-----------------------
   0 O :   -0.454316
   1 C :    0.021012
   2 C :   -0.235749
   3 C :    0.008182
   4 C :   -0.182914
   5 C :    0.102167
   6 O :   -0.262806
   7 C :   -0.293088
   8 C :   -0.091337
   9 H :    0.315233
  10 H :    0.089994
  11 H :    0.123262
  12 H :    0.116190
  13 H :    0.131114
  14 H :    0.119927
  15 H :    0.080062
  16 H :    0.132138
  17 H :    0.144647
  18 H :    0.136281
Sum of atomic charges:    0.0000000

LOEWDIN ATOMIC CHARGES
----------------------
   0 O :   -0.016685
   1 C :   -0.307694
   2 C :   -0.178498
   3 C :   -0.205823
   4 C :   -0.227549
   5 C :   -0.285304
   6 O :    0.131557
   7 C :   -0.180120
   8 C :   -0.145438
   9 H :    0.175832
  10 H :    0.132689
  11 H :    0.136915
  12 H :    0.132233
  13 H :    0.158838
  14 H :    0.149716
  15 H :    0.111730
  16 H :    0.141611
  17 H :    0.138810
  18 H :    0.137180

  Mayer bond orders larger than 0.1
B(  0-O ,  1-C ) :   1.0894 B(  0-O ,  9-H ) :   0.8444 B(  1-C ,  2-C ) :   0.9448
B(  1-C ,  8-C ) :   0.9242 B(  1-C , 10-H ) :   0.9508 B(  2-C ,  3-C ) :   0.9442
B(  2-C , 11-H ) :   0.9206 B(  2-C , 12-H ) :   0.9024 B(  3-C ,  4-C ) :   0.8863
B(  3-C ,  7-C ) :   0.9015 B(  3-C ,  8-C ) :   0.7810 B(  4-C ,  5-C ) :   0.8887
B(  4-C , 13-H ) :   0.9143 B(  4-C , 14-H ) :   0.9029 B(  5-C ,  6-O ) :   1.9998
B(  5-C , 15-H ) :   0.9363 B(  7-C ,  8-C ) :   0.8854 B(  7-C , 16-H ) :   0.9344
B(  7-C , 17-H ) :   0.9059 B(  8-C , 18-H ) :   0.9209

MP2 TOTAL ENERGY:     -422.295316777 Eh
FINAL SINGLE POINT ENERGY      -422.295316776634

DIPOLE MOMENT
-------------
                                X             Y             Z
Electronic contribution:      0.63428      -1.53226       2.14036
Nuclear contribution   :     -0.59626       1.82335      -2.85120
                        -----------------------------------------
Total Dipole Moment    :      0.03802       0.29108      -0.71084
                        -----------------------------------------
Magnitude (a.u.)       :      0.76907
Magnitude (Debye)      :      1.95482

                             ****ORCA TERMINATED NORMALLY****
TOTAL RUN TIME: 0 days 0 hours 17 minutes 0 seconds 737 msec
