                         Program Version 3.0.3 - RELEASE   -
|  1> ! RI-MP2 RIJK def2-TZVP def2-TZVP/C def2-TZVP/JK TIGHTSCF
|  2> % maxcore 2000
|  3> % mp2 density relaxed end
|  4> *xyz 0 1
|  5>  C       -0.0915093873     1.5688225688    -0.0147074754
|  6>  C       -0.0029819486     0.0502305988     0.0296685514
|  7>  C        1.1268997672    -0.5902067959    -0.8265819569
|  8>  O        1.4330785617    -0.5960848062    -1.9888355604
|  9>  N        1.6858558504    -1.1615916043     0.2931863108
| 10>  C        0.7164421507    -0.6150701514     1.2243479710
| 11>  C        1.0106318235    -0.0618136003     2.5811497676
| 12>  C        0.1490017033    -1.3096488028     2.4185001546
| 13>  H        0.8746922023     2.0288179963     0.2137477834
| 14>  H       -0.3946121786     1.8970827718    -1.0131195036
| 15>  H       -0.8270557588     1.9461227496     0.7034380527
| 16>  H       -0.9721967164    -0.4105614003    -0.1845365549
| 17>  H        2.5084113508    -1.7328332595     0.4201463477
| 18>  H        2.0109191129    -0.1894046587     2.9825825820
| 19>  H        0.5279019647     0.8638824880     2.8778058012
| 20>  H       -0.9168769549    -1.2288774860     2.6064179390
| 21>  H        0.5811994270    -2.2607600779     2.7127825499
| 22> *
| 23>
| 24>                          ****END OF INPUT****

CARTESIAN COORDINATES (ANGSTROEM)
---------------------------------
  C     -0.091509    1.568823   -0.014707
  C     -0.002982    0.050231    0.029669
  C      1.126900   -0.590207   -0.826582
  O      1.433079   -0.596085   -1.988836
  N      1.685856   -1.161592    0.293186
  C      0.716442   -0.615070    1.224348
  C      1.010632   -0.061814    2.581150
  C      0.149002   -1.309649    2.418500
  H      0.874692    2.028818    0.213748
  H     -0.394612    1.897083   -1.013120
  H     -0.827056    1.946123    0.703438
  H     -0.972197   -0.410561   -0.184537
  H      2.508411   -1.732833    0.420146
  H      2.010919   -0.189405    2.982583
  H      0.527902    0.863882    2.877806
  H     -0.916877   -1.228877    2.606418
  H      0.581199   -2.260760    2.712783

 Total Charge           Charge          ....    0
 Multiplicity           Mult            ....    1
 Number of Electrons    NEL             ....   60
 Basis Dimension        Dim             ....  302

ORBITAL ENERGIES
----------------

  NO   OCC          E(Eh)            E(eV)
   0   2.0000     -20.523152      -558.4634
   1   2.0000     -15.585396      -424.1002
   2   2.0000     -11.347855      -308.7908
   3   2.0000     -11.290906      -307.2412
   4   2.0000     -11.253337      -306.2189
   5   2.0000     -11.239578      -305.8445
   6   2.0000     -11.238967      -305.8279
   7   2.0000     -11.229944      -305.5823
   8   2.0000      -1.385239       -37.6943
   9   2.0000      -1.276731       -34.7416
  10   2.0000      -1.130819       -30.7711
  11   2.0000      -1.046480       -28.4762
  12   2.0000      -0.913356       -24.8537
  13   2.0000      -0.843633       -22.9564
  14   2.0000      -0.808076       -21.9889
  15   2.0000      -0.758975       -20.6528
  16   2.0000      -0.690757       -18.7965
  17   2.0000      -0.676815       -18.4171
  18   2.0000      -0.644437       -17.5360
  19   2.0000      -0.617010       -16.7897
  20   2.0000      -0.604012       -16.4360
  21   2.0000      -0.571089       -15.5401
  22   2.0000      -0.543639       -14.7932
  23   2.0000      -0.533155       -14.5079
  24   2.0000      -0.514722       -14.0063
  25   2.0000      -0.494872       -13.4661
  26   2.0000      -0.481215       -13.0945
  27   2.0000      -0.438906       -11.9432
  28   2.0000      -0.407513       -11.0890
  29   2.0000      -0.369897       -10.0654
  30   0.0000       0.125099         3.4041
  31   0.0000       0.145190         3.9508
  32   0.0000       0.155629         4.2349
  33   0.0000       0.168251         4.5783
  34   0.0000       0.184967         5.0332

MULLIKEN ATOMIC CHARGES
-----------------------
   0 C :   -0.443885
   1 C :    0.009056
   2 C :    0.188104
   3 O :   -0.315709
   4 N :   -0.320772
   5 C :    0.107003
   6 C :   -0.262129
   7 C :   -0.281349
   8 H :    0.140835
   9 H :    0.153827
  10 H :    0.131444
  11 H :    0.121114
  12 H :    0.232158
  13 H :    0.135815
  14 H :    0.134827
  15 H :    0.134989
  16 H :    0.134671
Sum of atomic charges:    0.0000000

LOEWDIN ATOMIC CHARGES
----------------------
   0 C :   -0.284363
   1 C :   -0.176500
   2 C :   -0.410933
   3 O :    0.101464
   4 N :    0.170020
   5 C :   -0.248413
   6 C :   -0.206956
   7 C :   -0.207448
   8 H :    0.130387
   9 H :    0.134018
  10 H :    0.124688
  11 H :    0.158410
  12 H :    0.173052
  13 H :    0.135151
  14 H :    0.136027
  15 H :    0.135843
  16 H :    0.135555

  Mayer bond orders larger than 0.1
B(  0-C ,  1-C ) :   0.8841 B(  0-C ,  8-H ) :   0.9355 B(  0-C ,  9-H ) :   0.9331
B(  0-C , 10-H ) :   0.9362 B(  1-C ,  2-C ) :   0.8434 B(  1-C ,  5-C ) :   0.8580
B(  1-C , 11-H ) :   0.9014 B(  2-C ,  3-O ) :   2.0381 B(  2-C ,  4-N ) :   1.1599
B(  4-N ,  5-C ) :   0.8991 B(  4-N , 12-H ) :   0.8550 B(  5-C ,  6-C ) :   0.8653
B(  5-C ,  7-C ) :   0.8776 B(  6-C ,  7-C ) :   0.8862 B(  6-C , 13-H ) :   0.9230
B(  6-C , 14-H ) :   0.9182 B(  7-C , 15-H ) :   0.9213 B(  7-C , 16-H ) :   0.9228

MP2 TOTAL ENERGY:     -363.243333070 Eh
FINAL SINGLE POINT ENERGY      -363.243333069978

DIPOLE MOMENT
-------------
                                X             Y             Z
Electronic contribution:      3.05875      -3.66588      -5.40903
Nuclear contribution   :     -3.25182       3.61291       6.88265
                        -----------------------------------------
Total Dipole Moment    :     -0.19307      -0.05298       1.47362
                        -----------------------------------------
Magnitude (a.u.)       :      1.48716
Magnitude (Debye)      :      3.78005

                             ****ORCA TERMINATED NORMALLY****
TOTAL RUN TIME: 0 days 0 hours 12 minutes 0 seconds 889 msec
