                         Program Version 3.0.3 - RELEASE   -
|  1> ! RI-MP2 RIJK def2-TZVP def2-TZVP/C def2-TZVP/JK TIGHTSCF
|  2> % maxcore 2000
|  3> % mp2 density relaxed end
|  4> *xyz 0 1
|  5>  C       -0.0923358614     1.6160863894     0.1686782620
|  6>  C        0.1259285067     0.1167734367     0.1387282011
|  7>  O        1.2247457280    -0.3929092270     0.1848986091
|  8>  C       -1.0809556999    -0.6854183308     0.0519342438
|  9>  C       -2.0845063000    -1.3548183558    -0.0167254688
| 10>  C       -3.2937201766    -2.1521072581    -0.1067528571
| 11>  C       -4.0019184779    -2.2157573616    -1.4912419452
| 12>  C       -3.7724561053    -3.7347851355    -1.3744816336
| 13>  O       -3.0613532680    -3.5804505433    -0.1255823446
| 14>  H        0.8718293153     2.1231929208     0.2264445330
| 15>  H       -0.6328678041     1.9371381975    -0.7282961398
| 16>  H       -0.7117454931     1.8882748950     1.0301648515
| 17>  H       -3.9667404671    -1.8803255873     0.7182010117
| 18>  H       -5.0385034618    -1.8786967569    -1.4931682084
| 19>  H       -3.4532653822    -1.7250274219    -2.2945760726
| 20>  H       -4.6791003138    -4.3389604043    -1.2521929720
| 21>  H       -3.1419245788    -4.1869793068    -2.1475842001
| 22> *
| 23>
| 24>                          ****END OF INPUT****

CARTESIAN COORDINATES (ANGSTROEM)
---------------------------------
  C     -0.092336    1.616086    0.168678
  C      0.125929    0.116773    0.138728
  O      1.224746   -0.392909    0.184899
  C     -1.080956   -0.685418    0.051934
  C     -2.084506   -1.354818   -0.016725
  C     -3.293720   -2.152107   -0.106753
  C     -4.001918   -2.215757   -1.491242
  C     -3.772456   -3.734785   -1.374482
  O     -3.061353   -3.580451   -0.125582
  H      0.871829    2.123193    0.226445
  H     -0.632868    1.937138   -0.728296
  H     -0.711745    1.888275    1.030165
  H     -3.966740   -1.880326    0.718201
  H     -5.038503   -1.878697   -1.493168
  H     -3.453265   -1.725027   -2.294576
  H     -4.679100   -4.338960   -1.252193
  H     -3.141925   -4.186979   -2.147584

 Total Charge           Charge          ....    0
 Multiplicity           Mult            ....    1
 Number of Electrons    NEL             ....   66
 Basis Dimension        Dim             ....  327

ORBITAL ENERGIES
----------------

  NO   OCC          E(Eh)            E(eV)
   0   2.0000     -20.565747      -559.6224
   1   2.0000     -20.556726      -559.3769
   2   2.0000     -11.358433      -309.0787
   3   2.0000     -11.325638      -308.1863
   4   2.0000     -11.293254      -307.3051
   5   2.0000     -11.260863      -306.4237
   6   2.0000     -11.253585      -306.2256
   7   2.0000     -11.246701      -306.0383
   8   2.0000     -11.243853      -305.9608
   9   2.0000      -1.398450       -38.0537
  10   2.0000      -1.395949       -37.9857
  11   2.0000      -1.084699       -29.5161
  12   2.0000      -1.037330       -28.2272
  13   2.0000      -1.014928       -27.6176
  14   2.0000      -0.961965       -26.1764
  15   2.0000      -0.854414       -23.2498
  16   2.0000      -0.803346       -21.8602
  17   2.0000      -0.723396       -19.6846
  18   2.0000      -0.694562       -18.9000
  19   2.0000      -0.685510       -18.6537
  20   2.0000      -0.636289       -17.3143
  21   2.0000      -0.624214       -16.9857
  22   2.0000      -0.612197       -16.6587
  23   2.0000      -0.606433       -16.5019
  24   2.0000      -0.569511       -15.4972
  25   2.0000      -0.559918       -15.2362
  26   2.0000      -0.522732       -14.2243
  27   2.0000      -0.507208       -13.8018
  28   2.0000      -0.483512       -13.1570
  29   2.0000      -0.445265       -12.1163
  30   2.0000      -0.440093       -11.9755
  31   2.0000      -0.410304       -11.1649
  32   2.0000      -0.397745       -10.8232
  33   0.0000       0.089909         2.4465
  34   0.0000       0.131422         3.5762
  35   0.0000       0.143489         3.9045
  36   0.0000       0.145751         3.9661
  37   0.0000       0.160532         4.3683

MULLIKEN ATOMIC CHARGES
-----------------------
   0 C :   -0.392653
   1 C :    0.125914
   2 O :   -0.265251
   3 C :    0.121779
   4 C :   -0.058636
   5 C :    0.039274
   6 C :   -0.290877
   7 C :   -0.011623
   8 O :   -0.316725
   9 H :    0.154332
  10 H :    0.145254
  11 H :    0.147518
  12 H :    0.118594
  13 H :    0.134133
  14 H :    0.139195
  15 H :    0.100949
  16 H :    0.108824
Sum of atomic charges:   -0.0000000

LOEWDIN ATOMIC CHARGES
----------------------
   0 C :   -0.264869
   1 C :   -0.353902
   2 O :    0.170907
   3 C :   -0.014690
   4 C :   -0.012107
   5 C :   -0.270863
   6 C :   -0.207236
   7 C :   -0.266601
   8 O :    0.143998
   9 H :    0.134581
  10 H :    0.139437
  11 H :    0.140294
  12 H :    0.154560
  13 H :    0.132089
  14 H :    0.137484
  15 H :    0.117529
  16 H :    0.119390

  Mayer bond orders larger than 0.1
B(  0-C ,  1-C ) :   1.0017 B(  0-C ,  3-C ) :  -0.1298 B(  0-C ,  9-H ) :   0.9375
B(  0-C , 10-H ) :   0.9093 B(  0-C , 11-H ) :   0.9095 B(  1-C ,  2-O ) :   2.0245
B(  1-C ,  3-C ) :   0.8745 B(  3-C ,  4-C ) :   2.6448 B(  3-C ,  5-C ) :  -0.1270
B(  4-C ,  5-C ) :   1.0892 B(  5-C ,  6-C ) :   0.9131 B(  5-C ,  8-O ) :   0.9927
B(  5-C , 12-H ) :   0.9023 B(  6-C ,  7-C ) :   0.9730 B(  6-C , 13-H ) :   0.9270
B(  6-C , 14-H ) :   0.9298 B(  7-C ,  8-O ) :   0.9373 B(  7-C , 15-H ) :   0.9193
B(  7-C , 16-H ) :   0.9155

MP2 TOTAL ENERGY:     -421.064260098 Eh
FINAL SINGLE POINT ENERGY      -421.064260097568

DIPOLE MOMENT
-------------
                                X             Y             Z
Electronic contribution:      4.54442      -2.08186       2.74763
Nuclear contribution   :     -6.09086       2.86130      -3.34966
                        -----------------------------------------
Total Dipole Moment    :     -1.54644       0.77944      -0.60204
                        -----------------------------------------
Magnitude (a.u.)       :      1.83343
Magnitude (Debye)      :      4.66020

                             ****ORCA TERMINATED NORMALLY****
TOTAL RUN TIME: 0 days 0 hours 14 minutes 56 seconds 516 msec
