                         Program Version 3.0.3 - RELEASE   -
|  1> ! RI-MP2 RIJK def2-TZVP def2-TZVP/C def2-TZVP/JK TIGHTSCF
|  2> % maxcore 2000
|  3> % mp2 density relaxed end
|  4> *xyz 0 1
|  5>  C       -0.2037302906     1.5178298684     0.2784753291
|  6>  C       -0.2887505262     0.0189002910    -0.0029865859
|  7>  N        0.5679341294    -0.3236386918    -1.1328989259
|  8>  C        1.9332038622    -0.7519894043    -0.8646489668
|  9>  C        0.9359576572    -1.7174891105    -1.4260572735
| 10>  C        0.4404535509    -2.8721785158    -0.5773953404
| 11>  C        0.9886955856    -1.9730672960    -2.9083180232
| 12>  C        1.3446544900    -3.2648562769    -3.5099247148
| 13>  O       -0.0147683167    -2.8240168817    -3.4724624391
| 14>  H        0.8157035952     1.8047558950     0.5569322434
| 15>  H       -0.4849379992     2.0916438814    -0.6087260556
| 16>  H       -0.8699575376     1.7945647822     1.1014926170
| 17>  H       -0.0332105590    -0.5366627449     0.9145269718
| 18>  H       -1.3168755593    -0.2543112522    -0.2680693274
| 19>  H        2.7106727425    -0.3171899838    -1.4896405517
| 20>  H        2.2266077990    -0.9095851380     0.1738905339
| 21>  H        0.3391912668    -2.5903042557     0.4714622598
| 22>  H       -0.5261265077    -3.2267195173    -0.9448238001
| 23>  H        1.1418127513    -3.7116202788    -0.6200231414
| 24>  H        1.1799598454    -1.0686551736    -3.4861042008
| 25>  H        1.8033311237    -3.2857813733    -4.4978144339
| 26>  H        1.5752437671    -4.1210144633    -2.8787665045
| 27> *
| 28>
| 29>                          ****END OF INPUT****

CARTESIAN COORDINATES (ANGSTROEM)
---------------------------------
  C     -0.203730    1.517830    0.278475
  C     -0.288751    0.018900   -0.002987
  N      0.567934   -0.323639   -1.132899
  C      1.933204   -0.751989   -0.864649
  C      0.935958   -1.717489   -1.426057
  C      0.440454   -2.872179   -0.577395
  C      0.988696   -1.973067   -2.908318
  C      1.344654   -3.264856   -3.509925
  O     -0.014768   -2.824017   -3.472462
  H      0.815704    1.804756    0.556932
  H     -0.484938    2.091644   -0.608726
  H     -0.869958    1.794565    1.101493
  H     -0.033211   -0.536663    0.914527
  H     -1.316876   -0.254311   -0.268069
  H      2.710673   -0.317190   -1.489641
  H      2.226608   -0.909585    0.173891
  H      0.339191   -2.590304    0.471462
  H     -0.526127   -3.226720   -0.944824
  H      1.141813   -3.711620   -0.620023
  H      1.179960   -1.068655   -3.486104
  H      1.803331   -3.285781   -4.497814
  H      1.575244   -4.121014   -2.878767

 Total Charge           Charge          ....    0
 Multiplicity           Mult            ....    1
 Number of Electrons    NEL             ....   70
 Basis Dimension        Dim             ....  357

ORBITAL ENERGIES
----------------

  NO   OCC          E(Eh)            E(eV)
   0   2.0000     -20.564028      -559.5756
   1   2.0000     -15.556445      -423.3124
   2   2.0000     -11.283616      -307.0428
   3   2.0000     -11.279744      -306.9374
   4   2.0000     -11.271063      -306.7012
   5   2.0000     -11.254860      -306.2603
   6   2.0000     -11.251465      -306.1679
   7   2.0000     -11.222172      -305.3708
   8   2.0000     -11.211761      -305.0875
   9   2.0000      -1.407395       -38.2972
  10   2.0000      -1.276379       -34.7320
  11   2.0000      -1.051973       -28.6257
  12   2.0000      -0.989283       -26.9198
  13   2.0000      -0.934044       -25.4166
  14   2.0000      -0.897036       -24.4096
  15   2.0000      -0.878074       -23.8936
  16   2.0000      -0.802121       -21.8268
  17   2.0000      -0.750373       -20.4187
  18   2.0000      -0.700147       -19.0520
  19   2.0000      -0.677424       -18.4336
  20   2.0000      -0.637380       -17.3440
  21   2.0000      -0.625066       -17.0089
  22   2.0000      -0.592413       -16.1204
  23   2.0000      -0.584303       -15.8997
  24   2.0000      -0.557789       -15.1782
  25   2.0000      -0.540901       -14.7187
  26   2.0000      -0.538988       -14.6666
  27   2.0000      -0.519109       -14.1257
  28   2.0000      -0.504957       -13.7406
  29   2.0000      -0.502016       -13.6605
  30   2.0000      -0.480971       -13.0879
  31   2.0000      -0.450292       -12.2531
  32   2.0000      -0.441240       -12.0067
  33   2.0000      -0.413824       -11.2607
  34   2.0000      -0.367225        -9.9927
  35   0.0000       0.137997         3.7551
  36   0.0000       0.154762         4.2113
  37   0.0000       0.168022         4.5721
  38   0.0000       0.176867         4.8128
  39   0.0000       0.184952         5.0328

MULLIKEN ATOMIC CHARGES
-----------------------
   0 C :   -0.377721
   1 C :   -0.120258
   2 N :   -0.245334
   3 C :   -0.227791
   4 C :    0.156254
   5 C :   -0.395603
   6 C :    0.001499
   7 C :   -0.082432
   8 O :   -0.336009
   9 H :    0.122873
  10 H :    0.132361
  11 H :    0.125700
  12 H :    0.082222
  13 H :    0.123048
  14 H :    0.127120
  15 H :    0.115488
  16 H :    0.134162
  17 H :    0.161428
  18 H :    0.133697
  19 H :    0.137999
  20 H :    0.117779
  21 H :    0.113519
Sum of atomic charges:    0.0000000

LOEWDIN ATOMIC CHARGES
----------------------
   0 C :   -0.315733
   1 C :   -0.317728
   2 N :    0.134015
   3 C :   -0.224537
   4 C :   -0.291261
   5 C :   -0.266015
   6 C :   -0.251385
   7 C :   -0.264658
   8 O :    0.147541
   9 H :    0.120703
  10 H :    0.123985
  11 H :    0.121412
  12 H :    0.117518
  13 H :    0.134228
  14 H :    0.125801
  15 H :    0.126914
  16 H :    0.127119
  17 H :    0.136698
  18 H :    0.130417
  19 H :    0.147269
  20 H :    0.119088
  21 H :    0.118607

  Mayer bond orders larger than 0.1
B(  0-C ,  1-C ) :   0.9347 B(  0-C ,  9-H ) :   0.9355 B(  0-C , 10-H ) :   0.9375
B(  0-C , 11-H ) :   0.9382 B(  1-C ,  2-N ) :   0.8829 B(  1-C , 12-H ) :   0.9210
B(  1-C , 13-H ) :   0.9278 B(  2-N ,  3-C ) :   0.9319 B(  2-N ,  4-C ) :   0.7302
B(  3-C ,  4-C ) :   0.9214 B(  3-C , 14-H ) :   0.9038 B(  3-C , 15-H ) :   0.9153
B(  4-C ,  5-C ) :   0.9217 B(  4-C ,  6-C ) :   0.9199 B(  5-C , 16-H ) :   0.9320
B(  5-C , 17-H ) :   0.9309 B(  5-C , 18-H ) :   0.9327 B(  6-C ,  7-C ) :   0.9761
B(  6-C ,  8-O ) :   0.9079 B(  6-C , 19-H ) :   0.9164 B(  7-C ,  8-O ) :   0.8948
B(  7-C , 20-H ) :   0.9195 B(  7-C , 21-H ) :   0.9092

MP2 TOTAL ENERGY:     -403.603685568 Eh
FINAL SINGLE POINT ENERGY      -403.603685567660

DIPOLE MOMENT
-------------
                                X             Y             Z
Electronic contribution:      0.15342      -3.25420      -6.83969
Nuclear contribution   :      0.52267       3.10687       7.45930
                        -----------------------------------------
Total Dipole Moment    :      0.67609      -0.14734       0.61961
                        -----------------------------------------
Magnitude (a.u.)       :      0.92883
Magnitude (Debye)      :      2.36089

                             ****ORCA TERMINATED NORMALLY****
TOTAL RUN TIME: 0 days 0 hours 19 minutes 21 seconds 168 msec
