                         Program Version 3.0.3 - RELEASE   -
|  1> ! RI-MP2 RIJK def2-TZVP def2-TZVP/C def2-TZVP/JK TIGHTSCF
|  2> % maxcore 2000
|  3> % mp2 density relaxed end
|  4> *xyz 0 1
|  5>  C        0.1278740679     1.7716155110    -0.1433089101
|  6>  C        0.0152204400     0.2366778226    -0.0733836775
|  7>  C        0.6822320420    -0.4586880426    -1.2268761562
|  8>  C        1.8992149345    -1.0056742769    -1.2415480277
|  9>  C        2.2622205992    -1.6121609808    -2.5743064679
| 10>  C        1.1591308780    -1.0581751600    -3.5047937559
| 11>  C       -0.0152914148    -0.6641982187    -2.5689725311
| 12>  C       -1.0807469094    -1.7687792863    -2.4763182139
| 13>  O       -0.6383080180     0.5635571015    -2.9612191274
| 14>  H        1.1774548039     2.0819807884    -0.1250867142
| 15>  H       -0.3211219817     2.1469727499    -1.0646004813
| 16>  H       -0.3785544269     2.2347434070     0.7100097136
| 17>  H        0.4584745208    -0.1169138469     0.8648624110
| 18>  H       -1.0466804563    -0.0370232272    -0.0405027365
| 19>  H        2.5617783294    -1.0477804060    -0.3823282610
| 20>  H        3.2710670750    -1.3418905732    -2.9069270340
| 21>  H        2.2417586969    -2.7104839748    -2.5276098978
| 22>  H        1.5059900436    -0.1391622146    -3.9860239546
| 23>  H        0.8615570675    -1.7600910898    -4.2902437724
| 24>  H       -0.6319130928    -2.7265027481    -2.1956136123
| 25>  H       -1.8472681129    -1.5154167148    -1.7383497942
| 26>  H       -1.5748859661    -1.9046045616    -3.4470899719
| 27>  H       -1.1976789601     0.3813854021    -3.7234825670
| 28> *
| 29>
| 30>                          ****END OF INPUT****

CARTESIAN COORDINATES (ANGSTROEM)
---------------------------------
  C      0.127874    1.771616   -0.143309
  C      0.015220    0.236678   -0.073384
  C      0.682232   -0.458688   -1.226876
  C      1.899215   -1.005674   -1.241548
  C      2.262221   -1.612161   -2.574306
  C      1.159131   -1.058175   -3.504794
  C     -0.015291   -0.664198   -2.568973
  C     -1.080747   -1.768779   -2.476318
  O     -0.638308    0.563557   -2.961219
  H      1.177455    2.081981   -0.125087
  H     -0.321122    2.146973   -1.064600
  H     -0.378554    2.234743    0.710010
  H      0.458475   -0.116914    0.864862
  H     -1.046680   -0.037023   -0.040503
  H      2.561778   -1.047780   -0.382328
  H      3.271067   -1.341891   -2.906927
  H      2.241759   -2.710484   -2.527610
  H      1.505990   -0.139162   -3.986024
  H      0.861557   -1.760091   -4.290244
  H     -0.631913   -2.726503   -2.195614
  H     -1.847268   -1.515417   -1.738350
  H     -1.574886   -1.904605   -3.447090
  H     -1.197679    0.381385   -3.723483

 Total Charge           Charge          ....    0
 Multiplicity           Mult            ....    1
 Number of Electrons    NEL             ....   70
 Basis Dimension        Dim             ....  363

ORBITAL ENERGIES
----------------

  NO   OCC          E(Eh)            E(eV)
   0   2.0000     -20.550302      -559.2022
   1   2.0000     -11.285033      -307.0814
   2   2.0000     -11.222495      -305.3796
   3   2.0000     -11.220062      -305.3134
   4   2.0000     -11.218680      -305.2758
   5   2.0000     -11.218204      -305.2628
   6   2.0000     -11.216116      -305.2060
   7   2.0000     -11.214381      -305.1588
   8   2.0000     -11.200112      -304.7706
   9   2.0000      -1.358515       -36.9671
  10   2.0000      -1.132122       -30.8066
  11   2.0000      -1.034802       -28.1584
  12   2.0000      -0.996142       -27.1064
  13   2.0000      -0.947835       -25.7919
  14   2.0000      -0.892778       -24.2937
  15   2.0000      -0.832836       -22.6626
  16   2.0000      -0.785565       -21.3763
  17   2.0000      -0.701686       -19.0939
  18   2.0000      -0.672998       -18.3132
  19   2.0000      -0.639397       -17.3989
  20   2.0000      -0.613103       -16.6834
  21   2.0000      -0.607231       -16.5236
  22   2.0000      -0.584349       -15.9009
  23   2.0000      -0.573649       -15.6098
  24   2.0000      -0.552520       -15.0348
  25   2.0000      -0.544577       -14.8187
  26   2.0000      -0.512580       -13.9480
  27   2.0000      -0.505874       -13.7655
  28   2.0000      -0.498798       -13.5730
  29   2.0000      -0.489516       -13.3204
  30   2.0000      -0.483256       -13.1501
  31   2.0000      -0.467180       -12.7126
  32   2.0000      -0.447720       -12.1831
  33   2.0000      -0.424037       -11.5386
  34   2.0000      -0.335180        -9.1207
  35   0.0000       0.129310         3.5187
  36   0.0000       0.150200         4.0871
  37   0.0000       0.153117         4.1665
  38   0.0000       0.174933         4.7602
  39   0.0000       0.178068         4.8455

MULLIKEN ATOMIC CHARGES
-----------------------
   0 C :   -0.391780
   1 C :   -0.222225
   2 C :   -0.001319
   3 C :   -0.188583
   4 C :   -0.191788
   5 C :   -0.274802
   6 C :    0.299134
   7 C :   -0.471609
   8 O :   -0.467701
   9 H :    0.117524
  10 H :    0.151933
  11 H :    0.120390
  12 H :    0.117440
  13 H :    0.101133
  14 H :    0.121714
  15 H :    0.120977
  16 H :    0.112230
  17 H :    0.118282
  18 H :    0.114594
  19 H :    0.137601
  20 H :    0.142550
  21 H :    0.125126
  22 H :    0.309180
Sum of atomic charges:    0.0000000

LOEWDIN ATOMIC CHARGES
----------------------
   0 C :   -0.310055
   1 C :   -0.249126
   2 C :   -0.129352
   3 C :   -0.128113
   4 C :   -0.242461
   5 C :   -0.206841
   6 C :   -0.347462
   7 C :   -0.273888
   8 O :    0.003898
   9 H :    0.119530
  10 H :    0.125467
  11 H :    0.116752
  12 H :    0.141937
  13 H :    0.142329
  14 H :    0.137309
  15 H :    0.135732
  16 H :    0.138076
  17 H :    0.144112
  18 H :    0.131412
  19 H :    0.131802
  20 H :    0.125819
  21 H :    0.121011
  22 H :    0.172112

  Mayer bond orders larger than 0.1
B(  0-C ,  1-C ) :   0.9160 B(  0-C ,  9-H ) :   0.9389 B(  0-C , 10-H ) :   0.9337
B(  0-C , 11-H ) :   0.9351 B(  1-C ,  2-C ) :   0.9066 B(  1-C , 12-H ) :   0.9480
B(  1-C , 13-H ) :   0.9190 B(  2-C ,  3-C ) :   1.7406 B(  2-C ,  6-C ) :   0.8751
B(  3-C ,  4-C ) :   0.9421 B(  3-C , 14-H ) :   0.9299 B(  4-C ,  5-C ) :   0.9683
B(  4-C , 15-H ) :   0.9291 B(  4-C , 16-H ) :   0.9070 B(  5-C ,  6-C ) :   0.8894
B(  5-C , 17-H ) :   0.9288 B(  5-C , 18-H ) :   0.9278 B(  6-C ,  7-C ) :   0.9047
B(  6-C ,  8-O ) :   0.9820 B(  7-C , 19-H ) :   0.9321 B(  7-C , 20-H ) :   0.9407
B(  7-C , 21-H ) :   0.9247 B(  8-O , 22-H ) :   0.8431

MP2 TOTAL ENERGY:     -387.639400585 Eh
FINAL SINGLE POINT ENERGY      -387.639400585000

DIPOLE MOMENT
-------------
                                X             Y             Z
Electronic contribution:      0.90591       0.06813      -1.75036
Nuclear contribution   :     -1.03280      -0.60293       1.46871
                        -----------------------------------------
Total Dipole Moment    :     -0.12689      -0.53480      -0.28164
                        -----------------------------------------
Magnitude (a.u.)       :      0.61761
Magnitude (Debye)      :      1.56983

                             ****ORCA TERMINATED NORMALLY****
TOTAL RUN TIME: 0 days 0 hours 22 minutes 45 seconds 260 msec
