                         Program Version 3.0.3 - RELEASE   -
|  1> ! RI-MP2 RIJK def2-TZVP def2-TZVP/C def2-TZVP/JK TIGHTSCF
|  2> % maxcore 2000
|  3> % mp2 density relaxed end
|  4> *xyz 0 1
|  5>  N        0.0105317563    -1.0001638182     0.6240828503
|  6>  C        0.0353948363     0.1202682513     0.3475972304
|  7>  C        0.0218243672     1.5419402119    -0.0092709403
|  8>  O        1.3272530234     2.0537816411     0.0698211235
|  9>  C        1.3887679175     3.4329965905    -0.2685134074
| 10>  C        2.8246324962     3.8716416525    -0.2348993188
| 11>  C        3.1461987394     5.2607741880     0.1806618777
| 12>  N        3.4950147767     4.1257398380     1.0459897376
| 13>  H       -0.3949571493     1.6447714414    -1.0250942412
| 14>  H       -0.6649274321     2.0673359544     0.6754496580
| 15>  H        0.9615542388     3.5934587299    -1.2727338410
| 16>  H        0.7900045360     4.0260048741     0.4445152105
| 17>  H        3.4590438893     3.3810092042    -0.9693128505
| 18>  H        3.9908643023     5.7759735261    -0.2666607950
| 19>  H        2.3230984570     5.9106641452     0.4689551853
| 20>  H        2.8300110351     4.0423291196     1.8115826710
| 21> *
| 22>
| 23>                          ****END OF INPUT****

CARTESIAN COORDINATES (ANGSTROEM)
---------------------------------
  N      0.010532   -1.000164    0.624083
  C      0.035395    0.120268    0.347597
  C      0.021824    1.541940   -0.009271
  O      1.327253    2.053782    0.069821
  C      1.388768    3.432997   -0.268513
  C      2.824632    3.871642   -0.234899
  C      3.146199    5.260774    0.180662
  N      3.495015    4.125740    1.045990
  H     -0.394957    1.644771   -1.025094
  H     -0.664927    2.067336    0.675450
  H      0.961554    3.593459   -1.272734
  H      0.790005    4.026005    0.444515
  H      3.459044    3.381009   -0.969313
  H      3.990864    5.775974   -0.266661
  H      2.323098    5.910664    0.468955
  H      2.830011    4.042329    1.811583

 Total Charge           Charge          ....    0
 Multiplicity           Mult            ....    1
 Number of Electrons    NEL             ....   60
 Basis Dimension        Dim             ....  296

ORBITAL ENERGIES
----------------

  NO   OCC          E(Eh)            E(eV)
   0   2.0000     -20.597066      -560.4747
   1   2.0000     -15.580178      -423.9582
   2   2.0000     -15.569213      -423.6598
   3   2.0000     -11.347220      -308.7736
   4   2.0000     -11.311157      -307.7922
   5   2.0000     -11.280046      -306.9456
   6   2.0000     -11.274270      -306.7885
   7   2.0000     -11.269261      -306.6522
   8   2.0000      -1.421251       -38.6742
   9   2.0000      -1.274885       -34.6914
  10   2.0000      -1.225244       -33.3406
  11   2.0000      -1.049756       -28.5653
  12   2.0000      -0.964017       -26.2322
  13   2.0000      -0.893342       -24.3091
  14   2.0000      -0.827887       -22.5280
  15   2.0000      -0.742853       -20.2141
  16   2.0000      -0.717463       -19.5232
  17   2.0000      -0.703538       -19.1443
  18   2.0000      -0.674126       -18.3439
  19   2.0000      -0.658153       -17.9093
  20   2.0000      -0.600244       -16.3335
  21   2.0000      -0.575047       -15.6478
  22   2.0000      -0.549085       -14.9414
  23   2.0000      -0.524397       -14.2696
  24   2.0000      -0.495206       -13.4752
  25   2.0000      -0.491641       -13.3782
  26   2.0000      -0.477038       -12.9809
  27   2.0000      -0.473931       -12.8963
  28   2.0000      -0.455412       -12.3924
  29   2.0000      -0.404550       -11.0084
  30   0.0000       0.112119         3.0509
  31   0.0000       0.142613         3.8807
  32   0.0000       0.152025         4.1368
  33   0.0000       0.154864         4.2141
  34   0.0000       0.167926         4.5695

MULLIKEN ATOMIC CHARGES
-----------------------
   0 N :   -0.054219
   1 C :   -0.143534
   2 C :    0.022570
   3 O :   -0.258976
   4 C :   -0.119312
   5 C :    0.005619
   6 C :   -0.201565
   7 N :   -0.353316
   8 H :    0.138656
   9 H :    0.135806
  10 H :    0.111317
  11 H :    0.104870
  12 H :    0.133634
  13 H :    0.130505
  14 H :    0.126492
  15 H :    0.221453
Sum of atomic charges:    0.0000000

LOEWDIN ATOMIC CHARGES
----------------------
   0 N :    0.074739
   1 C :   -0.177721
   2 C :   -0.316228
   3 O :    0.176854
   4 C :   -0.311693
   5 C :   -0.281628
   6 C :   -0.263764
   7 N :   -0.007030
   8 H :    0.145087
   9 H :    0.144662
  10 H :    0.129203
  11 H :    0.125832
  12 H :    0.146901
  13 H :    0.126735
  14 H :    0.120950
  15 H :    0.167100

  Mayer bond orders larger than 0.1
B(  0-N ,  1-C ) :   2.8448 B(  1-C ,  2-C ) :   0.9388 B(  2-C ,  3-O ) :   0.9804
B(  2-C ,  8-H ) :   0.9066 B(  2-C ,  9-H ) :   0.9057 B(  3-O ,  4-C ) :   0.9109
B(  4-C ,  5-C ) :   0.9645 B(  4-C , 10-H ) :   0.9158 B(  4-C , 11-H ) :   0.9166
B(  5-C ,  6-C ) :   0.9317 B(  5-C ,  7-N ) :   0.9290 B(  5-C , 12-H ) :   0.9148
B(  6-C ,  7-N ) :   0.9345 B(  6-C , 13-H ) :   0.9187 B(  6-C , 14-H ) :   0.9175
B(  7-N , 15-H ) :   0.8725

MP2 TOTAL ENERGY:     -379.246113730 Eh
FINAL SINGLE POINT ENERGY      -379.246113730152

DIPOLE MOMENT
-------------
                                X             Y             Z
Electronic contribution:     -1.75213      -7.99960       1.15324
Nuclear contribution   :      0.90436       9.92138      -1.76454
                        -----------------------------------------
Total Dipole Moment    :     -0.84778       1.92179      -0.61130
                        -----------------------------------------
Magnitude (a.u.)       :      2.18762
Magnitude (Debye)      :      5.56049

                             ****ORCA TERMINATED NORMALLY****
TOTAL RUN TIME: 0 days 0 hours 9 minutes 50 seconds 311 msec
