                         Program Version 3.0.3 - RELEASE   -
|  1> ! RI-MP2 RIJK def2-TZVP def2-TZVP/C def2-TZVP/JK TIGHTSCF
|  2> % maxcore 2000
|  3> % mp2 density relaxed end
|  4> *xyz 0 1
|  5>  C        0.0811854608     1.5048750871    -0.1002223170
|  6>  C       -0.0100221115     0.0144285582    -0.0508843172
|  7>  C       -1.0781152231    -0.7781902537     0.0943305352
|  8>  C       -2.5160857939    -0.4014893292     0.2523129783
|  9>  C       -0.6258699024    -2.1959986386     0.0782918805
| 10>  C       -1.2036316864    -3.2913432987     0.9382719733
| 11>  C       -1.3795656864    -3.3304254342    -0.5683695180
| 12>  O        0.7771131222    -2.1877199109    -0.0857221935
| 13>  C        1.2254906463    -0.8404240998    -0.1728993776
| 14>  H        0.7278272926     1.8889308641     0.6995510764
| 15>  H        0.5226107295     1.8437173041    -1.0465953029
| 16>  H       -0.8958325390     1.9828980686     0.0022132659
| 17>  H       -2.6554165889     0.6817802032     0.2413778841
| 18>  H       -3.1301556340    -0.8239876051    -0.5523581657
| 19>  H       -2.9265687274    -0.7801624138     1.1963365351
| 20>  H       -0.4879222769    -3.9787772083     1.3749993130
| 21>  H       -2.0676225997    -3.0771415545     1.5586022606
| 22>  H       -2.3644403579    -3.1430481648    -0.9831997677
| 23>  H       -0.7795775613    -4.0435760062    -1.1224151090
| 24>  H        1.7498176596    -0.6809756090    -1.1300543670
| 25>  H        1.9549900978    -0.6354273586     0.6285377330
| 26> *
| 27>
| 28>                          ****END OF INPUT****

CARTESIAN COORDINATES (ANGSTROEM)
---------------------------------
  C      0.081185    1.504875   -0.100222
  C     -0.010022    0.014429   -0.050884
  C     -1.078115   -0.778190    0.094331
  C     -2.516086   -0.401489    0.252313
  C     -0.625870   -2.195999    0.078292
  C     -1.203632   -3.291343    0.938272
  C     -1.379566   -3.330425   -0.568370
  O      0.777113   -2.187720   -0.085722
  C      1.225491   -0.840424   -0.172899
  H      0.727827    1.888931    0.699551
  H      0.522611    1.843717   -1.046595
  H     -0.895833    1.982898    0.002213
  H     -2.655417    0.681780    0.241378
  H     -3.130156   -0.823988   -0.552358
  H     -2.926569   -0.780162    1.196337
  H     -0.487922   -3.978777    1.374999
  H     -2.067623   -3.077142    1.558602
  H     -2.364440   -3.143048   -0.983200
  H     -0.779578   -4.043576   -1.122415
  H      1.749818   -0.680976   -1.130054
  H      1.954990   -0.635427    0.628538

 Total Charge           Charge          ....    0
 Multiplicity           Mult            ....    1
 Number of Electrons    NEL             ....   68
 Basis Dimension        Dim             ....  351

ORBITAL ENERGIES
----------------

  NO   OCC          E(Eh)            E(eV)
   0   2.0000     -20.548168      -559.1441
   1   2.0000     -11.283655      -307.0439
   2   2.0000     -11.273125      -306.7573
   3   2.0000     -11.231486      -305.6243
   4   2.0000     -11.228605      -305.5459
   5   2.0000     -11.228379      -305.5397
   6   2.0000     -11.227664      -305.5203
   7   2.0000     -11.218991      -305.2843
   8   2.0000     -11.218362      -305.2672
   9   2.0000      -1.379151       -37.5286
  10   2.0000      -1.130614       -30.7656
  11   2.0000      -1.097748       -29.8713
  12   2.0000      -0.996421       -27.1140
  13   2.0000      -0.933785       -25.4096
  14   2.0000      -0.906125       -24.6569
  15   2.0000      -0.823910       -22.4197
  16   2.0000      -0.765961       -20.8428
  17   2.0000      -0.720860       -19.6156
  18   2.0000      -0.665055       -18.0971
  19   2.0000      -0.644131       -17.5277
  20   2.0000      -0.627780       -17.0828
  21   2.0000      -0.612813       -16.6755
  22   2.0000      -0.578161       -15.7326
  23   2.0000      -0.577615       -15.7177
  24   2.0000      -0.563825       -15.3425
  25   2.0000      -0.546615       -14.8741
  26   2.0000      -0.531324       -14.4581
  27   2.0000      -0.515206       -14.0195
  28   2.0000      -0.503166       -13.6918
  29   2.0000      -0.493006       -13.4154
  30   2.0000      -0.471344       -12.8259
  31   2.0000      -0.419554       -11.4166
  32   2.0000      -0.399830       -10.8799
  33   2.0000      -0.311441        -8.4747
  34   0.0000       0.135342         3.6828
  35   0.0000       0.150444         4.0938
  36   0.0000       0.163424         4.4470
  37   0.0000       0.178362         4.8535
  38   0.0000       0.180784         4.9194

MULLIKEN ATOMIC CHARGES
-----------------------
   0 C :   -0.404491
   1 C :   -0.055194
   2 C :   -0.022101
   3 C :   -0.429435
   4 C :    0.279352
   5 C :   -0.309201
   6 C :   -0.309164
   7 O :   -0.314602
   8 C :    0.016263
   9 H :    0.141730
  10 H :    0.141762
  11 H :    0.129839
  12 H :    0.132578
  13 H :    0.144789
  14 H :    0.144757
  15 H :    0.134256
  16 H :    0.125391
  17 H :    0.125398
  18 H :    0.134259
  19 H :    0.096906
  20 H :    0.096909
Sum of atomic charges:    0.0000000

LOEWDIN ATOMIC CHARGES
----------------------
   0 C :   -0.271849
   1 C :   -0.170824
   2 C :   -0.137007
   3 C :   -0.262082
   4 C :   -0.283302
   5 C :   -0.204772
   6 C :   -0.204765
   7 O :    0.206909
   8 C :   -0.251734
   9 H :    0.132752
  10 H :    0.132758
  11 H :    0.128332
  12 H :    0.129553
  13 H :    0.133468
  14 H :    0.133459
  15 H :    0.138436
  16 H :    0.130231
  17 H :    0.130240
  18 H :    0.138435
  19 H :    0.125882
  20 H :    0.125880

  Mayer bond orders larger than 0.1
B(  0-C ,  1-C ) :   0.8614 B(  0-C ,  9-H ) :   0.9307 B(  0-C , 10-H ) :   0.9307
B(  0-C , 11-H ) :   0.9521 B(  1-C ,  2-C ) :   1.7242 B(  1-C ,  8-C ) :   1.0075
B(  2-C ,  3-C ) :   0.8604 B(  2-C ,  4-C ) :   0.9463 B(  3-C , 12-H ) :   0.9522
B(  3-C , 13-H ) :   0.9345 B(  3-C , 14-H ) :   0.9345 B(  4-C ,  5-C ) :   0.8363
B(  4-C ,  6-C ) :   0.8363 B(  4-C ,  7-O ) :   0.9831 B(  5-C ,  6-C ) :   0.9080
B(  5-C , 15-H ) :   0.9219 B(  5-C , 16-H ) :   0.9216 B(  6-C , 17-H ) :   0.9216
B(  6-C , 18-H ) :   0.9219 B(  7-O ,  8-C ) :   0.9365 B(  8-C , 19-H ) :   0.9064
B(  8-C , 20-H ) :   0.9064

MP2 TOTAL ENERGY:     -386.403770700 Eh
FINAL SINGLE POINT ENERGY      -386.403770700036

DIPOLE MOMENT
-------------
                                X             Y             Z
Electronic contribution:      3.49101      -3.55531      -0.31525
Nuclear contribution   :     -3.87819       4.19005       0.34394
                        -----------------------------------------
Total Dipole Moment    :     -0.38718       0.63474       0.02868
                        -----------------------------------------
Magnitude (a.u.)       :      0.74406
Magnitude (Debye)      :      1.89125

                             ****ORCA TERMINATED NORMALLY****
TOTAL RUN TIME: 0 days 0 hours 18 minutes 15 seconds 948 msec
