                         Program Version 3.0.3 - RELEASE   -
|  1> ! RI-MP2 RIJK def2-TZVP def2-TZVP/C def2-TZVP/JK TIGHTSCF
|  2> % maxcore 2000
|  3> % mp2 density relaxed end
|  4> *xyz 0 1
|  5>  C        0.0840481305     1.5827317895     0.0257390848
|  6>  C       -0.0042991882     0.0431569116     0.0332691438
|  7>  C        0.7014712450    -0.4853537342     1.2058913626
|  8>  N        1.2611271605    -0.8709612508     2.1404317850
|  9>  C       -1.4697125929    -0.4909375568     0.0024988589
| 10>  C       -2.2494263120     0.0227940526    -1.2364570563
| 11>  O       -3.5569506187    -0.4917174627    -1.2876480930
| 12>  C       -1.5007575318    -1.9516753901     0.0067655837
| 13>  C       -1.5516464694    -3.1516478830    -0.0552748528
| 14>  H        1.1223991362     1.9015287021     0.1407651618
| 15>  H       -0.2925717282     1.9891200332    -0.9150653581
| 16>  H       -0.4954696021     2.0096371628     0.8493519631
| 17>  H        0.5102621662    -0.3483124644    -0.8532238039
| 18>  H       -1.9878851393    -0.1242878664     0.8976829759
| 19>  H       -2.3537803788     1.1090403424    -1.1832643912
| 20>  H       -1.6722471348    -0.2205385511    -2.1439556303
| 21>  H       -3.4884604531    -1.4545384176    -1.2681036840
| 22>  H       -1.5773247590    -4.2138203971    -0.0690068501
| 23> *
| 24>
| 25>                          ****END OF INPUT****

CARTESIAN COORDINATES (ANGSTROEM)
---------------------------------
  C      0.084048    1.582732    0.025739
  C     -0.004299    0.043157    0.033269
  C      0.701471   -0.485354    1.205891
  N      1.261127   -0.870961    2.140432
  C     -1.469713   -0.490938    0.002499
  C     -2.249426    0.022794   -1.236457
  O     -3.556951   -0.491717   -1.287648
  C     -1.500758   -1.951675    0.006766
  C     -1.551646   -3.151648   -0.055275
  H      1.122399    1.901529    0.140765
  H     -0.292572    1.989120   -0.915065
  H     -0.495470    2.009637    0.849352
  H      0.510262   -0.348312   -0.853224
  H     -1.987885   -0.124288    0.897683
  H     -2.353780    1.109040   -1.183264
  H     -1.672247   -0.220539   -2.143956
  H     -3.488460   -1.454538   -1.268104
  H     -1.577325   -4.213820   -0.069007

 Total Charge           Charge          ....    0
 Multiplicity           Mult            ....    1
 Number of Electrons    NEL             ....   66
 Basis Dimension        Dim             ....  333

ORBITAL ENERGIES
----------------

  NO   OCC          E(Eh)            E(eV)
   0   2.0000     -20.570524      -559.7524
   1   2.0000     -15.571614      -423.7252
   2   2.0000     -11.303724      -307.5900
   3   2.0000     -11.303218      -307.5762
   4   2.0000     -11.289518      -307.2034
   5   2.0000     -11.273956      -306.7799
   6   2.0000     -11.255072      -306.2661
   7   2.0000     -11.253780      -306.2309
   8   2.0000     -11.245590      -306.0081
   9   2.0000      -1.380501       -37.5653
  10   2.0000      -1.223313       -33.2880
  11   2.0000      -1.143695       -31.1215
  12   2.0000      -1.058087       -28.7920
  13   2.0000      -0.999464       -27.1968
  14   2.0000      -0.929313       -25.2879
  15   2.0000      -0.868032       -23.6204
  16   2.0000      -0.745374       -20.2826
  17   2.0000      -0.735947       -20.0261
  18   2.0000      -0.696893       -18.9634
  19   2.0000      -0.681239       -18.5375
  20   2.0000      -0.652067       -17.7436
  21   2.0000      -0.612703       -16.6725
  22   2.0000      -0.591516       -16.0960
  23   2.0000      -0.581913       -15.8347
  24   2.0000      -0.560792       -15.2599
  25   2.0000      -0.554343       -15.0844
  26   2.0000      -0.541570       -14.7369
  27   2.0000      -0.512713       -13.9516
  28   2.0000      -0.476439       -12.9646
  29   2.0000      -0.460246       -12.5239
  30   2.0000      -0.455306       -12.3895
  31   2.0000      -0.410678       -11.1751
  32   2.0000      -0.407088       -11.0774
  33   0.0000       0.114126         3.1055
  34   0.0000       0.138541         3.7699
  35   0.0000       0.144753         3.9389
  36   0.0000       0.152176         4.1409
  37   0.0000       0.159741         4.3468

MULLIKEN ATOMIC CHARGES
-----------------------
   0 C :   -0.411659
   1 C :    0.049710
   2 C :   -0.198047
   3 N :   -0.049950
   4 C :   -0.145337
   5 C :   -0.020032
   6 O :   -0.462772
   7 C :   -0.120048
   8 C :   -0.123725
   9 H :    0.162009
  10 H :    0.150040
  11 H :    0.147473
  12 H :    0.134708
  13 H :    0.128891
  14 H :    0.126606
  15 H :    0.105003
  16 H :    0.327089
  17 H :    0.200040
Sum of atomic charges:    0.0000000

LOEWDIN ATOMIC CHARGES
----------------------
   0 C :   -0.262182
   1 C :   -0.229691
   2 C :   -0.166436
   3 N :    0.067779
   4 C :   -0.218583
   5 C :   -0.313818
   6 O :   -0.024960
   7 C :   -0.097583
   8 C :   -0.080263
   9 H :    0.135721
  10 H :    0.127723
  11 H :    0.133622
  12 H :    0.180644
  13 H :    0.178940
  14 H :    0.132187
  15 H :    0.123772
  16 H :    0.181793
  17 H :    0.131335

  Mayer bond orders larger than 0.1
B(  0-C ,  1-C ) :   0.8824 B(  0-C ,  9-H ) :   0.9333 B(  0-C , 10-H ) :   0.9368
B(  0-C , 11-H ) :   0.9252 B(  1-C ,  2-C ) :   0.9281 B(  1-C ,  4-C ) :   0.9222
B(  1-C , 12-H ) :   0.8938 B(  2-C ,  3-N ) :   2.8798 B(  4-C ,  5-C ) :   0.8855
B(  4-C ,  7-C ) :   1.1072 B(  4-C , 13-H ) :   0.8902 B(  5-C ,  6-O ) :   0.9605
B(  5-C , 14-H ) :   0.9291 B(  5-C , 15-H ) :   0.9131 B(  6-O , 16-H ) :   0.8312
B(  7-C ,  8-C ) :   2.6194 B(  8-C , 17-H ) :   0.8855

MP2 TOTAL ENERGY:     -401.233842223 Eh
FINAL SINGLE POINT ENERGY      -401.233842223299

DIPOLE MOMENT
-------------
                                X             Y             Z
Electronic contribution:      1.08092      -5.28649       3.47289
Nuclear contribution   :     -1.29715       5.58748      -4.58640
                        -----------------------------------------
Total Dipole Moment    :     -0.21623       0.30099      -1.11350
                        -----------------------------------------
Magnitude (a.u.)       :      1.17356
Magnitude (Debye)      :      2.98294

                             ****ORCA TERMINATED NORMALLY****
TOTAL RUN TIME: 0 days 0 hours 16 minutes 47 seconds 566 msec
