                         Program Version 3.0.3 - RELEASE   -
|  1> ! RI-MP2 RIJK def2-TZVP def2-TZVP/C def2-TZVP/JK TIGHTSCF
|  2> % maxcore 2000
|  3> % mp2 density relaxed end
|  4> *xyz 0 1
|  5>  C       -1.0615122140     1.3010158841     0.4730495574
|  6>  C       -0.2809842910     0.0374021869     0.1757911900
|  7>  C        1.0801498550     0.0751660616    -0.4793218957
|  8>  C        0.9380735845    -0.4351821507     0.9360724821
|  9>  C        1.5900162388     0.2342618678     2.1482005437
| 10>  C        0.7318461442     0.0335020908     3.4110471937
| 11>  N        2.8843294628    -0.4413349898     2.3596437801
| 12>  C        1.8101032293     1.6867959929     1.9393471890
| 13>  N        2.0548670786     2.8096151346     1.8034676069
| 14>  H       -0.4173933286     2.1327688508     0.7638487623
| 15>  H       -1.6206858426     1.6129783431    -0.4158380884
| 16>  H       -1.7894304036     1.1385856277     1.2759502785
| 17>  H       -0.9159249671    -0.7845487255    -0.1471179755
| 18>  H        1.3149393830    -0.6323410643    -1.2669663022
| 19>  H        1.5292543281     1.0552935030    -0.6102362380
| 20>  H        1.0134711668    -1.5118555827     1.0602636448
| 21>  H        0.5781295184    -1.0374654511     3.5632150755
| 22>  H        1.2344073958     0.4419067604     4.2931570233
| 23>  H       -0.2367330884     0.5265816893     3.3072912643
| 24>  H        3.4621427125    -0.3329605735     1.5301807869
| 25>  H        3.3860428375     0.0028373547     3.1243880213
| 26> *
| 27>
| 28>                          ****END OF INPUT****

CARTESIAN COORDINATES (ANGSTROEM)
---------------------------------
  C     -1.061512    1.301016    0.473050
  C     -0.280984    0.037402    0.175791
  C      1.080150    0.075166   -0.479322
  C      0.938074   -0.435182    0.936072
  C      1.590016    0.234262    2.148201
  C      0.731846    0.033502    3.411047
  N      2.884329   -0.441335    2.359644
  C      1.810103    1.686796    1.939347
  N      2.054867    2.809615    1.803468
  H     -0.417393    2.132769    0.763849
  H     -1.620686    1.612978   -0.415838
  H     -1.789430    1.138586    1.275950
  H     -0.915925   -0.784549   -0.147118
  H      1.314939   -0.632341   -1.266966
  H      1.529254    1.055294   -0.610236
  H      1.013471   -1.511856    1.060264
  H      0.578130   -1.037465    3.563215
  H      1.234407    0.441907    4.293157
  H     -0.236733    0.526582    3.307291
  H      3.462143   -0.332961    1.530181
  H      3.386043    0.002837    3.124388

 Total Charge           Charge          ....    0
 Multiplicity           Mult            ....    1
 Number of Electrons    NEL             ....   68
 Basis Dimension        Dim             ....  351

ORBITAL ENERGIES
----------------

  NO   OCC          E(Eh)            E(eV)
   0   2.0000     -15.569761      -423.6747
   1   2.0000     -15.566119      -423.5756
   2   2.0000     -11.320271      -308.0402
   3   2.0000     -11.269766      -306.6659
   4   2.0000     -11.247793      -306.0680
   5   2.0000     -11.243407      -305.9486
   6   2.0000     -11.237802      -305.7961
   7   2.0000     -11.232482      -305.6514
   8   2.0000     -11.220780      -305.3329
   9   2.0000      -1.241805       -33.7912
  10   2.0000      -1.202053       -32.7095
  11   2.0000      -1.152084       -31.3498
  12   2.0000      -1.029393       -28.0112
  13   2.0000      -0.972585       -26.4654
  14   2.0000      -0.898345       -24.4452
  15   2.0000      -0.831136       -22.6164
  16   2.0000      -0.788366       -21.4525
  17   2.0000      -0.706365       -19.2212
  18   2.0000      -0.676974       -18.4214
  19   2.0000      -0.666512       -18.1367
  20   2.0000      -0.626017       -17.0348
  21   2.0000      -0.586109       -15.9488
  22   2.0000      -0.571818       -15.5599
  23   2.0000      -0.568321       -15.4648
  24   2.0000      -0.560737       -15.2584
  25   2.0000      -0.546567       -14.8729
  26   2.0000      -0.543077       -14.7779
  27   2.0000      -0.517027       -14.0690
  28   2.0000      -0.510071       -13.8797
  29   2.0000      -0.472597       -12.8600
  30   2.0000      -0.455357       -12.3909
  31   2.0000      -0.426162       -11.5965
  32   2.0000      -0.418941       -11.4000
  33   2.0000      -0.412012       -11.2114
  34   0.0000       0.124474         3.3871
  35   0.0000       0.141883         3.8608
  36   0.0000       0.155235         4.2241
  37   0.0000       0.166258         4.5241
  38   0.0000       0.185020         5.0347

MULLIKEN ATOMIC CHARGES
-----------------------
   0 C :   -0.424607
   1 C :   -0.067640
   2 C :   -0.287720
   3 C :   -0.200260
   4 C :    0.411170
   5 C :   -0.400260
   6 N :   -0.546943
   7 C :   -0.313507
   8 N :   -0.051671
   9 H :    0.161756
  10 H :    0.138537
  11 H :    0.129528
  12 H :    0.120384
  13 H :    0.137211
  14 H :    0.152546
  15 H :    0.137475
  16 H :    0.149069
  17 H :    0.138972
  18 H :    0.142180
  19 H :    0.239839
  20 H :    0.233941
Sum of atomic charges:   -0.0000000

LOEWDIN ATOMIC CHARGES
----------------------
   0 C :   -0.293656
   1 C :   -0.223885
   2 C :   -0.201688
   3 C :   -0.170101
   4 C :   -0.357313
   5 C :   -0.241287
   6 N :   -0.095856
   7 C :   -0.169660
   8 N :    0.057145
   9 H :    0.134045
  10 H :    0.128798
  11 H :    0.124059
  12 H :    0.150627
  13 H :    0.131518
  14 H :    0.143656
  15 H :    0.161806
  16 H :    0.135002
  17 H :    0.129365
  18 H :    0.132479
  19 H :    0.164306
  20 H :    0.160641

  Mayer bond orders larger than 0.1
B(  0-C ,  1-C ) :   0.9044 B(  0-C ,  9-H ) :   0.9293 B(  0-C , 10-H ) :   0.9347
B(  0-C , 11-H ) :   0.9386 B(  1-C ,  2-C ) :   0.8912 B(  1-C ,  3-C ) :   0.8518
B(  1-C , 12-H ) :   0.9294 B(  2-C ,  3-C ) :   0.8729 B(  2-C , 13-H ) :   0.9284
B(  2-C , 14-H ) :   0.9211 B(  3-C ,  4-C ) :   0.9073 B(  3-C , 15-H ) :   0.9293
B(  4-C ,  5-C ) :   0.8821 B(  4-C ,  6-N ) :   0.8221 B(  4-C ,  7-C ) :   0.8878
B(  5-C , 16-H ) :   0.9365 B(  5-C , 17-H ) :   0.9228 B(  5-C , 18-H ) :   0.9342
B(  6-N , 19-H ) :   0.8903 B(  6-N , 20-H ) :   0.8901 B(  7-C ,  8-N ) :   2.8708

MP2 TOTAL ENERGY:     -382.599504955 Eh
FINAL SINGLE POINT ENERGY      -382.599504954809

DIPOLE MOMENT
-------------
                                X             Y             Z
Electronic contribution:      4.84357       3.02105       0.70447
Nuclear contribution   :     -5.10804      -3.98241      -0.69425
                        -----------------------------------------
Total Dipole Moment    :     -0.26447      -0.96136       0.01022
                        -----------------------------------------
Magnitude (a.u.)       :      0.99713
Magnitude (Debye)      :      2.53450

                             ****ORCA TERMINATED NORMALLY****
TOTAL RUN TIME: 0 days 0 hours 19 minutes 26 seconds 24 msec
