                         Program Version 3.0.3 - RELEASE   -
|  1> ! RI-MP2 RIJK def2-TZVP def2-TZVP/C def2-TZVP/JK TIGHTSCF
|  2> % maxcore 2000
|  3> % mp2 density relaxed end
|  4> *xyz 0 1
|  5>  O       -0.0113820963     1.4089856886    -0.2698023306
|  6>  C       -0.0420411056     0.0474663524     0.1318977908
|  7>  C       -1.4143071261    -0.5310966457     0.0215650397
|  8>  O       -2.4063229640     0.0189852295     0.9047138243
|  9>  C       -3.1501955817    -1.2470818212     0.8202831584
| 10>  C       -4.2841732430    -1.0488160359    -0.1779376769
| 11>  C       -3.5311176319    -0.6524991004    -1.4808675818
| 12>  C       -2.0860435603    -1.0826578864    -1.2222254505
| 13>  C       -1.9888355193    -1.9125103343     0.0490319079
| 14>  H       -0.6641355853     1.8710030287     0.2680433014
| 15>  H        0.6428195711    -0.4934430748    -0.5292248384
| 16>  H        0.3206606879    -0.0703197477     1.1650274068
| 17>  H       -3.4178385338    -1.6173341537     1.8111935601
| 18>  H       -4.8376478582    -1.9867528736    -0.3041885391
| 19>  H       -4.9868259765    -0.2813104988     0.1581513448
| 20>  H       -3.9406571356    -1.1620302910    -2.3574899972
| 21>  H       -3.5977761810     0.4231678512    -1.6661430069
| 22>  H       -1.4306673040    -1.3255605861    -2.0515652682
| 23>  H       -1.5517900266    -2.8930661708     0.1771226951
| 24> *
| 25>
| 26>                          ****END OF INPUT****

CARTESIAN COORDINATES (ANGSTROEM)
---------------------------------
  O     -0.011382    1.408986   -0.269802
  C     -0.042041    0.047466    0.131898
  C     -1.414307   -0.531097    0.021565
  O     -2.406323    0.018985    0.904714
  C     -3.150196   -1.247082    0.820283
  C     -4.284173   -1.048816   -0.177938
  C     -3.531118   -0.652499   -1.480868
  C     -2.086044   -1.082658   -1.222225
  C     -1.988836   -1.912510    0.049032
  H     -0.664136    1.871003    0.268043
  H      0.642820   -0.493443   -0.529225
  H      0.320661   -0.070320    1.165027
  H     -3.417839   -1.617334    1.811194
  H     -4.837648   -1.986753   -0.304189
  H     -4.986826   -0.281310    0.158151
  H     -3.940657   -1.162030   -2.357490
  H     -3.597776    0.423168   -1.666143
  H     -1.430667   -1.325561   -2.051565
  H     -1.551790   -2.893066    0.177123

 Total Charge           Charge          ....    0
 Multiplicity           Mult            ....    1
 Number of Electrons    NEL             ....   68
 Basis Dimension        Dim             ....  339

ORBITAL ENERGIES
----------------

  NO   OCC          E(Eh)            E(eV)
   0   2.0000     -20.553249      -559.2823
   1   2.0000     -20.552199      -559.2538
   2   2.0000     -11.291321      -307.2525
   3   2.0000     -11.289818      -307.2116
   4   2.0000     -11.280487      -306.9577
   5   2.0000     -11.237714      -305.7937
   6   2.0000     -11.236306      -305.7554
   7   2.0000     -11.226317      -305.4836
   8   2.0000     -11.225694      -305.4667
   9   2.0000      -1.397054       -38.0158
  10   2.0000      -1.355387       -36.8820
  11   2.0000      -1.141387       -31.0587
  12   2.0000      -1.047532       -28.5048
  13   2.0000      -0.963130       -26.2081
  14   2.0000      -0.939600       -25.5678
  15   2.0000      -0.811065       -22.0702
  16   2.0000      -0.779983       -21.2244
  17   2.0000      -0.734351       -19.9827
  18   2.0000      -0.719766       -19.5858
  19   2.0000      -0.671479       -18.2719
  20   2.0000      -0.652970       -17.7682
  21   2.0000      -0.637758       -17.3543
  22   2.0000      -0.605455       -16.4753
  23   2.0000      -0.576724       -15.6934
  24   2.0000      -0.569970       -15.5097
  25   2.0000      -0.536113       -14.5884
  26   2.0000      -0.525195       -14.2913
  27   2.0000      -0.502832       -13.6828
  28   2.0000      -0.496164       -13.5013
  29   2.0000      -0.482397       -13.1267
  30   2.0000      -0.460165       -12.5217
  31   2.0000      -0.445385       -12.1195
  32   2.0000      -0.397954       -10.8289
  33   2.0000      -0.372741       -10.1428
  34   0.0000       0.140239         3.8161
  35   0.0000       0.154071         4.1925
  36   0.0000       0.162936         4.4337
  37   0.0000       0.171805         4.6750
  38   0.0000       0.190278         5.1777

MULLIKEN ATOMIC CHARGES
-----------------------
   0 O :   -0.467559
   1 C :   -0.010408
   2 C :    0.094644
   3 O :   -0.355684
   4 C :    0.096565
   5 C :   -0.226790
   6 C :   -0.223142
   7 C :   -0.118762
   8 C :   -0.209216
   9 H :    0.326879
  10 H :    0.107561
  11 H :    0.109243
  12 H :    0.122926
  13 H :    0.110766
  14 H :    0.118585
  15 H :    0.121035
  16 H :    0.120268
  17 H :    0.131766
  18 H :    0.151324
Sum of atomic charges:    0.0000000

LOEWDIN ATOMIC CHARGES
----------------------
   0 O :   -0.042391
   1 C :   -0.308678
   2 C :   -0.284104
   3 O :    0.170211
   4 C :   -0.218433
   5 C :   -0.231013
   6 C :   -0.222831
   7 C :   -0.157202
   8 C :   -0.131025
   9 H :    0.180254
  10 H :    0.138380
  11 H :    0.126633
  12 H :    0.136225
  13 H :    0.139458
  14 H :    0.138702
  15 H :    0.136386
  16 H :    0.140968
  17 H :    0.151989
  18 H :    0.136470

  Mayer bond orders larger than 0.1
B(  0-O ,  1-C ) :   0.9192 B(  0-O ,  9-H ) :   0.8388 B(  1-C ,  2-C ) :   0.9313
B(  1-C , 10-H ) :   0.9202 B(  1-C , 11-H ) :   0.9348 B(  2-C ,  3-O ) :   0.9612
B(  2-C ,  7-C ) :   0.8672 B(  2-C ,  8-C ) :   0.8455 B(  3-O ,  4-C ) :   0.9249
B(  4-C ,  5-C ) :   0.9526 B(  4-C ,  8-C ) :   0.9188 B(  4-C , 12-H ) :   0.9105
B(  5-C ,  6-C ) :   0.9881 B(  5-C , 13-H ) :   0.9111 B(  5-C , 14-H ) :   0.9138
B(  6-C ,  7-C ) :   0.9080 B(  6-C , 15-H ) :   0.9272 B(  6-C , 16-H ) :   0.9200
B(  7-C ,  8-C ) :   0.8741 B(  7-C , 17-H ) :   0.9186 B(  8-C , 18-H ) :   0.8943

MP2 TOTAL ENERGY:     -422.291291537 Eh
FINAL SINGLE POINT ENERGY      -422.291291536759

DIPOLE MOMENT
-------------
                                X             Y             Z
Electronic contribution:      2.20540       1.56690       2.01587
Nuclear contribution   :     -2.61723      -2.42732      -1.95626
                        -----------------------------------------
Total Dipole Moment    :     -0.41183      -0.86042       0.05961
                        -----------------------------------------
Magnitude (a.u.)       :      0.95576
Magnitude (Debye)      :      2.42936

                             ****ORCA TERMINATED NORMALLY****
TOTAL RUN TIME: 0 days 0 hours 17 minutes 23 seconds 279 msec
