                         Program Version 3.0.3 - RELEASE   -
|  1> ! RI-MP2 RIJK def2-TZVP def2-TZVP/C def2-TZVP/JK TIGHTSCF
|  2> % maxcore 2000
|  3> % mp2 density relaxed end
|  4> *xyz 0 1
|  5>  N        0.0684241345     1.3754949174     0.1536953525
|  6>  C       -0.0069070499    -0.0076427914     0.0384540508
|  7>  C       -1.1083258209    -0.8577571974     0.0105229190
|  8>  C       -0.6056369913    -2.2043966702    -0.0175982486
|  9>  C        0.7552386207    -2.1295172354    -0.0183565902
| 10>  N        1.1089851447    -0.7871738149     0.0177916597
| 11>  C       -2.4461937335    -0.4120027818    -0.0080563618
| 12>  N       -3.5337645490    -0.0066020769    -0.0243518782
| 13>  H        0.6272362749     1.8194102731    -0.5662226833
| 14>  H       -0.8534663937     1.7944282406     0.1726523879
| 15>  H       -1.2033659423    -3.1006686491    -0.0499035186
| 16>  H        1.5101850093    -2.8969153426    -0.0481568245
| 17>  H        2.0449894964    -0.4340389015     0.1199579353
| 18> *
| 19>
| 20>                          ****END OF INPUT****

CARTESIAN COORDINATES (ANGSTROEM)
---------------------------------
  N      0.068424    1.375495    0.153695
  C     -0.006907   -0.007643    0.038454
  C     -1.108326   -0.857757    0.010523
  C     -0.605637   -2.204397   -0.017598
  C      0.755239   -2.129517   -0.018357
  N      1.108985   -0.787174    0.017792
  C     -2.446194   -0.412003   -0.008056
  N     -3.533765   -0.006602   -0.024352
  H      0.627236    1.819410   -0.566223
  H     -0.853466    1.794428    0.172652
  H     -1.203366   -3.100669   -0.049904
  H      1.510185   -2.896915   -0.048157
  H      2.044989   -0.434039    0.119958

 Total Charge           Charge          ....    0
 Multiplicity           Mult            ....    1
 Number of Electrons    NEL             ....   56
 Basis Dimension        Dim             ....  278

ORBITAL ENERGIES
----------------

  NO   OCC          E(Eh)            E(eV)
   0   2.0000     -15.629500      -425.3003
   1   2.0000     -15.595986      -424.3884
   2   2.0000     -15.555175      -423.2778
   3   2.0000     -11.337599      -308.5118
   4   2.0000     -11.271818      -306.7218
   5   2.0000     -11.265644      -306.5538
   6   2.0000     -11.249740      -306.1210
   7   2.0000     -11.240979      -305.8826
   8   2.0000      -1.335943       -36.3529
   9   2.0000      -1.223064       -33.2813
  10   2.0000      -1.203443       -32.7473
  11   2.0000      -1.083819       -29.4922
  12   2.0000      -0.993583       -27.0368
  13   2.0000      -0.866231       -23.5713
  14   2.0000      -0.819291       -22.2940
  15   2.0000      -0.762873       -20.7588
  16   2.0000      -0.714939       -19.4545
  17   2.0000      -0.657206       -17.8835
  18   2.0000      -0.635863       -17.3027
  19   2.0000      -0.616053       -16.7637
  20   2.0000      -0.601214       -16.3599
  21   2.0000      -0.575815       -15.6687
  22   2.0000      -0.543272       -14.7832
  23   2.0000      -0.492848       -13.4111
  24   2.0000      -0.485422       -13.2090
  25   2.0000      -0.450597       -12.2614
  26   2.0000      -0.370487       -10.0815
  27   2.0000      -0.302539        -8.2325
  28   0.0000       0.109505         2.9798
  29   0.0000       0.134109         3.6493
  30   0.0000       0.148030         4.0281
  31   0.0000       0.162146         4.4122
  32   0.0000       0.169673         4.6170

MULLIKEN ATOMIC CHARGES
-----------------------
   0 N :   -0.515412
   1 C :    0.129854
   2 C :    0.188952
   3 C :   -0.264725
   4 C :   -0.049409
   5 N :   -0.279577
   6 C :   -0.232027
   7 N :   -0.061492
   8 H :    0.258317
   9 H :    0.271317
  10 H :    0.146293
  11 H :    0.157589
  12 H :    0.250320
Sum of atomic charges:    0.0000000

LOEWDIN ATOMIC CHARGES
----------------------
   0 N :   -0.074637
   1 C :   -0.283365
   2 C :   -0.186429
   3 C :   -0.147496
   4 C :   -0.220192
   5 N :    0.200342
   6 C :   -0.174712
   7 N :    0.051259
   8 H :    0.172002
   9 H :    0.183270
  10 H :    0.147913
  11 H :    0.136271
  12 H :    0.195774

  Mayer bond orders larger than 0.1
B(  0-N ,  1-C ) :   1.0814 B(  0-N ,  8-H ) :   0.8645 B(  0-N ,  9-H ) :   0.8725
B(  1-C ,  2-C ) :   1.3840 B(  1-C ,  5-N ) :   1.2123 B(  2-C ,  3-C ) :   1.1830
B(  2-C ,  6-C ) :   0.8777 B(  3-C ,  4-C ) :   1.5777 B(  3-C , 10-H ) :   0.9321
B(  4-C ,  5-N ) :   1.0588 B(  4-C , 11-H ) :   0.9153 B(  5-N , 12-H ) :   0.8696
B(  6-C ,  7-N ) :   2.8790

MP2 TOTAL ENERGY:     -357.074383723 Eh
FINAL SINGLE POINT ENERGY      -357.074383722561

DIPOLE MOMENT
-------------
                                X             Y             Z
Electronic contribution:     -2.83500      -0.00245       0.08447
Nuclear contribution   :      5.13843       0.08827      -0.42461
                        -----------------------------------------
Total Dipole Moment    :      2.30343       0.08582      -0.34015
                        -----------------------------------------
Magnitude (a.u.)       :      2.32999
Magnitude (Debye)      :      5.92236

                             ****ORCA TERMINATED NORMALLY****
TOTAL RUN TIME: 0 days 0 hours 10 minutes 57 seconds 452 msec
