                         Program Version 3.0.3 - RELEASE   -
|  1> ! RI-MP2 RIJK def2-TZVP def2-TZVP/C def2-TZVP/JK TIGHTSCF
|  2> % maxcore 2000
|  3> % mp2 density relaxed end
|  4> *xyz 0 1
|  5>  C        0.0387120063     1.4710168168    -0.0389497849
|  6>  C       -0.0774432755    -0.0144620492     0.0281480698
|  7>  N       -1.1608191136    -0.6394550332    -0.2159798215
|  8>  C       -1.1651015982    -2.0351102003    -0.1255742959
|  9>  N       -2.1630284214    -2.7885202500    -0.3386069012
| 10>  N        0.0551624156    -2.6255703147     0.2344442357
| 11>  C        1.2187678099    -1.9674942813     0.4978942910
| 12>  O        2.2616314163    -2.4619382616     0.8052454643
| 13>  O        1.1139265265    -0.5864014526     0.3793855150
| 14>  H        0.8056081664     1.7516642317    -0.7677811047
| 15>  H       -0.9203430553     1.9026893761    -0.3200595380
| 16>  H        0.3579739549     1.8635017504     0.9316567709
| 17>  H       -2.9658534403    -2.2129658732    -0.5875691200
| 18>  H        0.0772392883    -3.6329607289     0.3066321395
| 19> *
| 20>
| 21>                          ****END OF INPUT****

CARTESIAN COORDINATES (ANGSTROEM)
---------------------------------
  C      0.038712    1.471017   -0.038950
  C     -0.077443   -0.014462    0.028148
  N     -1.160819   -0.639455   -0.215980
  C     -1.165102   -2.035110   -0.125574
  N     -2.163028   -2.788520   -0.338607
  N      0.055162   -2.625570    0.234444
  C      1.218768   -1.967494    0.497894
  O      2.261631   -2.461938    0.805245
  O      1.113927   -0.586401    0.379386
  H      0.805608    1.751664   -0.767781
  H     -0.920343    1.902689   -0.320060
  H      0.357974    1.863502    0.931657
  H     -2.965853   -2.212966   -0.587569
  H      0.077239   -3.632961    0.306632

 Total Charge           Charge          ....    0
 Multiplicity           Mult            ....    1
 Number of Electrons    NEL             ....   66
 Basis Dimension        Dim             ....  309

ORBITAL ENERGIES
----------------

  NO   OCC          E(Eh)            E(eV)
   0   2.0000     -20.661902      -562.2389
   1   2.0000     -20.561679      -559.5117
   2   2.0000     -15.634323      -425.4316
   3   2.0000     -15.593406      -424.3181
   4   2.0000     -15.548025      -423.0833
   5   2.0000     -11.445854      -311.4575
   6   2.0000     -11.404298      -310.3267
   7   2.0000     -11.374156      -309.5065
   8   2.0000     -11.266882      -306.5874
   9   2.0000      -1.523334       -41.4520
  10   2.0000      -1.415256       -38.5111
  11   2.0000      -1.337580       -36.3974
  12   2.0000      -1.252273       -34.0761
  13   2.0000      -1.191119       -32.4120
  14   2.0000      -1.057152       -28.7666
  15   2.0000      -0.922414       -25.1002
  16   2.0000      -0.896136       -24.3851
  17   2.0000      -0.821359       -22.3503
  18   2.0000      -0.781413       -21.2633
  19   2.0000      -0.718879       -19.5617
  20   2.0000      -0.698308       -19.0019
  21   2.0000      -0.665650       -18.1133
  22   2.0000      -0.658499       -17.9187
  23   2.0000      -0.621503       -16.9120
  24   2.0000      -0.606826       -16.5126
  25   2.0000      -0.598061       -16.2741
  26   2.0000      -0.581095       -15.8124
  27   2.0000      -0.553204       -15.0535
  28   2.0000      -0.495669       -13.4878
  29   2.0000      -0.483728       -13.1629
  30   2.0000      -0.463243       -12.6055
  31   2.0000      -0.451901       -12.2969
  32   2.0000      -0.391421       -10.6511
  33   0.0000       0.095474         2.5980
  34   0.0000       0.120718         3.2849
  35   0.0000       0.150722         4.1014
  36   0.0000       0.163796         4.4571
  37   0.0000       0.177020         4.8170

MULLIKEN ATOMIC CHARGES
-----------------------
   0 C :   -0.390279
   1 C :    0.251276
   2 N :   -0.282234
   3 C :    0.216240
   4 N :   -0.363829
   5 N :   -0.276489
   6 C :    0.327202
   7 O :   -0.283374
   8 O :   -0.197721
   9 H :    0.160665
  10 H :    0.163837
  11 H :    0.160667
  12 H :    0.237938
  13 H :    0.276102
Sum of atomic charges:   -0.0000000

LOEWDIN ATOMIC CHARGES
----------------------
   0 C :   -0.250506
   1 C :   -0.333992
   2 N :    0.141018
   3 C :   -0.431513
   4 N :   -0.052002
   5 N :    0.178975
   6 C :   -0.533423
   7 O :    0.137041
   8 O :    0.319439
   9 H :    0.145222
  10 H :    0.142454
  11 H :    0.145214
  12 H :    0.174783
  13 H :    0.217291

  Mayer bond orders larger than 0.1
B(  0-C ,  1-C ) :   0.9046 B(  0-C ,  9-H ) :   0.9159 B(  0-C , 10-H ) :   0.9437
B(  0-C , 11-H ) :   0.9159 B(  1-C ,  2-N ) :   1.7741 B(  1-C ,  8-O ) :   1.0302
B(  2-N ,  3-C ) :   1.0612 B(  3-C ,  4-N ) :   1.9911 B(  3-C ,  5-N ) :   0.9916
B(  4-N , 12-H ) :   0.8556 B(  5-N ,  6-C ) :   1.1435 B(  5-N , 13-H ) :   0.8436
B(  6-C ,  7-O ) :   2.0531 B(  6-C ,  8-O ) :   0.9788

MP2 TOTAL ENERGY:     -469.331029705 Eh
FINAL SINGLE POINT ENERGY      -469.331029704539

DIPOLE MOMENT
-------------
                                X             Y             Z
Electronic contribution:      2.28351      -4.69554       0.90992
Nuclear contribution   :     -2.66360       5.74354      -1.07898
                        -----------------------------------------
Total Dipole Moment    :     -0.38010       1.04799      -0.16906
                        -----------------------------------------
Magnitude (a.u.)       :      1.12754
Magnitude (Debye)      :      2.86598

                             ****ORCA TERMINATED NORMALLY****
TOTAL RUN TIME: 0 days 0 hours 12 minutes 59 seconds 723 msec
