                         Program Version 3.0.3 - RELEASE   -
|  1> ! RI-MP2 RIJK def2-TZVP def2-TZVP/C def2-TZVP/JK TIGHTSCF
|  2> % maxcore 2000
|  3> % mp2 density relaxed end
|  4> *xyz 0 1
|  5>  C       -0.1420748643     1.4007688989    -0.0124058810
|  6>  C       -0.1304106826    -0.0875468966    -0.0383229352
|  7>  N       -1.1017595844    -0.8623610765     0.2465007026
|  8>  C       -0.6156133285    -2.2112193388     0.0566807145
|  9>  C       -1.1618834685    -3.3095839404     0.9469343954
| 10>  C       -1.6226340400    -3.1898659701    -0.4886061764
| 11>  O       -2.9008655443    -2.7358750868    -0.7928816878
| 12>  C        0.8456740782    -2.0836578388    -0.3744925809
| 13>  O        1.0514369773    -0.6513486306    -0.4079329408
| 14>  H        0.6134450570     1.7725626676     0.6868410291
| 15>  H        0.1070585780     1.7980887980    -1.0013478600
| 16>  H       -1.1264756669     1.7566163830     0.2892785037
| 17>  H       -0.4946112711    -4.1251747802     1.2111146947
| 18>  H       -1.8592912231    -3.0063904535     1.7202155079
| 19>  H       -1.2761643816    -3.9408684412    -1.1951872616
| 20>  H       -2.9213608730    -1.8010584471    -0.5429756636
| 21>  H        1.5516077078    -2.5167479712     0.3418677171
| 22>  H        1.0550266199    -2.4859507756    -1.3711791578
| 23> *
| 24>
| 25>                          ****END OF INPUT****

CARTESIAN COORDINATES (ANGSTROEM)
---------------------------------
  C     -0.142075    1.400769   -0.012406
  C     -0.130411   -0.087547   -0.038323
  N     -1.101760   -0.862361    0.246501
  C     -0.615613   -2.211219    0.056681
  C     -1.161883   -3.309584    0.946934
  C     -1.622634   -3.189866   -0.488606
  O     -2.900866   -2.735875   -0.792882
  C      0.845674   -2.083658   -0.374493
  O      1.051437   -0.651349   -0.407933
  H      0.613445    1.772563    0.686841
  H      0.107059    1.798089   -1.001348
  H     -1.126476    1.756616    0.289279
  H     -0.494611   -4.125175    1.211115
  H     -1.859291   -3.006390    1.720216
  H     -1.276164   -3.940868   -1.195187
  H     -2.921361   -1.801058   -0.542976
  H      1.551608   -2.516748    0.341868
  H      1.055027   -2.485951   -1.371179

 Total Charge           Charge          ....    0
 Multiplicity           Mult            ....    1
 Number of Electrons    NEL             ....   68
 Basis Dimension        Dim             ....  333

ORBITAL ENERGIES
----------------

  NO   OCC          E(Eh)            E(eV)
   0   2.0000     -20.600813      -560.5766
   1   2.0000     -20.550699      -559.2130
   2   2.0000     -15.553032      -423.2195
   3   2.0000     -11.345953      -308.7391
   4   2.0000     -11.299824      -307.4838
   5   2.0000     -11.283276      -307.0336
   6   2.0000     -11.271589      -306.7155
   7   2.0000     -11.244313      -305.9733
   8   2.0000     -11.225899      -305.4723
   9   2.0000      -1.445126       -39.3239
  10   2.0000      -1.366195       -37.1761
  11   2.0000      -1.228818       -33.4378
  12   2.0000      -1.124119       -30.5888
  13   2.0000      -1.029758       -28.0212
  14   2.0000      -0.952034       -25.9062
  15   2.0000      -0.828491       -22.5444
  16   2.0000      -0.810695       -22.0601
  17   2.0000      -0.775432       -21.1006
  18   2.0000      -0.713771       -19.4227
  19   2.0000      -0.683186       -18.5904
  20   2.0000      -0.666318       -18.1314
  21   2.0000      -0.639906       -17.4127
  22   2.0000      -0.605010       -16.4632
  23   2.0000      -0.595499       -16.2043
  24   2.0000      -0.584245       -15.8981
  25   2.0000      -0.561272       -15.2730
  26   2.0000      -0.555156       -15.1066
  27   2.0000      -0.534068       -14.5327
  28   2.0000      -0.523439       -14.2435
  29   2.0000      -0.512821       -13.9546
  30   2.0000      -0.480131       -13.0650
  31   2.0000      -0.449231       -12.2242
  32   2.0000      -0.393005       -10.6942
  33   2.0000      -0.351555        -9.5663
  34   0.0000       0.136082         3.7030
  35   0.0000       0.148960         4.0534
  36   0.0000       0.160952         4.3797
  37   0.0000       0.177107         4.8193
  38   0.0000       0.177699         4.8354

MULLIKEN ATOMIC CHARGES
-----------------------
   0 C :   -0.408409
   1 C :    0.242964
   2 N :   -0.355345
   3 C :    0.130884
   4 C :   -0.263935
   5 C :    0.017345
   6 O :   -0.472240
   7 C :   -0.040614
   8 O :   -0.272189
   9 H :    0.152609
  10 H :    0.153039
  11 H :    0.159409
  12 H :    0.128598
  13 H :    0.135851
  14 H :    0.119735
  15 H :    0.336590
  16 H :    0.116579
  17 H :    0.119128
Sum of atomic charges:   -0.0000000

LOEWDIN ATOMIC CHARGES
----------------------
   0 C :   -0.259530
   1 C :   -0.380523
   2 N :    0.116308
   3 C :   -0.288813
   4 C :   -0.191360
   5 C :   -0.301183
   6 O :    0.001104
   7 C :   -0.212858
   8 O :    0.235272
   9 H :    0.140425
  10 H :    0.140286
  11 H :    0.140530
  12 H :    0.134999
  13 H :    0.142643
  14 H :    0.138561
  15 H :    0.184154
  16 H :    0.129567
  17 H :    0.130418

  Mayer bond orders larger than 0.1
B(  0-C ,  1-C ) :   0.8788 B(  0-C ,  9-H ) :   0.9235 B(  0-C , 10-H ) :   0.9256
B(  0-C , 11-H ) :   0.9489 B(  1-C ,  2-N ) :   1.7939 B(  1-C ,  8-O ) :   1.0790
B(  2-N ,  3-C ) :   0.9118 B(  3-C ,  4-C ) :   0.8473 B(  3-C ,  5-C ) :   0.8656
B(  3-C ,  7-C ) :   0.9167 B(  4-C ,  5-C ) :   0.8618 B(  4-C , 12-H ) :   0.9112
B(  4-C , 13-H ) :   0.9068 B(  5-C ,  6-O ) :   1.0114 B(  5-C , 14-H ) :   0.9412
B(  6-O , 15-H ) :   0.8123 B(  7-C ,  8-O ) :   0.8843 B(  7-C , 16-H ) :   0.9204
B(  7-C , 17-H ) :   0.9190

MP2 TOTAL ENERGY:     -438.366302182 Eh
FINAL SINGLE POINT ENERGY      -438.366302182453

DIPOLE MOMENT
-------------
                                X             Y             Z
Electronic contribution:     -0.53182      -0.74360      -0.95384
Nuclear contribution   :      1.44384       1.02901       1.08333
                        -----------------------------------------
Total Dipole Moment    :      0.91202       0.28542       0.12949
                        -----------------------------------------
Magnitude (a.u.)       :      0.96437
Magnitude (Debye)      :      2.45124

                             ****ORCA TERMINATED NORMALLY****
TOTAL RUN TIME: 0 days 0 hours 16 minutes 28 seconds 775 msec
