                         Program Version 3.0.3 - RELEASE   -
|  1> ! RI-MP2 RIJK def2-TZVP def2-TZVP/C def2-TZVP/JK TIGHTSCF
|  2> % maxcore 2000
|  3> % mp2 density relaxed end
|  4> *xyz 0 1
|  5>  C        0.4656557997     0.9380799631    -0.4062758320
|  6>  O       -0.1406076786     0.1802765185     0.6373390232
|  7>  C        0.6168506969    -0.8038848969     1.1487926224
|  8>  N        0.1509006878    -1.5310566865     2.0713392470
|  9>  C        0.9842320903    -2.5702134440     2.6115678815
| 10>  C        0.3764649559    -3.9936406934     2.6588532305
| 11>  O        1.5400744122    -4.5166239553     1.9392042266
| 12>  C        2.0713385912    -3.2582518422     1.7835791532
| 13>  N        3.0805638799    -2.8701863148     1.1438621538
| 14>  H        0.6966588176     0.3094352264    -1.2740515332
| 15>  H       -0.2626181029     1.6961515363    -0.6959376938
| 16>  H        1.3820335488     1.4310849867    -0.0617991514
| 17>  H        1.6158544050    -0.9069984269     0.7096934549
| 18>  H        1.3640830722    -2.2634038860     3.5929108576
| 19>  H        0.2754039555    -4.4662803930     3.6376131222
| 20>  H       -0.5338709227    -4.1089868262     2.0675617800
| 21>  H        3.5526465212    -3.6505534560     0.6823582276
| 22> *
| 23>
| 24>                          ****END OF INPUT****

CARTESIAN COORDINATES (ANGSTROEM)
---------------------------------
  C      0.465656    0.938080   -0.406276
  O     -0.140608    0.180277    0.637339
  C      0.616851   -0.803885    1.148793
  N      0.150901   -1.531057    2.071339
  C      0.984232   -2.570213    2.611568
  C      0.376465   -3.993641    2.658853
  O      1.540074   -4.516624    1.939204
  C      2.071339   -3.258252    1.783579
  N      3.080564   -2.870186    1.143862
  H      0.696659    0.309435   -1.274052
  H     -0.262618    1.696152   -0.695938
  H      1.382034    1.431085   -0.061799
  H      1.615854   -0.906998    0.709693
  H      1.364083   -2.263404    3.592911
  H      0.275404   -4.466280    3.637613
  H     -0.533871   -4.108987    2.067562
  H      3.552647   -3.650553    0.682358

 Total Charge           Charge          ....    0
 Multiplicity           Mult            ....    1
 Number of Electrons    NEL             ....   68
 Basis Dimension        Dim             ....  327

ORBITAL ENERGIES
----------------

  NO   OCC          E(Eh)            E(eV)
   0   2.0000     -20.597567      -560.4883
   1   2.0000     -20.595286      -560.4262
   2   2.0000     -15.554745      -423.2661
   3   2.0000     -15.544632      -422.9909
   4   2.0000     -11.344117      -308.6891
   5   2.0000     -11.340197      -308.5824
   6   2.0000     -11.298389      -307.4448
   7   2.0000     -11.295821      -307.3749
   8   2.0000     -11.286763      -307.1284
   9   2.0000      -1.438562       -39.1453
  10   2.0000      -1.432422       -38.9782
  11   2.0000      -1.235332       -33.6151
  12   2.0000      -1.201419       -32.6923
  13   2.0000      -1.031017       -28.0554
  14   2.0000      -0.960722       -26.1426
  15   2.0000      -0.899149       -24.4671
  16   2.0000      -0.835059       -22.7231
  17   2.0000      -0.759120       -20.6567
  18   2.0000      -0.721459       -19.6319
  19   2.0000      -0.709296       -19.3009
  20   2.0000      -0.691985       -18.8299
  21   2.0000      -0.668214       -18.1830
  22   2.0000      -0.665624       -18.1126
  23   2.0000      -0.619301       -16.8520
  24   2.0000      -0.586073       -15.9478
  25   2.0000      -0.550608       -14.9828
  26   2.0000      -0.540397       -14.7049
  27   2.0000      -0.534300       -14.5390
  28   2.0000      -0.517446       -14.0804
  29   2.0000      -0.510648       -13.8954
  30   2.0000      -0.468775       -12.7560
  31   2.0000      -0.410763       -11.1774
  32   2.0000      -0.409406       -11.1405
  33   2.0000      -0.390131       -10.6160
  34   0.0000       0.136337         3.7099
  35   0.0000       0.142616         3.8808
  36   0.0000       0.152047         4.1374
  37   0.0000       0.169201         4.6042
  38   0.0000       0.174857         4.7581

MULLIKEN ATOMIC CHARGES
-----------------------
   0 C :   -0.240934
   1 O :   -0.226154
   2 C :    0.080409
   3 N :   -0.241408
   4 C :    0.027627
   5 C :   -0.006585
   6 O :   -0.262306
   7 C :    0.125443
   8 N :   -0.403910
   9 H :    0.137286
  10 H :    0.150679
  11 H :    0.138404
  12 H :    0.121385
  13 H :    0.132572
  14 H :    0.117064
  15 H :    0.120888
  16 H :    0.229541
Sum of atomic charges:    0.0000000

LOEWDIN ATOMIC CHARGES
----------------------
   0 C :   -0.328047
   1 O :    0.221764
   2 C :   -0.344727
   3 N :    0.103873
   4 C :   -0.251730
   5 C :   -0.202967
   6 O :    0.212328
   7 C :   -0.389152
   8 N :   -0.067241
   9 H :    0.109654
  10 H :    0.118850
  11 H :    0.109894
  12 H :    0.128204
  13 H :    0.158263
  14 H :    0.121315
  15 H :    0.126767
  16 H :    0.172951

  Mayer bond orders larger than 0.1
B(  0-C ,  1-O ) :   0.8655 B(  0-C ,  9-H ) :   0.9358 B(  0-C , 10-H ) :   0.9377
B(  0-C , 11-H ) :   0.9371 B(  1-O ,  2-C ) :   1.0833 B(  2-C ,  3-N ) :   1.8127
B(  2-C , 12-H ) :   0.9192 B(  3-N ,  4-C ) :   0.9491 B(  4-C ,  5-C ) :   0.9503
B(  4-C ,  7-C ) :   0.8689 B(  4-C , 13-H ) :   0.9058 B(  5-C ,  6-O ) :   0.8902
B(  5-C , 14-H ) :   0.9209 B(  5-C , 15-H ) :   0.9117 B(  6-O ,  7-C ) :   1.0795
B(  7-C ,  8-N ) :   1.9736 B(  8-N , 16-H ) :   0.8446

MP2 TOTAL ENERGY:     -454.380409322 Eh
FINAL SINGLE POINT ENERGY      -454.380409322061

DIPOLE MOMENT
-------------
                                X             Y             Z
Electronic contribution:      0.16607      -3.77269       2.56923
Nuclear contribution   :     -0.02946       3.97076      -2.93004
                        -----------------------------------------
Total Dipole Moment    :      0.13661       0.19807      -0.36081
                        -----------------------------------------
Magnitude (a.u.)       :      0.43368
Magnitude (Debye)      :      1.10233

                             ****ORCA TERMINATED NORMALLY****
TOTAL RUN TIME: 0 days 0 hours 13 minutes 37 seconds 675 msec
