                         Program Version 3.0.3 - RELEASE   -
|  1> ! RI-MP2 RIJK def2-TZVP def2-TZVP/C def2-TZVP/JK TIGHTSCF
|  2> % maxcore 2000
|  3> % mp2 density relaxed end
|  4> *xyz 0 1
|  5>  C        0.0558713564     1.5070320466    -0.0057011661
|  6>  C        0.0194414941     0.0117880337     0.1015974807
|  7>  O        0.3833034814    -0.6194105283    -1.1376351225
|  8>  C        0.3083918850    -2.0285610926    -0.8117831408
|  9>  C       -0.1563063340    -1.9483082131     0.6428433217
| 10>  C        0.7924317835    -0.8144057701     1.1626040796
| 11>  O        2.1762161557    -0.9117103354     0.9615405227
| 12>  C       -1.2333982530    -0.8177491285     0.5086136750
| 13>  O       -1.8177600473    -0.3583885204     1.7059957681
| 14>  H        1.0848708679     1.8522929332    -0.1419958198
| 15>  H       -0.5368513252     1.8436653866    -0.8615172986
| 16>  H       -0.3529815103     1.9571341655     0.9028499386
| 17>  H       -0.4068247675    -2.5290702516    -1.4747959715
| 18>  H        1.2960150139    -2.4882259564    -0.9211547842
| 19>  H       -0.3357475572    -2.8785120850     1.1830799182
| 20>  H        0.5304714671    -0.5055029153     2.1765042627
| 21>  H        2.5737409420    -1.2839081072     1.7537652866
| 22>  H       -1.9715686849    -0.9461516907    -0.2931067358
| 23>  H       -2.4238998376    -1.0346683308     2.0244526854
| 24> *
| 25>
| 26>                          ****END OF INPUT****

CARTESIAN COORDINATES (ANGSTROEM)
---------------------------------
  C      0.055871    1.507032   -0.005701
  C      0.019441    0.011788    0.101597
  O      0.383303   -0.619411   -1.137635
  C      0.308392   -2.028561   -0.811783
  C     -0.156306   -1.948308    0.642843
  C      0.792432   -0.814406    1.162604
  O      2.176216   -0.911710    0.961541
  C     -1.233398   -0.817749    0.508614
  O     -1.817760   -0.358389    1.705996
  H      1.084871    1.852293   -0.141996
  H     -0.536851    1.843665   -0.861517
  H     -0.352982    1.957134    0.902850
  H     -0.406825   -2.529070   -1.474796
  H      1.296015   -2.488226   -0.921155
  H     -0.335748   -2.878512    1.183080
  H      0.530471   -0.505503    2.176504
  H      2.573741   -1.283908    1.753765
  H     -1.971569   -0.946152   -0.293107
  H     -2.423900   -1.034668    2.024453

 Total Charge           Charge          ....    0
 Multiplicity           Mult            ....    1
 Number of Electrons    NEL             ....   70
 Basis Dimension        Dim             ....  339

ORBITAL ENERGIES
----------------

  NO   OCC          E(Eh)            E(eV)
   0   2.0000     -20.569122      -559.7143
   1   2.0000     -20.560674      -559.4844
   2   2.0000     -20.545597      -559.0741
   3   2.0000     -11.285346      -307.0899
   4   2.0000     -11.283273      -307.0335
   5   2.0000     -11.280495      -306.9579
   6   2.0000     -11.270963      -306.6985
   7   2.0000     -11.237794      -305.7959
   8   2.0000     -11.209009      -305.0126
   9   2.0000      -1.396588       -38.0031
  10   2.0000      -1.371653       -37.3246
  11   2.0000      -1.355400       -36.8823
  12   2.0000      -1.106483       -30.1089
  13   2.0000      -1.020159       -27.7599
  14   2.0000      -0.917752       -24.9733
  15   2.0000      -0.890110       -24.2211
  16   2.0000      -0.792637       -21.5687
  17   2.0000      -0.754815       -20.5396
  18   2.0000      -0.719127       -19.5685
  19   2.0000      -0.694860       -18.9081
  20   2.0000      -0.677827       -18.4446
  21   2.0000      -0.632315       -17.2062
  22   2.0000      -0.626641       -17.0518
  23   2.0000      -0.586542       -15.9606
  24   2.0000      -0.585021       -15.9192
  25   2.0000      -0.551109       -14.9964
  26   2.0000      -0.547028       -14.8854
  27   2.0000      -0.528705       -14.3868
  28   2.0000      -0.516051       -14.0425
  29   2.0000      -0.499382       -13.5889
  30   2.0000      -0.491566       -13.3762
  31   2.0000      -0.482135       -13.1196
  32   2.0000      -0.425470       -11.5776
  33   2.0000      -0.416116       -11.3231
  34   2.0000      -0.384689       -10.4679
  35   0.0000       0.130069         3.5394
  36   0.0000       0.136592         3.7169
  37   0.0000       0.163249         4.4422
  38   0.0000       0.168641         4.5889
  39   0.0000       0.191922         5.2225

MULLIKEN ATOMIC CHARGES
-----------------------
   0 C :   -0.453785
   1 C :    0.291950
   2 O :   -0.329368
   3 C :   -0.069846
   4 C :   -0.081279
   5 C :   -0.045491
   6 O :   -0.459078
   7 C :   -0.050809
   8 O :   -0.467585
   9 H :    0.150104
  10 H :    0.139238
  11 H :    0.143214
  12 H :    0.111349
  13 H :    0.103268
  14 H :    0.144842
  15 H :    0.117714
  16 H :    0.320939
  17 H :    0.111822
  18 H :    0.322802
Sum of atomic charges:    0.0000000

LOEWDIN ATOMIC CHARGES
----------------------
   0 C :   -0.264380
   1 C :   -0.315954
   2 O :    0.181857
   3 C :   -0.258829
   4 C :   -0.205144
   5 C :   -0.285961
   6 O :    0.003898
   7 C :   -0.267313
   8 O :   -0.006624
   9 H :    0.136410
  10 H :    0.133548
  11 H :    0.135511
  12 H :    0.121876
  13 H :    0.125722
  14 H :    0.132703
  15 H :    0.142542
  16 H :    0.178114
  17 H :    0.132529
  18 H :    0.179498

  Mayer bond orders larger than 0.1
B(  0-C ,  1-C ) :   0.8367 B(  0-C ,  9-H ) :   0.9445 B(  0-C , 10-H ) :   0.9385
B(  0-C , 11-H ) :   0.9424 B(  1-C ,  2-O ) :   0.9533 B(  1-C ,  5-C ) :   0.9041
B(  1-C ,  7-C ) :   0.8636 B(  2-O ,  3-C ) :   0.9316 B(  3-C ,  4-C ) :   0.9405
B(  3-C , 12-H ) :   0.9273 B(  3-C , 13-H ) :   0.9095 B(  4-C ,  5-C ) :   0.8453
B(  4-C ,  7-C ) :   0.8433 B(  4-C , 14-H ) :   0.9018 B(  5-C ,  6-O ) :   1.1435
B(  5-C , 15-H ) :   0.9275 B(  6-O , 16-H ) :   0.8412 B(  7-C ,  8-O ) :   1.0682
B(  7-C , 17-H ) :   0.9692 B(  8-O , 18-H ) :   0.8421

MP2 TOTAL ENERGY:     -459.414163074 Eh
FINAL SINGLE POINT ENERGY      -459.414163074362

DIPOLE MOMENT
-------------
                                X             Y             Z
Electronic contribution:      0.65007      -1.41578       0.30569
Nuclear contribution   :     -1.13237       0.51765       0.62129
                        -----------------------------------------
Total Dipole Moment    :     -0.48230      -0.89813       0.92698
                        -----------------------------------------
Magnitude (a.u.)       :      1.37787
Magnitude (Debye)      :      3.50227

                             ****ORCA TERMINATED NORMALLY****
TOTAL RUN TIME: 0 days 0 hours 17 minutes 5 seconds 407 msec
