                         Program Version 3.0.3 - RELEASE   -
|  1> ! RI-MP2 RIJK def2-TZVP def2-TZVP/C def2-TZVP/JK TIGHTSCF
|  2> % maxcore 2000
|  3> % mp2 density relaxed end
|  4> *xyz 0 1
|  5>  C       -0.1587333512     1.5033848475    -0.0431334731
|  6>  C        0.0546498858    -0.0077950862    -0.0076528102
|  7>  N        0.7634069312    -0.4598668417    -1.2010138711
|  8>  C        0.7629017106    -1.9167637265    -1.2767844398
|  9>  C        1.3287407019    -2.5365945439    -0.0174296255
| 10>  N        1.9182570408    -3.6559092995    -0.0640800624
| 11>  O        1.0675477782    -1.9076821545     1.1629119233
| 12>  C        0.8740775907    -0.4717720379     1.2046692606
| 13>  C        2.2325916648     0.2066608073     1.3606528394
| 14>  H        0.7850045488     2.0308028427    -0.2035445961
| 15>  H       -0.8383636957     1.7710279903    -0.8592395274
| 16>  H       -0.6065457318     1.8596882110     0.8895806189
| 17>  H       -0.9359993361    -0.4963141980     0.0797862772
| 18>  H        0.3359364580    -0.0710587104    -2.0344646504
| 19>  H       -0.2555710356    -2.3332746043    -1.4021548247
| 20>  H        1.3653248204    -2.2593384187    -2.1192091766
| 21>  H        2.1795153043    -3.9490344679     0.8800056191
| 22>  H        0.2779709993    -0.3181338342     2.1101228316
| 23>  H        2.7990365289     0.1486713358     0.4280610094
| 24>  H        2.1152046441     1.2592493253     1.6339597599
| 25>  H        2.7983352525    -0.2895056461     2.1531175478
| 26> *
| 27>
| 28>                          ****END OF INPUT****

CARTESIAN COORDINATES (ANGSTROEM)
---------------------------------
  C     -0.158733    1.503385   -0.043133
  C      0.054650   -0.007795   -0.007653
  N      0.763407   -0.459867   -1.201014
  C      0.762902   -1.916764   -1.276784
  C      1.328741   -2.536595   -0.017430
  N      1.918257   -3.655909   -0.064080
  O      1.067548   -1.907682    1.162912
  C      0.874078   -0.471772    1.204669
  C      2.232592    0.206661    1.360653
  H      0.785005    2.030803   -0.203545
  H     -0.838364    1.771028   -0.859240
  H     -0.606546    1.859688    0.889581
  H     -0.935999   -0.496314    0.079786
  H      0.335936   -0.071059   -2.034465
  H     -0.255571   -2.333275   -1.402155
  H      1.365325   -2.259338   -2.119209
  H      2.179515   -3.949034    0.880006
  H      0.277971   -0.318134    2.110123
  H      2.799037    0.148671    0.428061
  H      2.115205    1.259249    1.633960
  H      2.798335   -0.289506    2.153118

 Total Charge           Charge          ....    0
 Multiplicity           Mult            ....    1
 Number of Electrons    NEL             ....   70
 Basis Dimension        Dim             ....  351

ORBITAL ENERGIES
----------------

  NO   OCC          E(Eh)            E(eV)
   0   2.0000     -20.582686      -560.0834
   1   2.0000     -15.558333      -423.3638
   2   2.0000     -15.523068      -422.4042
   3   2.0000     -11.330098      -308.3076
   4   2.0000     -11.296469      -307.3926
   5   2.0000     -11.270731      -306.6922
   6   2.0000     -11.265166      -306.5407
   7   2.0000     -11.231884      -305.6351
   8   2.0000     -11.218543      -305.2721
   9   2.0000      -1.416146       -38.5353
  10   2.0000      -1.229308       -33.4512
  11   2.0000      -1.190023       -32.3822
  12   2.0000      -1.063871       -28.9494
  13   2.0000      -0.994838       -27.0709
  14   2.0000      -0.939544       -25.5663
  15   2.0000      -0.894378       -24.3373
  16   2.0000      -0.830422       -22.5969
  17   2.0000      -0.725483       -19.7414
  18   2.0000      -0.701224       -19.0813
  19   2.0000      -0.689460       -18.7612
  20   2.0000      -0.645499       -17.5649
  21   2.0000      -0.635027       -17.2800
  22   2.0000      -0.619862       -16.8673
  23   2.0000      -0.609203       -16.5772
  24   2.0000      -0.588668       -16.0185
  25   2.0000      -0.557902       -15.1813
  26   2.0000      -0.546932       -14.8828
  27   2.0000      -0.538664       -14.6578
  28   2.0000      -0.521833       -14.1998
  29   2.0000      -0.501230       -13.6392
  30   2.0000      -0.485693       -13.2164
  31   2.0000      -0.455788       -12.4026
  32   2.0000      -0.432717       -11.7748
  33   2.0000      -0.401712       -10.9311
  34   2.0000      -0.377335       -10.2678
  35   0.0000       0.120115         3.2685
  36   0.0000       0.149058         4.0561
  37   0.0000       0.161259         4.3881
  38   0.0000       0.163641         4.4529
  39   0.0000       0.182951         4.9783

MULLIKEN ATOMIC CHARGES
-----------------------
   0 C :   -0.452202
   1 C :    0.061450
   2 N :   -0.377945
   3 C :   -0.093061
   4 C :    0.111031
   5 N :   -0.372891
   6 O :   -0.272363
   7 C :    0.122503
   8 C :   -0.459760
   9 H :    0.152484
  10 H :    0.137301
  11 H :    0.136341
  12 H :    0.085595
  13 H :    0.203834
  14 H :    0.114217
  15 H :    0.145882
  16 H :    0.217040
  17 H :    0.106202
  18 H :    0.155771
  19 H :    0.134087
  20 H :    0.144484
Sum of atomic charges:    0.0000000

LOEWDIN ATOMIC CHARGES
----------------------
   0 C :   -0.288733
   1 C :   -0.321333
   2 N :    0.002051
   3 C :   -0.266746
   4 C :   -0.415649
   5 N :   -0.058265
   6 O :    0.251185
   7 C :   -0.290484
   8 C :   -0.291647
   9 H :    0.128993
  10 H :    0.125216
  11 H :    0.129665
  12 H :    0.140246
  13 H :    0.172098
  14 H :    0.134549
  15 H :    0.147649
  16 H :    0.165165
  17 H :    0.147661
  18 H :    0.132045
  19 H :    0.126936
  20 H :    0.129400

  Mayer bond orders larger than 0.1
B(  0-C ,  1-C ) :   0.8636 B(  0-C ,  9-H ) :   0.9422 B(  0-C , 10-H ) :   0.9345
B(  0-C , 11-H ) :   0.9395 B(  1-C ,  2-N ) :   0.8834 B(  1-C ,  7-C ) :   0.9308
B(  1-C , 12-H ) :   0.9201 B(  2-N ,  3-C ) :   0.9459 B(  2-N , 13-H ) :   0.8773
B(  3-C ,  4-C ) :   0.9199 B(  3-C , 14-H ) :   0.9235 B(  3-C , 15-H ) :   0.9102
B(  4-C ,  5-N ) :   2.0497 B(  4-C ,  6-O ) :   1.0991 B(  5-N , 16-H ) :   0.8577
B(  6-O ,  7-C ) :   0.8492 B(  7-C ,  8-C ) :   0.9006 B(  7-C , 17-H ) :   0.9263
B(  8-C , 18-H ) :   0.9260 B(  8-C , 19-H ) :   0.9303 B(  8-C , 20-H ) :   0.9350

MP2 TOTAL ENERGY:     -419.718013448 Eh
FINAL SINGLE POINT ENERGY      -419.718013448473

DIPOLE MOMENT
-------------
                                X             Y             Z
Electronic contribution:      0.91150      -7.64288       0.11443
Nuclear contribution   :     -1.65521       8.87045      -0.03632
                        -----------------------------------------
Total Dipole Moment    :     -0.74371       1.22757       0.07811
                        -----------------------------------------
Magnitude (a.u.)       :      1.43740
Magnitude (Debye)      :      3.65359

                             ****ORCA TERMINATED NORMALLY****
TOTAL RUN TIME: 0 days 0 hours 20 minutes 2 seconds 835 msec
