                         Program Version 3.0.3 - RELEASE   -
|  1> ! RI-MP2 RIJK def2-TZVP def2-TZVP/C def2-TZVP/JK TIGHTSCF
|  2> % maxcore 2000
|  3> % mp2 density relaxed end
|  4> *xyz 0 1
|  5>  C        0.0412260461     1.5236378751     0.5254455458
|  6>  C       -0.0568760973     0.0305463750     0.3056164893
|  7>  C        1.0984426183    -0.7267341576    -0.3407097095
|  8>  C        0.8021147888    -0.9055809532     1.1087952464
|  9>  O        1.6838068803    -0.4415457268     2.1315745301
| 10>  C        1.2455543699    -1.4906004169     3.0423052863
| 11>  C        0.5375979825    -0.9457531955     4.2663802535
| 12>  C        0.3654226872    -2.1213955207     1.9193044536
| 13>  O       -1.0048428279    -2.3257392751     2.1392793754
| 14>  H        1.0353123251     1.7941335291     0.8918289398
| 15>  H       -0.1482217114     2.0760593346    -0.4009161411
| 16>  H       -0.6851711510     1.8636048713     1.2721360041
| 17>  H       -1.0491096062    -0.3458401995     0.0638530460
| 18>  H        0.8793644527    -1.5401828278    -1.0252974725
| 19>  H        1.9878291788    -0.1530256051    -0.5837579392
| 20>  H        2.1004559430    -2.1106944535     3.3373565505
| 21>  H       -0.3108793828    -0.3104829479     3.9925637401
| 22>  H        0.1686066556    -1.7649259107     4.8916369160
| 23>  H        1.2285347984    -0.3396420537     4.8595547831
| 24>  H        0.7549598496    -3.0736016293     1.5518441099
| 25>  H       -1.4110596199    -1.4691376117     2.3101472825
| 26> *
| 27>
| 28>                          ****END OF INPUT****

CARTESIAN COORDINATES (ANGSTROEM)
---------------------------------
  C      0.041226    1.523638    0.525446
  C     -0.056876    0.030546    0.305616
  C      1.098443   -0.726734   -0.340710
  C      0.802115   -0.905581    1.108795
  O      1.683807   -0.441546    2.131575
  C      1.245554   -1.490600    3.042305
  C      0.537598   -0.945753    4.266380
  C      0.365423   -2.121396    1.919304
  O     -1.004843   -2.325739    2.139279
  H      1.035312    1.794134    0.891829
  H     -0.148222    2.076059   -0.400916
  H     -0.685171    1.863605    1.272136
  H     -1.049110   -0.345840    0.063853
  H      0.879364   -1.540183   -1.025297
  H      1.987829   -0.153026   -0.583758
  H      2.100456   -2.110694    3.337357
  H     -0.310879   -0.310483    3.992564
  H      0.168607   -1.764926    4.891637
  H      1.228535   -0.339642    4.859555
  H      0.754960   -3.073602    1.551844
  H     -1.411060   -1.469138    2.310147

 Total Charge           Charge          ....    0
 Multiplicity           Mult            ....    1
 Number of Electrons    NEL             ....   70
 Basis Dimension        Dim             ....  351

ORBITAL ENERGIES
----------------

  NO   OCC          E(Eh)            E(eV)
   0   2.0000     -20.567991      -559.6835
   1   2.0000     -20.552301      -559.2566
   2   2.0000     -11.289164      -307.1938
   3   2.0000     -11.285564      -307.0958
   4   2.0000     -11.285355      -307.0901
   5   2.0000     -11.234826      -305.7152
   6   2.0000     -11.225394      -305.4585
   7   2.0000     -11.223345      -305.4027
   8   2.0000     -11.217969      -305.2565
   9   2.0000      -1.397001       -38.0143
  10   2.0000      -1.364202       -37.1218
  11   2.0000      -1.140561       -31.0362
  12   2.0000      -1.025730       -27.9115
  13   2.0000      -0.976051       -26.5597
  14   2.0000      -0.943639       -25.6777
  15   2.0000      -0.827779       -22.5250
  16   2.0000      -0.800055       -21.7706
  17   2.0000      -0.762098       -20.7377
  18   2.0000      -0.700212       -19.0537
  19   2.0000      -0.669599       -18.2207
  20   2.0000      -0.650323       -17.6962
  21   2.0000      -0.603371       -16.4186
  22   2.0000      -0.599973       -16.3261
  23   2.0000      -0.593553       -16.1514
  24   2.0000      -0.577115       -15.7041
  25   2.0000      -0.557299       -15.1649
  26   2.0000      -0.549763       -14.9598
  27   2.0000      -0.539732       -14.6869
  28   2.0000      -0.524008       -14.2590
  29   2.0000      -0.502514       -13.6741
  30   2.0000      -0.489831       -13.3290
  31   2.0000      -0.467907       -12.7324
  32   2.0000      -0.446796       -12.1579
  33   2.0000      -0.394275       -10.7288
  34   2.0000      -0.373989       -10.1768
  35   0.0000       0.124005         3.3743
  36   0.0000       0.152491         4.1495
  37   0.0000       0.159484         4.3398
  38   0.0000       0.173819         4.7299
  39   0.0000       0.189649         5.1606

MULLIKEN ATOMIC CHARGES
-----------------------
   0 C :   -0.414334
   1 C :   -0.091800
   2 C :   -0.305659
   3 C :    0.117480
   4 O :   -0.331657
   5 C :    0.144652
   6 C :   -0.425064
   7 C :    0.023435
   8 O :   -0.450302
   9 H :    0.149710
  10 H :    0.136389
  11 H :    0.122405
  12 H :    0.127169
  13 H :    0.135588
  14 H :    0.133055
  15 H :    0.097743
  16 H :    0.110413
  17 H :    0.140877
  18 H :    0.143214
  19 H :    0.115810
  20 H :    0.320878
Sum of atomic charges:    0.0000000

LOEWDIN ATOMIC CHARGES
----------------------
   0 C :   -0.293635
   1 C :   -0.222242
   2 C :   -0.187498
   3 C :   -0.285873
   4 O :    0.186224
   5 C :   -0.272867
   6 C :   -0.297933
   7 C :   -0.279158
   8 O :    0.003381
   9 H :    0.132972
  10 H :    0.125559
  11 H :    0.123863
  12 H :    0.148364
  13 H :    0.136340
  14 H :    0.143381
  15 H :    0.135490
  16 H :    0.120436
  17 H :    0.132072
  18 H :    0.130614
  19 H :    0.143906
  20 H :    0.176607

  Mayer bond orders larger than 0.1
B(  0-C ,  1-C ) :   0.8859 B(  0-C ,  9-H ) :   0.9304 B(  0-C , 10-H ) :   0.9403
B(  0-C , 11-H ) :   0.9396 B(  1-C ,  2-C ) :   0.9230 B(  1-C ,  3-C ) :   0.8251
B(  1-C , 12-H ) :   0.9156 B(  2-C ,  3-C ) :   0.8853 B(  2-C , 13-H ) :   0.9174
B(  2-C , 14-H ) :   0.9119 B(  3-C ,  4-O ) :   0.9700 B(  3-C ,  7-C ) :   0.9434
B(  4-O ,  5-C ) :   0.9149 B(  5-C ,  6-C ) :   0.8941 B(  5-C ,  7-C ) :   0.9141
B(  5-C , 15-H ) :   0.9077 B(  6-C , 16-H ) :   0.9381 B(  6-C , 17-H ) :   0.9261
B(  6-C , 18-H ) :   0.9350 B(  7-C ,  8-O ) :   1.0139 B(  7-C , 19-H ) :   0.9186
B(  8-O , 20-H ) :   0.8361

MP2 TOTAL ENERGY:     -423.490568870 Eh
FINAL SINGLE POINT ENERGY      -423.490568869549

DIPOLE MOMENT
-------------
                                X             Y             Z
Electronic contribution:      1.16982      -4.08428      -0.50032
Nuclear contribution   :     -1.34783       4.19741       0.56706
                        -----------------------------------------
Total Dipole Moment    :     -0.17800       0.11314       0.06674
                        -----------------------------------------
Magnitude (a.u.)       :      0.22122
Magnitude (Debye)      :      0.56230

                             ****ORCA TERMINATED NORMALLY****
TOTAL RUN TIME: 0 days 0 hours 18 minutes 0 seconds 115 msec
