                         Program Version 3.0.3 - RELEASE   -
|  1> ! RI-MP2 RIJK def2-TZVP def2-TZVP/C def2-TZVP/JK TIGHTSCF
|  2> % maxcore 2000
|  3> % mp2 density relaxed end
|  4> *xyz 0 1
|  5>  C        0.0302038289     1.4722826738     0.3203979298
|  6>  C        0.0167583316     0.0301310841     0.1188449526
|  7>  C        0.0128485383    -1.1616371500    -0.0510927785
|  8>  C       -0.0146524395    -2.6113716111    -0.2540842642
|  9>  C       -1.3979085659    -3.1980781271    -0.1517427524
| 10>  C       -2.0572683008    -3.9223228231    -1.0500769247
| 11>  C       -3.4016011442    -4.3158880536    -0.5094047437
| 12>  O       -3.4622452545    -3.7447079060     0.7955584274
| 13>  C       -2.2562215343    -3.0429326893     1.0779230520
| 14>  H        1.0495324867     1.8709056221     0.2707977658
| 15>  H       -0.5640646951     1.9871841368    -0.4424920725
| 16>  H       -0.3825174207     1.7417107194     1.2988443860
| 17>  H        0.4138443599    -2.8613044157    -1.2318671913
| 18>  H        0.6366653466    -3.0885078122     0.4939925820
| 19>  H       -1.7070155898    -4.2035870682    -2.0356924267
| 20>  H       -4.2313919784    -3.9318217393    -1.1245013609
| 21>  H       -3.5283053029    -5.4089294031    -0.4461879621
| 22>  H       -1.7735132777    -3.4668684526     1.9744758883
| 23>  H       -2.4737718482    -1.9868960252     1.2977177232
| 24> *
| 25>
| 26>                          ****END OF INPUT****

CARTESIAN COORDINATES (ANGSTROEM)
---------------------------------
  C      0.030204    1.472283    0.320398
  C      0.016758    0.030131    0.118845
  C      0.012849   -1.161637   -0.051093
  C     -0.014652   -2.611372   -0.254084
  C     -1.397909   -3.198078   -0.151743
  C     -2.057268   -3.922323   -1.050077
  C     -3.401601   -4.315888   -0.509405
  O     -3.462245   -3.744708    0.795558
  C     -2.256222   -3.042933    1.077923
  H      1.049532    1.870906    0.270798
  H     -0.564065    1.987184   -0.442492
  H     -0.382517    1.741711    1.298844
  H      0.413844   -2.861304   -1.231867
  H      0.636665   -3.088508    0.493993
  H     -1.707016   -4.203587   -2.035692
  H     -4.231392   -3.931822   -1.124501
  H     -3.528305   -5.408929   -0.446188
  H     -1.773513   -3.466868    1.974476
  H     -2.473772   -1.986896    1.297718

 Total Charge           Charge          ....    0
 Multiplicity           Mult            ....    1
 Number of Electrons    NEL             ....   66
 Basis Dimension        Dim             ....  339

ORBITAL ENERGIES
----------------

  NO   OCC          E(Eh)            E(eV)
   0   2.0000     -20.547071      -559.1142
   1   2.0000     -11.276058      -306.8371
   2   2.0000     -11.274215      -306.7870
   3   2.0000     -11.262595      -306.4708
   4   2.0000     -11.247331      -306.0554
   5   2.0000     -11.241463      -305.8958
   6   2.0000     -11.227710      -305.5215
   7   2.0000     -11.225422      -305.4593
   8   2.0000     -11.220650      -305.3294
   9   2.0000      -1.372122       -37.3373
  10   2.0000      -1.110054       -30.2061
  11   2.0000      -1.056884       -28.7593
  12   2.0000      -1.010503       -27.4972
  13   2.0000      -0.976294       -26.5663
  14   2.0000      -0.922032       -25.0898
  15   2.0000      -0.826229       -22.4828
  16   2.0000      -0.746153       -20.3039
  17   2.0000      -0.687348       -18.7037
  18   2.0000      -0.667578       -18.1657
  19   2.0000      -0.649919       -17.6852
  20   2.0000      -0.612603       -16.6698
  21   2.0000      -0.608967       -16.5708
  22   2.0000      -0.587355       -15.9827
  23   2.0000      -0.584847       -15.9145
  24   2.0000      -0.579163       -15.7598
  25   2.0000      -0.563420       -15.3314
  26   2.0000      -0.555061       -15.1040
  27   2.0000      -0.506242       -13.7756
  28   2.0000      -0.479169       -13.0389
  29   2.0000      -0.432093       -11.7579
  30   2.0000      -0.372075       -10.1247
  31   2.0000      -0.369949       -10.0668
  32   2.0000      -0.346406        -9.4262
  33   0.0000       0.129908         3.5350
  34   0.0000       0.144435         3.9303
  35   0.0000       0.158198         4.3048
  36   0.0000       0.167346         4.5537
  37   0.0000       0.172477         4.6933

MULLIKEN ATOMIC CHARGES
-----------------------
   0 C :   -0.482337
   1 C :    0.005063
   2 C :   -0.005938
   3 C :   -0.329762
   4 C :    0.019660
   5 C :   -0.224160
   6 C :    0.026203
   7 O :   -0.340525
   8 C :   -0.017504
   9 H :    0.161806
  10 H :    0.162787
  11 H :    0.161134
  12 H :    0.150352
  13 H :    0.157860
  14 H :    0.133561
  15 H :    0.104416
  16 H :    0.102866
  17 H :    0.097402
  18 H :    0.117115
Sum of atomic charges:   -0.0000000

LOEWDIN ATOMIC CHARGES
----------------------
   0 C :   -0.295246
   1 C :   -0.106785
   2 C :   -0.082161
   3 C :   -0.211884
   4 C :   -0.163400
   5 C :   -0.143489
   6 C :   -0.286838
   7 O :    0.145928
   8 C :   -0.256951
   9 H :    0.140983
  10 H :    0.140832
  11 H :    0.140616
  12 H :    0.163671
  13 H :    0.165195
  14 H :    0.141600
  15 H :    0.125155
  16 H :    0.124518
  17 H :    0.127247
  18 H :    0.131009

  Mayer bond orders larger than 0.1
B(  0-C ,  1-C ) :   0.8653 B(  0-C ,  9-H ) :   0.9486 B(  0-C , 10-H ) :   0.9483
B(  0-C , 11-H ) :   0.9447 B(  1-C ,  2-C ) :   2.7137 B(  2-C ,  3-C ) :   0.9602
B(  3-C ,  4-C ) :   0.9063 B(  3-C , 12-H ) :   0.9336 B(  3-C , 13-H ) :   0.9382
B(  4-C ,  5-C ) :   1.7521 B(  4-C ,  8-C ) :   0.9739 B(  5-C ,  6-C ) :   0.9789
B(  5-C , 14-H ) :   0.9112 B(  6-C ,  7-O ) :   0.9364 B(  6-C , 15-H ) :   0.9150
B(  6-C , 16-H ) :   0.9166 B(  7-O ,  8-C ) :   0.9423 B(  8-C , 17-H ) :   0.9033
B(  8-C , 18-H ) :   0.9144

MP2 TOTAL ENERGY:     -385.171805782 Eh
FINAL SINGLE POINT ENERGY      -385.171805782181

DIPOLE MOMENT
-------------
                                X             Y             Z
Electronic contribution:     -1.21778      -3.16248       0.07199
Nuclear contribution   :      1.77635       3.37494      -0.45861
                        -----------------------------------------
Total Dipole Moment    :      0.55858       0.21246      -0.38662
                        -----------------------------------------
Magnitude (a.u.)       :      0.71177
Magnitude (Debye)      :      1.80918

                             ****ORCA TERMINATED NORMALLY****
TOTAL RUN TIME: 0 days 0 hours 17 minutes 46 seconds 836 msec
