                         Program Version 3.0.3 - RELEASE   -
|  1> ! RI-MP2 RIJK def2-TZVP def2-TZVP/C def2-TZVP/JK TIGHTSCF
|  2> % maxcore 2000
|  3> % mp2 density relaxed end
|  4> *xyz 0 1
|  5>  C        0.0034623533     1.0767356573     0.2267063273
|  6>  O       -0.2089436039    -0.0969741868    -0.5479105943
|  7>  C       -1.4266957513    -0.7171084252    -0.2520929951
|  8>  C       -1.5498847172    -2.1492611388    -0.7020863586
|  9>  C       -1.3631342749    -1.8284961516     0.7711390594
| 10>  O       -0.1109101608    -2.0713090124     1.3496107419
| 11>  C       -2.4791556456    -2.0700925462     1.7621199164
| 12>  C       -2.6225329924    -3.5408762843     2.1114189345
| 13>  O       -3.6714726119    -4.1324508160     2.1295935700
| 14>  H        0.9714778069     1.4844055880    -0.0721586089
| 15>  H       -0.7763603868     1.8254651855     0.0293647960
| 16>  H        0.0162293902     0.8537688212     1.3014385384
| 17>  H       -2.2963989974    -0.0610193658    -0.2997425478
| 18>  H       -2.5160697697    -2.4924806810    -1.0559755185
| 19>  H       -0.6949454554    -2.5670534774    -1.2232326102
| 20>  H        0.5384305264    -1.6213918890     0.7917288601
| 21>  H       -2.2431437571    -1.5251266485     2.6869184254
| 22>  H       -3.4385816887    -1.7096902939     1.3815615381
| 23>  H       -1.6656465035    -4.0500733851     2.3563287159
| 24> *
| 25>
| 26>                          ****END OF INPUT****

CARTESIAN COORDINATES (ANGSTROEM)
---------------------------------
  C      0.003462    1.076736    0.226706
  O     -0.208944   -0.096974   -0.547911
  C     -1.426696   -0.717108   -0.252093
  C     -1.549885   -2.149261   -0.702086
  C     -1.363134   -1.828496    0.771139
  O     -0.110910   -2.071309    1.349611
  C     -2.479156   -2.070093    1.762120
  C     -2.622533   -3.540876    2.111419
  O     -3.671473   -4.132451    2.129594
  H      0.971478    1.484406   -0.072159
  H     -0.776360    1.825465    0.029365
  H      0.016229    0.853769    1.301439
  H     -2.296399   -0.061019   -0.299743
  H     -2.516070   -2.492481   -1.055976
  H     -0.694945   -2.567053   -1.223233
  H      0.538431   -1.621392    0.791729
  H     -2.243144   -1.525127    2.686918
  H     -3.438582   -1.709690    1.381562
  H     -1.665647   -4.050073    2.356329

 Total Charge           Charge          ....    0
 Multiplicity           Mult            ....    1
 Number of Electrons    NEL             ....   70
 Basis Dimension        Dim             ....  339

ORBITAL ENERGIES
----------------

  NO   OCC          E(Eh)            E(eV)
   0   2.0000     -20.585529      -560.1607
   1   2.0000     -20.572603      -559.8090
   2   2.0000     -20.554439      -559.3147
   3   2.0000     -11.328745      -308.2708
   4   2.0000     -11.307019      -307.6796
   5   2.0000     -11.298369      -307.4442
   6   2.0000     -11.289561      -307.2046
   7   2.0000     -11.247353      -306.0560
   8   2.0000     -11.237328      -305.7832
   9   2.0000      -1.414455       -38.4893
  10   2.0000      -1.393121       -37.9088
  11   2.0000      -1.376957       -37.4689
  12   2.0000      -1.142220       -31.0814
  13   2.0000      -1.029691       -28.0193
  14   2.0000      -0.946086       -25.7443
  15   2.0000      -0.843702       -22.9583
  16   2.0000      -0.816364       -22.2144
  17   2.0000      -0.786540       -21.4028
  18   2.0000      -0.736169       -20.0322
  19   2.0000      -0.700947       -19.0737
  20   2.0000      -0.665205       -18.1011
  21   2.0000      -0.651797       -17.7363
  22   2.0000      -0.634514       -17.2660
  23   2.0000      -0.622739       -16.9456
  24   2.0000      -0.618840       -16.8395
  25   2.0000      -0.581767       -15.8307
  26   2.0000      -0.577123       -15.7043
  27   2.0000      -0.550149       -14.9703
  28   2.0000      -0.544274       -14.8105
  29   2.0000      -0.522893       -14.2287
  30   2.0000      -0.508339       -13.8326
  31   2.0000      -0.484677       -13.1887
  32   2.0000      -0.436201       -11.8696
  33   2.0000      -0.419098       -11.4042
  34   2.0000      -0.379163       -10.3176
  35   0.0000       0.127568         3.4713
  36   0.0000       0.139029         3.7832
  37   0.0000       0.155562         4.2331
  38   0.0000       0.162330         4.4172
  39   0.0000       0.172551         4.6954

MULLIKEN ATOMIC CHARGES
-----------------------
   0 C :   -0.228193
   1 O :   -0.326947
   2 C :    0.015681
   3 C :   -0.274254
   4 C :    0.141293
   5 O :   -0.465577
   6 C :   -0.152786
   7 C :    0.078845
   8 O :   -0.267544
   9 H :    0.147479
  10 H :    0.123536
  11 H :    0.133155
  12 H :    0.108532
  13 H :    0.146610
  14 H :    0.143204
  15 H :    0.329978
  16 H :    0.128898
  17 H :    0.117720
  18 H :    0.100372
Sum of atomic charges:   -0.0000000

LOEWDIN ATOMIC CHARGES
----------------------
   0 C :   -0.343193
   1 O :    0.156530
   2 C :   -0.291542
   3 C :   -0.186843
   4 C :   -0.356412
   5 O :    0.028807
   6 C :   -0.221613
   7 C :   -0.280847
   8 O :    0.128904
   9 H :    0.115731
  10 H :    0.106744
  11 H :    0.107467
  12 H :    0.135741
  13 H :    0.141462
  14 H :    0.144841
  15 H :    0.183974
  16 H :    0.159720
  17 H :    0.152932
  18 H :    0.117596

  Mayer bond orders larger than 0.1
B(  0-C ,  1-O ) :   0.8693 B(  0-C ,  9-H ) :   0.9387 B(  0-C , 10-H ) :   0.9347
B(  0-C , 11-H ) :   0.9327 B(  1-O ,  2-C ) :   0.9552 B(  2-C ,  3-C ) :   0.8855
B(  2-C ,  4-C ) :   0.8725 B(  2-C , 12-H ) :   0.9239 B(  3-C ,  4-C ) :   0.8786
B(  3-C , 13-H ) :   0.9082 B(  3-C , 14-H ) :   0.9062 B(  4-C ,  5-O ) :   1.0230
B(  4-C ,  6-C ) :   0.8989 B(  5-O , 15-H ) :   0.8134 B(  6-C ,  7-C ) :   0.8875
B(  6-C , 16-H ) :   0.9020 B(  6-C , 17-H ) :   0.9104 B(  7-C ,  8-O ) :   1.9899
B(  7-C , 18-H ) :   0.9361

MP2 TOTAL ENERGY:     -459.398177713 Eh
FINAL SINGLE POINT ENERGY      -459.398177713145

DIPOLE MOMENT
-------------
                                X             Y             Z
Electronic contribution:     -1.75887      -5.40022       1.38955
Nuclear contribution   :      2.30371       6.70355      -1.65993
                        -----------------------------------------
Total Dipole Moment    :      0.54485       1.30333      -0.27038
                        -----------------------------------------
Magnitude (a.u.)       :      1.43827
Magnitude (Debye)      :      3.65580

                             ****ORCA TERMINATED NORMALLY****
TOTAL RUN TIME: 0 days 0 hours 26 minutes 9 seconds 118 msec
