                         Program Version 3.0.3 - RELEASE   -
|  1> ! RI-MP2 RIJK def2-TZVP def2-TZVP/C def2-TZVP/JK TIGHTSCF
|  2> % maxcore 2000
|  3> % mp2 density relaxed end
|  4> *xyz 0 1
|  5>  C        0.0068144611     1.4791741776     0.0554342862
|  6>  N       -0.1043760640     0.0343604596     0.1657509121
|  7>  C       -1.2070733887    -0.7137739575     0.0384580189
|  8>  N       -1.1288101164    -2.0096862587     0.1693154019
|  9>  C       -2.2739370505    -2.7281513355     0.0317289902
| 10>  O       -2.4189157786    -3.9078899099     0.1125824720
| 11>  O       -3.4704632284    -1.9738512836    -0.2478492025
| 12>  N       -3.4564891641    -0.6062731267    -0.3688780771
| 13>  N       -2.3858596453     0.0130519976    -0.2355601527
| 14>  H        0.6934872162     1.7473787594    -0.7538285871
| 15>  H       -0.9746453927     1.8977037612    -0.1567677999
| 16>  H        0.3832107551     1.9046025366     0.9912280746
| 17>  H        0.7284025462    -0.5033676400     0.3615537735
| 18> *
| 19>
| 20>                          ****END OF INPUT****

CARTESIAN COORDINATES (ANGSTROEM)
---------------------------------
  C      0.006814    1.479174    0.055434
  N     -0.104376    0.034360    0.165751
  C     -1.207073   -0.713774    0.038458
  N     -1.128810   -2.009686    0.169315
  C     -2.273937   -2.728151    0.031729
  O     -2.418916   -3.907890    0.112582
  O     -3.470463   -1.973851   -0.247849
  N     -3.456489   -0.606273   -0.368878
  N     -2.385860    0.013052   -0.235560
  H      0.693487    1.747379   -0.753829
  H     -0.974645    1.897704   -0.156768
  H      0.383211    1.904603    0.991228
  H      0.728403   -0.503368    0.361554

 Total Charge           Charge          ....    0
 Multiplicity           Mult            ....    1
 Number of Electrons    NEL             ....   66
 Basis Dimension        Dim             ....  303

ORBITAL ENERGIES
----------------

  NO   OCC          E(Eh)            E(eV)
   0   2.0000     -20.668138      -562.4086
   1   2.0000     -20.546111      -559.0881
   2   2.0000     -15.766780      -429.0359
   3   2.0000     -15.668449      -426.3602
   4   2.0000     -15.638176      -425.5364
   5   2.0000     -15.582999      -424.0350
   6   2.0000     -11.420702      -310.7731
   7   2.0000     -11.417484      -310.6855
   8   2.0000     -11.298937      -307.4597
   9   2.0000      -1.546619       -42.0857
  10   2.0000      -1.420886       -38.6643
  11   2.0000      -1.368657       -37.2430
  12   2.0000      -1.311479       -35.6872
  13   2.0000      -1.241138       -33.7731
  14   2.0000      -1.030095       -28.0303
  15   2.0000      -0.999914       -27.2090
  16   2.0000      -0.907132       -24.6843
  17   2.0000      -0.827553       -22.5189
  18   2.0000      -0.774067       -21.0634
  19   2.0000      -0.714426       -19.4405
  20   2.0000      -0.713889       -19.4259
  21   2.0000      -0.677176       -18.4269
  22   2.0000      -0.655944       -17.8491
  23   2.0000      -0.654481       -17.8093
  24   2.0000      -0.598636       -16.2897
  25   2.0000      -0.595299       -16.1989
  26   2.0000      -0.579490       -15.7687
  27   2.0000      -0.568926       -15.4813
  28   2.0000      -0.528876       -14.3915
  29   2.0000      -0.488832       -13.3018
  30   2.0000      -0.467549       -12.7227
  31   2.0000      -0.438114       -11.9217
  32   2.0000      -0.402716       -10.9585
  33   0.0000       0.037404         1.0178
  34   0.0000       0.115398         3.1401
  35   0.0000       0.143096         3.8939
  36   0.0000       0.150638         4.0991
  37   0.0000       0.169957         4.6248

MULLIKEN ATOMIC CHARGES
-----------------------
   0 C :   -0.284966
   1 N :   -0.270242
   2 C :    0.289609
   3 N :   -0.293697
   4 C :    0.268093
   5 O :   -0.257279
   6 O :   -0.110217
   7 N :   -0.001561
   8 N :   -0.096879
   9 H :    0.151226
  10 H :    0.188107
  11 H :    0.151220
  12 H :    0.266587
Sum of atomic charges:   -0.0000000

LOEWDIN ATOMIC CHARGES
----------------------
   0 C :   -0.296828
   1 N :    0.139927
   2 C :   -0.392954
   3 N :    0.122682
   4 C :   -0.550849
   5 O :    0.154761
   6 O :    0.184663
   7 N :    0.002712
   8 N :    0.051308
   9 H :    0.122799
  10 H :    0.134469
  11 H :    0.122789
  12 H :    0.204522

  Mayer bond orders larger than 0.1
B(  0-C ,  1-N ) :   0.8491 B(  0-C ,  9-H ) :   0.9295 B(  0-C , 10-H ) :   0.9239
B(  0-C , 11-H ) :   0.9295 B(  1-N ,  2-C ) :   1.2865 B(  1-N , 12-H ) :   0.8562
B(  2-C ,  3-N ) :   1.5273 B(  2-C ,  8-N ) :   1.0368 B(  3-N ,  4-C ) :   1.2006
B(  4-C ,  5-O ) :   2.0501 B(  4-C ,  6-O ) :   0.9374 B(  6-O ,  7-N ) :   0.9245
B(  7-N ,  8-N ) :   1.5230

MP2 TOTAL ENERGY:     -485.267400988 Eh
FINAL SINGLE POINT ENERGY      -485.267400988380

DIPOLE MOMENT
-------------
                                X             Y             Z
Electronic contribution:     -5.94496      -6.94084      -0.42524
Nuclear contribution   :      7.60948       9.04567       0.52965
                        -----------------------------------------
Total Dipole Moment    :      1.66451       2.10483       0.10441
                        -----------------------------------------
Magnitude (a.u.)       :      2.68548
Magnitude (Debye)      :      6.82596

                             ****ORCA TERMINATED NORMALLY****
TOTAL RUN TIME: 0 days 0 hours 13 minutes 50 seconds 267 msec
