                         Program Version 3.0.3 - RELEASE   -
|  1> ! RI-MP2 RIJK def2-TZVP def2-TZVP/C def2-TZVP/JK TIGHTSCF
|  2> % maxcore 2000
|  3> % mp2 density relaxed end
|  4> *xyz 0 1
|  5>  C        0.1778605937     1.4476998230    -0.0802634756
|  6>  C       -0.1068646967    -0.0430640741    -0.2447412877
|  7>  C       -1.5344831561    -0.4362123236     0.1145994627
|  8>  O       -2.3693519861     0.3862174331     0.4183416142
|  9>  C       -1.8529548461    -1.9258805088     0.0724992433
| 10>  C       -3.3347797075    -2.2418543673     0.2888284619
| 11>  C       -3.5994896961    -3.7263261611     0.2756874469
| 12>  C       -4.7929296339    -4.3103840953    -0.3465049640
| 13>  O       -3.5234327934    -4.3751750344    -0.9997698367
| 14>  H        1.2081649062     1.6785207528    -0.3649029800
| 15>  H       -0.4962006466     2.0430297790    -0.7008566791
| 16>  H        0.0265755300     1.7626865421     0.9555699218
| 17>  H        0.0713643210    -0.3670908587    -1.2799222364
| 18>  H        0.5783539146    -0.6512178779     0.3615620429
| 19>  H       -1.5103787797    -2.3389295623    -0.8847494951
| 20>  H       -1.2329859767    -2.4185201735     0.8361423465
| 21>  H       -3.6666910135    -1.8158620974     1.2419702636
| 22>  H       -3.9292660024    -1.7580792969    -0.4924623171
| 23>  H       -3.1242480003    -4.2945625292     1.0789585457
| 24>  H       -5.1843862711    -5.2616897652     0.0116501428
| 25>  H       -5.5263908894    -3.6549388844    -0.8147837004
| 26> *
| 27>
| 28>                          ****END OF INPUT****

CARTESIAN COORDINATES (ANGSTROEM)
---------------------------------
  C      0.177861    1.447700   -0.080263
  C     -0.106865   -0.043064   -0.244741
  C     -1.534483   -0.436212    0.114599
  O     -2.369352    0.386217    0.418342
  C     -1.852955   -1.925881    0.072499
  C     -3.334780   -2.241854    0.288828
  C     -3.599490   -3.726326    0.275687
  C     -4.792930   -4.310384   -0.346505
  O     -3.523433   -4.375175   -0.999770
  H      1.208165    1.678521   -0.364903
  H     -0.496201    2.043030   -0.700857
  H      0.026576    1.762687    0.955570
  H      0.071364   -0.367091   -1.279922
  H      0.578354   -0.651218    0.361562
  H     -1.510379   -2.338930   -0.884749
  H     -1.232986   -2.418520    0.836142
  H     -3.666691   -1.815862    1.241970
  H     -3.929266   -1.758079   -0.492462
  H     -3.124248   -4.294563    1.078959
  H     -5.184386   -5.261690    0.011650
  H     -5.526391   -3.654939   -0.814784

 Total Charge           Charge          ....    0
 Multiplicity           Mult            ....    1
 Number of Electrons    NEL             ....   70
 Basis Dimension        Dim             ....  351

ORBITAL ENERGIES
----------------

  NO   OCC          E(Eh)            E(eV)
   0   2.0000     -20.567567      -559.6719
   1   2.0000     -20.543966      -559.0297
   2   2.0000     -11.328590      -308.2666
   3   2.0000     -11.289013      -307.1897
   4   2.0000     -11.283375      -307.0362
   5   2.0000     -11.240748      -305.8763
   6   2.0000     -11.240030      -305.8568
   7   2.0000     -11.232624      -305.6552
   8   2.0000     -11.217708      -305.2494
   9   2.0000      -1.410583       -38.3839
  10   2.0000      -1.388580       -37.7852
  11   2.0000      -1.079040       -29.3622
  12   2.0000      -1.047899       -28.5148
  13   2.0000      -0.959501       -26.1094
  14   2.0000      -0.907697       -24.6997
  15   2.0000      -0.863618       -23.5002
  16   2.0000      -0.807139       -21.9634
  17   2.0000      -0.730986       -19.8911
  18   2.0000      -0.698791       -19.0151
  19   2.0000      -0.673727       -18.3331
  20   2.0000      -0.647416       -17.6171
  21   2.0000      -0.635232       -17.2855
  22   2.0000      -0.617776       -16.8105
  23   2.0000      -0.610221       -16.6050
  24   2.0000      -0.556875       -15.1534
  25   2.0000      -0.549037       -14.9401
  26   2.0000      -0.524191       -14.2640
  27   2.0000      -0.519878       -14.1466
  28   2.0000      -0.516126       -14.0445
  29   2.0000      -0.511117       -13.9082
  30   2.0000      -0.492237       -13.3944
  31   2.0000      -0.486590       -13.2408
  32   2.0000      -0.449218       -12.2238
  33   2.0000      -0.439519       -11.9599
  34   2.0000      -0.405739       -11.0407
  35   0.0000       0.124969         3.4006
  36   0.0000       0.140285         3.8173
  37   0.0000       0.158926         4.3246
  38   0.0000       0.162287         4.4160
  39   0.0000       0.173868         4.7312

MULLIKEN ATOMIC CHARGES
-----------------------
   0 C :   -0.364009
   1 C :   -0.229140
   2 C :    0.193120
   3 O :   -0.302824
   4 C :   -0.290845
   5 C :   -0.208359
   6 C :    0.054897
   7 C :   -0.072728
   8 O :   -0.343269
   9 H :    0.132292
  10 H :    0.135392
  11 H :    0.130030
  12 H :    0.133965
  13 H :    0.129988
  14 H :    0.156674
  15 H :    0.134450
  16 H :    0.127491
  17 H :    0.127357
  18 H :    0.122389
  19 H :    0.115172
  20 H :    0.117957
Sum of atomic charges:    0.0000000

LOEWDIN ATOMIC CHARGES
----------------------
   0 C :   -0.312146
   1 C :   -0.270445
   2 C :   -0.322899
   3 O :    0.153517
   4 C :   -0.237604
   5 C :   -0.246202
   6 C :   -0.295405
   7 C :   -0.266733
   8 O :    0.135755
   9 H :    0.121148
  10 H :    0.127264
  11 H :    0.126038
  12 H :    0.151563
  13 H :    0.148891
  14 H :    0.156646
  15 H :    0.153497
  16 H :    0.150824
  17 H :    0.150588
  18 H :    0.136680
  19 H :    0.118557
  20 H :    0.120467

  Mayer bond orders larger than 0.1
B(  0-C ,  1-C ) :   0.9376 B(  0-C ,  9-H ) :   0.9394 B(  0-C , 10-H ) :   0.9352
B(  0-C , 11-H ) :   0.9367 B(  1-C ,  2-C ) :   0.9305 B(  1-C , 12-H ) :   0.9113
B(  1-C , 13-H ) :   0.9189 B(  2-C ,  3-O ) :   1.9500 B(  2-C ,  4-C ) :   0.9174
B(  4-C ,  5-C ) :   0.9299 B(  4-C , 14-H ) :   0.9162 B(  4-C , 15-H ) :   0.9076
B(  5-C ,  6-C ) :   0.9104 B(  5-C , 16-H ) :   0.9324 B(  5-C , 17-H ) :   0.9345
B(  6-C ,  7-C ) :   0.9938 B(  6-C ,  8-O ) :   0.8578 B(  6-C , 18-H ) :   0.9128
B(  7-C ,  8-O ) :   0.9168 B(  7-C , 19-H ) :   0.9213 B(  7-C , 20-H ) :   0.9092

MP2 TOTAL ENERGY:     -423.516031780 Eh
FINAL SINGLE POINT ENERGY      -423.516031779808

DIPOLE MOMENT
-------------
                                X             Y             Z
Electronic contribution:     -4.42949      -3.31594      -0.37652
Nuclear contribution   :      4.77397       2.94165       0.68188
                        -----------------------------------------
Total Dipole Moment    :      0.34447      -0.37429       0.30536
                        -----------------------------------------
Magnitude (a.u.)       :      0.59329
Magnitude (Debye)      :      1.50803

                             ****ORCA TERMINATED NORMALLY****
TOTAL RUN TIME: 0 days 0 hours 15 minutes 47 seconds 599 msec
