                         Program Version 3.0.3 - RELEASE   -
|  1> ! RI-MP2 RIJK def2-TZVP def2-TZVP/C def2-TZVP/JK TIGHTSCF
|  2> % maxcore 2000
|  3> % mp2 density relaxed end
|  4> *xyz 0 1
|  5>  C       -0.1523106486     1.4957997218     0.0972514462
|  6>  C       -0.0120083027     0.0109813796    -0.0037703324
|  7>  C        0.1271850132    -0.7430863015    -1.0979740321
|  8>  C        0.1692266782    -2.2140262134    -0.7516098352
|  9>  C        1.3188438210    -3.0365875318    -1.3342801463
| 10>  O        1.2246657013    -4.3959129544    -0.9536023512
| 11>  N        0.1693477257    -2.2681912739     0.7395403231
| 12>  C        1.3020241642    -1.5993255612     1.4051618796
| 13>  C        0.0163591153    -0.8737577719     1.2054494919
| 14>  H        0.6628084661     1.9335205624     0.6869349695
| 15>  H       -0.1538953401     1.9672178236    -0.8886282070
| 16>  H       -1.0857221714     1.7684924612     0.6055337087
| 17>  H        0.1903479932    -0.3711511569    -2.1147343605
| 18>  H       -0.7570669903    -2.7102099118    -1.0781487340
| 19>  H        1.2722632689    -3.0102698287    -2.4285580685
| 20>  H        2.2858601111    -2.5994622300    -1.0376593055
| 21>  H        1.0308371688    -4.4031105862    -0.0089195495
| 22>  H        1.5502734794    -2.0246380189     2.3738663205
| 23>  H        2.1505167412    -1.2626422311     0.8155415514
| 24>  H       -0.6555490943    -0.6834842169     2.0393533412
| 25> *
| 26>
| 27>                          ****END OF INPUT****

CARTESIAN COORDINATES (ANGSTROEM)
---------------------------------
  C     -0.152311    1.495800    0.097251
  C     -0.012008    0.010981   -0.003770
  C      0.127185   -0.743086   -1.097974
  C      0.169227   -2.214026   -0.751610
  C      1.318844   -3.036588   -1.334280
  O      1.224666   -4.395913   -0.953602
  N      0.169348   -2.268191    0.739540
  C      1.302024   -1.599326    1.405162
  C      0.016359   -0.873758    1.205449
  H      0.662808    1.933521    0.686935
  H     -0.153895    1.967218   -0.888628
  H     -1.085722    1.768492    0.605534
  H      0.190348   -0.371151   -2.114734
  H     -0.757067   -2.710210   -1.078149
  H      1.272263   -3.010270   -2.428558
  H      2.285860   -2.599462   -1.037659
  H      1.030837   -4.403111   -0.008920
  H      1.550273   -2.024638    2.373866
  H      2.150517   -1.262642    0.815542
  H     -0.655549   -0.683484    2.039353

 Total Charge           Charge          ....    0
 Multiplicity           Mult            ....    1
 Number of Electrons    NEL             ....   68
 Basis Dimension        Dim             ....  345

ORBITAL ENERGIES
----------------

  NO   OCC          E(Eh)            E(eV)
   0   2.0000     -20.546703      -559.1042
   1   2.0000     -15.565229      -423.5514
   2   2.0000     -11.272672      -306.7450
   3   2.0000     -11.266657      -306.5813
   4   2.0000     -11.260743      -306.4204
   5   2.0000     -11.260715      -306.4196
   6   2.0000     -11.245904      -306.0166
   7   2.0000     -11.234708      -305.7119
   8   2.0000     -11.226948      -305.5008
   9   2.0000      -1.354982       -36.8709
  10   2.0000      -1.289082       -35.0777
  11   2.0000      -1.085666       -29.5425
  12   2.0000      -1.038721       -28.2650
  13   2.0000      -0.942703       -25.6523
  14   2.0000      -0.902565       -24.5601
  15   2.0000      -0.853249       -23.2181
  16   2.0000      -0.780746       -21.2452
  17   2.0000      -0.746996       -20.3268
  18   2.0000      -0.684068       -18.6144
  19   2.0000      -0.681541       -18.5457
  20   2.0000      -0.631867       -17.1940
  21   2.0000      -0.608199       -16.5499
  22   2.0000      -0.598698       -16.2914
  23   2.0000      -0.577526       -15.7153
  24   2.0000      -0.577175       -15.7057
  25   2.0000      -0.563120       -15.3233
  26   2.0000      -0.547741       -14.9048
  27   2.0000      -0.506790       -13.7905
  28   2.0000      -0.487860       -13.2753
  29   2.0000      -0.474035       -12.8991
  30   2.0000      -0.460633       -12.5345
  31   2.0000      -0.431394       -11.7388
  32   2.0000      -0.404278       -11.0010
  33   2.0000      -0.335728        -9.1356
  34   0.0000       0.136635         3.7180
  35   0.0000       0.142169         3.8686
  36   0.0000       0.157051         4.2736
  37   0.0000       0.167228         4.5505
  38   0.0000       0.171902         4.6777

MULLIKEN ATOMIC CHARGES
-----------------------
   0 C :   -0.432914
   1 C :    0.039057
   2 C :   -0.271075
   3 C :    0.053946
   4 C :   -0.003140
   5 O :   -0.476072
   6 N :   -0.277312
   7 C :   -0.178899
   8 C :   -0.052047
   9 H :    0.143618
  10 H :    0.141749
  11 H :    0.145443
  12 H :    0.130450
  13 H :    0.112140
  14 H :    0.109808
  15 H :    0.083501
  16 H :    0.328233
  17 H :    0.133213
  18 H :    0.134627
  19 H :    0.135676
Sum of atomic charges:    0.0000000

LOEWDIN ATOMIC CHARGES
----------------------
   0 C :   -0.268003
   1 C :   -0.175534
   2 C :   -0.120832
   3 C :   -0.271266
   4 C :   -0.326620
   5 O :   -0.044591
   6 N :    0.124382
   7 C :   -0.237570
   8 C :   -0.201362
   9 H :    0.133597
  10 H :    0.132241
  11 H :    0.134226
  12 H :    0.141564
  13 H :    0.156562
  14 H :    0.130774
  15 H :    0.116176
  16 H :    0.178208
  17 H :    0.126271
  18 H :    0.129291
  19 H :    0.142487

  Mayer bond orders larger than 0.1
B(  0-C ,  1-C ) :   0.8831 B(  0-C ,  9-H ) :   0.9268 B(  0-C , 10-H ) :   0.9465
B(  0-C , 11-H ) :   0.9332 B(  1-C ,  2-C ) :   1.7445 B(  1-C ,  8-C ) :   0.9602
B(  2-C ,  3-C ) :   0.9317 B(  2-C , 12-H ) :   0.9140 B(  3-C ,  4-C ) :   0.9523
B(  3-C ,  6-N ) :   0.8849 B(  3-C , 13-H ) :   0.9120 B(  4-C ,  5-O ) :   0.9373
B(  4-C , 14-H ) :   0.9281 B(  4-C , 15-H ) :   0.9081 B(  5-O , 16-H ) :   0.8335
B(  6-N ,  7-C ) :   0.8336 B(  6-N ,  8-C ) :   0.9589 B(  7-C ,  8-C ) :   0.9092
B(  7-C , 17-H ) :   0.9249 B(  7-C , 18-H ) :   0.9146 B(  8-C , 19-H ) :   0.9025

MP2 TOTAL ENERGY:     -402.436350224 Eh
FINAL SINGLE POINT ENERGY      -402.436350223957

DIPOLE MOMENT
-------------
                                X             Y             Z
Electronic contribution:     -0.93261      -4.33010       0.25285
Nuclear contribution   :      1.00566       5.52046      -0.01457
                        -----------------------------------------
Total Dipole Moment    :      0.07305       1.19036       0.23829
                        -----------------------------------------
Magnitude (a.u.)       :      1.21617
Magnitude (Debye)      :      3.09126

                             ****ORCA TERMINATED NORMALLY****
TOTAL RUN TIME: 0 days 0 hours 30 minutes 26 seconds 772 msec
