                         Program Version 3.0.3 - RELEASE   -
|  1> ! RI-MP2 RIJK def2-TZVP def2-TZVP/C def2-TZVP/JK TIGHTSCF
|  2> % maxcore 2000
|  3> % mp2 density relaxed end
|  4> *xyz 0 1
|  5>  C       -0.0742950576     1.5812552410     0.1755994806
|  6>  C       -0.0627637339     0.0556498848     0.0254255926
|  7>  C        0.8443827803    -0.6263036591     1.0560514760
|  8>  N       -1.4184100105    -0.4907441915     0.0699959567
|  9>  C       -2.3101667343    -0.4491136080     1.1034984068
| 10>  C       -3.4456442421    -1.0997062421     0.6577204264
| 11>  O       -4.6277452272    -1.3384980520     1.2913160288
| 12>  C       -3.1459546423    -1.5006274488    -0.6578900515
| 13>  N       -1.9133306997    -1.1253719777    -1.0025377731
| 14>  H        0.9372830841     1.9789345362     0.0501758551
| 15>  H       -0.7228646848     2.0395220090    -0.5754582220
| 16>  H       -0.4303814756     1.8811940342     1.1668181072
| 17>  H        0.2803359770    -0.2024179078    -0.9796149908
| 18>  H        0.5211221996    -0.4057756009     2.0788616661
| 19>  H        0.8379880228    -1.7108510951     0.9202009466
| 20>  H        1.8726362967    -0.2686371834     0.9467749646
| 21>  H       -2.0798235741     0.0228981641     2.0450598798
| 22>  H       -4.5904589010    -0.9683447053     2.1781055479
| 23>  H       -3.7738128376    -2.0388512774    -1.3510677179
| 24> *
| 25>
| 26>                          ****END OF INPUT****

CARTESIAN COORDINATES (ANGSTROEM)
---------------------------------
  C     -0.074295    1.581255    0.175599
  C     -0.062764    0.055650    0.025426
  C      0.844383   -0.626304    1.056051
  N     -1.418410   -0.490744    0.069996
  C     -2.310167   -0.449114    1.103498
  C     -3.445644   -1.099706    0.657720
  O     -4.627745   -1.338498    1.291316
  C     -3.145955   -1.500627   -0.657890
  N     -1.913331   -1.125372   -1.002538
  H      0.937283    1.978935    0.050176
  H     -0.722865    2.039522   -0.575458
  H     -0.430381    1.881194    1.166818
  H      0.280336   -0.202418   -0.979615
  H      0.521122   -0.405776    2.078862
  H      0.837988   -1.710851    0.920201
  H      1.872636   -0.268637    0.946775
  H     -2.079824    0.022898    2.045060
  H     -4.590459   -0.968345    2.178106
  H     -3.773813   -2.038851   -1.351068

 Total Charge           Charge          ....    0
 Multiplicity           Mult            ....    1
 Number of Electrons    NEL             ....   68
 Basis Dimension        Dim             ....  339

ORBITAL ENERGIES
----------------

  NO   OCC          E(Eh)            E(eV)
   0   2.0000     -20.585150      -560.1504
   1   2.0000     -15.630662      -425.3319
   2   2.0000     -15.584091      -424.0647
   3   2.0000     -11.281357      -306.9813
   4   2.0000     -11.279880      -306.9411
   5   2.0000     -11.260770      -306.4211
   6   2.0000     -11.239549      -305.8437
   7   2.0000     -11.227402      -305.5131
   8   2.0000     -11.227381      -305.5126
   9   2.0000      -1.402018       -38.1508
  10   2.0000      -1.369642       -37.2699
  11   2.0000      -1.135524       -30.8992
  12   2.0000      -1.052167       -28.6309
  13   2.0000      -1.015079       -27.6217
  14   2.0000      -0.947713       -25.7886
  15   2.0000      -0.861251       -23.4358
  16   2.0000      -0.800452       -21.7814
  17   2.0000      -0.777765       -21.1641
  18   2.0000      -0.727501       -19.7963
  19   2.0000      -0.665128       -18.0991
  20   2.0000      -0.638952       -17.3868
  21   2.0000      -0.637739       -17.3538
  22   2.0000      -0.607996       -16.5444
  23   2.0000      -0.601144       -16.3580
  24   2.0000      -0.582007       -15.8372
  25   2.0000      -0.554511       -15.0890
  26   2.0000      -0.539384       -14.6774
  27   2.0000      -0.537681       -14.6310
  28   2.0000      -0.530189       -14.4272
  29   2.0000      -0.494799       -13.4642
  30   2.0000      -0.493789       -13.4367
  31   2.0000      -0.453511       -12.3407
  32   2.0000      -0.346419        -9.4265
  33   2.0000      -0.316166        -8.6033
  34   0.0000       0.126038         3.4297
  35   0.0000       0.137376         3.7382
  36   0.0000       0.151232         4.1152
  37   0.0000       0.168273         4.5789
  38   0.0000       0.176014         4.7896

MULLIKEN ATOMIC CHARGES
-----------------------
   0 C :   -0.386947
   1 C :   -0.051081
   2 C :   -0.386950
   3 N :    0.163108
   4 C :   -0.205020
   5 C :    0.152619
   6 O :   -0.440301
   7 C :   -0.134313
   8 N :   -0.277528
   9 H :    0.134655
  10 H :    0.150749
  11 H :    0.121468
  12 H :    0.135456
  13 H :    0.121475
  14 H :    0.150753
  15 H :    0.134637
  16 H :    0.150420
  17 H :    0.329360
  18 H :    0.137440
Sum of atomic charges:    0.0000000

LOEWDIN ATOMIC CHARGES
----------------------
   0 C :   -0.286511
   1 C :   -0.300475
   2 C :   -0.286510
   3 N :    0.208674
   4 C :   -0.231756
   5 C :   -0.330789
   6 O :    0.057538
   7 C :   -0.256900
   8 N :    0.041052
   9 H :    0.128250
  10 H :    0.130247
  11 H :    0.122643
  12 H :    0.159796
  13 H :    0.122646
  14 H :    0.130249
  15 H :    0.128243
  16 H :    0.135942
  17 H :    0.191490
  18 H :    0.136172

  Mayer bond orders larger than 0.1
B(  0-C ,  1-C ) :   0.9305 B(  0-C ,  9-H ) :   0.9329 B(  0-C , 10-H ) :   0.9372
B(  0-C , 11-H ) :   0.9243 B(  1-C ,  2-C ) :   0.9305 B(  1-C ,  3-N ) :   0.8483
B(  1-C , 12-H ) :   0.9226 B(  2-C , 13-H ) :   0.9243 B(  2-C , 14-H ) :   0.9372
B(  2-C , 15-H ) :   0.9329 B(  3-N ,  4-C ) :   1.1448 B(  3-N ,  8-N ) :   1.0346
B(  4-C ,  5-C ) :   1.3892 B(  4-C ,  8-N ) :   0.1098 B(  4-C , 16-H ) :   0.9029
B(  5-C ,  6-O ) :   1.0938 B(  5-C ,  7-C ) :   1.3116 B(  6-O , 17-H ) :   0.8360
B(  7-C ,  8-N ) :   1.4343 B(  7-C , 18-H ) :   0.9349

MP2 TOTAL ENERGY:     -418.522316307 Eh
FINAL SINGLE POINT ENERGY      -418.522316306864

DIPOLE MOMENT
-------------
                                X             Y             Z
Electronic contribution:     -9.40659      -4.63979      -1.81734
Nuclear contribution   :     10.08480       5.36507       2.92550
                        -----------------------------------------
Total Dipole Moment    :      0.67821       0.72528       1.10816
                        -----------------------------------------
Magnitude (a.u.)       :      1.48796
Magnitude (Debye)      :      3.78208

                             ****ORCA TERMINATED NORMALLY****
TOTAL RUN TIME: 0 days 0 hours 17 minutes 22 seconds 142 msec
