                         Program Version 3.0.3 - RELEASE   -
|  1> ! RI-MP2 RIJK def2-TZVP def2-TZVP/C def2-TZVP/JK TIGHTSCF
|  2> % maxcore 2000
|  3> % mp2 density relaxed end
|  4> *xyz 0 1
|  5>  C       -0.1292842255     1.5122939929     0.0401054674
|  6>  C        0.0799078263    -0.0128806332    -0.0160032346
|  7>  C        0.7849918379    -0.3924367960    -1.2544154934
|  8>  N        1.3299732348    -0.6571614180    -2.2376761193
|  9>  N        0.7713834737    -0.5310168537     1.1526779564
| 10>  C        2.1030498161    -0.3483992523     1.4545242628
| 11>  C        2.3378965995    -0.9024449249     2.6892046888
| 12>  C        1.1051556649    -1.4352382172     3.1602825152
| 13>  C        0.1594759526    -1.1920726798     2.1947310880
| 14>  H        0.8313119686     2.0312374046     0.0620877296
| 15>  H       -0.6911340184     1.8518278356    -0.8337970162
| 16>  H       -0.6862257426     1.7632256261     0.9457275151
| 17>  H       -0.8985406431    -0.5038551387    -0.0430366306
| 18>  H        2.7642147386     0.1367681143     0.7544763857
| 19>  H        3.2915113362    -0.9334053565     3.1932341840
| 20>  H        0.9347088117    -1.9470929147     4.0947277649
| 21>  H       -0.8920165513    -1.4287029185     2.1500883361
| 22> *
| 23>
| 24>                          ****END OF INPUT****

CARTESIAN COORDINATES (ANGSTROEM)
---------------------------------
  C     -0.129284    1.512294    0.040105
  C      0.079908   -0.012881   -0.016003
  C      0.784992   -0.392437   -1.254415
  N      1.329973   -0.657161   -2.237676
  N      0.771383   -0.531017    1.152678
  C      2.103050   -0.348399    1.454524
  C      2.337897   -0.902445    2.689205
  C      1.105156   -1.435238    3.160283
  C      0.159476   -1.192073    2.194731
  H      0.831312    2.031237    0.062088
  H     -0.691134    1.851828   -0.833797
  H     -0.686226    1.763226    0.945728
  H     -0.898541   -0.503855   -0.043037
  H      2.764215    0.136768    0.754476
  H      3.291511   -0.933405    3.193234
  H      0.934709   -1.947093    4.094728
  H     -0.892017   -1.428703    2.150088

 Total Charge           Charge          ....    0
 Multiplicity           Mult            ....    1
 Number of Electrons    NEL             ....   64
 Basis Dimension        Dim             ....  327

ORBITAL ENERGIES
----------------

  NO   OCC          E(Eh)            E(eV)
   0   2.0000     -15.624661      -425.1686
   1   2.0000     -15.583671      -424.0532
   2   2.0000     -11.342843      -308.6544
   3   2.0000     -11.283429      -307.0377
   4   2.0000     -11.264405      -306.5200
   5   2.0000     -11.261570      -306.4429
   6   2.0000     -11.256090      -306.2938
   7   2.0000     -11.221028      -305.3397
   8   2.0000     -11.219945      -305.3102
   9   2.0000      -1.324188       -36.0330
  10   2.0000      -1.230227       -33.4762
  11   2.0000      -1.123737       -30.5784
  12   2.0000      -1.021741       -27.8030
  13   2.0000      -0.992925       -27.0189
  14   2.0000      -0.920883       -25.0585
  15   2.0000      -0.798701       -21.7338
  16   2.0000      -0.783781       -21.3278
  17   2.0000      -0.745764       -20.2933
  18   2.0000      -0.697280       -18.9740
  19   2.0000      -0.647357       -17.6155
  20   2.0000      -0.610661       -16.6169
  21   2.0000      -0.594381       -16.1739
  22   2.0000      -0.587279       -15.9807
  23   2.0000      -0.565647       -15.3920
  24   2.0000      -0.560989       -15.2653
  25   2.0000      -0.547044       -14.8858
  26   2.0000      -0.545049       -14.8315
  27   2.0000      -0.540270       -14.7015
  28   2.0000      -0.479022       -13.0348
  29   2.0000      -0.470478       -12.8024
  30   2.0000      -0.354252        -9.6397
  31   2.0000      -0.311868        -8.4864
  32   0.0000       0.116432         3.1683
  33   0.0000       0.140910         3.8344
  34   0.0000       0.148442         4.0393
  35   0.0000       0.165730         4.5097
  36   0.0000       0.167560         4.5595

MULLIKEN ATOMIC CHARGES
-----------------------
   0 C :   -0.368354
   1 C :    0.040007
   2 C :   -0.174529
   3 N :   -0.044763
   4 N :    0.036407
   5 C :   -0.125284
   6 C :   -0.201031
   7 C :   -0.185214
   8 C :   -0.146636
   9 H :    0.148595
  10 H :    0.150843
  11 H :    0.154655
  12 H :    0.145317
  13 H :    0.155454
  14 H :    0.132839
  15 H :    0.133871
  16 H :    0.147823
Sum of atomic charges:   -0.0000000

LOEWDIN ATOMIC CHARGES
----------------------
   0 C :   -0.256032
   1 C :   -0.258303
   2 C :   -0.161822
   3 N :    0.077871
   4 N :    0.272441
   5 C :   -0.208916
   6 C :   -0.190280
   7 C :   -0.193698
   8 C :   -0.218944
   9 H :    0.133625
  10 H :    0.134403
  11 H :    0.133494
  12 H :    0.178816
  13 H :    0.141023
  14 H :    0.140599
  15 H :    0.140209
  16 H :    0.135515

  Mayer bond orders larger than 0.1
B(  0-C ,  1-C ) :   0.9238 B(  0-C ,  9-H ) :   0.9176 B(  0-C , 10-H ) :   0.9279
B(  0-C , 11-H ) :   0.9312 B(  1-C ,  2-C ) :   0.9135 B(  1-C ,  4-N ) :   0.8763
B(  1-C , 12-H ) :   0.9128 B(  2-C ,  3-N ) :   2.8530 B(  4-N ,  5-C ) :   1.1072
B(  4-N ,  8-C ) :   1.1155 B(  5-C ,  6-C ) :   1.4736 B(  5-C , 13-H ) :   0.9179
B(  6-C ,  7-C ) :   1.2769 B(  6-C , 14-H ) :   0.9351 B(  7-C ,  8-C ) :   1.4820
B(  7-C , 15-H ) :   0.9315 B(  8-C , 16-H ) :   0.9049

MP2 TOTAL ENERGY:     -380.232324485 Eh
FINAL SINGLE POINT ENERGY      -380.232324484618

DIPOLE MOMENT
-------------
                                X             Y             Z
Electronic contribution:      1.64663      -3.29107      -3.09849
Nuclear contribution   :     -2.59669       3.96559       3.76646
                        -----------------------------------------
Total Dipole Moment    :     -0.95006       0.67452       0.66797
                        -----------------------------------------
Magnitude (a.u.)       :      1.34305
Magnitude (Debye)      :      3.41376

                             ****ORCA TERMINATED NORMALLY****
TOTAL RUN TIME: 0 days 0 hours 16 minutes 3 seconds 829 msec
