                         Program Version 3.0.3 - RELEASE   -
|  1> ! RI-MP2 RIJK def2-TZVP def2-TZVP/C def2-TZVP/JK TIGHTSCF
|  2> % maxcore 2000
|  3> % mp2 density relaxed end
|  4> *xyz 0 1
|  5>  C       -0.0843096888     1.5455487591    -0.6066354219
|  6>  C       -0.0097521987     0.2345346196     0.1711215429
|  7>  N       -1.3088508046    -0.4333668037     0.1759976896
|  8>  C       -1.5868348343    -1.3456855820    -0.9369562132
|  9>  C       -1.3492196574    -1.8575601029     0.4346943638
| 10>  C       -0.1934573191    -2.7749471684     0.8959799146
| 11>  C       -1.2295051517    -3.5069092460     1.7751096709
| 12>  O       -1.1822551926    -4.4882761291     2.4562434594
| 13>  C       -2.3476667353    -2.5152477682     1.4034512673
| 14>  H        0.8788127337     2.0641818331    -0.5822303610
| 15>  H       -0.3447059855     1.3633526412    -1.6543622304
| 16>  H       -0.8464652760     2.2026189818    -0.1788613374
| 17>  H        0.7843557774    -0.4064710136    -0.2512250267
| 18>  H        0.2644936651     0.4354317902     1.2139960092
| 19>  H       -2.5921996492    -1.3042430072    -1.3488758118
| 20>  H       -0.7979910855    -1.5079856813    -1.6720263081
| 21>  H        0.2972916820    -3.3974876775     0.1426310978
| 22>  H        0.5803872338    -2.2761359699     1.4904460517
| 23>  H       -2.6504087417    -1.8709111319     2.2358820361
| 24>  H       -3.2425918616    -2.9701283233     0.9686328071
| 25> *
| 26>
| 27>                          ****END OF INPUT****

CARTESIAN COORDINATES (ANGSTROEM)
---------------------------------
  C     -0.084310    1.545549   -0.606635
  C     -0.009752    0.234535    0.171122
  N     -1.308851   -0.433367    0.175998
  C     -1.586835   -1.345686   -0.936956
  C     -1.349220   -1.857560    0.434694
  C     -0.193457   -2.774947    0.895980
  C     -1.229505   -3.506909    1.775110
  O     -1.182255   -4.488276    2.456243
  C     -2.347667   -2.515248    1.403451
  H      0.878813    2.064182   -0.582230
  H     -0.344706    1.363353   -1.654362
  H     -0.846465    2.202619   -0.178861
  H      0.784356   -0.406471   -0.251225
  H      0.264494    0.435432    1.213996
  H     -2.592200   -1.304243   -1.348876
  H     -0.797991   -1.507986   -1.672026
  H      0.297292   -3.397488    0.142631
  H      0.580387   -2.276136    1.490446
  H     -2.650409   -1.870911    2.235882
  H     -3.242592   -2.970128    0.968633

 Total Charge           Charge          ....    0
 Multiplicity           Mult            ....    1
 Number of Electrons    NEL             ....   68
 Basis Dimension        Dim             ....  345

ORBITAL ENERGIES
----------------

  NO   OCC          E(Eh)            E(eV)
   0   2.0000     -20.554663      -559.3208
   1   2.0000     -15.567575      -423.6152
   2   2.0000     -11.336067      -308.4701
   3   2.0000     -11.280569      -306.9599
   4   2.0000     -11.263101      -306.4846
   5   2.0000     -11.261191      -306.4326
   6   2.0000     -11.247350      -306.0560
   7   2.0000     -11.241219      -305.8891
   8   2.0000     -11.219642      -305.3020
   9   2.0000      -1.397871       -38.0380
  10   2.0000      -1.289752       -35.0959
  11   2.0000      -1.119186       -30.4546
  12   2.0000      -1.037223       -28.2243
  13   2.0000      -0.942374       -25.6433
  14   2.0000      -0.907668       -24.6989
  15   2.0000      -0.818566       -22.2743
  16   2.0000      -0.778225       -21.1766
  17   2.0000      -0.728263       -19.8170
  18   2.0000      -0.682956       -18.5842
  19   2.0000      -0.671055       -18.2603
  20   2.0000      -0.646320       -17.5873
  21   2.0000      -0.627755       -17.0821
  22   2.0000      -0.610323       -16.6077
  23   2.0000      -0.588676       -16.0187
  24   2.0000      -0.570125       -15.5139
  25   2.0000      -0.560993       -15.2654
  26   2.0000      -0.530885       -14.4461
  27   2.0000      -0.512154       -13.9364
  28   2.0000      -0.508050       -13.8247
  29   2.0000      -0.491921       -13.3859
  30   2.0000      -0.453597       -12.3430
  31   2.0000      -0.446270       -12.1436
  32   2.0000      -0.402142       -10.9428
  33   2.0000      -0.378312       -10.2944
  34   0.0000       0.123104         3.3498
  35   0.0000       0.127341         3.4651
  36   0.0000       0.149219         4.0604
  37   0.0000       0.164140         4.4665
  38   0.0000       0.165953         4.5158

MULLIKEN ATOMIC CHARGES
-----------------------
   0 C :   -0.377313
   1 C :   -0.133257
   2 N :   -0.232816
   3 C :   -0.219639
   4 C :    0.063148
   5 C :   -0.204926
   6 C :    0.111836
   7 O :   -0.247252
   8 C :   -0.187189
   9 H :    0.128955
  10 H :    0.124425
  11 H :    0.134115
  12 H :    0.097013
  13 H :    0.121012
  14 H :    0.130943
  15 H :    0.124730
  16 H :    0.143258
  17 H :    0.143587
  18 H :    0.139601
  19 H :    0.139770
Sum of atomic charges:   -0.0000000

LOEWDIN ATOMIC CHARGES
----------------------
   0 C :   -0.314177
   1 C :   -0.317859
   2 N :    0.130217
   3 C :   -0.222540
   4 C :   -0.266953
   5 C :   -0.177821
   6 C :   -0.300443
   7 O :    0.163679
   8 C :   -0.167140
   9 H :    0.122769
  10 H :    0.121517
  11 H :    0.125046
  12 H :    0.121811
  13 H :    0.132022
  14 H :    0.127647
  15 H :    0.127134
  16 H :    0.144950
  17 H :    0.151231
  18 H :    0.152635
  19 H :    0.146275

  Mayer bond orders larger than 0.1
B(  0-C ,  1-C ) :   0.9380 B(  0-C ,  9-H ) :   0.9378 B(  0-C , 10-H ) :   0.9358
B(  0-C , 11-H ) :   0.9365 B(  1-C ,  2-N ) :   0.8705 B(  1-C , 12-H ) :   0.9204
B(  1-C , 13-H ) :   0.9274 B(  2-N ,  3-C ) :   0.9400 B(  2-N ,  4-C ) :   0.8339
B(  3-C ,  4-C ) :   0.9025 B(  3-C , 14-H ) :   0.9118 B(  3-C , 15-H ) :   0.9270
B(  4-C ,  5-C ) :   0.9307 B(  4-C ,  8-C ) :   0.9218 B(  5-C ,  6-C ) :   0.8952
B(  5-C ,  8-C ) :  -0.1373 B(  5-C , 16-H ) :   0.8949 B(  5-C , 17-H ) :   0.8965
B(  6-C ,  7-O ) :   2.0460 B(  6-C ,  8-C ) :   0.8975 B(  8-C , 18-H ) :   0.8937
B(  8-C , 19-H ) :   0.8964

MP2 TOTAL ENERGY:     -402.424122900 Eh
FINAL SINGLE POINT ENERGY      -402.424122899840

DIPOLE MOMENT
-------------
                                X             Y             Z
Electronic contribution:     -2.91649      -9.26473       5.42588
Nuclear contribution   :      3.24383       9.95013      -6.21382
                        -----------------------------------------
Total Dipole Moment    :      0.32734       0.68540      -0.78794
                        -----------------------------------------
Magnitude (a.u.)       :      1.09443
Magnitude (Debye)      :      2.78181

                             ****ORCA TERMINATED NORMALLY****
TOTAL RUN TIME: 0 days 0 hours 27 minutes 57 seconds 396 msec
