                         Program Version 3.0.3 - RELEASE   -
|  1> ! RI-MP2 RIJK def2-TZVP def2-TZVP/C def2-TZVP/JK TIGHTSCF
|  2> % maxcore 2000
|  3> % mp2 density relaxed end
|  4> *xyz 0 1
|  5>  C       -0.0780901511     1.5112668840    -0.0035493006
|  6>  N       -0.0097855632     0.0605850148    -0.0197465980
|  7>  C        0.0311084278    -0.6536207870     1.2478733575
|  8>  C       -1.3744141746    -0.9961507553     1.7896414819
|  9>  C       -1.2938008127    -1.8162047191     3.0541841972
| 10>  O       -1.7264811080    -1.4773457934     4.1263292074
| 11>  C       -0.1125231867    -0.6963963272    -1.1638892595
| 12>  N       -0.0990081830     0.0138497583    -2.3606319881
| 13>  O       -0.2479457708    -1.9103113314    -1.1346999372
| 14>  H        0.9138326640     1.9841432363    -0.0540247555
| 15>  H       -0.6848313836     1.8746629167    -0.8361965955
| 16>  H       -0.5577930907     1.8448154286     0.9208658045
| 17>  H        0.5932607366    -1.5775916200     1.0955398651
| 18>  H        0.5764903881    -0.0367897418     1.9695352641
| 19>  H       -1.9598304008    -0.0941510343     1.9890912339
| 20>  H       -1.8752515380    -1.5958496187     1.0198613649
| 21>  H       -0.7755468514    -2.7961209689     2.9316449892
| 22>  H        0.4857000549     0.8333515885    -2.4233631499
| 23>  H       -0.0114986669    -0.6078694101    -3.1507024614
| 24> *
| 25>
| 26>                          ****END OF INPUT****

CARTESIAN COORDINATES (ANGSTROEM)
---------------------------------
  C     -0.078090    1.511267   -0.003549
  N     -0.009786    0.060585   -0.019747
  C      0.031108   -0.653621    1.247873
  C     -1.374414   -0.996151    1.789641
  C     -1.293801   -1.816205    3.054184
  O     -1.726481   -1.477346    4.126329
  C     -0.112523   -0.696396   -1.163889
  N     -0.099008    0.013850   -2.360632
  O     -0.247946   -1.910311   -1.134700
  H      0.913833    1.984143   -0.054025
  H     -0.684831    1.874663   -0.836197
  H     -0.557793    1.844815    0.920866
  H      0.593261   -1.577592    1.095540
  H      0.576490   -0.036790    1.969535
  H     -1.959830   -0.094151    1.989091
  H     -1.875252   -1.595850    1.019861
  H     -0.775547   -2.796121    2.931645
  H      0.485700    0.833352   -2.423363
  H     -0.011499   -0.607869   -3.150702

 Total Charge           Charge          ....    0
 Multiplicity           Mult            ....    1
 Number of Electrons    NEL             ....   70
 Basis Dimension        Dim             ....  339

ORBITAL ENERGIES
----------------

  NO   OCC          E(Eh)            E(eV)
   0   2.0000     -20.556004      -559.3573
   1   2.0000     -20.513356      -558.1968
   2   2.0000     -15.593125      -424.3105
   3   2.0000     -15.585445      -424.1015
   4   2.0000     -11.380281      -309.6732
   5   2.0000     -11.330319      -308.3136
   6   2.0000     -11.280749      -306.9648
   7   2.0000     -11.279647      -306.9348
   8   2.0000     -11.238629      -305.8186
   9   2.0000      -1.397762       -38.0351
  10   2.0000      -1.394030       -37.9335
  11   2.0000      -1.260922       -34.3114
  12   2.0000      -1.204116       -32.7657
  13   2.0000      -1.058080       -28.7918
  14   2.0000      -0.969702       -26.3869
  15   2.0000      -0.912959       -24.8429
  16   2.0000      -0.795088       -21.6354
  17   2.0000      -0.774789       -21.0831
  18   2.0000      -0.743403       -20.2290
  19   2.0000      -0.697876       -18.9902
  20   2.0000      -0.677255       -18.4291
  21   2.0000      -0.656700       -17.8697
  22   2.0000      -0.641500       -17.4561
  23   2.0000      -0.623135       -16.9564
  24   2.0000      -0.605119       -16.4661
  25   2.0000      -0.589867       -16.0511
  26   2.0000      -0.573833       -15.6148
  27   2.0000      -0.562969       -15.3192
  28   2.0000      -0.556696       -15.1485
  29   2.0000      -0.516955       -14.0670
  30   2.0000      -0.500070       -13.6076
  31   2.0000      -0.451177       -12.2772
  32   2.0000      -0.433741       -11.8027
  33   2.0000      -0.421077       -11.4581
  34   2.0000      -0.382641       -10.4122
  35   0.0000       0.114530         3.1165
  36   0.0000       0.131375         3.5749
  37   0.0000       0.150075         4.0838
  38   0.0000       0.167355         4.5540
  39   0.0000       0.174736         4.7548

MULLIKEN ATOMIC CHARGES
-----------------------
   0 C :   -0.377051
   1 N :   -0.118208
   2 C :   -0.215987
   3 C :   -0.156529
   4 C :    0.083729
   5 O :   -0.266352
   6 C :    0.358343
   7 N :   -0.529228
   8 O :   -0.418284
   9 H :    0.147879
  10 H :    0.163110
  11 H :    0.154233
  12 H :    0.148997
  13 H :    0.151544
  14 H :    0.111713
  15 H :    0.156729
  16 H :    0.083197
  17 H :    0.257353
  18 H :    0.264812
Sum of atomic charges:    0.0000000

LOEWDIN ATOMIC CHARGES
----------------------
   0 C :   -0.303185
   1 N :    0.149545
   2 C :   -0.252779
   3 C :   -0.259971
   4 C :   -0.295060
   5 O :    0.129058
   6 C :   -0.554089
   7 N :   -0.066210
   8 O :    0.042497
   9 H :    0.114500
  10 H :    0.125866
  11 H :    0.126829
  12 H :    0.147738
  13 H :    0.138195
  14 H :    0.140749
  15 H :    0.159812
  16 H :    0.112396
  17 H :    0.166928
  18 H :    0.177182

  Mayer bond orders larger than 0.1
B(  0-C ,  1-N ) :   0.8770 B(  0-C ,  9-H ) :   0.9300 B(  0-C , 10-H ) :   0.9266
B(  0-C , 11-H ) :   0.9300 B(  1-N ,  2-C ) :   0.8679 B(  1-N ,  6-C ) :   1.1531
B(  2-C ,  3-C ) :   0.9016 B(  2-C , 12-H ) :   0.9154 B(  2-C , 13-H ) :   0.9271
B(  3-C ,  4-C ) :   0.8811 B(  3-C , 14-H ) :   0.9008 B(  3-C , 15-H ) :   0.9138
B(  4-C ,  5-O ) :   1.9944 B(  4-C , 16-H ) :   0.9386 B(  6-C ,  7-N ) :   1.0736
B(  6-C ,  8-O ) :   1.8766 B(  7-N , 17-H ) :   0.8678 B(  7-N , 18-H ) :   0.8697

MP2 TOTAL ENERGY:     -455.651059412 Eh
FINAL SINGLE POINT ENERGY      -455.651059411607

DIPOLE MOMENT
-------------
                                X             Y             Z
Electronic contribution:     -1.15675      -4.60823       1.33009
Nuclear contribution   :      1.97515       5.95575      -2.30661
                        -----------------------------------------
Total Dipole Moment    :      0.81841       1.34752      -0.97653
                        -----------------------------------------
Magnitude (a.u.)       :      1.85451
Magnitude (Debye)      :      4.71378

                             ****ORCA TERMINATED NORMALLY****
TOTAL RUN TIME: 0 days 0 hours 17 minutes 26 seconds 874 msec
