                         Program Version 3.0.3 - RELEASE   -
|  1> ! RI-MP2 RIJK def2-TZVP def2-TZVP/C def2-TZVP/JK TIGHTSCF
|  2> % maxcore 2000
|  3> % mp2 density relaxed end
|  4> *xyz 0 1
|  5>  O        0.0376839459     1.4238882140    -0.1560172102
|  6>  C        0.0359257856     0.0150030087    -0.0097679293
|  7>  C        0.6100000686    -0.4990767257     1.3254798005
|  8>  C        0.0150081768    -1.9107959322     1.4775723401
|  9>  C       -0.4804411202    -2.3275114090     2.8780766046
| 10>  O       -1.6967568891    -3.0279913059     2.6666832900
| 11>  C       -2.3816011889    -2.3223312524     1.6424414233
| 12>  C       -1.3021393094    -1.9119089889     0.6199839155
| 13>  C       -1.4064582901    -0.5055734845     0.0030629831
| 14>  H        0.9513703939     1.7185205223    -0.2192795154
| 15>  H        0.5827523563    -0.4565131416    -0.8438783904
| 16>  H        1.7043247195    -0.4835323455     1.3536424007
| 17>  H        0.2500637653     0.1654742002     2.1211527190
| 18>  H        0.7093432269    -2.6642132671     1.0968918377
| 19>  H        0.1988697692    -2.9955273130     3.4137574879
| 20>  H       -0.6529602009    -1.4348053237     3.5037831272
| 21>  H       -3.1515793580    -2.9855856906     1.2402957896
| 22>  H       -2.8771355506    -1.4269421403     2.0556923746
| 23>  H       -1.2362011041    -2.6708846662    -0.1638284878
| 24>  H       -1.9957518668     0.1623805493     0.6438797711
| 25>  H       -1.8644594598    -0.4936921280    -0.9890466019
| 26> *
| 27>
| 28>                          ****END OF INPUT****

CARTESIAN COORDINATES (ANGSTROEM)
---------------------------------
  O      0.037684    1.423888   -0.156017
  C      0.035926    0.015003   -0.009768
  C      0.610000   -0.499077    1.325480
  C      0.015008   -1.910796    1.477572
  C     -0.480441   -2.327511    2.878077
  O     -1.696757   -3.027991    2.666683
  C     -2.381601   -2.322331    1.642441
  C     -1.302139   -1.911909    0.619984
  C     -1.406458   -0.505573    0.003063
  H      0.951370    1.718521   -0.219280
  H      0.582752   -0.456513   -0.843878
  H      1.704325   -0.483532    1.353642
  H      0.250064    0.165474    2.121153
  H      0.709343   -2.664213    1.096892
  H      0.198870   -2.995527    3.413757
  H     -0.652960   -1.434805    3.503783
  H     -3.151579   -2.985586    1.240296
  H     -2.877136   -1.426942    2.055692
  H     -1.236201   -2.670885   -0.163828
  H     -1.995752    0.162381    0.643880
  H     -1.864459   -0.493692   -0.989047

 Total Charge           Charge          ....    0
 Multiplicity           Mult            ....    1
 Number of Electrons    NEL             ....   70
 Basis Dimension        Dim             ....  351

ORBITAL ENERGIES
----------------

  NO   OCC          E(Eh)            E(eV)
   0   2.0000     -20.557802      -559.4062
   1   2.0000     -20.549262      -559.1739
   2   2.0000     -11.281193      -306.9769
   3   2.0000     -11.270313      -306.6808
   4   2.0000     -11.269267      -306.6523
   5   2.0000     -11.230005      -305.5840
   6   2.0000     -11.228253      -305.5363
   7   2.0000     -11.223449      -305.4056
   8   2.0000     -11.219583      -305.3004
   9   2.0000      -1.375728       -37.4355
  10   2.0000      -1.364216       -37.1222
  11   2.0000      -1.124062       -30.5873
  12   2.0000      -1.010940       -27.5091
  13   2.0000      -0.978550       -26.6277
  14   2.0000      -0.930819       -25.3289
  15   2.0000      -0.820694       -22.3322
  16   2.0000      -0.792987       -21.5783
  17   2.0000      -0.758234       -20.6326
  18   2.0000      -0.705890       -19.2082
  19   2.0000      -0.689482       -18.7618
  20   2.0000      -0.650146       -17.6914
  21   2.0000      -0.634274       -17.2595
  22   2.0000      -0.626620       -17.0512
  23   2.0000      -0.584562       -15.9067
  24   2.0000      -0.566822       -15.4240
  25   2.0000      -0.553484       -15.0611
  26   2.0000      -0.535347       -14.5675
  27   2.0000      -0.513657       -13.9773
  28   2.0000      -0.486401       -13.2356
  29   2.0000      -0.484239       -13.1768
  30   2.0000      -0.461846       -12.5675
  31   2.0000      -0.455929       -12.4065
  32   2.0000      -0.447662       -12.1815
  33   2.0000      -0.425741       -11.5850
  34   2.0000      -0.417049       -11.3485
  35   0.0000       0.125735         3.4214
  36   0.0000       0.146009         3.9731
  37   0.0000       0.153192         4.1686
  38   0.0000       0.170938         4.6514
  39   0.0000       0.186287         5.0691

MULLIKEN ATOMIC CHARGES
-----------------------
   0 O :   -0.456934
   1 C :    0.096216
   2 C :   -0.282028
   3 C :   -0.074343
   4 C :   -0.055595
   5 O :   -0.308277
   6 C :   -0.056151
   7 C :   -0.096896
   8 C :   -0.227176
   9 H :    0.315031
  10 H :    0.076074
  11 H :    0.124111
  12 H :    0.105809
  13 H :    0.103456
  14 H :    0.117059
  15 H :    0.081731
  16 H :    0.117921
  17 H :    0.082819
  18 H :    0.103762
  19 H :    0.105742
  20 H :    0.127667
Sum of atomic charges:    0.0000000

LOEWDIN ATOMIC CHARGES
----------------------
   0 O :   -0.020308
   1 C :   -0.344184
   2 C :   -0.228273
   3 C :   -0.208651
   4 C :   -0.289275
   5 O :    0.148830
   6 C :   -0.288490
   7 C :   -0.207804
   8 C :   -0.213735
   9 H :    0.174708
  10 H :    0.133246
  11 H :    0.131319
  12 H :    0.142210
  13 H :    0.148789
  14 H :    0.125845
  15 H :    0.119460
  16 H :    0.126147
  17 H :    0.119787
  18 H :    0.149170
  19 H :    0.144775
  20 H :    0.136434

  Mayer bond orders larger than 0.1
B(  0-O ,  1-C ) :   1.0501 B(  0-O ,  9-H ) :   0.8472 B(  1-C ,  2-C ) :   0.9122
B(  1-C ,  8-C ) :   0.9015 B(  1-C , 10-H ) :   0.9495 B(  2-C ,  3-C ) :   0.9265
B(  2-C , 11-H ) :   0.9212 B(  2-C , 12-H ) :   0.9081 B(  3-C ,  4-C ) :   0.9466
B(  3-C ,  7-C ) :   0.9124 B(  3-C , 13-H ) :   0.9166 B(  4-C ,  5-O ) :   0.9436
B(  4-C , 14-H ) :   0.9240 B(  4-C , 15-H ) :   0.9178 B(  5-O ,  6-C ) :   0.9397
B(  6-C ,  7-C ) :   0.9540 B(  6-C , 16-H ) :   0.9245 B(  6-C , 17-H ) :   0.9179
B(  7-C ,  8-C ) :   0.9403 B(  7-C , 18-H ) :   0.9204 B(  8-C , 19-H ) :   0.9114
B(  8-C , 20-H ) :   0.9291

MP2 TOTAL ENERGY:     -423.545207963 Eh
FINAL SINGLE POINT ENERGY      -423.545207962892

DIPOLE MOMENT
-------------
                                X             Y             Z
Electronic contribution:     -0.47918      -0.60788       0.30696
Nuclear contribution   :      1.23670       0.72291      -0.67257
                        -----------------------------------------
Total Dipole Moment    :      0.75752       0.11503      -0.36561
                        -----------------------------------------
Magnitude (a.u.)       :      0.84897
Magnitude (Debye)      :      2.15790

                             ****ORCA TERMINATED NORMALLY****
TOTAL RUN TIME: 0 days 0 hours 19 minutes 18 seconds 840 msec
