                         Program Version 3.0.3 - RELEASE   -
|  1> ! RI-MP2 RIJK def2-TZVP def2-TZVP/C def2-TZVP/JK TIGHTSCF
|  2> % maxcore 2000
|  3> % mp2 density relaxed end
|  4> *xyz 0 1
|  5>  C        0.1329640576     1.4843570327     0.0086916726
|  6>  O        1.2374547090     0.5759630518    -0.0066176854
|  7>  C       -0.0974979569     0.0312261749     0.0031154412
|  8>  C       -0.4691833155    -0.6523684416     1.3071127626
|  9>  C        0.2542529785    -1.9953187759     1.5372525610
| 10>  C       -0.2089660656    -3.1297099067     0.6540217530
| 11>  C       -0.2215919446    -3.1225918975    -0.6792746003
| 12>  C        0.2249322695    -1.9787891783    -1.5589581077
| 13>  C       -0.4938785852    -0.6384447385    -1.3008341936
| 14>  H        0.0058709754     2.0497490290     0.9315787215
| 15>  H       -0.0115269001     2.0595566963    -0.9055341980
| 16>  H       -0.2130605513     0.0246919072     2.1289500720
| 17>  H       -1.5547610716    -0.8068085851     1.3383099987
| 18>  H        1.3311314333    -1.8236176221     1.4018807686
| 19>  H        0.1225599184    -2.2803461527     2.5855608591
| 20>  H       -0.5528759599    -4.0263162154     1.1648455630
| 21>  H       -0.5752039350    -4.0137284648    -1.1930372445
| 22>  H        1.3041989110    -1.8084352106    -1.4421802104
| 23>  H        0.0733799164    -2.2526213537    -2.6075676156
| 24>  H       -1.5798682128    -0.7926514274    -1.3131161348
| 25>  H       -0.2532949806     0.0473770884    -2.1200985328
| 26> *
| 27>
| 28>                          ****END OF INPUT****

CARTESIAN COORDINATES (ANGSTROEM)
---------------------------------
  C      0.132964    1.484357    0.008692
  O      1.237455    0.575963   -0.006618
  C     -0.097498    0.031226    0.003115
  C     -0.469183   -0.652368    1.307113
  C      0.254253   -1.995319    1.537253
  C     -0.208966   -3.129710    0.654022
  C     -0.221592   -3.122592   -0.679275
  C      0.224932   -1.978789   -1.558958
  C     -0.493879   -0.638445   -1.300834
  H      0.005871    2.049749    0.931579
  H     -0.011527    2.059557   -0.905534
  H     -0.213061    0.024692    2.128950
  H     -1.554761   -0.806809    1.338310
  H      1.331131   -1.823618    1.401881
  H      0.122560   -2.280346    2.585561
  H     -0.552876   -4.026316    1.164846
  H     -0.575204   -4.013728   -1.193037
  H      1.304199   -1.808435   -1.442180
  H      0.073380   -2.252621   -2.607568
  H     -1.579868   -0.792651   -1.313116
  H     -0.253295    0.047377   -2.120099

 Total Charge           Charge          ....    0
 Multiplicity           Mult            ....    1
 Number of Electrons    NEL             ....   68
 Basis Dimension        Dim             ....  351

ORBITAL ENERGIES
----------------

  NO   OCC          E(Eh)            E(eV)
   0   2.0000     -20.559488      -559.4521
   1   2.0000     -11.286414      -307.1189
   2   2.0000     -11.276272      -306.8430
   3   2.0000     -11.227879      -305.5261
   4   2.0000     -11.227862      -305.5256
   5   2.0000     -11.224403      -305.4315
   6   2.0000     -11.224391      -305.4312
   7   2.0000     -11.222059      -305.3678
   8   2.0000     -11.220357      -305.3214
   9   2.0000      -1.403350       -38.1871
  10   2.0000      -1.107201       -30.1285
  11   2.0000      -1.034026       -28.1373
  12   2.0000      -1.020257       -27.7626
  13   2.0000      -0.915404       -24.9094
  14   2.0000      -0.884807       -24.0768
  15   2.0000      -0.861813       -23.4511
  16   2.0000      -0.755279       -20.5522
  17   2.0000      -0.711443       -19.3594
  18   2.0000      -0.674272       -18.3479
  19   2.0000      -0.673813       -18.3354
  20   2.0000      -0.627182       -17.0665
  21   2.0000      -0.623093       -16.9552
  22   2.0000      -0.574778       -15.6405
  23   2.0000      -0.560729       -15.2582
  24   2.0000      -0.558681       -15.2025
  25   2.0000      -0.539398       -14.6778
  26   2.0000      -0.508462       -13.8360
  27   2.0000      -0.504436       -13.7264
  28   2.0000      -0.488331       -13.2882
  29   2.0000      -0.484797       -13.1920
  30   2.0000      -0.455011       -12.3815
  31   2.0000      -0.431872       -11.7518
  32   2.0000      -0.421544       -11.4708
  33   2.0000      -0.342278        -9.3139
  34   0.0000       0.140440         3.8216
  35   0.0000       0.145872         3.9694
  36   0.0000       0.160990         4.3808
  37   0.0000       0.169891         4.6230
  38   0.0000       0.175957         4.7880

MULLIKEN ATOMIC CHARGES
-----------------------
   0 C :   -0.082979
   1 O :   -0.354785
   2 C :    0.163039
   3 C :   -0.190103
   4 C :   -0.198682
   5 C :   -0.195354
   6 C :   -0.195353
   7 C :   -0.198682
   8 C :   -0.190103
   9 H :    0.108760
  10 H :    0.108760
  11 H :    0.114388
  12 H :    0.112566
  13 H :    0.137646
  14 H :    0.130288
  15 H :    0.117853
  16 H :    0.117853
  17 H :    0.137646
  18 H :    0.130288
  19 H :    0.112566
  20 H :    0.114388
Sum of atomic charges:   -0.0000000

LOEWDIN ATOMIC CHARGES
----------------------
   0 C :   -0.248569
   1 O :    0.156047
   2 C :   -0.322161
   3 C :   -0.215952
   4 C :   -0.246303
   5 C :   -0.179817
   6 C :   -0.179817
   7 C :   -0.246303
   8 C :   -0.215952
   9 H :    0.118971
  10 H :    0.118971
  11 H :    0.146772
  12 H :    0.146246
  13 H :    0.153355
  14 H :    0.142048
  15 H :    0.142021
  16 H :    0.142021
  17 H :    0.153355
  18 H :    0.142048
  19 H :    0.146246
  20 H :    0.146772

  Mayer bond orders larger than 0.1
B(  0-C ,  1-O ) :   0.9347 B(  0-C ,  2-C ) :   0.9924 B(  0-C ,  9-H ) :   0.9027
B(  0-C , 10-H ) :   0.9027 B(  1-O ,  2-C ) :   0.7480 B(  2-C ,  3-C ) :   0.9409
B(  2-C ,  8-C ) :   0.9409 B(  3-C ,  4-C ) :   0.9008 B(  3-C , 11-H ) :   0.9178
B(  3-C , 12-H ) :   0.9295 B(  4-C ,  5-C ) :   0.9444 B(  4-C , 13-H ) :   0.9178
B(  4-C , 14-H ) :   0.9353 B(  5-C ,  6-C ) :   1.8120 B(  5-C , 15-H ) :   0.9297
B(  6-C ,  7-C ) :   0.9444 B(  6-C , 16-H ) :   0.9297 B(  7-C ,  8-C ) :   0.9008
B(  7-C , 17-H ) :   0.9178 B(  7-C , 18-H ) :   0.9353 B(  8-C , 19-H ) :   0.9295
B(  8-C , 20-H ) :   0.9178

MP2 TOTAL ENERGY:     -386.403912280 Eh
FINAL SINGLE POINT ENERGY      -386.403912280445

DIPOLE MOMENT
-------------
                                X             Y             Z
Electronic contribution:      1.77120       1.55038      -0.00849
Nuclear contribution   :     -2.43214      -1.45737       0.01525
                        -----------------------------------------
Total Dipole Moment    :     -0.66095       0.09301       0.00676
                        -----------------------------------------
Magnitude (a.u.)       :      0.66749
Magnitude (Debye)      :      1.69663

                             ****ORCA TERMINATED NORMALLY****
TOTAL RUN TIME: 0 days 0 hours 18 minutes 43 seconds 656 msec
