                         Program Version 3.0.3 - RELEASE   -
|  1> ! RI-MP2 RIJK def2-TZVP def2-TZVP/C def2-TZVP/JK TIGHTSCF
|  2> % maxcore 2000
|  3> % mp2 density relaxed end
|  4> *xyz 0 1
|  5>  O       -0.0101257429     0.0368861701     0.1248327247
|  6>  C       -0.0575792413     1.2377724061     0.0330274067
|  7>  C       -1.2888595538     2.0773392932    -0.0973652885
|  8>  C       -1.4131513716     3.2181137805     0.9048090319
|  9>  C       -0.8505705870     3.4946863472    -0.4540427405
| 10>  C        0.6760942191     3.5315384293    -0.6027251582
| 11>  C        1.4789293163     4.0869679985     0.5904631820
| 12>  O        1.6435690477     2.7529889340     1.1367564119
| 13>  C        1.1736726645     2.1610387177    -0.1045532176
| 14>  H       -2.1881809550     1.6084137816    -0.4759465495
| 15>  H       -2.4240398333     3.5542024543     1.1066542511
| 16>  H       -0.7574826507     3.2095934842     1.7671779369
| 17>  H       -1.4439988200     4.0832527689    -1.1435722766
| 18>  H        0.9777665191     3.8565326118    -1.5986045734
| 19>  H        2.4481281603     4.5215874937     0.3164130794
| 20>  H        0.9572390932     4.7573422981     1.2809414746
| 21>  H        1.9800323355     1.6542715508    -0.6453177249
| 22> *
| 23>
| 24>                          ****END OF INPUT****

CARTESIAN COORDINATES (ANGSTROEM)
---------------------------------
  O     -0.010126    0.036886    0.124833
  C     -0.057579    1.237772    0.033027
  C     -1.288860    2.077339   -0.097365
  C     -1.413151    3.218114    0.904809
  C     -0.850571    3.494686   -0.454043
  C      0.676094    3.531538   -0.602725
  C      1.478929    4.086968    0.590463
  O      1.643569    2.752989    1.136756
  C      1.173673    2.161039   -0.104553
  H     -2.188181    1.608414   -0.475947
  H     -2.424040    3.554202    1.106654
  H     -0.757483    3.209593    1.767178
  H     -1.443999    4.083253   -1.143572
  H      0.977767    3.856533   -1.598605
  H      2.448128    4.521587    0.316413
  H      0.957239    4.757342    1.280941
  H      1.980032    1.654272   -0.645318

 Total Charge           Charge          ....    0
 Multiplicity           Mult            ....    1
 Number of Electrons    NEL             ....   66
 Basis Dimension        Dim             ....  327

ORBITAL ENERGIES
----------------

  NO   OCC          E(Eh)            E(eV)
   0   2.0000     -20.567236      -559.6629
   1   2.0000     -20.551021      -559.2217
   2   2.0000     -11.332420      -308.3708
   3   2.0000     -11.297879      -307.4309
   4   2.0000     -11.292905      -307.2956
   5   2.0000     -11.260727      -306.4200
   6   2.0000     -11.256242      -306.2979
   7   2.0000     -11.251896      -306.1797
   8   2.0000     -11.250887      -306.1522
   9   2.0000      -1.401461       -38.1357
  10   2.0000      -1.384919       -37.6856
  11   2.0000      -1.188185       -32.3322
  12   2.0000      -1.030700       -28.0468
  13   2.0000      -0.983896       -26.7732
  14   2.0000      -0.892666       -24.2907
  15   2.0000      -0.851828       -23.1794
  16   2.0000      -0.774421       -21.0731
  17   2.0000      -0.761069       -20.7098
  18   2.0000      -0.711998       -19.3745
  19   2.0000      -0.666002       -18.1228
  20   2.0000      -0.649857       -17.6835
  21   2.0000      -0.627740       -17.0817
  22   2.0000      -0.624573       -16.9955
  23   2.0000      -0.608089       -16.5469
  24   2.0000      -0.562846       -15.3158
  25   2.0000      -0.550175       -14.9710
  26   2.0000      -0.523532       -14.2460
  27   2.0000      -0.512673       -13.9505
  28   2.0000      -0.485638       -13.2149
  29   2.0000      -0.451804       -12.2942
  30   2.0000      -0.438182       -11.9235
  31   2.0000      -0.422700       -11.5023
  32   2.0000      -0.390673       -10.6308
  33   0.0000       0.114433         3.1139
  34   0.0000       0.135538         3.6882
  35   0.0000       0.154518         4.2046
  36   0.0000       0.161572         4.3966
  37   0.0000       0.181410         4.9364

MULLIKEN ATOMIC CHARGES
-----------------------
   0 O :   -0.257520
   1 C :    0.107420
   2 C :   -0.100925
   3 C :   -0.281699
   4 C :   -0.170698
   5 C :   -0.055066
   6 C :   -0.065558
   7 O :   -0.332728
   8 C :    0.097945
   9 H :    0.143552
  10 H :    0.143122
  11 H :    0.169220
  12 H :    0.134118
  13 H :    0.134394
  14 H :    0.110579
  15 H :    0.115817
  16 H :    0.108026
Sum of atomic charges:   -0.0000000

LOEWDIN ATOMIC CHARGES
----------------------
   0 O :    0.166827
   1 C :   -0.283614
   2 C :   -0.153376
   3 C :   -0.180433
   4 C :   -0.167240
   5 C :   -0.185253
   6 C :   -0.246616
   7 O :    0.134375
   8 C :   -0.202261
   9 H :    0.152406
  10 H :    0.139899
  11 H :    0.145505
  12 H :    0.147655
  13 H :    0.148065
  14 H :    0.121512
  15 H :    0.120533
  16 H :    0.142013

  Mayer bond orders larger than 0.1
B(  0-O ,  1-C ) :   2.0234 B(  1-C ,  2-C ) :   0.9588 B(  1-C ,  8-C ) :   0.8580
B(  2-C ,  3-C ) :   0.8265 B(  2-C ,  4-C ) :   0.8303 B(  2-C ,  8-C ) :  -0.1167
B(  2-C ,  9-H ) :   0.9222 B(  3-C ,  4-C ) :   0.9099 B(  3-C , 10-H ) :   0.9300
B(  3-C , 11-H ) :   0.9124 B(  4-C ,  5-C ) :   0.9296 B(  4-C , 12-H ) :   0.9242
B(  5-C ,  6-C ) :   0.9454 B(  5-C ,  8-C ) :   0.9207 B(  5-C , 13-H ) :   0.9142
B(  6-C ,  7-O ) :   0.9069 B(  6-C , 14-H ) :   0.9150 B(  6-C , 15-H ) :   0.9156
B(  7-O ,  8-C ) :   0.9384 B(  8-C , 16-H ) :   0.9130

MP2 TOTAL ENERGY:     -421.102044290 Eh
FINAL SINGLE POINT ENERGY      -421.102044290371

DIPOLE MOMENT
-------------
                                X             Y             Z
Electronic contribution:      1.33914      -5.29304       0.18297
Nuclear contribution   :     -1.75201       6.78533      -0.87005
                        -----------------------------------------
Total Dipole Moment    :     -0.41287       1.49229      -0.68709
                        -----------------------------------------
Magnitude (a.u.)       :      1.69395
Magnitude (Debye)      :      4.30568

                             ****ORCA TERMINATED NORMALLY****
TOTAL RUN TIME: 0 days 0 hours 19 minutes 2 seconds 20 msec
