                         Program Version 3.0.3 - RELEASE   -
|  1> ! RI-MP2 RIJK def2-TZVP def2-TZVP/C def2-TZVP/JK TIGHTSCF
|  2> % maxcore 2000
|  3> % mp2 density relaxed end
|  4> *xyz 0 1
|  5>  O       -0.1151216103     1.4127234918     0.0633117668
|  6>  C        0.0055141983     0.0489369924     0.0124439486
|  7>  C       -0.0850530605    -1.0091868593    -1.0228123746
|  8>  O        1.0525832986    -1.7282843763    -0.5771626014
|  9>  C        1.1089783911    -0.8840940446     0.6224763132
| 10>  C        0.4624636417    -1.6513973356     1.7629797561
| 11>  C       -0.9981389561    -1.8043056027     1.2892890394
| 12>  O       -1.8430188096    -2.4918282510     1.8013122759
| 13>  C       -1.1638644977    -0.9018171181     0.1035785145
| 14>  H        0.5940716753     1.8060527726    -0.4588081677
| 15>  H       -0.3592348336    -1.0498907891    -2.0694819236
| 16>  H        2.1090283037    -0.4820437030     0.7882538853
| 17>  H        0.9211592407    -2.6244932599     1.9512423292
| 18>  H        0.4795382885    -1.0715144085     2.6941598507
| 19>  H       -2.1481188401    -0.5900760788    -0.2226067626
| 20> *
| 21>
| 22>                          ****END OF INPUT****

CARTESIAN COORDINATES (ANGSTROEM)
---------------------------------
  O     -0.115122    1.412723    0.063312
  C      0.005514    0.048937    0.012444
  C     -0.085053   -1.009187   -1.022812
  O      1.052583   -1.728284   -0.577163
  C      1.108978   -0.884094    0.622476
  C      0.462464   -1.651397    1.762980
  C     -0.998139   -1.804306    1.289289
  O     -1.843019   -2.491828    1.801312
  C     -1.163864   -0.901817    0.103579
  H      0.594072    1.806053   -0.458808
  H     -0.359235   -1.049891   -2.069482
  H      2.109028   -0.482044    0.788254
  H      0.921159   -2.624493    1.951242
  H      0.479538   -1.071514    2.694160
  H     -2.148119   -0.590076   -0.222607

 Total Charge           Charge          ....    0
 Multiplicity           Mult            ....    1
 Number of Electrons    NEL             ....   66
 Basis Dimension        Dim             ....  315

ORBITAL ENERGIES
----------------

  NO   OCC          E(Eh)            E(eV)
   0   2.0000     -20.603346      -560.6455
   1   2.0000     -20.579029      -559.9838
   2   2.0000     -20.546612      -559.1017
   3   2.0000     -11.337405      -308.5065
   4   2.0000     -11.322420      -308.0987
   5   2.0000     -11.320091      -308.0353
   6   2.0000     -11.314845      -307.8926
   7   2.0000     -11.255648      -306.2818
   8   2.0000     -11.247684      -306.0650
   9   2.0000      -1.434733       -39.0411
  10   2.0000      -1.402859       -38.1737
  11   2.0000      -1.389862       -37.8201
  12   2.0000      -1.155064       -31.4309
  13   2.0000      -1.056722       -28.7549
  14   2.0000      -0.934051       -25.4168
  15   2.0000      -0.867245       -23.5989
  16   2.0000      -0.800334       -21.7782
  17   2.0000      -0.774768       -21.0825
  18   2.0000      -0.735934       -20.0258
  19   2.0000      -0.689052       -18.7500
  20   2.0000      -0.665492       -18.1089
  21   2.0000      -0.635742       -17.2994
  22   2.0000      -0.625229       -17.0133
  23   2.0000      -0.602134       -16.3849
  24   2.0000      -0.599920       -16.3246
  25   2.0000      -0.582266       -15.8443
  26   2.0000      -0.568013       -15.4564
  27   2.0000      -0.537089       -14.6149
  28   2.0000      -0.515602       -14.0302
  29   2.0000      -0.464076       -12.6281
  30   2.0000      -0.440913       -11.9979
  31   2.0000      -0.408126       -11.1057
  32   2.0000      -0.389472       -10.5981
  33   0.0000       0.114358         3.1118
  34   0.0000       0.140802         3.8314
  35   0.0000       0.149584         4.0704
  36   0.0000       0.166417         4.5284
  37   0.0000       0.176710         4.8085

MULLIKEN ATOMIC CHARGES
-----------------------
   0 O :   -0.430067
   1 C :    0.058808
   2 C :   -0.006629
   3 O :   -0.314768
   4 C :    0.076709
   5 C :   -0.188359
   6 C :    0.100766
   7 O :   -0.264665
   8 C :   -0.100138
   9 H :    0.338478
  10 H :    0.157834
  11 H :    0.137625
  12 H :    0.139235
  13 H :    0.140105
  14 H :    0.155067
Sum of atomic charges:    0.0000000

LOEWDIN ATOMIC CHARGES
----------------------
   0 O :    0.050736
   1 C :   -0.308990
   2 C :   -0.209205
   3 O :    0.174840
   4 C :   -0.195770
   5 C :   -0.198536
   6 C :   -0.297449
   7 O :    0.155383
   8 C :   -0.116882
   9 H :    0.192708
  10 H :    0.139454
  11 H :    0.139214
  12 H :    0.153361
  13 H :    0.158952
  14 H :    0.162183

  Mayer bond orders larger than 0.1
B(  0-O ,  1-C ) :   1.0920 B(  0-O ,  9-H ) :   0.8289 B(  1-C ,  2-C ) :   0.9172
B(  1-C ,  4-C ) :   0.8981 B(  1-C ,  8-C ) :   0.8298 B(  2-C ,  3-O ) :   0.9804
B(  2-C ,  8-C ) :   0.7986 B(  2-C , 10-H ) :   0.9112 B(  3-O ,  4-C ) :   0.9031
B(  4-C ,  5-C ) :   0.9118 B(  4-C , 11-H ) :   0.9014 B(  5-C ,  6-C ) :   0.9422
B(  5-C ,  8-C ) :  -0.1141 B(  5-C , 12-H ) :   0.8842 B(  5-C , 13-H ) :   0.8860
B(  6-C ,  7-O ) :   2.0401 B(  6-C ,  8-C ) :   0.9051 B(  8-C , 14-H ) :   0.9076

MP2 TOTAL ENERGY:     -457.000143565 Eh
FINAL SINGLE POINT ENERGY      -457.000143565480

DIPOLE MOMENT
-------------
                                X             Y             Z
Electronic contribution:     -1.46836      -0.67400      -0.60099
Nuclear contribution   :      2.42582       1.74827      -0.00802
                        -----------------------------------------
Total Dipole Moment    :      0.95746       1.07427      -0.60901
                        -----------------------------------------
Magnitude (a.u.)       :      1.56259
Magnitude (Debye)      :      3.97178

                             ****ORCA TERMINATED NORMALLY****
TOTAL RUN TIME: 0 days 0 hours 16 minutes 27 seconds 546 msec
