                         Program Version 3.0.3 - RELEASE   -
|  1> ! RI-MP2 RIJK def2-TZVP def2-TZVP/C def2-TZVP/JK TIGHTSCF
|  2> % maxcore 2000
|  3> % mp2 density relaxed end
|  4> *xyz 0 1
|  5>  O       -0.4421182089     0.7249105947     0.9140296963
|  6>  C        0.0833427211     1.0297397040    -0.1225075812
|  7>  C        1.4072123753     1.7834115627    -0.2204331377
|  8>  C        1.3533981905     2.8733164166    -1.2592346759
|  9>  N        1.2196684337     2.4943553799    -2.5361216062
| 10>  C        1.1529146992     3.4657554293    -3.4467213215
| 11>  C        1.2243427140     4.8115425543    -3.0966701204
| 12>  N        1.3538851171     5.1998881160    -1.8267399185
| 13>  C        1.4115827602     4.2287180796    -0.9170027878
| 14>  H       -0.3603578086     0.7721915893    -1.1080216285
| 15>  H        1.6709343908     2.1633504597     0.7686909969
| 16>  H        2.1612762389     1.0458477972    -0.5261907487
| 17>  H        1.0435602628     3.1627655741    -4.4849049872
| 18>  H        1.1765325345     5.5906444920    -3.8525547459
| 19>  H        1.5127924397     4.5320288106     0.1223601664
| 20> *
| 21>
| 22>                          ****END OF INPUT****

CARTESIAN COORDINATES (ANGSTROEM)
---------------------------------
  O     -0.442118    0.724911    0.914030
  C      0.083343    1.029740   -0.122508
  C      1.407212    1.783412   -0.220433
  C      1.353398    2.873316   -1.259235
  N      1.219668    2.494355   -2.536122
  C      1.152915    3.465755   -3.446721
  C      1.224343    4.811543   -3.096670
  N      1.353885    5.199888   -1.826740
  C      1.411583    4.228718   -0.917003
  H     -0.360358    0.772192   -1.108022
  H      1.670934    2.163350    0.768691
  H      2.161276    1.045848   -0.526191
  H      1.043560    3.162766   -4.484905
  H      1.176533    5.590644   -3.852555
  H      1.512792    4.532029    0.122360

 Total Charge           Charge          ....    0
 Multiplicity           Mult            ....    1
 Number of Electrons    NEL             ....   64
 Basis Dimension        Dim             ....  315

ORBITAL ENERGIES
----------------

  NO   OCC          E(Eh)            E(eV)
   0   2.0000     -20.564388      -559.5855
   1   2.0000     -15.602544      -424.5668
   2   2.0000     -15.601760      -424.5455
   3   2.0000     -11.340439      -308.5890
   4   2.0000     -11.305067      -307.6265
   5   2.0000     -11.294873      -307.3491
   6   2.0000     -11.292057      -307.2725
   7   2.0000     -11.290679      -307.2350
   8   2.0000     -11.259879      -306.3969
   9   2.0000      -1.404479       -38.2178
  10   2.0000      -1.320957       -35.9451
  11   2.0000      -1.232786       -33.5458
  12   2.0000      -1.097603       -29.8673
  13   2.0000      -1.011714       -27.5301
  14   2.0000      -0.913131       -24.8476
  15   2.0000      -0.883991       -24.0546
  16   2.0000      -0.806426       -21.9440
  17   2.0000      -0.731534       -19.9060
  18   2.0000      -0.722900       -19.6711
  19   2.0000      -0.687290       -18.7021
  20   2.0000      -0.657429       -17.8896
  21   2.0000      -0.642558       -17.4849
  22   2.0000      -0.616242       -16.7688
  23   2.0000      -0.589267       -16.0348
  24   2.0000      -0.576904       -15.6983
  25   2.0000      -0.553457       -15.0603
  26   2.0000      -0.517276       -14.0758
  27   2.0000      -0.509259       -13.8576
  28   2.0000      -0.449286       -12.2257
  29   2.0000      -0.437733       -11.9113
  30   2.0000      -0.416809       -11.3419
  31   2.0000      -0.361497        -9.8368
  32   0.0000       0.065726         1.7885
  33   0.0000       0.099286         2.7017
  34   0.0000       0.129457         3.5227
  35   0.0000       0.147636         4.0174
  36   0.0000       0.161559         4.3962

MULLIKEN ATOMIC CHARGES
-----------------------
   0 O :   -0.257049
   1 C :    0.080635
   2 C :   -0.173616
   3 C :    0.172136
   4 N :   -0.280772
   5 C :   -0.033639
   6 C :   -0.008578
   7 N :   -0.239514
   8 C :   -0.072885
   9 H :    0.101524
  10 H :    0.137107
  11 H :    0.146920
  12 H :    0.140703
  13 H :    0.143670
  14 H :    0.143359
Sum of atomic charges:   -0.0000000

LOEWDIN ATOMIC CHARGES
----------------------
   0 O :    0.139181
   1 C :   -0.282389
   2 C :   -0.218005
   3 C :   -0.227481
   4 N :    0.168516
   5 C :   -0.207605
   6 C :   -0.209582
   7 N :    0.146038
   8 C :   -0.178843
   9 H :    0.117187
  10 H :    0.152631
  11 H :    0.167172
  12 H :    0.143214
  13 H :    0.143226
  14 H :    0.146740

  Mayer bond orders larger than 0.1
B(  0-O ,  1-C ) :   1.9927 B(  1-C ,  2-C ) :   0.8756 B(  1-C ,  9-H ) :   0.9288
B(  2-C ,  3-C ) :   0.8644 B(  2-C , 10-H ) :   0.9194 B(  2-C , 11-H ) :   0.9049
B(  3-C ,  4-N ) :   1.2918 B(  3-C ,  8-C ) :   1.2966 B(  4-N ,  5-C ) :   1.4032
B(  5-C ,  6-C ) :   1.3091 B(  5-C , 12-H ) :   0.9292 B(  6-C ,  7-N ) :   1.3671
B(  6-C , 13-H ) :   0.9284 B(  7-N ,  8-C ) :   1.4109 B(  8-C , 14-H ) :   0.9344

MP2 TOTAL ENERGY:     -416.141511356 Eh
FINAL SINGLE POINT ENERGY      -416.141511356172

DIPOLE MOMENT
-------------
                                X             Y             Z
Electronic contribution:     -0.86182       0.44458       0.12803
Nuclear contribution   :      1.40027      -0.19843      -0.91329
                        -----------------------------------------
Total Dipole Moment    :      0.53845       0.24615      -0.78526
                        -----------------------------------------
Magnitude (a.u.)       :      0.98344
Magnitude (Debye)      :      2.49970

                             ****ORCA TERMINATED NORMALLY****
TOTAL RUN TIME: 0 days 0 hours 14 minutes 15 seconds 923 msec
