                         Program Version 3.0.3 - RELEASE   -
|  1> ! RI-MP2 RIJK def2-TZVP def2-TZVP/C def2-TZVP/JK TIGHTSCF
|  2> % maxcore 2000
|  3> % mp2 density relaxed end
|  4> *xyz 0 1
|  5>  O        0.1097071757     1.2629462892     0.3827249036
|  6>  C        0.1045367945    -0.1231962881     0.1483064737
|  7>  C        0.1529687757    -0.9013158677     1.5379416569
|  8>  O        0.7341529284    -0.2256089075     2.6020968097
|  9>  C       -1.3683225778    -0.9219270115     1.4178308706
| 10>  C       -2.4225050654    -0.3249589306     1.9637465947
| 11>  C       -3.2779633399     0.2252246136     0.8329345931
| 12>  O       -2.3939833449     0.2591494018    -0.3169433442
| 13>  C       -1.3531799808    -0.6720179799    -0.0618367732
| 14>  H       -0.7718537244     1.5785210876     0.1307750428
| 15>  H        0.8630477666    -0.3959426185    -0.5923904251
| 16>  H        0.6290438195    -1.8808636963     1.4393830307
| 17>  H        0.5594914127     0.7115788972     2.4270136871
| 18>  H       -2.5970694431    -0.0947517015     3.0066407398
| 19>  H       -4.1606095692    -0.3887100649     0.5979287995
| 20>  H       -3.6236472912     1.2459861219     1.0319951429
| 21>  H       -1.4028317165    -1.5264053447    -0.7462101325
| 22> *
| 23>
| 24>                          ****END OF INPUT****

CARTESIAN COORDINATES (ANGSTROEM)
---------------------------------
  O      0.109707    1.262946    0.382725
  C      0.104537   -0.123196    0.148306
  C      0.152969   -0.901316    1.537942
  O      0.734153   -0.225609    2.602097
  C     -1.368323   -0.921927    1.417831
  C     -2.422505   -0.324959    1.963747
  C     -3.277963    0.225225    0.832935
  O     -2.393983    0.259149   -0.316943
  C     -1.353180   -0.672018   -0.061837
  H     -0.771854    1.578521    0.130775
  H      0.863048   -0.395943   -0.592390
  H      0.629044   -1.880864    1.439383
  H      0.559491    0.711579    2.427014
  H     -2.597069   -0.094752    3.006641
  H     -4.160610   -0.388710    0.597929
  H     -3.623647    1.245986    1.031995
  H     -1.402832   -1.526405   -0.746210

 Total Charge           Charge          ....    0
 Multiplicity           Mult            ....    1
 Number of Electrons    NEL             ....   68
 Basis Dimension        Dim             ....  327

ORBITAL ENERGIES
----------------

  NO   OCC          E(Eh)            E(eV)
   0   2.0000     -20.577072      -559.9306
   1   2.0000     -20.572039      -559.7936
   2   2.0000     -20.560392      -559.4767
   3   2.0000     -11.302738      -307.5631
   4   2.0000     -11.298307      -307.4426
   5   2.0000     -11.298175      -307.4390
   6   2.0000     -11.292907      -307.2956
   7   2.0000     -11.245210      -305.9977
   8   2.0000     -11.242351      -305.9199
   9   2.0000      -1.409035       -38.3418
  10   2.0000      -1.382367       -37.6161
  11   2.0000      -1.362128       -37.0654
  12   2.0000      -1.133080       -30.8327
  13   2.0000      -1.044177       -28.4135
  14   2.0000      -0.927477       -25.2379
  15   2.0000      -0.874791       -23.8043
  16   2.0000      -0.815007       -22.1775
  17   2.0000      -0.768456       -20.9107
  18   2.0000      -0.723122       -19.6771
  19   2.0000      -0.696519       -18.9532
  20   2.0000      -0.680458       -18.5162
  21   2.0000      -0.654872       -17.8200
  22   2.0000      -0.624845       -17.0029
  23   2.0000      -0.608372       -16.5546
  24   2.0000      -0.595673       -16.2091
  25   2.0000      -0.583194       -15.8695
  26   2.0000      -0.554361       -15.0849
  27   2.0000      -0.525209       -14.2917
  28   2.0000      -0.518330       -14.1045
  29   2.0000      -0.495817       -13.4919
  30   2.0000      -0.458605       -12.4793
  31   2.0000      -0.443523       -12.0689
  32   2.0000      -0.416932       -11.3453
  33   2.0000      -0.358278        -9.7492
  34   0.0000       0.121099         3.2953
  35   0.0000       0.138789         3.7767
  36   0.0000       0.149972         4.0809
  37   0.0000       0.168939         4.5971
  38   0.0000       0.180398         4.9089

MULLIKEN ATOMIC CHARGES
-----------------------
   0 O :   -0.496274
   1 C :    0.005594
   2 C :    0.175522
   3 O :   -0.462956
   4 C :   -0.149977
   5 C :   -0.255950
   6 C :   -0.003956
   7 O :   -0.364798
   8 C :    0.136753
   9 H :    0.341217
  10 H :    0.119364
  11 H :    0.119368
  12 H :    0.334040
  13 H :    0.149810
  14 H :    0.115614
  15 H :    0.127296
  16 H :    0.109332
Sum of atomic charges:    0.0000000

LOEWDIN ATOMIC CHARGES
----------------------
   0 O :   -0.006212
   1 C :   -0.271565
   2 C :   -0.283105
   3 O :    0.007270
   4 C :   -0.144163
   5 C :   -0.134907
   6 C :   -0.262130
   7 O :    0.151407
   8 C :   -0.242998
   9 H :    0.186596
  10 H :    0.127896
  11 H :    0.145860
  12 H :    0.186182
  13 H :    0.143433
  14 H :    0.127063
  15 H :    0.128295
  16 H :    0.141077

  Mayer bond orders larger than 0.1
B(  0-O ,  1-C ) :   1.0033 B(  0-O ,  2-C ) :  -0.1154 B(  0-O ,  9-H ) :   0.8056
B(  1-C ,  2-C ) :   0.8552 B(  1-C ,  8-C ) :   0.8937 B(  1-C , 10-H ) :   0.9536
B(  2-C ,  3-O ) :   1.0188 B(  2-C ,  4-C ) :   0.8299 B(  2-C , 11-H ) :   0.9314
B(  3-O , 12-H ) :   0.8136 B(  4-C ,  5-C ) :   1.7971 B(  4-C ,  8-C ) :   0.9146
B(  5-C ,  6-C ) :   0.9568 B(  5-C , 13-H ) :   0.9137 B(  6-C ,  7-O ) :   0.8965
B(  6-C , 14-H ) :   0.9062 B(  6-C , 15-H ) :   0.9291 B(  7-O ,  8-C ) :   0.9294
B(  8-C , 16-H ) :   0.9233

MP2 TOTAL ENERGY:     -458.189694455 Eh
FINAL SINGLE POINT ENERGY      -458.189694455136

DIPOLE MOMENT
-------------
                                X             Y             Z
Electronic contribution:      1.26714      -0.18963       0.00092
Nuclear contribution   :     -2.01437       0.06111      -0.19723
                        -----------------------------------------
Total Dipole Moment    :     -0.74722      -0.12853      -0.19631
                        -----------------------------------------
Magnitude (a.u.)       :      0.78320
Magnitude (Debye)      :      1.99073

                             ****ORCA TERMINATED NORMALLY****
TOTAL RUN TIME: 0 days 0 hours 16 minutes 42 seconds 209 msec
