                         Program Version 3.0.3 - RELEASE   -
|  1> ! RI-MP2 RIJK def2-TZVP def2-TZVP/C def2-TZVP/JK TIGHTSCF
|  2> % maxcore 2000
|  3> % mp2 density relaxed end
|  4> *xyz 0 1
|  5>  C       -0.1749873582     1.4045345857    -0.1801446185
|  6>  C       -0.0319488685    -0.1180548266     0.0186010731
|  7>  C        0.9127235606    -0.4522684760     1.1745029712
|  8>  C       -1.3994756836    -0.7420536399     0.2034654994
|  9>  N       -1.8030946055    -1.2061840807     1.3096935891
| 10>  O       -2.0861187798    -0.6946972883    -0.9819144920
| 11>  C       -3.4094553951    -1.1895014377    -1.0154324828
| 12>  C       -3.9326745154    -1.0098174402    -2.4322746930
| 13>  O       -5.0386696417    -1.3356429416    -2.7669809348
| 14>  H        0.8021295750     1.8517364479    -0.3851882042
| 15>  H       -0.8402699747     1.6360382867    -1.0155675048
| 16>  H       -0.5787234980     1.8737998401     0.7232559057
| 17>  H        0.3712066796    -0.5365402343    -0.9127441680
| 18>  H        0.5270846132    -0.0572016263     2.1175795077
| 19>  H        1.0283691858    -1.5321609106     1.2948060971
| 20>  H        1.8987000689    -0.0147860284     0.9891162984
| 21>  H       -2.7519709654    -1.5745210477     1.2780252703
| 22>  H       -3.4516346640    -2.2562453586    -0.7529639232
| 23>  H       -4.0655375882    -0.6466237847    -0.3203335907
| 24>  H       -3.2000751151    -0.5503155888    -3.1301322399
| 25> *
| 26>
| 27>                          ****END OF INPUT****

CARTESIAN COORDINATES (ANGSTROEM)
---------------------------------
  C     -0.174987    1.404535   -0.180145
  C     -0.031949   -0.118055    0.018601
  C      0.912724   -0.452268    1.174503
  C     -1.399476   -0.742054    0.203465
  N     -1.803095   -1.206184    1.309694
  O     -2.086119   -0.694697   -0.981914
  C     -3.409455   -1.189501   -1.015432
  C     -3.932675   -1.009817   -2.432275
  O     -5.038670   -1.335643   -2.766981
  H      0.802130    1.851736   -0.385188
  H     -0.840270    1.636038   -1.015568
  H     -0.578723    1.873800    0.723256
  H      0.371207   -0.536540   -0.912744
  H      0.527085   -0.057202    2.117580
  H      1.028369   -1.532161    1.294806
  H      1.898700   -0.014786    0.989116
  H     -2.751971   -1.574521    1.278025
  H     -3.451635   -2.256245   -0.752964
  H     -4.065538   -0.646624   -0.320334
  H     -3.200075   -0.550316   -3.130132

 Total Charge           Charge          ....    0
 Multiplicity           Mult            ....    1
 Number of Electrons    NEL             ....   70
 Basis Dimension        Dim             ....  345

ORBITAL ENERGIES
----------------

  NO   OCC          E(Eh)            E(eV)
   0   2.0000     -20.615222      -560.9687
   1   2.0000     -20.575975      -559.9008
   2   2.0000     -15.546487      -423.0414
   3   2.0000     -11.351398      -308.8872
   4   2.0000     -11.348320      -308.8035
   5   2.0000     -11.319793      -308.0272
   6   2.0000     -11.247222      -306.0525
   7   2.0000     -11.226046      -305.4762
   8   2.0000     -11.214159      -305.1528
   9   2.0000      -1.449292       -39.4372
  10   2.0000      -1.415540       -38.5188
  11   2.0000      -1.210090       -32.9282
  12   2.0000      -1.083349       -29.4794
  13   2.0000      -1.025778       -27.9128
  14   2.0000      -0.936159       -25.4742
  15   2.0000      -0.872691       -23.7471
  16   2.0000      -0.824947       -22.4480
  17   2.0000      -0.765173       -20.8214
  18   2.0000      -0.735011       -20.0007
  19   2.0000      -0.698453       -19.0059
  20   2.0000      -0.689470       -18.7614
  21   2.0000      -0.657501       -17.8915
  22   2.0000      -0.635227       -17.2854
  23   2.0000      -0.614550       -16.7227
  24   2.0000      -0.580798       -15.8043
  25   2.0000      -0.572032       -15.5658
  26   2.0000      -0.552150       -15.0248
  27   2.0000      -0.541428       -14.7330
  28   2.0000      -0.513603       -13.9758
  29   2.0000      -0.502726       -13.6799
  30   2.0000      -0.489254       -13.3133
  31   2.0000      -0.480787       -13.0829
  32   2.0000      -0.445641       -12.1265
  33   2.0000      -0.441658       -12.0181
  34   2.0000      -0.419760       -11.4222
  35   0.0000       0.110389         3.0038
  36   0.0000       0.126500         3.4422
  37   0.0000       0.141136         3.8405
  38   0.0000       0.167562         4.5596
  39   0.0000       0.169614         4.6154

MULLIKEN ATOMIC CHARGES
-----------------------
   0 C :   -0.418437
   1 C :    0.004476
   2 C :   -0.370234
   3 C :    0.168546
   4 N :   -0.381686
   5 O :   -0.257579
   6 C :   -0.078706
   7 C :    0.073188
   8 O :   -0.254871
   9 H :    0.135019
  10 H :    0.138700
  11 H :    0.133444
  12 H :    0.099828
  13 H :    0.137132
  14 H :    0.132807
  15 H :    0.127267
  16 H :    0.213725
  17 H :    0.146398
  18 H :    0.145905
  19 H :    0.105078
Sum of atomic charges:   -0.0000000

LOEWDIN ATOMIC CHARGES
----------------------
   0 C :   -0.283158
   1 C :   -0.271183
   2 C :   -0.284495
   3 C :   -0.379380
   4 N :   -0.043382
   5 O :    0.243325
   6 C :   -0.311439
   7 C :   -0.286250
   8 O :    0.145922
   9 H :    0.125226
  10 H :    0.123665
  11 H :    0.127172
  12 H :    0.160976
  13 H :    0.129602
  14 H :    0.126979
  15 H :    0.122596
  16 H :    0.157901
  17 H :    0.140043
  18 H :    0.139909
  19 H :    0.115970

  Mayer bond orders larger than 0.1
B(  0-C ,  1-C ) :   0.8943 B(  0-C ,  9-H ) :   0.9370 B(  0-C , 10-H ) :   0.9362
B(  0-C , 11-H ) :   0.9335 B(  1-C ,  2-C ) :   0.9302 B(  1-C ,  3-C ) :   0.9181
B(  1-C , 12-H ) :   0.9249 B(  2-C , 13-H ) :   0.9279 B(  2-C , 14-H ) :   0.9365
B(  2-C , 15-H ) :   0.9346 B(  3-C ,  4-N ) :   1.9516 B(  3-C ,  5-O ) :   1.0758
B(  4-N , 16-H ) :   0.8664 B(  5-O ,  6-C ) :   0.8596 B(  6-C ,  7-C ) :   0.8898
B(  6-C , 17-H ) :   0.8994 B(  6-C , 18-H ) :   0.8978 B(  7-C ,  8-O ) :   1.9978
B(  7-C , 19-H ) :   0.9372

MP2 TOTAL ENERGY:     -439.572729737 Eh
FINAL SINGLE POINT ENERGY      -439.572729736517

DIPOLE MOMENT
-------------
                                X             Y             Z
Electronic contribution:     -9.60352      -4.19506      -5.48054
Nuclear contribution   :      9.98935       4.40213       5.34041
                        -----------------------------------------
Total Dipole Moment    :      0.38583       0.20707      -0.14013
                        -----------------------------------------
Magnitude (a.u.)       :      0.45976
Magnitude (Debye)      :      1.16861

                             ****ORCA TERMINATED NORMALLY****
TOTAL RUN TIME: 0 days 0 hours 17 minutes 14 seconds 53 msec
