                         Program Version 3.0.3 - RELEASE   -
|  1> ! RI-MP2 RIJK def2-TZVP def2-TZVP/C def2-TZVP/JK TIGHTSCF
|  2> % maxcore 2000
|  3> % mp2 density relaxed end
|  4> *xyz 0 1
|  5>  C        0.0936324330     1.5275731411     0.2372369476
|  6>  C       -0.0650909132     0.0055988867     0.2352471456
|  7>  C       -1.3747622999    -0.4608589831    -0.4179800748
|  8>  C       -1.4998013544    -1.9654865317    -0.4168734314
|  9>  O       -1.7711143136    -2.6072880381     0.8389900725
| 10>  C       -2.7375386954    -2.7457852939    -0.2192801266
| 11>  C       -4.0785474185    -2.0902610865     0.0326765825
| 12>  C       -2.8190714532    -4.1405041267    -0.8061842370
| 13>  H        1.0334230880     1.8293140326     0.7099804686
| 14>  H        0.0897091299     1.9294518520    -0.7823804477
| 15>  H       -0.7237309652     2.0103996606     0.7845384953
| 16>  H        0.7838585522    -0.4529119195    -0.2888310677
| 17>  H       -0.0331055298    -0.3761564433     1.2623646077
| 18>  H       -2.2222111237    -0.0060117569     0.1040924338
| 19>  H       -1.4149813317    -0.1077644366    -1.4580711918
| 20>  H       -0.7092584888    -2.4639035364    -0.9866320673
| 21>  H       -3.9740841482    -1.1250457654     0.5294837690
| 22>  H       -4.6216038039    -1.9440215127    -0.9075471812
| 23>  H       -4.6927620890    -2.7322852992     0.6738353626
| 24>  H       -3.3851907942    -4.8022846905    -0.1412791607
| 25>  H       -3.3278274883    -4.1274300999    -1.7764134157
| 26>  H       -1.8213955520    -4.5652911225    -0.9409458934
| 27> *
| 28>
| 29>                          ****END OF INPUT****

CARTESIAN COORDINATES (ANGSTROEM)
---------------------------------
  C      0.093632    1.527573    0.237237
  C     -0.065091    0.005599    0.235247
  C     -1.374762   -0.460859   -0.417980
  C     -1.499801   -1.965487   -0.416873
  O     -1.771114   -2.607288    0.838990
  C     -2.737539   -2.745785   -0.219280
  C     -4.078547   -2.090261    0.032677
  C     -2.819071   -4.140504   -0.806184
  H      1.033423    1.829314    0.709980
  H      0.089709    1.929452   -0.782380
  H     -0.723731    2.010400    0.784538
  H      0.783859   -0.452912   -0.288831
  H     -0.033106   -0.376156    1.262365
  H     -2.222211   -0.006012    0.104092
  H     -1.414981   -0.107764   -1.458071
  H     -0.709258   -2.463904   -0.986632
  H     -3.974084   -1.125046    0.529484
  H     -4.621604   -1.944022   -0.907547
  H     -4.692762   -2.732285    0.673835
  H     -3.385191   -4.802285   -0.141279
  H     -3.327827   -4.127430   -1.776413
  H     -1.821396   -4.565291   -0.940946

 Total Charge           Charge          ....    0
 Multiplicity           Mult            ....    1
 Number of Electrons    NEL             ....   64
 Basis Dimension        Dim             ....  332

ORBITAL ENERGIES
----------------

  NO   OCC          E(Eh)            E(eV)
   0   2.0000     -20.551778      -559.2423
   1   2.0000     -11.286447      -307.1198
   2   2.0000     -11.276035      -306.8365
   3   2.0000     -11.223830      -305.4159
   4   2.0000     -11.220547      -305.3266
   5   2.0000     -11.219556      -305.2996
   6   2.0000     -11.219185      -305.2896
   7   2.0000     -11.212847      -305.1171
   8   2.0000      -1.397564       -38.0296
   9   2.0000      -1.067746       -29.0548
  10   2.0000      -1.036411       -28.2022
  11   2.0000      -0.967353       -26.3230
  12   2.0000      -0.946204       -25.7475
  13   2.0000      -0.857535       -23.3347
  14   2.0000      -0.796978       -21.6869
  15   2.0000      -0.756961       -20.5980
  16   2.0000      -0.670300       -18.2398
  17   2.0000      -0.639554       -17.4032
  18   2.0000      -0.620363       -16.8809
  19   2.0000      -0.600374       -16.3370
  20   2.0000      -0.581225       -15.8159
  21   2.0000      -0.563032       -15.3209
  22   2.0000      -0.546222       -14.8634
  23   2.0000      -0.541454       -14.7337
  24   2.0000      -0.535018       -14.5586
  25   2.0000      -0.514567       -14.0021
  26   2.0000      -0.494781       -13.4637
  27   2.0000      -0.485690       -13.2163
  28   2.0000      -0.475808       -12.9474
  29   2.0000      -0.468828       -12.7575
  30   2.0000      -0.429812       -11.6958
  31   2.0000      -0.404201       -10.9989
  32   0.0000       0.134964         3.6726
  33   0.0000       0.146986         3.9997
  34   0.0000       0.165782         4.5112
  35   0.0000       0.182616         4.9692
  36   0.0000       0.187536         5.1031

MULLIKEN ATOMIC CHARGES
-----------------------
   0 C :   -0.387770
   1 C :   -0.199516
   2 C :   -0.226380
   3 C :    0.046290
   4 O :   -0.354531
   5 C :    0.180595
   6 C :   -0.388419
   7 C :   -0.397793
   8 H :    0.134740
   9 H :    0.119227
  10 H :    0.123703
  11 H :    0.104398
  12 H :    0.127351
  13 H :    0.110088
  14 H :    0.106974
  15 H :    0.105332
  16 H :    0.134152
  17 H :    0.129713
  18 H :    0.135057
  19 H :    0.133264
  20 H :    0.125926
  21 H :    0.137601
Sum of atomic charges:   -0.0000000

LOEWDIN ATOMIC CHARGES
----------------------
   0 C :   -0.321778
   1 C :   -0.289502
   2 C :   -0.253604
   3 C :   -0.253565
   4 O :    0.169540
   5 C :   -0.350542
   6 C :   -0.268359
   7 C :   -0.269190
   8 H :    0.121135
   9 H :    0.119329
  10 H :    0.120459
  11 H :    0.134601
  12 H :    0.140711
  13 H :    0.140945
  14 H :    0.143686
  15 H :    0.139084
  16 H :    0.126967
  17 H :    0.130646
  18 H :    0.130996
  19 H :    0.129048
  20 H :    0.128943
  21 H :    0.130449

  Mayer bond orders larger than 0.1
B(  0-C ,  1-C ) :   0.9180 B(  0-C ,  8-H ) :   0.9441 B(  0-C ,  9-H ) :   0.9385
B(  0-C , 10-H ) :   0.9400 B(  1-C ,  2-C ) :   0.9327 B(  1-C , 11-H ) :   0.9330
B(  1-C , 12-H ) :   0.9329 B(  2-C ,  3-C ) :   0.9035 B(  2-C , 13-H ) :   0.9357
B(  2-C , 14-H ) :   0.9209 B(  3-C ,  4-O ) :   0.8414 B(  3-C ,  5-C ) :   0.9852
B(  3-C , 15-H ) :   0.9022 B(  4-O ,  5-C ) :   0.9119 B(  5-C ,  6-C ) :   0.8901
B(  5-C ,  7-C ) :   0.8936 B(  6-C , 16-H ) :   0.9416 B(  6-C , 17-H ) :   0.9296
B(  6-C , 18-H ) :   0.9355 B(  7-C , 19-H ) :   0.9375 B(  7-C , 20-H ) :   0.9273
B(  7-C , 21-H ) :   0.9398

MP2 TOTAL ENERGY:     -349.596470239 Eh
FINAL SINGLE POINT ENERGY      -349.596470238923

DIPOLE MOMENT
-------------
                                X             Y             Z
Electronic contribution:     -0.17023      -4.30750       1.66151
Nuclear contribution   :     -0.06847       4.49461      -2.30433
                        -----------------------------------------
Total Dipole Moment    :     -0.23869       0.18711      -0.64281
                        -----------------------------------------
Magnitude (a.u.)       :      0.71077
Magnitude (Debye)      :      1.80664

                             ****ORCA TERMINATED NORMALLY****
TOTAL RUN TIME: 0 days 0 hours 12 minutes 54 seconds 108 msec
