                         Program Version 3.0.3 - RELEASE   -
|  1> ! RI-MP2 RIJK def2-TZVP def2-TZVP/C def2-TZVP/JK TIGHTSCF
|  2> % maxcore 2000
|  3> % mp2 density relaxed end
|  4> *xyz 0 1
|  5>  C        0.1711969539     1.4269600611    -0.1902823640
|  6>  C        0.0386439121    -0.0783211168     0.0049032283
|  7>  O        0.9471608677    -0.8175884008    -0.8721521443
|  8>  C        1.4596605635    -1.6062696783     0.2235989095
|  9>  C        2.7970250870    -1.0627040323     0.7722506477
| 10>  C        2.0018784700    -0.1815309269     1.7889627717
| 11>  C        0.6642364708    -0.7676132583     1.2584138072
| 12>  C       -1.3445009966    -0.5079827240    -0.2087674090
| 13>  C       -2.4828235799    -0.8611812682    -0.3669605012
| 14>  H        1.2102038526     1.7419766019    -0.0754494160
| 15>  H       -0.1599219405     1.6947814206    -1.1973097478
| 16>  H       -0.4521337091     1.9644487695     0.5305962688
| 17>  H        1.3453350493    -2.6792334661     0.0509160568
| 18>  H        3.4202794816    -1.8231542480     1.2505116848
| 19>  H        3.3923543126    -0.5334378193     0.0252243447
| 20>  H        2.1865042342    -0.4540962254     2.8303416784
| 21>  H        2.1264414505     0.8994983615     1.7010304656
| 22>  H       -0.0395930321    -1.1734720094     1.9818925212
| 23>  H       -3.4861010978    -1.1758010708    -0.5170841823
| 24> *
| 25>
| 26>                          ****END OF INPUT****

CARTESIAN COORDINATES (ANGSTROEM)
---------------------------------
  C      0.171197    1.426960   -0.190282
  C      0.038644   -0.078321    0.004903
  O      0.947161   -0.817588   -0.872152
  C      1.459661   -1.606270    0.223599
  C      2.797025   -1.062704    0.772251
  C      2.001878   -0.181531    1.788963
  C      0.664236   -0.767613    1.258414
  C     -1.344501   -0.507983   -0.208767
  C     -2.482824   -0.861181   -0.366961
  H      1.210204    1.741977   -0.075449
  H     -0.159922    1.694781   -1.197310
  H     -0.452134    1.964449    0.530596
  H      1.345335   -2.679233    0.050916
  H      3.420279   -1.823154    1.250512
  H      3.392354   -0.533438    0.025224
  H      2.186504   -0.454096    2.830342
  H      2.126441    0.899498    1.701030
  H     -0.039593   -1.173472    1.981893
  H     -3.486101   -1.175801   -0.517084

 Total Charge           Charge          ....    0
 Multiplicity           Mult            ....    1
 Number of Electrons    NEL             ....   66
 Basis Dimension        Dim             ....  339

ORBITAL ENERGIES
----------------

  NO   OCC          E(Eh)            E(eV)
   0   2.0000     -20.551082      -559.2234
   1   2.0000     -11.316431      -307.9358
   2   2.0000     -11.282092      -307.0013
   3   2.0000     -11.239399      -305.8396
   4   2.0000     -11.232259      -305.6453
   5   2.0000     -11.231965      -305.6373
   6   2.0000     -11.226146      -305.4790
   7   2.0000     -11.225873      -305.4715
   8   2.0000     -11.223763      -305.4141
   9   2.0000      -1.384317       -37.6692
  10   2.0000      -1.111240       -30.2384
  11   2.0000      -1.070897       -29.1406
  12   2.0000      -0.998640       -27.1744
  13   2.0000      -0.931194       -25.3391
  14   2.0000      -0.886421       -24.1207
  15   2.0000      -0.843728       -22.9590
  16   2.0000      -0.750196       -20.4139
  17   2.0000      -0.702078       -19.1045
  18   2.0000      -0.697720       -18.9859
  19   2.0000      -0.662312       -18.0224
  20   2.0000      -0.631057       -17.1719
  21   2.0000      -0.618091       -16.8191
  22   2.0000      -0.584721       -15.9111
  23   2.0000      -0.563041       -15.3211
  24   2.0000      -0.539735       -14.6869
  25   2.0000      -0.513081       -13.9616
  26   2.0000      -0.500845       -13.6287
  27   2.0000      -0.482390       -13.1265
  28   2.0000      -0.461053       -12.5459
  29   2.0000      -0.427134       -11.6229
  30   2.0000      -0.412751       -11.2315
  31   2.0000      -0.393077       -10.6962
  32   2.0000      -0.382550       -10.4097
  33   0.0000       0.139376         3.7926
  34   0.0000       0.153961         4.1895
  35   0.0000       0.156469         4.2578
  36   0.0000       0.168448         4.5837
  37   0.0000       0.169392         4.6094

MULLIKEN ATOMIC CHARGES
-----------------------
   0 C :   -0.400102
   1 C :    0.108882
   2 O :   -0.327272
   3 C :    0.015329
   4 C :   -0.204553
   5 C :   -0.294841
   6 C :   -0.045599
   7 C :   -0.078506
   8 C :   -0.116020
   9 H :    0.133882
  10 H :    0.147638
  11 H :    0.139005
  12 H :    0.112886
  13 H :    0.115633
  14 H :    0.114891
  15 H :    0.126246
  16 H :    0.125444
  17 H :    0.134857
  18 H :    0.192202
Sum of atomic charges:    0.0000000

LOEWDIN ATOMIC CHARGES
----------------------
   0 C :   -0.249954
   1 C :   -0.306192
   2 O :    0.185708
   3 C :   -0.231369
   4 C :   -0.221127
   5 C :   -0.216065
   6 C :   -0.140102
   7 C :   -0.059647
   8 C :   -0.082610
   9 H :    0.126812
  10 H :    0.137058
  11 H :    0.134822
  12 H :    0.125838
  13 H :    0.132050
  14 H :    0.133438
  15 H :    0.133591
  16 H :    0.127824
  17 H :    0.142181
  18 H :    0.127744

  Mayer bond orders larger than 0.1
B(  0-C ,  1-C ) :   0.9057 B(  0-C ,  9-H ) :   0.9367 B(  0-C , 10-H ) :   0.9296
B(  0-C , 11-H ) :   0.9286 B(  1-C ,  2-O ) :   0.8751 B(  1-C ,  6-C ) :   0.9004
B(  1-C ,  7-C ) :   1.2099 B(  1-C ,  8-C ) :  -0.1136 B(  2-O ,  3-C ) :   0.9402
B(  3-C ,  4-C ) :   0.9198 B(  3-C ,  6-C ) :   0.9374 B(  3-C , 12-H ) :   0.9282
B(  4-C ,  5-C ) :   0.9618 B(  4-C , 13-H ) :   0.9131 B(  4-C , 14-H ) :   0.9086
B(  5-C ,  6-C ) :   0.9052 B(  5-C , 15-H ) :   0.9198 B(  5-C , 16-H ) :   0.9276
B(  6-C , 17-H ) :   0.9232 B(  7-C ,  8-C ) :   2.5760 B(  8-C , 18-H ) :   0.8842

MP2 TOTAL ENERGY:     -385.136347576 Eh
FINAL SINGLE POINT ENERGY      -385.136347576382

DIPOLE MOMENT
-------------
                                X             Y             Z
Electronic contribution:     -3.96064      -2.97472      -2.95201
Nuclear contribution   :      4.00835       3.03142       3.69184
                        -----------------------------------------
Total Dipole Moment    :      0.04771       0.05669       0.73983
                        -----------------------------------------
Magnitude (a.u.)       :      0.74353
Magnitude (Debye)      :      1.88991

                             ****ORCA TERMINATED NORMALLY****
TOTAL RUN TIME: 0 days 0 hours 19 minutes 56 seconds 708 msec
