                         Program Version 3.0.3 - RELEASE   -
|  1> ! RI-MP2 RIJK def2-TZVP def2-TZVP/C def2-TZVP/JK TIGHTSCF
|  2> % maxcore 2000
|  3> % mp2 density relaxed end
|  4> *xyz 0 1
|  5>  N       -0.0027780854     1.4059534576     0.1662257987
|  6>  C       -0.0629388617     0.0198183996     0.0510889495
|  7>  C       -1.1494542886    -0.8297647018     0.0393895149
|  8>  N       -0.5780008237    -2.0642328365    -0.0189908061
|  9>  N        0.7546324751    -1.9983975039    -0.0345250959
| 10>  N        1.0740581283    -0.7305083704     0.0026468453
| 11>  H        0.9240056266     1.7440322972    -0.0601070671
| 12>  H       -0.7000910961     1.8938040789    -0.3790406565
| 13>  H       -2.2135295738    -0.6753615266     0.0715804931
| 14>  H       -1.0279034107    -2.9648310441    -0.0478803259
| 15> *
| 16>
| 17>                          ****END OF INPUT****

CARTESIAN COORDINATES (ANGSTROEM)
---------------------------------
  N     -0.002778    1.405953    0.166226
  C     -0.062939    0.019818    0.051089
  C     -1.149454   -0.829765    0.039390
  N     -0.578001   -2.064233   -0.018991
  N      0.754632   -1.998398   -0.034525
  N      1.074058   -0.730508    0.002647
  H      0.924006    1.744032   -0.060107
  H     -0.700091    1.893804   -0.379041
  H     -2.213530   -0.675362    0.071580
  H     -1.027903   -2.964831   -0.047880

 Total Charge           Charge          ....    0
 Multiplicity           Mult            ....    1
 Number of Electrons    NEL             ....   44
 Basis Dimension        Dim             ....  210

ORBITAL ENERGIES
----------------

  NO   OCC          E(Eh)            E(eV)
   0   2.0000     -15.657630      -426.0658
   1   2.0000     -15.641160      -425.6176
   2   2.0000     -15.586812      -424.1387
   3   2.0000     -15.567032      -423.6005
   4   2.0000     -11.293701      -307.3172
   5   2.0000     -11.271832      -306.7221
   6   2.0000      -1.436565       -39.0909
   7   2.0000      -1.231255       -33.5041
   8   2.0000      -1.181796       -32.1583
   9   2.0000      -1.054198       -28.6862
  10   2.0000      -0.874736       -23.8028
  11   2.0000      -0.819937       -22.3116
  12   2.0000      -0.760079       -20.6828
  13   2.0000      -0.684171       -18.6172
  14   2.0000      -0.650333       -17.6965
  15   2.0000      -0.637530       -17.3481
  16   2.0000      -0.607538       -16.5320
  17   2.0000      -0.519189       -14.1279
  18   2.0000      -0.495070       -13.4716
  19   2.0000      -0.440666       -11.9911
  20   2.0000      -0.407424       -11.0866
  21   2.0000      -0.319836        -8.7032
  22   0.0000       0.128147         3.4870
  23   0.0000       0.131422         3.5762
  24   0.0000       0.141799         3.8585
  25   0.0000       0.176239         4.7957
  26   0.0000       0.205744         5.5986

MULLIKEN ATOMIC CHARGES
-----------------------
   0 N :   -0.532220
   1 C :    0.164104
   2 C :   -0.178585
   3 N :   -0.059230
   4 N :   -0.152961
   5 N :   -0.177658
   6 H :    0.261960
   7 H :    0.249268
   8 H :    0.162491
   9 H :    0.262832
Sum of atomic charges:    0.0000000

LOEWDIN ATOMIC CHARGES
----------------------
   0 N :   -0.087379
   1 C :   -0.390330
   2 C :   -0.251311
   3 N :    0.116479
   4 N :   -0.065102
   5 N :    0.005145
   6 H :    0.175882
   7 H :    0.167891
   8 H :    0.138183
   9 H :    0.190543

  Mayer bond orders larger than 0.1
B(  0-N ,  1-C ) :   1.0427 B(  0-N ,  6-H ) :   0.8700 B(  0-N ,  7-H ) :   0.8781
B(  1-C ,  2-C ) :   1.4329 B(  1-C ,  5-N ) :   1.3786 B(  2-C ,  3-N ) :   1.1651
B(  2-C ,  4-N ) :   0.1389 B(  2-C ,  8-H ) :   0.9055 B(  3-N ,  4-N ) :   1.0895
B(  3-N ,  9-H ) :   0.8637 B(  4-N ,  5-N ) :   1.2666

MP2 TOTAL ENERGY:     -297.037596536 Eh
FINAL SINGLE POINT ENERGY      -297.037596536032

DIPOLE MOMENT
-------------
                                X             Y             Z
Electronic contribution:      1.17925      -2.37511       0.06029
Nuclear contribution   :     -2.81852       2.54592      -0.49165
                        -----------------------------------------
Total Dipole Moment    :     -1.63927       0.17081      -0.43137
                        -----------------------------------------
Magnitude (a.u.)       :      1.70366
Magnitude (Debye)      :      4.33036

                             ****ORCA TERMINATED NORMALLY****
TOTAL RUN TIME: 0 days 0 hours 4 minutes 2 seconds 401 msec
