                         Program Version 3.0.3 - RELEASE   -
|  1> ! RI-MP2 RIJK def2-TZVP def2-TZVP/C def2-TZVP/JK TIGHTSCF
|  2> % maxcore 2000
|  3> % mp2 density relaxed end
|  4> *xyz 0 1
|  5>  O        0.8461080616    -0.7558650526     0.9582824698
|  6>  C        0.0669622127    -0.0314838767     0.0102511732
|  7>  C       -1.3655106611    -0.4814570008     0.0078726235
|  8>  C       -2.4872296787     0.2558520182     0.1504562711
|  9>  C       -3.7353004629    -0.6016674663     0.1234849452
| 10>  C       -3.2181517894    -1.9630320175    -0.4006390106
| 11>  C       -1.6965516226    -1.9522884659    -0.1206670216
| 12>  C       -2.5645081424     1.7034856268     0.3528988962
| 13>  O       -3.6093191520     2.3040103694     0.4976100546
| 14>  H        0.5099265982    -0.5413356750     1.8349505577
| 15>  H        0.1576531719     1.0515463179     0.1606678867
| 16>  H        0.5180895354    -0.2605300603    -0.9633355703
| 17>  H       -4.1573173030    -0.6801311307     1.1340249575
| 18>  H       -4.5212580695    -0.1652764289    -0.4987979463
| 19>  H       -3.7265037742    -2.8154318231     0.0558229289
| 20>  H       -3.3874219586    -2.0267505733    -1.4802454860
| 21>  H       -1.1049614953    -2.4429072154    -0.9021360639
| 22>  H       -1.4397677841    -2.4689019292     0.8136845935
| 23>  H       -1.5966776160     2.2486970532     0.3720169908
| 24> *
| 25>
| 26>                          ****END OF INPUT****

CARTESIAN COORDINATES (ANGSTROEM)
---------------------------------
  O      0.846108   -0.755865    0.958282
  C      0.066962   -0.031484    0.010251
  C     -1.365511   -0.481457    0.007873
  C     -2.487230    0.255852    0.150456
  C     -3.735300   -0.601667    0.123485
  C     -3.218152   -1.963032   -0.400639
  C     -1.696552   -1.952288   -0.120667
  C     -2.564508    1.703486    0.352899
  O     -3.609319    2.304010    0.497610
  H      0.509927   -0.541336    1.834951
  H      0.157653    1.051546    0.160668
  H      0.518090   -0.260530   -0.963336
  H     -4.157317   -0.680131    1.134025
  H     -4.521258   -0.165276   -0.498798
  H     -3.726504   -2.815432    0.055823
  H     -3.387422   -2.026751   -1.480245
  H     -1.104961   -2.442907   -0.902136
  H     -1.439768   -2.468902    0.813685
  H     -1.596678    2.248697    0.372017

 Total Charge           Charge          ....    0
 Multiplicity           Mult            ....    1
 Number of Electrons    NEL             ....   68
 Basis Dimension        Dim             ....  339

ORBITAL ENERGIES
----------------

  NO   OCC          E(Eh)            E(eV)
   0   2.0000     -20.575337      -559.8834
   1   2.0000     -20.551888      -559.2453
   2   2.0000     -11.331226      -308.3383
   3   2.0000     -11.301690      -307.5346
   4   2.0000     -11.266697      -306.5824
   5   2.0000     -11.243846      -305.9606
   6   2.0000     -11.238905      -305.8262
   7   2.0000     -11.231680      -305.6295
   8   2.0000     -11.230459      -305.5963
   9   2.0000      -1.387600       -37.7585
  10   2.0000      -1.378487       -37.5105
  11   2.0000      -1.159013       -31.5384
  12   2.0000      -1.021803       -27.8047
  13   2.0000      -0.996823       -27.1249
  14   2.0000      -0.919617       -25.0241
  15   2.0000      -0.856647       -23.3105
  16   2.0000      -0.800397       -21.7799
  17   2.0000      -0.731148       -19.8956
  18   2.0000      -0.705402       -19.1950
  19   2.0000      -0.685464       -18.6524
  20   2.0000      -0.654139       -17.8000
  21   2.0000      -0.644550       -17.5391
  22   2.0000      -0.618394       -16.8274
  23   2.0000      -0.582161       -15.8414
  24   2.0000      -0.566405       -15.4127
  25   2.0000      -0.551412       -15.0047
  26   2.0000      -0.537344       -14.6219
  27   2.0000      -0.520739       -14.1700
  28   2.0000      -0.497847       -13.5471
  29   2.0000      -0.491122       -13.3641
  30   2.0000      -0.488926       -13.3044
  31   2.0000      -0.468115       -12.7380
  32   2.0000      -0.422675       -11.5016
  33   2.0000      -0.361113        -9.8264
  34   0.0000       0.081484         2.2173
  35   0.0000       0.119621         3.2551
  36   0.0000       0.142839         3.8869
  37   0.0000       0.159067         4.3284
  38   0.0000       0.169724         4.6184

MULLIKEN ATOMIC CHARGES
-----------------------
   0 O :   -0.461359
   1 C :   -0.003639
   2 C :   -0.098445
   3 C :    0.009580
   4 C :   -0.199321
   5 C :   -0.217248
   6 C :   -0.185284
   7 C :    0.048650
   8 O :   -0.282508
   9 H :    0.316472
  10 H :    0.111584
  11 H :    0.124409
  12 H :    0.124377
  13 H :    0.141107
  14 H :    0.128208
  15 H :    0.116092
  16 H :    0.130349
  17 H :    0.124112
  18 H :    0.072865
Sum of atomic charges:    0.0000000

LOEWDIN ATOMIC CHARGES
----------------------
   0 O :   -0.039991
   1 C :   -0.303213
   2 C :   -0.120361
   3 C :   -0.147645
   4 C :   -0.202882
   5 C :   -0.234465
   6 C :   -0.208391
   7 C :   -0.276391
   8 O :    0.126012
   9 H :    0.176428
  10 H :    0.122290
  11 H :    0.141418
  12 H :    0.146180
  13 H :    0.144446
  14 H :    0.132894
  15 H :    0.138838
  16 H :    0.143162
  17 H :    0.147247
  18 H :    0.114423

  Mayer bond orders larger than 0.1
B(  0-O ,  1-C ) :   0.8958 B(  0-O ,  9-H ) :   0.8446 B(  1-C ,  2-C ) :   0.9413
B(  1-C , 10-H ) :   0.9508 B(  1-C , 11-H ) :   0.9127 B(  2-C ,  3-C ) :   1.5743
B(  2-C ,  6-C ) :   0.9532 B(  3-C ,  4-C ) :   0.9259 B(  3-C ,  7-C ) :   0.8782
B(  3-C ,  8-O ) :  -0.1048 B(  3-C , 18-H ) :  -0.1168 B(  4-C ,  5-C ) :   0.9338
B(  4-C , 12-H ) :   0.9096 B(  4-C , 13-H ) :   0.9268 B(  5-C ,  6-C ) :   0.9303
B(  5-C , 14-H ) :   0.9404 B(  5-C , 15-H ) :   0.9322 B(  6-C , 16-H ) :   0.9249
B(  6-C , 17-H ) :   0.9050 B(  7-C ,  8-O ) :   1.9842 B(  7-C , 18-H ) :   0.9959

MP2 TOTAL ENERGY:     -422.339944921 Eh
FINAL SINGLE POINT ENERGY      -422.339944920890

DIPOLE MOMENT
-------------
                                X             Y             Z
Electronic contribution:     -0.13047       5.41761       1.36594
Nuclear contribution   :      0.51866      -6.06453      -1.37246
                        -----------------------------------------
Total Dipole Moment    :      0.38820      -0.64692      -0.00651
                        -----------------------------------------
Magnitude (a.u.)       :      0.75448
Magnitude (Debye)      :      1.91774

                             ****ORCA TERMINATED NORMALLY****
TOTAL RUN TIME: 0 days 0 hours 18 minutes 8 seconds 995 msec
