                         Program Version 3.0.3 - RELEASE   -
|  1> ! RI-MP2 RIJK def2-TZVP def2-TZVP/C def2-TZVP/JK TIGHTSCF
|  2> % maxcore 2000
|  3> % mp2 density relaxed end
|  4> *xyz 0 1
|  5>  C        0.0366603180    -1.1445339836    -0.3690368094
|  6>  C        0.0067140802     0.0085834560    -0.0349699236
|  7>  C        0.0002050099     1.4074006649     0.3767677403
|  8>  C        1.3779625393     2.0349168131     0.2681570026
|  9>  O        1.7727330999     2.5375975470    -1.0022696539
| 10>  C        1.5733755175     3.4848605997     0.0487588427
| 11>  C        0.4444535874     4.3810479968    -0.0854692849
| 12>  N       -0.4494937421     5.1090559280    -0.1682651691
| 13>  H        0.0496409944    -2.1623240059    -0.6722089065
| 14>  H       -0.7060370342     1.9840748649    -0.2303396872
| 15>  H       -0.3374906115     1.4887482878     1.4184606079
| 16>  H        2.1692145511     1.5145687722     0.8078986239
| 17>  H        2.4770635701     3.9602901690     0.4252638071
| 18> *
| 19>
| 20>                          ****END OF INPUT****

CARTESIAN COORDINATES (ANGSTROEM)
---------------------------------
  C      0.036660   -1.144534   -0.369037
  C      0.006714    0.008583   -0.034970
  C      0.000205    1.407401    0.376768
  C      1.377963    2.034917    0.268157
  O      1.772733    2.537598   -1.002270
  C      1.573376    3.484861    0.048759
  C      0.444454    4.381048   -0.085469
  N     -0.449494    5.109056   -0.168265
  H      0.049641   -2.162324   -0.672209
  H     -0.706037    1.984075   -0.230340
  H     -0.337491    1.488748    1.418461
  H      2.169215    1.514569    0.807899
  H      2.477064    3.960290    0.425264

 Total Charge           Charge          ....    0
 Multiplicity           Mult            ....    1
 Number of Electrons    NEL             ....   56
 Basis Dimension        Dim             ....  278

ORBITAL ENERGIES
----------------

  NO   OCC          E(Eh)            E(eV)
   0   2.0000     -20.615583      -560.9785
   1   2.0000     -15.594083      -424.3366
   2   2.0000     -11.354402      -308.9690
   3   2.0000     -11.338671      -308.5409
   4   2.0000     -11.292919      -307.2960
   5   2.0000     -11.283835      -307.0488
   6   2.0000     -11.249760      -306.1215
   7   2.0000     -11.237986      -305.8011
   8   2.0000      -1.463570       -39.8258
   9   2.0000      -1.237162       -33.6649
  10   2.0000      -1.101350       -29.9693
  11   2.0000      -1.017194       -27.6792
  12   2.0000      -0.993044       -27.0221
  13   2.0000      -0.886150       -24.1134
  14   2.0000      -0.772286       -21.0150
  15   2.0000      -0.732005       -19.9189
  16   2.0000      -0.727191       -19.7879
  17   2.0000      -0.656162       -17.8551
  18   2.0000      -0.637852       -17.3568
  19   2.0000      -0.613502       -16.6942
  20   2.0000      -0.581126       -15.8132
  21   2.0000      -0.572466       -15.5776
  22   2.0000      -0.532993       -14.5035
  23   2.0000      -0.502909       -13.6849
  24   2.0000      -0.485514       -13.2115
  25   2.0000      -0.453042       -12.3279
  26   2.0000      -0.404111       -10.9964
  27   2.0000      -0.402841       -10.9619
  28   0.0000       0.123922         3.3721
  29   0.0000       0.134209         3.6520
  30   0.0000       0.148622         4.0442
  31   0.0000       0.155477         4.2307
  32   0.0000       0.161086         4.3834

MULLIKEN ATOMIC CHARGES
-----------------------
   0 C :   -0.101866
   1 C :   -0.042501
   2 C :   -0.369711
   3 C :    0.064536
   4 O :   -0.291120
   5 C :    0.128099
   6 C :   -0.172944
   7 N :   -0.050526
   8 H :    0.197216
   9 H :    0.179316
  10 H :    0.156724
  11 H :    0.140538
  12 H :    0.162238
Sum of atomic charges:   -0.0000000

LOEWDIN ATOMIC CHARGES
----------------------
   0 C :   -0.088010
   1 C :   -0.107047
   2 C :   -0.223314
   3 C :   -0.231342
   4 O :    0.206934
   5 C :   -0.254316
   6 C :   -0.168773
   7 N :    0.084760
   8 H :    0.129097
   9 H :    0.172695
  10 H :    0.169676
  11 H :    0.148861
  12 H :    0.160780

  Mayer bond orders larger than 0.1
B(  0-C ,  1-C ) :   2.6112 B(  0-C ,  8-H ) :   0.8984 B(  1-C ,  2-C ) :   1.1027
B(  2-C ,  3-C ) :   0.9104 B(  2-C ,  9-H ) :   0.9319 B(  2-C , 10-H ) :   0.9158
B(  3-C ,  4-O ) :   0.8888 B(  3-C ,  5-C ) :   0.9366 B(  3-C , 11-H ) :   0.9174
B(  4-O ,  5-C ) :   0.9286 B(  5-C ,  6-C ) :   0.9103 B(  5-C , 12-H ) :   0.9018
B(  6-C ,  7-N ) :   2.8158

MP2 TOTAL ENERGY:     -360.780672701 Eh
FINAL SINGLE POINT ENERGY      -360.780672700549

DIPOLE MOMENT
-------------
                                X             Y             Z
Electronic contribution:      0.26089       3.39142      -1.43769
Nuclear contribution   :      0.50088      -4.17647       2.24872
                        -----------------------------------------
Total Dipole Moment    :      0.76178      -0.78505       0.81103
                        -----------------------------------------
Magnitude (a.u.)       :      1.36176
Magnitude (Debye)      :      3.46131

                             ****ORCA TERMINATED NORMALLY****
TOTAL RUN TIME: 0 days 0 hours 8 minutes 46 seconds 159 msec
