                         Program Version 3.0.3 - RELEASE   -
|  1> ! RI-MP2 RIJK def2-TZVP def2-TZVP/C def2-TZVP/JK TIGHTSCF
|  2> % maxcore 2000
|  3> % mp2 density relaxed end
|  4> *xyz 0 1
|  5>  C        0.0223098587     1.5294381883     0.0206210480
|  6>  C       -0.0251150316     0.0192709329     0.0031024265
|  7>  C        0.4473315437    -0.7219724441    -1.2807399881
|  8>  C       -0.6975821031    -1.7581082229    -1.1408256945
|  9>  C       -0.4266384243    -2.8125976573    -0.0381917796
| 10>  C       -0.7561452175    -1.7820471861     1.0711048043
| 11>  C        0.3791702423    -0.7498329256     1.2938159201
| 12>  C       -1.3486657723    -0.8253854777    -0.0410724734
| 13>  O       -2.5809189513    -0.2029534677    -0.0669144915
| 14>  H        1.0596780571     1.8858693337     0.0512676830
| 15>  H       -0.4500934733     1.9540238509    -0.8716542693
| 16>  H       -0.4957962933     1.9350117142     0.8962157843
| 17>  H        0.2986752770    -0.0914641172    -2.1632762215
| 18>  H        1.4735289351    -1.1046566355    -1.2945442670
| 19>  H       -1.1954411580    -2.0878306276    -2.0538785827
| 20>  H       -1.1757875518    -3.6105436699    -0.0666578084
| 21>  H        0.5672480310    -3.2717358683    -0.0168354725
| 22>  H       -1.3014403469    -2.1311483439     1.9491929041
| 23>  H        1.4034125001    -1.1333266192     1.3536335439
| 24>  H        0.1836506398    -0.1384898370     2.1806870213
| 25>  H       -3.2702152913    -0.8761662600    -0.0911999472
| 26> *
| 27>
| 28>                          ****END OF INPUT****

CARTESIAN COORDINATES (ANGSTROEM)
---------------------------------
  C      0.022310    1.529438    0.020621
  C     -0.025115    0.019271    0.003102
  C      0.447332   -0.721972   -1.280740
  C     -0.697582   -1.758108   -1.140826
  C     -0.426638   -2.812598   -0.038192
  C     -0.756145   -1.782047    1.071105
  C      0.379170   -0.749833    1.293816
  C     -1.348666   -0.825385   -0.041072
  O     -2.580919   -0.202953   -0.066914
  H      1.059678    1.885869    0.051268
  H     -0.450093    1.954024   -0.871654
  H     -0.495796    1.935012    0.896216
  H      0.298675   -0.091464   -2.163276
  H      1.473529   -1.104657   -1.294544
  H     -1.195441   -2.087831   -2.053879
  H     -1.175788   -3.610544   -0.066658
  H      0.567248   -3.271736   -0.016835
  H     -1.301440   -2.131148    1.949193
  H      1.403413   -1.133327    1.353634
  H      0.183651   -0.138490    2.180687
  H     -3.270215   -0.876166   -0.091200

 Total Charge           Charge          ....    0
 Multiplicity           Mult            ....    1
 Number of Electrons    NEL             ....   68
 Basis Dimension        Dim             ....  351

ORBITAL ENERGIES
----------------

  NO   OCC          E(Eh)            E(eV)
   0   2.0000     -20.565253      -559.6090
   1   2.0000     -11.278012      -306.8903
   2   2.0000     -11.224502      -305.4342
   3   2.0000     -11.221116      -305.3421
   4   2.0000     -11.221041      -305.3401
   5   2.0000     -11.219225      -305.2906
   6   2.0000     -11.215564      -305.1910
   7   2.0000     -11.215535      -305.1902
   8   2.0000     -11.206326      -304.9396
   9   2.0000      -1.374839       -37.4113
  10   2.0000      -1.186924       -32.2978
  11   2.0000      -1.024458       -27.8769
  12   2.0000      -0.995921       -27.1004
  13   2.0000      -0.926054       -25.1992
  14   2.0000      -0.869643       -23.6642
  15   2.0000      -0.798973       -21.7412
  16   2.0000      -0.771838       -21.0028
  17   2.0000      -0.730747       -19.8846
  18   2.0000      -0.657066       -17.8797
  19   2.0000      -0.636814       -17.3286
  20   2.0000      -0.626222       -17.0404
  21   2.0000      -0.592938       -16.1347
  22   2.0000      -0.575867       -15.6701
  23   2.0000      -0.562151       -15.2969
  24   2.0000      -0.542945       -14.7743
  25   2.0000      -0.542443       -14.7606
  26   2.0000      -0.537038       -14.6135
  27   2.0000      -0.531249       -14.4560
  28   2.0000      -0.453444       -12.3388
  29   2.0000      -0.445548       -12.1240
  30   2.0000      -0.432506       -11.7691
  31   2.0000      -0.431552       -11.7431
  32   2.0000      -0.375157       -10.2085
  33   2.0000      -0.361951        -9.8492
  34   0.0000       0.134458         3.6588
  35   0.0000       0.148759         4.0479
  36   0.0000       0.159371         4.3367
  37   0.0000       0.175009         4.7622
  38   0.0000       0.176664         4.8073

MULLIKEN ATOMIC CHARGES
-----------------------
   0 C :   -0.402557
   1 C :    0.178376
   2 C :   -0.311283
   3 C :   -0.026409
   4 C :   -0.301020
   5 C :   -0.026505
   6 C :   -0.311276
   7 C :    0.021995
   8 O :   -0.444198
   9 H :    0.130757
  10 H :    0.129972
  11 H :    0.129928
  12 H :    0.113617
  13 H :    0.110086
  14 H :    0.118409
  15 H :    0.115121
  16 H :    0.109022
  17 H :    0.118427
  18 H :    0.110084
  19 H :    0.113608
  20 H :    0.323845
Sum of atomic charges:    0.0000000

LOEWDIN ATOMIC CHARGES
----------------------
   0 C :   -0.277239
   1 C :   -0.217243
   2 C :   -0.177618
   3 C :   -0.171075
   4 C :   -0.208363
   5 C :   -0.171093
   6 C :   -0.177610
   7 C :   -0.254713
   8 O :    0.032332
   9 H :    0.128455
  10 H :    0.128451
  11 H :    0.128434
  12 H :    0.140071
  13 H :    0.126390
  14 H :    0.128890
  15 H :    0.135971
  16 H :    0.126058
  17 H :    0.128888
  18 H :    0.126391
  19 H :    0.140066
  20 H :    0.184558

  Mayer bond orders larger than 0.1
B(  0-C ,  1-C ) :   0.8631 B(  0-C ,  9-H ) :   0.9372 B(  0-C , 10-H ) :   0.9368
B(  0-C , 11-H ) :   0.9368 B(  1-C ,  2-C ) :   0.9240 B(  1-C ,  6-C ) :   0.9239
B(  1-C ,  7-C ) :   0.8828 B(  2-C ,  3-C ) :   0.8906 B(  2-C , 12-H ) :   0.9125
B(  2-C , 13-H ) :   0.9185 B(  3-C ,  4-C ) :   0.8981 B(  3-C ,  7-C ) :   0.8796
B(  3-C , 14-H ) :   0.9125 B(  4-C ,  5-C ) :   0.8981 B(  4-C , 15-H ) :   0.9260
B(  4-C , 16-H ) :   0.9145 B(  5-C ,  6-C ) :   0.8905 B(  5-C ,  7-C ) :   0.8795
B(  5-C , 17-H ) :   0.9125 B(  6-C , 18-H ) :   0.9185 B(  6-C , 19-H ) :   0.9125
B(  7-C ,  8-O ) :   1.0193 B(  8-O , 20-H ) :   0.8352

MP2 TOTAL ENERGY:     -386.381446214 Eh
FINAL SINGLE POINT ENERGY      -386.381446213779

DIPOLE MOMENT
-------------
                                X             Y             Z
Electronic contribution:     -3.98204      -1.17420      -0.11821
Nuclear contribution   :      3.87523       0.69331       0.11094
                        -----------------------------------------
Total Dipole Moment    :     -0.10682      -0.48090      -0.00727
                        -----------------------------------------
Magnitude (a.u.)       :      0.49267
Magnitude (Debye)      :      1.25227

                             ****ORCA TERMINATED NORMALLY****
TOTAL RUN TIME: 0 days 0 hours 20 minutes 44 seconds 526 msec
