                         Program Version 3.0.3 - RELEASE   -
|  1> ! RI-MP2 RIJK def2-TZVP def2-TZVP/C def2-TZVP/JK TIGHTSCF
|  2> % maxcore 2000
|  3> % mp2 density relaxed end
|  4> *xyz 0 1
|  5>  C        0.2618113275     1.2606742906     0.9553197410
|  6>  C        0.8053736279     0.4461746838    -0.2103042544
|  7>  O        0.1702466802    -0.8378031501    -0.3225984090
|  8>  C        0.6021534430    -1.7893721645     0.5167949049
|  9>  C        1.5832616807    -1.8974050204     1.4813326732
| 10>  N        1.5378002012    -3.1655516942     1.9799200295
| 11>  N        0.5983579164    -3.8370758410     1.3887669303
| 12>  N        0.0094642619    -3.0043858248     0.4844657982
| 13>  C       -1.0821710598    -3.4516368986    -0.3513220330
| 14>  H        0.4513443734     0.7651927702     1.9108965810
| 15>  H        0.7452964983     2.2423818335     0.9764157233
| 16>  H       -0.8163659210     1.4089019051     0.8493223836
| 17>  H        0.5942495416     0.9386641863    -1.1624738861
| 18>  H        1.8901928032     0.3042758648    -0.1348635856
| 19>  H        2.2903876698    -1.1683300677     1.8379650228
| 20>  H       -1.9770988452    -2.8484810149    -0.1750547716
| 21>  H       -0.8130847917    -3.3844032442    -1.4090895173
| 22>  H       -1.2801980074    -4.4902556141    -0.0872568406
| 23> *
| 24>
| 25>                          ****END OF INPUT****

CARTESIAN COORDINATES (ANGSTROEM)
---------------------------------
  C      0.261811    1.260674    0.955320
  C      0.805374    0.446175   -0.210304
  O      0.170247   -0.837803   -0.322598
  C      0.602153   -1.789372    0.516795
  C      1.583262   -1.897405    1.481333
  N      1.537800   -3.165552    1.979920
  N      0.598358   -3.837076    1.388767
  N      0.009464   -3.004386    0.484466
  C     -1.082171   -3.451637   -0.351322
  H      0.451344    0.765193    1.910897
  H      0.745296    2.242382    0.976416
  H     -0.816366    1.408902    0.849322
  H      0.594250    0.938664   -1.162474
  H      1.890193    0.304276   -0.134864
  H      2.290388   -1.168330    1.837965
  H     -1.977099   -2.848481   -0.175055
  H     -0.813085   -3.384403   -1.409090
  H     -1.280198   -4.490256   -0.087257

 Total Charge           Charge          ....    0
 Multiplicity           Mult            ....    1
 Number of Electrons    NEL             ....   68
 Basis Dimension        Dim             ....  333

ORBITAL ENERGIES
----------------

  NO   OCC          E(Eh)            E(eV)
   0   2.0000     -20.612246      -560.8877
   1   2.0000     -15.643458      -425.6801
   2   2.0000     -15.622384      -425.1067
   3   2.0000     -15.590613      -424.2421
   4   2.0000     -11.340831      -308.5997
   5   2.0000     -11.308553      -307.7214
   6   2.0000     -11.278233      -306.8963
   7   2.0000     -11.241331      -305.8922
   8   2.0000     -11.237030      -305.7751
   9   2.0000      -1.455487       -39.6058
  10   2.0000      -1.409591       -38.3569
  11   2.0000      -1.210849       -32.9489
  12   2.0000      -1.076350       -29.2890
  13   2.0000      -1.035340       -28.1730
  14   2.0000      -0.983666       -26.7669
  15   2.0000      -0.894105       -24.3298
  16   2.0000      -0.832375       -22.6501
  17   2.0000      -0.795254       -21.6400
  18   2.0000      -0.736249       -20.0343
  19   2.0000      -0.688779       -18.7426
  20   2.0000      -0.663826       -18.0636
  21   2.0000      -0.659929       -17.9576
  22   2.0000      -0.632444       -17.2097
  23   2.0000      -0.620576       -16.8867
  24   2.0000      -0.577774       -15.7220
  25   2.0000      -0.572669       -15.5831
  26   2.0000      -0.566175       -15.4064
  27   2.0000      -0.547984       -14.9114
  28   2.0000      -0.515995       -14.0409
  29   2.0000      -0.507847       -13.8192
  30   2.0000      -0.501509       -13.6467
  31   2.0000      -0.425181       -11.5698
  32   2.0000      -0.391796       -10.6613
  33   2.0000      -0.332158        -9.0385
  34   0.0000       0.128574         3.4987
  35   0.0000       0.147614         4.0168
  36   0.0000       0.153296         4.1714
  37   0.0000       0.171216         4.6590
  38   0.0000       0.175906         4.7866

MULLIKEN ATOMIC CHARGES
-----------------------
   0 C :   -0.391418
   1 C :   -0.073929
   2 O :   -0.295177
   3 C :    0.219800
   4 C :   -0.227370
   5 N :   -0.154850
   6 N :   -0.186774
   7 N :    0.118793
   8 C :   -0.323668
   9 H :    0.149849
  10 H :    0.137290
  11 H :    0.135172
  12 H :    0.137031
  13 H :    0.123253
  14 H :    0.148202
  15 H :    0.151939
  16 H :    0.153145
  17 H :    0.178713
Sum of atomic charges:   -0.0000000

LOEWDIN ATOMIC CHARGES
----------------------
   0 C :   -0.315381
   1 C :   -0.302265
   2 O :    0.249637
   3 C :   -0.365344
   4 C :   -0.292598
   5 N :   -0.005226
   6 N :   -0.039716
   7 N :    0.174015
   8 C :   -0.272646
   9 H :    0.127681
  10 H :    0.130329
  11 H :    0.126761
  12 H :    0.132548
  13 H :    0.128213
  14 H :    0.135146
  15 H :    0.126158
  16 H :    0.126520
  17 H :    0.136169

  Mayer bond orders larger than 0.1
B(  0-C ,  1-C ) :   0.9328 B(  0-C ,  9-H ) :   0.9332 B(  0-C , 10-H ) :   0.9265
B(  0-C , 11-H ) :   0.9308 B(  1-C ,  2-O ) :   0.8460 B(  1-C , 12-H ) :   0.9319
B(  1-C , 13-H ) :   0.9419 B(  2-O ,  3-C ) :   1.0768 B(  3-C ,  4-C ) :   1.3762
B(  3-C ,  6-N ) :   0.1078 B(  3-C ,  7-N ) :   1.1884 B(  4-C ,  5-N ) :   1.3790
B(  4-C , 14-H ) :   0.9422 B(  5-N ,  6-N ) :   1.2929 B(  6-N ,  7-N ) :   0.9700
B(  7-N ,  8-C ) :   0.8555 B(  8-C , 15-H ) :   0.9284 B(  8-C , 16-H ) :   0.9284
B(  8-C , 17-H ) :   0.9234

MP2 TOTAL ENERGY:     -434.534695665 Eh
FINAL SINGLE POINT ENERGY      -434.534695665439

DIPOLE MOMENT
-------------
                                X             Y             Z
Electronic contribution:      2.27605      -7.51162       1.72098
Nuclear contribution   :     -2.96326       9.08914      -2.88212
                        -----------------------------------------
Total Dipole Moment    :     -0.68721       1.57752      -1.16114
                        -----------------------------------------
Magnitude (a.u.)       :      2.07583
Magnitude (Debye)      :      5.27633

                             ****ORCA TERMINATED NORMALLY****
TOTAL RUN TIME: 0 days 0 hours 17 minutes 35 seconds 621 msec
