                         Program Version 3.0.3 - RELEASE   -
|  1> ! RI-MP2 RIJK def2-TZVP def2-TZVP/C def2-TZVP/JK TIGHTSCF
|  2> % maxcore 2000
|  3> % mp2 density relaxed end
|  4> *xyz 0 1
|  5>  C       -0.1662023313     1.4425618257    -0.1921052428
|  6>  C        1.2378441211     1.0357646691     0.1445209307
|  7>  C        0.1503017010    -0.0212638639     0.0638562754
|  8>  C       -0.3248229129    -0.7109898644     1.2757739037
|  9>  C       -0.6656214780    -2.0031340676     1.3889521241
| 10>  C       -1.1104609637    -2.3795173983     2.7868320556
| 11>  C       -0.9144191613    -1.0841822183     3.5644825372
| 12>  O        0.4368075557    -0.6212548944     3.6133895663
| 13>  C       -0.4511031962    -0.0543017791     2.6212840324
| 14>  H       -0.7393895570     1.9794316579     0.5557056412
| 15>  H       -0.3940390030     1.7309298852    -1.2121716168
| 16>  H        1.9854664938     1.0477315025    -0.6406543069
| 17>  H        1.6216018507     1.2819465045     1.1284698258
| 18>  H        0.1737881072    -0.6517196821    -0.8198312318
| 19>  H       -0.5953357332    -2.7306018310     0.5872889899
| 20>  H       -2.1608080600    -2.6990852511     2.8155611898
| 21>  H       -0.5174726497    -3.1993810567     3.2108219724
| 22>  H       -1.5146429869    -0.8616540056     4.4427589111
| 23>  H       -0.6499003764     1.0067179875     2.7413718628
| 24> *
| 25>
| 26>                          ****END OF INPUT****

CARTESIAN COORDINATES (ANGSTROEM)
---------------------------------
  C     -0.166202    1.442562   -0.192105
  C      1.237844    1.035765    0.144521
  C      0.150302   -0.021264    0.063856
  C     -0.324823   -0.710990    1.275774
  C     -0.665621   -2.003134    1.388952
  C     -1.110461   -2.379517    2.786832
  C     -0.914419   -1.084182    3.564483
  O      0.436808   -0.621255    3.613390
  C     -0.451103   -0.054302    2.621284
  H     -0.739390    1.979432    0.555706
  H     -0.394039    1.730930   -1.212172
  H      1.985466    1.047732   -0.640654
  H      1.621602    1.281947    1.128470
  H      0.173788   -0.651720   -0.819831
  H     -0.595336   -2.730602    0.587289
  H     -2.160808   -2.699085    2.815561
  H     -0.517473   -3.199381    3.210822
  H     -1.514643   -0.861654    4.442759
  H     -0.649900    1.006718    2.741372

 Total Charge           Charge          ....    0
 Multiplicity           Mult            ....    1
 Number of Electrons    NEL             ....   66
 Basis Dimension        Dim             ....  339

ORBITAL ENERGIES
----------------

  NO   OCC          E(Eh)            E(eV)
   0   2.0000     -20.561492      -559.5066
   1   2.0000     -11.283780      -307.0473
   2   2.0000     -11.282259      -307.0059
   3   2.0000     -11.240319      -305.8646
   4   2.0000     -11.236800      -305.7689
   5   2.0000     -11.233114      -305.6686
   6   2.0000     -11.232103      -305.6411
   7   2.0000     -11.229821      -305.5790
   8   2.0000     -11.225326      -305.4566
   9   2.0000      -1.405536       -38.2466
  10   2.0000      -1.155715       -31.4486
  11   2.0000      -1.097699       -29.8699
  12   2.0000      -0.979801       -26.6617
  13   2.0000      -0.911070       -24.7915
  14   2.0000      -0.839045       -22.8316
  15   2.0000      -0.826645       -22.4942
  16   2.0000      -0.792842       -21.5743
  17   2.0000      -0.738611       -20.0986
  18   2.0000      -0.709536       -19.3075
  19   2.0000      -0.656901       -17.8752
  20   2.0000      -0.633215       -17.2307
  21   2.0000      -0.594384       -16.1740
  22   2.0000      -0.574177       -15.6241
  23   2.0000      -0.565376       -15.3847
  24   2.0000      -0.549412       -14.9503
  25   2.0000      -0.526176       -14.3180
  26   2.0000      -0.516496       -14.0546
  27   2.0000      -0.502262       -13.6672
  28   2.0000      -0.462637       -12.5890
  29   2.0000      -0.438637       -11.9359
  30   2.0000      -0.429062       -11.6754
  31   2.0000      -0.417955       -11.3731
  32   2.0000      -0.325199        -8.8491
  33   0.0000       0.142648         3.8816
  34   0.0000       0.150015         4.0821
  35   0.0000       0.158055         4.3009
  36   0.0000       0.160541         4.3686
  37   0.0000       0.184612         5.0235

MULLIKEN ATOMIC CHARGES
-----------------------
   0 C :   -0.261296
   1 C :   -0.260777
   2 C :   -0.095406
   3 C :    0.087056
   4 C :   -0.339910
   5 C :   -0.050693
   6 C :   -0.070373
   7 O :   -0.323921
   8 C :    0.039160
   9 H :    0.130542
  10 H :    0.133178
  11 H :    0.132952
  12 H :    0.147075
  13 H :    0.118563
  14 H :    0.126856
  15 H :    0.114572
  16 H :    0.123933
  17 H :    0.121369
  18 H :    0.127118
Sum of atomic charges:   -0.0000000

LOEWDIN ATOMIC CHARGES
----------------------
   0 C :   -0.219825
   1 C :   -0.214599
   2 C :   -0.186247
   3 C :   -0.139129
   4 C :   -0.115474
   5 C :   -0.223782
   6 C :   -0.247734
   7 O :    0.164023
   8 C :   -0.208004
   9 H :    0.131336
  10 H :    0.132311
  11 H :    0.132427
  12 H :    0.137842
  13 H :    0.155317
  14 H :    0.137850
  15 H :    0.144275
  16 H :    0.148613
  17 H :    0.133433
  18 H :    0.137367

  Mayer bond orders larger than 0.1
B(  0-C ,  1-C ) :   0.8950 B(  0-C ,  2-C ) :   0.8495 B(  0-C ,  9-H ) :   0.9345
B(  0-C , 10-H ) :   0.9289 B(  1-C ,  2-C ) :   0.8403 B(  1-C , 11-H ) :   0.9305
B(  1-C , 12-H ) :   0.9286 B(  2-C ,  3-C ) :   0.9759 B(  2-C , 13-H ) :   0.9435
B(  3-C ,  4-C ) :   1.6754 B(  3-C ,  8-C ) :   0.8418 B(  4-C ,  5-C ) :   0.9415
B(  4-C , 14-H ) :   0.9136 B(  5-C ,  6-C ) :   0.9235 B(  5-C , 15-H ) :   0.8954
B(  5-C , 16-H ) :   0.8950 B(  6-C ,  7-O ) :   0.9489 B(  6-C ,  8-C ) :   0.9658
B(  6-C , 17-H ) :   0.9355 B(  7-O ,  8-C ) :   0.8853 B(  8-C , 18-H ) :   0.9266

MP2 TOTAL ENERGY:     -385.179861422 Eh
FINAL SINGLE POINT ENERGY      -385.179861421827

DIPOLE MOMENT
-------------
                                X             Y             Z
Electronic contribution:      0.28191      -1.56243       3.70717
Nuclear contribution   :     -0.85936       1.57856      -4.13480
                        -----------------------------------------
Total Dipole Moment    :     -0.57745       0.01613      -0.42763
                        -----------------------------------------
Magnitude (a.u.)       :      0.71873
Magnitude (Debye)      :      1.82688

                             ****ORCA TERMINATED NORMALLY****
TOTAL RUN TIME: 0 days 0 hours 17 minutes 37 seconds 833 msec
