                         Program Version 3.0.3 - RELEASE   -
|  1> ! RI-MP2 RIJK def2-TZVP def2-TZVP/C def2-TZVP/JK TIGHTSCF
|  2> % maxcore 2000
|  3> % mp2 density relaxed end
|  4> *xyz 0 1
|  5>  C       -0.3366060264     1.4577111565     0.1203740632
|  6>  C       -0.0352558673    -0.0047158638    -0.0985675639
|  7>  N       -0.3737662249    -0.5393924735    -1.2149919118
|  8>  C       -0.0305383166    -1.8724453005    -1.4891080491
|  9>  N        0.7457273056    -2.1518164909    -2.4502201291
| 10>  N       -0.7064088501    -2.8420320085    -0.7121559915
| 11>  C       -0.4270106248    -2.9146943156     0.5371385432
| 12>  C        0.4163226712    -2.0127768751     1.3100286541
| 13>  C        0.6049027829    -0.7070774501     1.0192515727
| 14>  H        0.5942202409     2.0134339762     0.2852890016
| 15>  H       -0.8456606988     1.8646476691    -0.7529714219
| 16>  H       -0.9590881408     1.6047683239     1.0099362146
| 17>  H        0.8252103274    -3.1665215878    -2.5396654852
| 18>  H       -0.8872615156    -3.7337736494     1.0953179551
| 19>  H        0.8148444510    -2.4052819682     2.2421665330
| 20>  H        1.1510395763    -0.0912419121     1.7298021649
| 21> *
| 22>
| 23>                          ****END OF INPUT****

CARTESIAN COORDINATES (ANGSTROEM)
---------------------------------
  C     -0.336606    1.457711    0.120374
  C     -0.035256   -0.004716   -0.098568
  N     -0.373766   -0.539392   -1.214992
  C     -0.030538   -1.872445   -1.489108
  N      0.745727   -2.151816   -2.450220
  N     -0.706409   -2.842032   -0.712156
  C     -0.427011   -2.914694    0.537139
  C      0.416323   -2.012777    1.310029
  C      0.604903   -0.707077    1.019252
  H      0.594220    2.013434    0.285289
  H     -0.845661    1.864648   -0.752971
  H     -0.959088    1.604768    1.009936
  H      0.825210   -3.166522   -2.539665
  H     -0.887262   -3.733774    1.095318
  H      0.814844   -2.405282    2.242167
  H      1.151040   -0.091242    1.729802

 Total Charge           Charge          ....    0
 Multiplicity           Mult            ....    1
 Number of Electrons    NEL             ....   64
 Basis Dimension        Dim             ....  321

ORBITAL ENERGIES
----------------

  NO   OCC          E(Eh)            E(eV)
   0   2.0000     -15.589246      -424.2049
   1   2.0000     -15.575244      -423.8239
   2   2.0000     -15.527516      -422.5252
   3   2.0000     -11.334013      -308.4142
   4   2.0000     -11.315608      -307.9133
   5   2.0000     -11.314096      -307.8722
   6   2.0000     -11.282946      -307.0246
   7   2.0000     -11.281214      -306.9774
   8   2.0000     -11.241808      -305.9051
   9   2.0000      -1.318783       -35.8859
  10   2.0000      -1.226300       -33.3693
  11   2.0000      -1.180273       -32.1169
  12   2.0000      -1.095548       -29.8114
  13   2.0000      -1.016514       -27.6608
  14   2.0000      -0.933328       -25.3971
  15   2.0000      -0.874565       -23.7981
  16   2.0000      -0.786965       -21.4144
  17   2.0000      -0.748974       -20.3806
  18   2.0000      -0.708662       -19.2837
  19   2.0000      -0.662904       -18.0385
  20   2.0000      -0.629470       -17.1288
  21   2.0000      -0.613881       -16.7045
  22   2.0000      -0.607196       -16.5226
  23   2.0000      -0.587781       -15.9943
  24   2.0000      -0.558349       -15.1934
  25   2.0000      -0.523032       -14.2324
  26   2.0000      -0.510516       -13.8918
  27   2.0000      -0.469615       -12.7789
  28   2.0000      -0.425062       -11.5665
  29   2.0000      -0.411325       -11.1927
  30   2.0000      -0.400318       -10.8932
  31   2.0000      -0.369486       -10.0542
  32   0.0000       0.046252         1.2586
  33   0.0000       0.109114         2.9691
  34   0.0000       0.131868         3.5883
  35   0.0000       0.149523         4.0687
  36   0.0000       0.172186         4.6854

MULLIKEN ATOMIC CHARGES
-----------------------
   0 C :   -0.399202
   1 C :    0.167259
   2 N :   -0.148050
   3 C :    0.151346
   4 N :   -0.329165
   5 N :   -0.186921
   6 C :   -0.052894
   7 C :   -0.084370
   8 C :   -0.217286
   9 H :    0.145420
  10 H :    0.160759
  11 H :    0.144129
  12 H :    0.219438
  13 H :    0.139119
  14 H :    0.144943
  15 H :    0.145474
Sum of atomic charges:    0.0000000

LOEWDIN ATOMIC CHARGES
----------------------
   0 C :   -0.259803
   1 C :   -0.236968
   2 N :    0.211055
   3 C :   -0.445972
   4 N :   -0.035701
   5 N :    0.166899
   6 C :   -0.203022
   7 C :   -0.134074
   8 C :   -0.099561
   9 H :    0.137447
  10 H :    0.137907
  11 H :    0.134066
  12 H :    0.169705
  13 H :    0.144872
  14 H :    0.155423
  15 H :    0.157724

  Mayer bond orders larger than 0.1
B(  0-C ,  1-C ) :   0.8801 B(  0-C ,  9-H ) :   0.9239 B(  0-C , 10-H ) :   0.9392
B(  0-C , 11-H ) :   0.9224 B(  1-C ,  2-N ) :   1.7935 B(  1-C ,  8-C ) :   0.9942
B(  2-N ,  3-C ) :   1.0124 B(  3-C ,  4-N ) :   2.0506 B(  3-C ,  5-N ) :   1.0023
B(  4-N , 12-H ) :   0.8475 B(  5-N ,  6-C ) :   1.7522 B(  6-C ,  7-C ) :   1.0114
B(  6-C , 13-H ) :   0.9272 B(  7-C ,  8-C ) :   1.6770 B(  7-C , 14-H ) :   0.9125
B(  8-C , 15-H ) :   0.9110

MP2 TOTAL ENERGY:     -396.238876780 Eh
FINAL SINGLE POINT ENERGY      -396.238876780273

DIPOLE MOMENT
-------------
                                X             Y             Z
Electronic contribution:     -0.53315      -4.55331      -3.08998
Nuclear contribution   :      0.74000       4.67588       5.10674
                        -----------------------------------------
Total Dipole Moment    :      0.20686       0.12257       2.01675
                        -----------------------------------------
Magnitude (a.u.)       :      2.03104
Magnitude (Debye)      :      5.16248

                             ****ORCA TERMINATED NORMALLY****
TOTAL RUN TIME: 0 days 0 hours 17 minutes 11 seconds 635 msec
