                         Program Version 3.0.3 - RELEASE   -
|  1> ! RI-MP2 RIJK def2-TZVP def2-TZVP/C def2-TZVP/JK TIGHTSCF
|  2> % maxcore 2000
|  3> % mp2 density relaxed end
|  4> *xyz 0 1
|  5>  C        0.1835813609     1.5376803309     0.0684417988
|  6>  C       -0.0365933293     0.0054289661     0.0718188165
|  7>  C        0.7063036552    -0.6450994230     1.2576333228
|  8>  N       -1.4580114293    -0.3981106639     0.0717457335
|  9>  C       -2.3136927485     0.1165859058     1.1464677658
| 10>  C       -3.6018732667    -0.7097361039     1.1564198522
| 11>  O       -3.3271090696    -2.0806068138     1.3289836801
| 12>  C        0.5331202966    -0.5414387385    -1.1784863770
| 13>  N        0.9792718048    -0.9465140127    -2.1641755121
| 14>  H        1.2478405077     1.7781798166    -0.0006931957
| 15>  H       -0.3280642541     2.0022420159    -0.7792094963
| 16>  H       -0.2066110774     1.9707508213     0.9932298460
| 17>  H        0.3741762241    -0.2098451209     2.2031543881
| 18>  H        0.5183949276    -1.7203436291     1.2785888606
| 19>  H        1.7815766856    -0.4740613317     1.1681126003
| 20>  H       -1.8665834260    -0.1532812078    -0.8257008654
| 21>  H       -1.8032313718    -0.0321836334     2.1021542143
| 22>  H       -2.5509330211     1.1884341587     1.0542784951
| 23>  H       -4.2421795593    -0.3912622134     1.9858269630
| 24>  H       -4.1610089350    -0.5220039292     0.2217015958
| 25>  H       -2.5765582344    -2.2597732739     0.7455489635
| 26> *
| 27>
| 28>                          ****END OF INPUT****

CARTESIAN COORDINATES (ANGSTROEM)
---------------------------------
  C      0.183581    1.537680    0.068442
  C     -0.036593    0.005429    0.071819
  C      0.706304   -0.645099    1.257633
  N     -1.458011   -0.398111    0.071746
  C     -2.313693    0.116586    1.146468
  C     -3.601873   -0.709736    1.156420
  O     -3.327109   -2.080607    1.328984
  C      0.533120   -0.541439   -1.178486
  N      0.979272   -0.946514   -2.164176
  H      1.247841    1.778180   -0.000693
  H     -0.328064    2.002242   -0.779209
  H     -0.206611    1.970751    0.993230
  H      0.374176   -0.209845    2.203154
  H      0.518395   -1.720344    1.278589
  H      1.781577   -0.474061    1.168113
  H     -1.866583   -0.153281   -0.825701
  H     -1.803231   -0.032184    2.102154
  H     -2.550933    1.188434    1.054278
  H     -4.242180   -0.391262    1.985827
  H     -4.161009   -0.522004    0.221702
  H     -2.576558   -2.259773    0.745549

 Total Charge           Charge          ....    0
 Multiplicity           Mult            ....    1
 Number of Electrons    NEL             ....   70
 Basis Dimension        Dim             ....  351

ORBITAL ENERGIES
----------------

  NO   OCC          E(Eh)            E(eV)
   0   2.0000     -20.551544      -559.2359
   1   2.0000     -15.579132      -423.9297
   2   2.0000     -15.574496      -423.8036
   3   2.0000     -11.329163      -308.2822
   4   2.0000     -11.282493      -307.0122
   5   2.0000     -11.273513      -306.7679
   6   2.0000     -11.271653      -306.7173
   7   2.0000     -11.248648      -306.0913
   8   2.0000     -11.245444      -306.0041
   9   2.0000      -1.362871       -37.0856
  10   2.0000      -1.256133       -34.1811
  11   2.0000      -1.213715       -33.0269
  12   2.0000      -1.085290       -29.5322
  13   2.0000      -0.989059       -26.9137
  14   2.0000      -0.968812       -26.3627
  15   2.0000      -0.885354       -24.0917
  16   2.0000      -0.826869       -22.5002
  17   2.0000      -0.737243       -20.0614
  18   2.0000      -0.682995       -18.5852
  19   2.0000      -0.669532       -18.2189
  20   2.0000      -0.655433       -17.8353
  21   2.0000      -0.623502       -16.9663
  22   2.0000      -0.612899       -16.6778
  23   2.0000      -0.587192       -15.9783
  24   2.0000      -0.583022       -15.8648
  25   2.0000      -0.570330       -15.5195
  26   2.0000      -0.559683       -15.2298
  27   2.0000      -0.538824       -14.6621
  28   2.0000      -0.530655       -14.4399
  29   2.0000      -0.524464       -14.2714
  30   2.0000      -0.497251       -13.5309
  31   2.0000      -0.467162       -12.7121
  32   2.0000      -0.464643       -12.6436
  33   2.0000      -0.446993       -12.1633
  34   2.0000      -0.406654       -11.0656
  35   0.0000       0.112085         3.0500
  36   0.0000       0.142171         3.8687
  37   0.0000       0.144495         3.9319
  38   0.0000       0.155245         4.2244
  39   0.0000       0.183384         4.9901

MULLIKEN ATOMIC CHARGES
-----------------------
   0 C :   -0.398271
   1 C :    0.245318
   2 C :   -0.413411
   3 N :   -0.393464
   4 C :   -0.179651
   5 C :    0.003178
   6 O :   -0.482950
   7 C :   -0.207256
   8 N :   -0.046295
   9 H :    0.151048
  10 H :    0.140378
  11 H :    0.147705
  12 H :    0.142148
  13 H :    0.153709
  14 H :    0.149389
  15 H :    0.219898
  16 H :    0.119083
  17 H :    0.115964
  18 H :    0.114637
  19 H :    0.091868
  20 H :    0.326975
Sum of atomic charges:   -0.0000000

LOEWDIN ATOMIC CHARGES
----------------------
   0 C :   -0.253627
   1 C :   -0.366842
   2 C :   -0.246139
   3 N :    0.024239
   4 C :   -0.316640
   5 C :   -0.359108
   6 O :   -0.047545
   7 C :   -0.154869
   8 N :    0.069576
   9 H :    0.135166
  10 H :    0.130601
  11 H :    0.129399
  12 H :    0.127298
  13 H :    0.135581
  14 H :    0.135591
  15 H :    0.181520
  16 H :    0.136349
  17 H :    0.123141
  18 H :    0.128637
  19 H :    0.115097
  20 H :    0.172575

  Mayer bond orders larger than 0.1
B(  0-C ,  1-C ) :   0.9165 B(  0-C ,  9-H ) :   0.9255 B(  0-C , 10-H ) :   0.9255
B(  0-C , 11-H ) :   0.9297 B(  1-C ,  2-C ) :   0.9079 B(  1-C ,  3-N ) :   0.8961
B(  1-C ,  7-C ) :   0.8710 B(  2-C , 12-H ) :   0.9261 B(  2-C , 13-H ) :   0.9336
B(  2-C , 14-H ) :   0.9263 B(  3-N ,  4-C ) :   0.8852 B(  3-N , 15-H ) :   0.8638
B(  4-C ,  5-C ) :   0.9506 B(  4-C , 16-H ) :   0.9220 B(  4-C , 17-H ) :   0.9146
B(  5-C ,  6-O ) :   0.9433 B(  5-C , 18-H ) :   0.9303 B(  5-C , 19-H ) :   0.9307
B(  6-O , 20-H ) :   0.8198 B(  7-C ,  8-N ) :   2.8877

MP2 TOTAL ENERGY:     -419.712435641 Eh
FINAL SINGLE POINT ENERGY      -419.712435640711

DIPOLE MOMENT
-------------
                                X             Y             Z
Electronic contribution:      1.58272      -4.39130      -5.81699
Nuclear contribution   :     -1.71969       5.80020       6.66866
                        -----------------------------------------
Total Dipole Moment    :     -0.13696       1.40889       0.85167
                        -----------------------------------------
Magnitude (a.u.)       :      1.65199
Magnitude (Debye)      :      4.19903

                             ****ORCA TERMINATED NORMALLY****
TOTAL RUN TIME: 0 days 0 hours 18 minutes 54 seconds 360 msec
