                         Program Version 3.0.3 - RELEASE   -
|  1> ! RI-MP2 RIJK def2-TZVP def2-TZVP/C def2-TZVP/JK TIGHTSCF
|  2> % maxcore 2000
|  3> % mp2 density relaxed end
|  4> *xyz 0 1
|  5>  C       -0.0848767539     1.5606806986     0.1028256664
|  6>  C        0.0033003504     0.0336286199     0.0088465493
|  7>  C        0.7093146325    -0.4948081422    -1.2495448263
|  8>  C        0.8709893981    -2.0211794031    -1.2061446621
|  9>  C        1.6907689776    -2.5334348635    -2.3968578286
| 10>  C        1.2588367612    -1.9024859816    -3.6936736850
| 11>  C        0.4857107652    -0.8174519630    -3.7793900245
| 12>  C        0.0514323840    -0.2411339388    -5.1001672141
| 13>  C       -0.0122940508    -0.0913127234    -2.5478492459
| 14>  H        0.9100236085     2.0176787633     0.0503674774
| 15>  H       -0.6872839547     1.9858862175    -0.7059328943
| 16>  H       -0.5415526960     1.8695698150     1.0484011966
| 17>  H        0.5347771996    -0.3477014033     0.8904676371
| 18>  H       -1.0075830243    -0.3953276023     0.0571817504
| 19>  H        1.7184012953    -0.0551991034    -1.2800407334
| 20>  H        1.3406432426    -2.3265128094    -0.2637977755
| 21>  H       -0.1254187664    -2.4839305612    -1.2249749785
| 22>  H        2.7610067872    -2.3373998922    -2.2282603015
| 23>  H        1.6064800911    -3.6255484562    -2.4703645657
| 24>  H        1.6071202419    -2.3779449119    -4.6090626291
| 25>  H        0.4202064489    -0.8330194393    -5.9424039789
| 26>  H       -1.0435645433    -0.1951806226    -5.1710340439
| 27>  H        0.4110757299     0.7890635458    -5.2227314811
| 28>  H       -1.0949450810    -0.2688858111    -2.4383955676
| 29>  H        0.0829652265     0.9899554786    -2.7126936813
| 30> *
| 31>
| 32>                          ****END OF INPUT****

CARTESIAN COORDINATES (ANGSTROEM)
---------------------------------
  C     -0.084877    1.560681    0.102826
  C      0.003300    0.033629    0.008847
  C      0.709315   -0.494808   -1.249545
  C      0.870989   -2.021179   -1.206145
  C      1.690769   -2.533435   -2.396858
  C      1.258837   -1.902486   -3.693674
  C      0.485711   -0.817452   -3.779390
  C      0.051432   -0.241134   -5.100167
  C     -0.012294   -0.091313   -2.547849
  H      0.910024    2.017679    0.050367
  H     -0.687284    1.985886   -0.705933
  H     -0.541553    1.869570    1.048401
  H      0.534777   -0.347701    0.890468
  H     -1.007583   -0.395328    0.057182
  H      1.718401   -0.055199   -1.280041
  H      1.340643   -2.326513   -0.263798
  H     -0.125419   -2.483931   -1.224975
  H      2.761007   -2.337400   -2.228260
  H      1.606480   -3.625548   -2.470365
  H      1.607120   -2.377945   -4.609063
  H      0.420206   -0.833019   -5.942404
  H     -1.043565   -0.195181   -5.171034
  H      0.411076    0.789064   -5.222731
  H     -1.094945   -0.268886   -2.438396
  H      0.082965    0.989955   -2.712694

 Total Charge           Charge          ....    0
 Multiplicity           Mult            ....    1
 Number of Electrons    NEL             ....   70
 Basis Dimension        Dim             ....  375

ORBITAL ENERGIES
----------------

  NO   OCC          E(Eh)            E(eV)
   0   2.0000     -11.223694      -305.4123
   1   2.0000     -11.219627      -305.3016
   2   2.0000     -11.217236      -305.2365
   3   2.0000     -11.216988      -305.2297
   4   2.0000     -11.215380      -305.1860
   5   2.0000     -11.214662      -305.1665
   6   2.0000     -11.212358      -305.1038
   7   2.0000     -11.210322      -305.0484
   8   2.0000     -11.209293      -305.0204
   9   2.0000      -1.126740       -30.6602
  10   2.0000      -1.056779       -28.7564
  11   2.0000      -1.019544       -27.7432
  12   2.0000      -0.970792       -26.4166
  13   2.0000      -0.921023       -25.0623
  14   2.0000      -0.863614       -23.5001
  15   2.0000      -0.818919       -22.2839
  16   2.0000      -0.770888       -20.9769
  17   2.0000      -0.691700       -18.8221
  18   2.0000      -0.644484       -17.5373
  19   2.0000      -0.610975       -16.6255
  20   2.0000      -0.596298       -16.2261
  21   2.0000      -0.588803       -16.0221
  22   2.0000      -0.578941       -15.7538
  23   2.0000      -0.564974       -15.3737
  24   2.0000      -0.554468       -15.0878
  25   2.0000      -0.524893       -14.2831
  26   2.0000      -0.518866       -14.1191
  27   2.0000      -0.513709       -13.9787
  28   2.0000      -0.501966       -13.6592
  29   2.0000      -0.488414       -13.2904
  30   2.0000      -0.475214       -12.9312
  31   2.0000      -0.450817       -12.2673
  32   2.0000      -0.433276       -11.7900
  33   2.0000      -0.425159       -11.5692
  34   2.0000      -0.329433        -8.9643
  35   0.0000       0.133440         3.6311
  36   0.0000       0.152749         4.1565
  37   0.0000       0.156058         4.2466
  38   0.0000       0.159435         4.3385
  39   0.0000       0.174100         4.7375

MULLIKEN ATOMIC CHARGES
-----------------------
   0 C :   -0.404399
   1 C :   -0.187408
   2 C :   -0.042541
   3 C :   -0.241617
   4 C :   -0.130008
   5 C :   -0.234755
   6 C :    0.066810
   7 C :   -0.418544
   8 C :   -0.289018
   9 H :    0.123127
  10 H :    0.130328
  11 H :    0.135293
  12 H :    0.110600
  13 H :    0.104792
  14 H :    0.080856
  15 H :    0.118512
  16 H :    0.106121
  17 H :    0.109844
  18 H :    0.121077
  19 H :    0.107955
  20 H :    0.129889
  21 H :    0.131286
  22 H :    0.132873
  23 H :    0.112140
  24 H :    0.126786
Sum of atomic charges:    0.0000000

LOEWDIN ATOMIC CHARGES
----------------------
   0 C :   -0.320051
   1 C :   -0.274246
   2 C :   -0.251531
   3 C :   -0.235014
   4 C :   -0.255648
   5 C :   -0.156564
   6 C :   -0.197729
   7 C :   -0.274880
   8 C :   -0.203839
   9 H :    0.120926
  10 H :    0.119298
  11 H :    0.120731
  12 H :    0.136894
  13 H :    0.136527
  14 H :    0.155707
  15 H :    0.136634
  16 H :    0.141600
  17 H :    0.142495
  18 H :    0.141252
  19 H :    0.140863
  20 H :    0.126819
  21 H :    0.128424
  22 H :    0.127281
  23 H :    0.148093
  24 H :    0.145959

  Mayer bond orders larger than 0.1
B(  0-C ,  1-C ) :   0.9135 B(  0-C ,  9-H ) :   0.9383 B(  0-C , 10-H ) :   0.9415
B(  0-C , 11-H ) :   0.9416 B(  1-C ,  2-C ) :   0.9069 B(  1-C , 12-H ) :   0.9389
B(  1-C , 13-H ) :   0.9271 B(  2-C ,  3-C ) :   0.9127 B(  2-C ,  8-C ) :   0.9451
B(  2-C , 14-H ) :   0.9297 B(  3-C ,  4-C ) :   0.9515 B(  3-C , 15-H ) :   0.9331
B(  3-C , 16-H ) :   0.9235 B(  4-C ,  5-C ) :   0.9513 B(  4-C , 17-H ) :   0.9101
B(  4-C , 18-H ) :   0.9292 B(  5-C ,  6-C ) :   1.7694 B(  5-C , 19-H ) :   0.9266
B(  6-C ,  7-C ) :   0.8917 B(  6-C ,  8-C ) :   0.9392 B(  7-C , 20-H ) :   0.9452
B(  7-C , 21-H ) :   0.9292 B(  7-C , 22-H ) :   0.9347 B(  8-C , 23-H ) :   0.8963
B(  8-C , 24-H ) :   0.9260

MP2 TOTAL ENERGY:     -351.737778867 Eh
FINAL SINGLE POINT ENERGY      -351.737778866670

DIPOLE MOMENT
-------------
                                X             Y             Z
Electronic contribution:      1.57477      -3.20273      -2.44267
Nuclear contribution   :     -1.59100       3.24459       2.52004
                        -----------------------------------------
Total Dipole Moment    :     -0.01624       0.04186       0.07738
                        -----------------------------------------
Magnitude (a.u.)       :      0.08946
Magnitude (Debye)      :      0.22739

                             ****ORCA TERMINATED NORMALLY****
TOTAL RUN TIME: 0 days 0 hours 23 minutes 41 seconds 243 msec
