                         Program Version 3.0.3 - RELEASE   -
|  1> ! RI-MP2 RIJK def2-TZVP def2-TZVP/C def2-TZVP/JK TIGHTSCF
|  2> % maxcore 2000
|  3> % mp2 density relaxed end
|  4> *xyz 0 1
|  5>  O        0.0972305361     1.3463041254    -0.2153029149
|  6>  C        0.1347298906    -0.0062634270     0.2051277439
|  7>  C       -1.2457811766    -0.6232348035     0.1871819692
|  8>  N       -1.9464323589    -1.0960751462    -1.0257363253
|  9>  C       -0.9379431684    -1.7898634773    -1.9127060119
| 10>  C       -0.5817547968    -2.8337417479    -0.8294802113
| 11>  C       -1.5467026897    -2.0756631064     0.0923004230
| 12>  C       -2.4991192111    -2.7175595777     0.9491957374
| 13>  N       -3.2384099059    -3.2606197902     1.6543905447
| 14>  H       -0.3036185162     1.3764510797    -1.0906342204
| 15>  H        0.8559767247    -0.5923924418    -0.3791107439
| 16>  H        0.4969372209     0.0087283442     1.2382403749
| 17>  H       -1.9482316869    -0.0738165294     0.8106783935
| 18>  H       -1.4593437015    -2.2129652917    -2.7716240718
| 19>  H       -0.1354699344    -1.1407487028    -2.2737325382
| 20>  H       -0.9469957650    -3.8316554328    -1.0721787655
| 21>  H        0.4535667390    -2.9084784844    -0.4897199834
| 22> *
| 23>
| 24>                          ****END OF INPUT****

CARTESIAN COORDINATES (ANGSTROEM)
---------------------------------
  O      0.097231    1.346304   -0.215303
  C      0.134730   -0.006263    0.205128
  C     -1.245781   -0.623235    0.187182
  N     -1.946432   -1.096075   -1.025736
  C     -0.937943   -1.789863   -1.912706
  C     -0.581755   -2.833742   -0.829480
  C     -1.546703   -2.075663    0.092300
  C     -2.499119   -2.717560    0.949196
  N     -3.238410   -3.260620    1.654391
  H     -0.303619    1.376451   -1.090634
  H      0.855977   -0.592392   -0.379111
  H      0.496937    0.008728    1.238240
  H     -1.948232   -0.073817    0.810678
  H     -1.459344   -2.212965   -2.771624
  H     -0.135470   -1.140749   -2.273733
  H     -0.946996   -3.831655   -1.072179
  H      0.453567   -2.908478   -0.489720

 Total Charge           Charge          ....    0
 Multiplicity           Mult            ....    1
 Number of Electrons    NEL             ....   66
 Basis Dimension        Dim             ....  327

ORBITAL ENERGIES
----------------

  NO   OCC          E(Eh)            E(eV)
   0   2.0000     -20.578131      -559.9594
   1   2.0000     -15.602996      -424.5791
   2   2.0000     -15.581301      -423.9888
   3   2.0000     -11.326230      -308.2024
   4   2.0000     -11.305613      -307.6414
   5   2.0000     -11.298859      -307.4576
   6   2.0000     -11.288209      -307.1678
   7   2.0000     -11.281969      -306.9980
   8   2.0000     -11.270186      -306.6773
   9   2.0000      -1.384794       -37.6822
  10   2.0000      -1.327635       -36.1268
  11   2.0000      -1.223523       -33.2938
  12   2.0000      -1.055417       -28.7194
  13   2.0000      -1.003314       -27.3015
  14   2.0000      -0.981972       -26.7208
  15   2.0000      -0.850321       -23.1384
  16   2.0000      -0.814582       -22.1659
  17   2.0000      -0.742503       -20.2045
  18   2.0000      -0.707714       -19.2579
  19   2.0000      -0.687358       -18.7040
  20   2.0000      -0.653179       -17.7739
  21   2.0000      -0.629683       -17.1346
  22   2.0000      -0.582645       -15.8546
  23   2.0000      -0.575632       -15.6637
  24   2.0000      -0.569680       -15.5018
  25   2.0000      -0.563559       -15.3352
  26   2.0000      -0.531405       -14.4603
  27   2.0000      -0.520354       -14.1595
  28   2.0000      -0.497160       -13.5284
  29   2.0000      -0.480061       -13.0631
  30   2.0000      -0.456804       -12.4303
  31   2.0000      -0.440691       -11.9918
  32   2.0000      -0.398411       -10.8413
  33   0.0000       0.119246         3.2448
  34   0.0000       0.119578         3.2539
  35   0.0000       0.139391         3.7930
  36   0.0000       0.150070         4.0836
  37   0.0000       0.162946         4.4340

MULLIKEN ATOMIC CHARGES
-----------------------
   0 O :   -0.456515
   1 C :   -0.022835
   2 C :   -0.135187
   3 N :   -0.232173
   4 C :   -0.164070
   5 C :   -0.260586
   6 C :    0.289791
   7 C :   -0.256630
   8 N :   -0.043305
   9 H :    0.323177
  10 H :    0.118766
  11 H :    0.132667
  12 H :    0.144927
  13 H :    0.142823
  14 H :    0.127033
  15 H :    0.151409
  16 H :    0.140710
Sum of atomic charges:    0.0000000

LOEWDIN ATOMIC CHARGES
----------------------
   0 O :   -0.034675
   1 C :   -0.325586
   2 C :   -0.221550
   3 N :    0.148169
   4 C :   -0.238310
   5 C :   -0.189270
   6 C :   -0.217701
   7 C :   -0.149945
   8 N :    0.081087
   9 H :    0.178379
  10 H :    0.123762
  11 H :    0.141822
  12 H :    0.166228
  13 H :    0.133914
  14 H :    0.121636
  15 H :    0.147543
  16 H :    0.134498

  Mayer bond orders larger than 0.1
B(  0-O ,  1-C ) :   0.9152 B(  0-O ,  9-H ) :   0.8410 B(  1-C ,  2-C ) :   0.9320
B(  1-C , 10-H ) :   0.9232 B(  1-C , 11-H ) :   0.9206 B(  2-C ,  3-N ) :   0.9323
B(  2-C ,  6-C ) :   0.8700 B(  2-C , 12-H ) :   0.9235 B(  3-N ,  4-C ) :   0.9039
B(  3-N ,  6-C ) :   0.7980 B(  4-C ,  5-C ) :   0.9773 B(  4-C , 13-H ) :   0.9171
B(  4-C , 14-H ) :   0.9380 B(  5-C ,  6-C ) :   0.8675 B(  5-C , 15-H ) :   0.9239
B(  5-C , 16-H ) :   0.9163 B(  6-C ,  7-C ) :   0.8855 B(  7-C ,  8-N ) :   2.8619

MP2 TOTAL ENERGY:     -417.260264410 Eh
FINAL SINGLE POINT ENERGY      -417.260264409795

DIPOLE MOMENT
-------------
                                X             Y             Z
Electronic contribution:     -5.18403      -1.50336       3.53529
Nuclear contribution   :      6.52939       1.48958      -4.65837
                        -----------------------------------------
Total Dipole Moment    :      1.34536      -0.01378      -1.12308
                        -----------------------------------------
Magnitude (a.u.)       :      1.75256
Magnitude (Debye)      :      4.45466

                             ****ORCA TERMINATED NORMALLY****
TOTAL RUN TIME: 0 days 0 hours 27 minutes 11 seconds 467 msec
