                         Program Version 3.0.3 - RELEASE   -
|  1> ! RI-MP2 RIJK def2-TZVP def2-TZVP/C def2-TZVP/JK TIGHTSCF
|  2> % maxcore 2000
|  3> % mp2 density relaxed end
|  4> *xyz 0 1
|  5>  C        0.6396740160     1.4307544236     0.2785516120
|  6>  C        0.0718757779     0.0381629735    -0.0364754895
|  7>  C        0.6857757231    -0.6178964488    -1.2978061042
|  8>  C        1.8162086473    -1.4958896647    -0.7787936282
|  9>  O        3.0503199803    -0.7497666829    -0.4756617773
| 10>  C        2.8777486705    -0.9065706812     0.8802379775
| 11>  O        3.5776268052    -0.5002638315     1.7516722045
| 12>  C        1.5504487206    -1.6865162065     0.7280422829
| 13>  N        0.3047814791    -0.9915631853     0.9994767222
| 14>  H        1.7295547081     1.4348506846     0.3559329682
| 15>  H        0.3571673412     2.1389602516    -0.5081438398
| 16>  H        0.2280095167     1.8068083986     1.2215804247
| 17>  H       -1.0120587393     0.1434424610    -0.1634521260
| 18>  H       -0.0532762510    -1.2608417390    -1.7858198432
| 19>  H        1.0375515422     0.1118721226    -2.0306533666
| 20>  H        2.0548956338    -2.3655886749    -1.3901351279
| 21>  H        1.5687468138    -2.6915063725     1.1562101443
| 22>  H        0.2520220746    -0.6263954781     1.9438185963
| 23> *
| 24>
| 25>                          ****END OF INPUT****

CARTESIAN COORDINATES (ANGSTROEM)
---------------------------------
  C      0.639674    1.430754    0.278552
  C      0.071876    0.038163   -0.036475
  C      0.685776   -0.617896   -1.297806
  C      1.816209   -1.495890   -0.778794
  O      3.050320   -0.749767   -0.475662
  C      2.877749   -0.906571    0.880238
  O      3.577627   -0.500264    1.751672
  C      1.550449   -1.686516    0.728042
  N      0.304781   -0.991563    0.999477
  H      1.729555    1.434851    0.355933
  H      0.357167    2.138960   -0.508144
  H      0.228010    1.806808    1.221580
  H     -1.012059    0.143442   -0.163452
  H     -0.053276   -1.260842   -1.785820
  H      1.037552    0.111872   -2.030653
  H      2.054896   -2.365589   -1.390135
  H      1.568747   -2.691506    1.156210
  H      0.252022   -0.626395    1.943819

 Total Charge           Charge          ....    0
 Multiplicity           Mult            ....    1
 Number of Electrons    NEL             ....   68
 Basis Dimension        Dim             ....  333

ORBITAL ENERGIES
----------------

  NO   OCC          E(Eh)            E(eV)
   0   2.0000     -20.600314      -560.5630
   1   2.0000     -20.554710      -559.3221
   2   2.0000     -15.567434      -423.6114
   3   2.0000     -11.379831      -309.6609
   4   2.0000     -11.311320      -307.7967
   5   2.0000     -11.290648      -307.2342
   6   2.0000     -11.274760      -306.8018
   7   2.0000     -11.243881      -305.9616
   8   2.0000     -11.223942      -305.4190
   9   2.0000      -1.463277       -39.8178
  10   2.0000      -1.380162       -37.5561
  11   2.0000      -1.243537       -33.8384
  12   2.0000      -1.055111       -28.7110
  13   2.0000      -1.032444       -28.0942
  14   2.0000      -0.954083       -25.9619
  15   2.0000      -0.865912       -23.5627
  16   2.0000      -0.803998       -21.8779
  17   2.0000      -0.746252       -20.3065
  18   2.0000      -0.734734       -19.9931
  19   2.0000      -0.711091       -19.3498
  20   2.0000      -0.674267       -18.3477
  21   2.0000      -0.620057       -16.8726
  22   2.0000      -0.614610       -16.7244
  23   2.0000      -0.599860       -16.3230
  24   2.0000      -0.579169       -15.7600
  25   2.0000      -0.568593       -15.4722
  26   2.0000      -0.555503       -15.1160
  27   2.0000      -0.534691       -14.5497
  28   2.0000      -0.504776       -13.7357
  29   2.0000      -0.493962       -13.4414
  30   2.0000      -0.491686       -13.3794
  31   2.0000      -0.465911       -12.6781
  32   2.0000      -0.455611       -12.3978
  33   2.0000      -0.379899       -10.3376
  34   0.0000       0.124341         3.3835
  35   0.0000       0.152787         4.1575
  36   0.0000       0.156748         4.2653
  37   0.0000       0.168523         4.5858
  38   0.0000       0.178272         4.8510

MULLIKEN ATOMIC CHARGES
-----------------------
   0 C :   -0.439985
   1 C :    0.039270
   2 C :   -0.229882
   3 C :    0.065348
   4 O :   -0.249444
   5 C :    0.247376
   6 O :   -0.262235
   7 C :   -0.095718
   8 N :   -0.353573
   9 H :    0.159378
  10 H :    0.128420
  11 H :    0.129750
  12 H :    0.110221
  13 H :    0.130627
  14 H :    0.135530
  15 H :    0.130293
  16 H :    0.133779
  17 H :    0.220843
Sum of atomic charges:   -0.0000000

LOEWDIN ATOMIC CHARGES
----------------------
   0 C :   -0.300055
   1 C :   -0.304568
   2 C :   -0.212446
   3 C :   -0.215674
   4 O :    0.243913
   5 C :   -0.451487
   6 O :    0.152520
   7 C :   -0.236057
   8 N :    0.038300
   9 H :    0.129984
  10 H :    0.126728
  11 H :    0.123001
  12 H :    0.145124
  13 H :    0.149691
  14 H :    0.149067
  15 H :    0.139257
  16 H :    0.148732
  17 H :    0.173971

  Mayer bond orders larger than 0.1
B(  0-C ,  1-C ) :   0.9384 B(  0-C ,  9-H ) :   0.9249 B(  0-C , 10-H ) :   0.9340
B(  0-C , 11-H ) :   0.9349 B(  1-C ,  2-C ) :   0.9176 B(  1-C ,  8-N ) :   0.8952
B(  1-C , 12-H ) :   0.9311 B(  2-C ,  3-C ) :   0.9364 B(  2-C , 13-H ) :   0.9095
B(  2-C , 14-H ) :   0.9229 B(  3-C ,  4-O ) :   0.9028 B(  3-C ,  7-C ) :   0.8776
B(  3-C , 15-H ) :   0.9341 B(  4-O ,  5-C ) :   1.0657 B(  5-C ,  6-O ) :   2.0493
B(  5-C ,  7-C ) :   0.9255 B(  7-C ,  8-N ) :   1.0248 B(  7-C , 16-H ) :   0.9083
B(  8-N , 17-H ) :   0.8794

MP2 TOTAL ENERGY:     -438.398954240 Eh
FINAL SINGLE POINT ENERGY      -438.398954239511

DIPOLE MOMENT
-------------
                                X             Y             Z
Electronic contribution:      6.83621      -3.96220       2.53342
Nuclear contribution   :     -8.00982       3.68985      -3.13511
                        -----------------------------------------
Total Dipole Moment    :     -1.17361      -0.27235      -0.60169
                        -----------------------------------------
Magnitude (a.u.)       :      1.34669
Magnitude (Debye)      :      3.42302

                             ****ORCA TERMINATED NORMALLY****
TOTAL RUN TIME: 0 days 0 hours 19 minutes 50 seconds 775 msec
