                         Program Version 3.0.3 - RELEASE   -
|  1> ! RI-MP2 RIJK def2-TZVP def2-TZVP/C def2-TZVP/JK TIGHTSCF
|  2> % maxcore 2000
|  3> % mp2 density relaxed end
|  4> *xyz 0 1
|  5>  C       -0.1032449441     1.5768438040     0.0868084551
|  6>  C        0.0087632331     0.0465358636     0.0125327447
|  7>  C        0.7909749136    -0.4560937467    -1.1890258743
|  8>  C        1.8109482269    -1.2591778156    -0.8656827408
|  9>  C        2.7906561913    -1.9297482477    -1.7746995736
| 10>  C        1.8804998798    -1.3782134049     0.6291041625
| 11>  O        2.1407332387    -0.1136067784     1.2868095001
| 12>  C        0.7874888818    -0.5652742977     1.1793388492
| 13>  H        0.8914958684     2.0194235784     0.1831376425
| 14>  H       -0.5771707187     1.9800798366    -0.8136140186
| 15>  H       -0.7037778128     1.8856788340     0.9485624548
| 16>  H       -1.0051604772    -0.3801406563     0.0048060966
| 17>  H        0.5529579517    -0.1359976397    -2.1990230576
| 18>  H        2.5625611113    -1.7327059116    -2.8255564417
| 19>  H        3.8136403783    -1.5864150591    -1.5761249453
| 20>  H        2.7913322858    -3.0172107026    -1.6269617615
| 21>  H        2.3071443587    -2.2472884891     1.1229781781
| 22>  H        0.2944031836    -0.7810087672     2.1239706699
| 23> *
| 24>
| 25>                          ****END OF INPUT****

CARTESIAN COORDINATES (ANGSTROEM)
---------------------------------
  C     -0.103245    1.576844    0.086808
  C      0.008763    0.046536    0.012533
  C      0.790975   -0.456094   -1.189026
  C      1.810948   -1.259178   -0.865683
  C      2.790656   -1.929748   -1.774700
  C      1.880500   -1.378213    0.629104
  O      2.140733   -0.113607    1.286810
  C      0.787489   -0.565274    1.179339
  H      0.891496    2.019424    0.183138
  H     -0.577171    1.980080   -0.813614
  H     -0.703778    1.885679    0.948562
  H     -1.005160   -0.380141    0.004806
  H      0.552958   -0.135998   -2.199023
  H      2.562561   -1.732706   -2.825556
  H      3.813640   -1.586415   -1.576125
  H      2.791332   -3.017211   -1.626962
  H      2.307144   -2.247288    1.122978
  H      0.294403   -0.781009    2.123971

 Total Charge           Charge          ....    0
 Multiplicity           Mult            ....    1
 Number of Electrons    NEL             ....   60
 Basis Dimension        Dim             ....  308

ORBITAL ENERGIES
----------------

  NO   OCC          E(Eh)            E(eV)
   0   2.0000     -20.560233      -559.4724
   1   2.0000     -11.281608      -306.9882
   2   2.0000     -11.278865      -306.9135
   3   2.0000     -11.238074      -305.8035
   4   2.0000     -11.235355      -305.7295
   5   2.0000     -11.227119      -305.5054
   6   2.0000     -11.224649      -305.4382
   7   2.0000     -11.214677      -305.1669
   8   2.0000      -1.403502       -38.1912
   9   2.0000      -1.119025       -30.4502
  10   2.0000      -1.036949       -28.2168
  11   2.0000      -0.950629       -25.8679
  12   2.0000      -0.907241       -24.6873
  13   2.0000      -0.878071       -23.8935
  14   2.0000      -0.774819       -21.0839
  15   2.0000      -0.740012       -20.1367
  16   2.0000      -0.695124       -18.9153
  17   2.0000      -0.617946       -16.8152
  18   2.0000      -0.597426       -16.2568
  19   2.0000      -0.587401       -15.9840
  20   2.0000      -0.574815       -15.6415
  21   2.0000      -0.566482       -15.4147
  22   2.0000      -0.543398       -14.7866
  23   2.0000      -0.529789       -14.4163
  24   2.0000      -0.519910       -14.1475
  25   2.0000      -0.493017       -13.4157
  26   2.0000      -0.480514       -13.0754
  27   2.0000      -0.442791       -12.0490
  28   2.0000      -0.414564       -11.2809
  29   2.0000      -0.340814        -9.2740
  30   0.0000       0.134002         3.6464
  31   0.0000       0.144337         3.9276
  32   0.0000       0.157881         4.2962
  33   0.0000       0.170952         4.6518
  34   0.0000       0.187460         5.1010

MULLIKEN ATOMIC CHARGES
-----------------------
   0 C :   -0.427086
   1 C :    0.076356
   2 C :   -0.252265
   3 C :    0.046170
   4 C :   -0.435323
   5 C :    0.014440
   6 O :   -0.332006
   7 C :    0.000284
   8 H :    0.150462
   9 H :    0.129029
  10 H :    0.128695
  11 H :    0.094876
  12 H :    0.126137
  13 H :    0.139924
  14 H :    0.147738
  15 H :    0.138889
  16 H :    0.123801
  17 H :    0.129877
Sum of atomic charges:    0.0000000

LOEWDIN ATOMIC CHARGES
----------------------
   0 C :   -0.285059
   1 C :   -0.238726
   2 C :   -0.100688
   3 C :   -0.174027
   4 C :   -0.272315
   5 C :   -0.207570
   6 O :    0.163418
   7 C :   -0.227437
   8 H :    0.130506
   9 H :    0.122798
  10 H :    0.123485
  11 H :    0.157960
  12 H :    0.139462
  13 H :    0.131275
  14 H :    0.134341
  15 H :    0.131536
  16 H :    0.136789
  17 H :    0.134252

  Mayer bond orders larger than 0.1
B(  0-C ,  1-C ) :   0.8728 B(  0-C ,  8-H ) :   0.9336 B(  0-C ,  9-H ) :   0.9386
B(  0-C , 10-H ) :   0.9359 B(  1-C ,  2-C ) :   0.9125 B(  1-C ,  7-C ) :   0.9227
B(  1-C , 11-H ) :   0.9066 B(  2-C ,  3-C ) :   1.7355 B(  2-C , 12-H ) :   0.9133
B(  3-C ,  4-C ) :   0.8808 B(  3-C ,  5-C ) :   0.9033 B(  4-C , 13-H ) :   0.9551
B(  4-C , 14-H ) :   0.9290 B(  4-C , 15-H ) :   0.9314 B(  5-C ,  6-O ) :   0.9004
B(  5-C ,  7-C ) :   0.9764 B(  5-C , 16-H ) :   0.9292 B(  6-O ,  7-C ) :   0.9164
B(  7-C , 17-H ) :   0.9216

MP2 TOTAL ENERGY:     -347.188621544 Eh
FINAL SINGLE POINT ENERGY      -347.188621543690

DIPOLE MOMENT
-------------
                                X             Y             Z
Electronic contribution:      1.30050      -1.26465       3.41074
Nuclear contribution   :     -1.73942       0.81089      -3.73767
                        -----------------------------------------
Total Dipole Moment    :     -0.43892      -0.45376      -0.32693
                        -----------------------------------------
Magnitude (a.u.)       :      0.71094
Magnitude (Debye)      :      1.80706

                             ****ORCA TERMINATED NORMALLY****
TOTAL RUN TIME: 0 days 0 hours 14 minutes 1 seconds 793 msec
