                         Program Version 3.0.3 - RELEASE   -
|  1> ! RI-MP2 RIJK def2-TZVP def2-TZVP/C def2-TZVP/JK TIGHTSCF
|  2> % maxcore 2000
|  3> % mp2 density relaxed end
|  4> *xyz 0 1
|  5>  N        0.1300528847     1.4083166092    -0.1694049726
|  6>  C       -0.0111560288    -0.0536236081    -0.0300769823
|  7>  C        0.6175086334    -0.5821196137     1.1958294626
|  8>  C        1.1503671437    -0.9591445340     2.2049927913
|  9>  C       -1.4637729929    -0.3535525659     0.0306376287
| 10>  N       -2.5925835050    -0.5937382346     0.0698668698
| 11>  C        0.5590811709    -0.6978477551    -1.3011626044
| 12>  C        2.0235392381    -1.0409960214    -1.4091961020
| 13>  C        0.9872130015    -2.1358836547    -1.3480230570
| 14>  H       -0.1989513605     1.8663813113     0.6763197419
| 15>  H        1.1212171773     1.6178168533    -0.2547508760
| 16>  H        1.6105380976    -1.2968611459     3.1014001233
| 17>  H        0.0812045851    -0.2872793945    -2.1837592015
| 18>  H        2.5163205287    -0.8370120812    -2.3528450084
| 19>  H        2.6462914653    -0.9030552241    -0.5324180352
| 20>  H        0.9296383406    -2.7097733164    -0.4301548859
| 21>  H        0.7620972102    -2.6965055142    -2.2475724224
| 22> *
| 23>
| 24>                          ****END OF INPUT****

CARTESIAN COORDINATES (ANGSTROEM)
---------------------------------
  N      0.130053    1.408317   -0.169405
  C     -0.011156   -0.053624   -0.030077
  C      0.617509   -0.582120    1.195829
  C      1.150367   -0.959145    2.204993
  C     -1.463773   -0.353553    0.030638
  N     -2.592584   -0.593738    0.069867
  C      0.559081   -0.697848   -1.301163
  C      2.023539   -1.040996   -1.409196
  C      0.987213   -2.135884   -1.348023
  H     -0.198951    1.866381    0.676320
  H      1.121217    1.617817   -0.254751
  H      1.610538   -1.296861    3.101400
  H      0.081205   -0.287279   -2.183759
  H      2.516321   -0.837012   -2.352845
  H      2.646291   -0.903055   -0.532418
  H      0.929638   -2.709773   -0.430155
  H      0.762097   -2.696506   -2.247572

 Total Charge           Charge          ....    0
 Multiplicity           Mult            ....    1
 Number of Electrons    NEL             ....   64
 Basis Dimension        Dim             ....  327

ORBITAL ENERGIES
----------------

  NO   OCC          E(Eh)            E(eV)
   0   2.0000     -15.578104      -423.9018
   1   2.0000     -15.573693      -423.7817
   2   2.0000     -11.354294      -308.9661
   3   2.0000     -11.275136      -306.8120
   4   2.0000     -11.261674      -306.4457
   5   2.0000     -11.260121      -306.4035
   6   2.0000     -11.253819      -306.2320
   7   2.0000     -11.244774      -305.9859
   8   2.0000     -11.242353      -305.9200
   9   2.0000      -1.253889       -34.1200
  10   2.0000      -1.208693       -32.8902
  11   2.0000      -1.157501       -31.4972
  12   2.0000      -1.064477       -28.9659
  13   2.0000      -0.990129       -26.9428
  14   2.0000      -0.843232       -22.9455
  15   2.0000      -0.836665       -22.7668
  16   2.0000      -0.778699       -21.1895
  17   2.0000      -0.725651       -19.7460
  18   2.0000      -0.695519       -18.9260
  19   2.0000      -0.675960       -18.3938
  20   2.0000      -0.653623       -17.7860
  21   2.0000      -0.627357       -17.0712
  22   2.0000      -0.562418       -15.3042
  23   2.0000      -0.544927       -14.8282
  24   2.0000      -0.533761       -14.5244
  25   2.0000      -0.481599       -13.1050
  26   2.0000      -0.472353       -12.8534
  27   2.0000      -0.462068       -12.5735
  28   2.0000      -0.441251       -12.0070
  29   2.0000      -0.435715       -11.8564
  30   2.0000      -0.419234       -11.4079
  31   2.0000      -0.409976       -11.1560
  32   0.0000       0.118696         3.2299
  33   0.0000       0.138466         3.7678
  34   0.0000       0.144304         3.9267
  35   0.0000       0.149931         4.0798
  36   0.0000       0.160455         4.3662

MULLIKEN ATOMIC CHARGES
-----------------------
   0 N :   -0.541649
   1 C :    0.348960
   2 C :   -0.153152
   3 C :   -0.139494
   4 C :   -0.197559
   5 N :   -0.041622
   6 C :   -0.152074
   7 C :   -0.260180
   8 C :   -0.269685
   9 H :    0.243026
  10 H :    0.239824
  11 H :    0.201817
  12 H :    0.144142
  13 H :    0.141442
  14 H :    0.144161
  15 H :    0.149384
  16 H :    0.142661
Sum of atomic charges:    0.0000000

LOEWDIN ATOMIC CHARGES
----------------------
   0 N :   -0.082657
   1 C :   -0.324367
   2 C :   -0.062364
   3 C :   -0.066943
   4 C :   -0.124543
   5 N :    0.078669
   6 C :   -0.173503
   7 C :   -0.216339
   8 C :   -0.208213
   9 H :    0.165676
  10 H :    0.166628
  11 H :    0.132006
  12 H :    0.162976
  13 H :    0.134638
  14 H :    0.139519
  15 H :    0.142722
  16 H :    0.136096

  Mayer bond orders larger than 0.1
B(  0-N ,  1-C ) :   0.7751 B(  0-N ,  9-H ) :   0.8860 B(  0-N , 10-H ) :   0.8883
B(  1-C ,  2-C ) :   1.1794 B(  1-C ,  4-C ) :   0.8714 B(  1-C ,  6-C ) :   0.8552
B(  2-C ,  3-C ) :   2.5768 B(  3-C , 11-H ) :   0.8793 B(  4-C ,  5-N ) :   2.8809
B(  6-C ,  7-C ) :   0.8606 B(  6-C ,  8-C ) :   0.8652 B(  6-C , 12-H ) :   0.9359
B(  7-C ,  8-C ) :   0.9078 B(  7-C , 13-H ) :   0.9288 B(  7-C , 14-H ) :   0.9231
B(  8-C , 15-H ) :   0.9218 B(  8-C , 16-H ) :   0.9300

MP2 TOTAL ENERGY:     -380.139492869 Eh
FINAL SINGLE POINT ENERGY      -380.139492868604

DIPOLE MOMENT
-------------
                                X             Y             Z
Electronic contribution:     -5.75793       1.03173       3.35354
Nuclear contribution   :      7.52777      -0.92510      -3.11600
                        -----------------------------------------
Total Dipole Moment    :      1.76984       0.10664       0.23754
                        -----------------------------------------
Magnitude (a.u.)       :      1.78889
Magnitude (Debye)      :      4.54700

                             ****ORCA TERMINATED NORMALLY****
TOTAL RUN TIME: 0 days 0 hours 18 minutes 31 seconds 719 msec
