                         Program Version 3.0.3 - RELEASE   -
|  1> ! RI-MP2 RIJK def2-TZVP def2-TZVP/C def2-TZVP/JK TIGHTSCF
|  2> % maxcore 2000
|  3> % mp2 density relaxed end
|  4> *xyz 0 1
|  5>  C        0.1272081316     1.4779234049     0.2537121710
|  6>  C       -0.0686581451    -0.0134967294    -0.0064027654
|  7>  O       -1.4379205003    -0.3072340754    -0.3321438611
|  8>  C        0.7095606286    -0.5151061249    -1.2221822082
|  9>  O        0.2178822652     0.0866559303    -2.4020666831
| 10>  C        2.2728909470    -0.4319295345    -1.2154502216
| 11>  C        2.3202347896    -1.9543271982    -1.3808586734
| 12>  N        1.6266551828    -2.5140659931    -0.1931553762
| 13>  C        0.8392989343    -2.0515981991    -1.3628450373
| 14>  H        1.1599370509     1.6931900758     0.5437240053
| 15>  H       -0.1089875239     2.0552354862    -0.6440180153
| 16>  H       -0.5194444643     1.8162032986     1.0720598033
| 17>  H        0.2450142453    -0.6004012646     0.8656794289
| 18>  H       -2.0026158691     0.1272711015     0.3135580369
| 19>  H       -0.7451675735     0.0571434518    -2.3156231556
| 20>  H        2.6073943623     0.1162816141    -2.0975323285
| 21>  H        2.7553891103    -0.0413230735    -0.3161455432
| 22>  H        3.0530310635    -2.5406067331    -1.9207100359
| 23>  H        1.6834978389    -3.5303019596    -0.2569172820
| 24>  H        0.1656451661    -2.7120165377    -1.8945477884
| 25> *
| 26>
| 27>                          ****END OF INPUT****

CARTESIAN COORDINATES (ANGSTROEM)
---------------------------------
  C      0.127208    1.477923    0.253712
  C     -0.068658   -0.013497   -0.006403
  O     -1.437921   -0.307234   -0.332144
  C      0.709561   -0.515106   -1.222182
  O      0.217882    0.086656   -2.402067
  C      2.272891   -0.431930   -1.215450
  C      2.320235   -1.954327   -1.380859
  N      1.626655   -2.514066   -0.193155
  C      0.839299   -2.051598   -1.362845
  H      1.159937    1.693190    0.543724
  H     -0.108988    2.055235   -0.644018
  H     -0.519444    1.816203    1.072060
  H      0.245014   -0.600401    0.865679
  H     -2.002616    0.127271    0.313558
  H     -0.745168    0.057143   -2.315623
  H      2.607394    0.116282   -2.097532
  H      2.755389   -0.041323   -0.316146
  H      3.053031   -2.540607   -1.920710
  H      1.683498   -3.530302   -0.256917
  H      0.165645   -2.712017   -1.894548

 Total Charge           Charge          ....    0
 Multiplicity           Mult            ....    1
 Number of Electrons    NEL             ....   70
 Basis Dimension        Dim             ....  345

ORBITAL ENERGIES
----------------

  NO   OCC          E(Eh)            E(eV)
   0   2.0000     -20.561844      -559.5162
   1   2.0000     -20.547609      -559.1289
   2   2.0000     -15.559081      -423.3841
   3   2.0000     -11.284856      -307.0765
   4   2.0000     -11.277095      -306.8654
   5   2.0000     -11.258461      -306.3583
   6   2.0000     -11.253478      -306.2227
   7   2.0000     -11.223150      -305.3974
   8   2.0000     -11.218474      -305.2702
   9   2.0000      -1.380385       -37.5622
  10   2.0000      -1.347413       -36.6650
  11   2.0000      -1.272999       -34.6401
  12   2.0000      -1.052337       -28.6356
  13   2.0000      -1.004314       -27.3288
  14   2.0000      -0.908410       -24.7191
  15   2.0000      -0.858431       -23.3591
  16   2.0000      -0.808681       -22.0053
  17   2.0000      -0.735879       -20.0243
  18   2.0000      -0.718665       -19.5559
  19   2.0000      -0.703218       -19.1355
  20   2.0000      -0.656104       -17.8535
  21   2.0000      -0.639463       -17.4007
  22   2.0000      -0.613291       -16.6885
  23   2.0000      -0.580318       -15.7913
  24   2.0000      -0.558038       -15.1850
  25   2.0000      -0.548393       -14.9225
  26   2.0000      -0.534583       -14.5468
  27   2.0000      -0.527114       -14.3435
  28   2.0000      -0.511623       -13.9220
  29   2.0000      -0.506204       -13.7745
  30   2.0000      -0.462478       -12.5847
  31   2.0000      -0.449823       -12.2403
  32   2.0000      -0.442442       -12.0395
  33   2.0000      -0.416809       -11.3420
  34   2.0000      -0.361441        -9.8353
  35   0.0000       0.131194         3.5700
  36   0.0000       0.146614         3.9896
  37   0.0000       0.166136         4.5208
  38   0.0000       0.184429         5.0186
  39   0.0000       0.190771         5.1911

MULLIKEN ATOMIC CHARGES
-----------------------
   0 C :   -0.409160
   1 C :   -0.033062
   2 O :   -0.505012
   3 C :    0.382979
   4 O :   -0.491526
   5 C :   -0.231411
   6 C :   -0.090698
   7 N :   -0.404060
   8 C :   -0.115587
   9 H :    0.132719
  10 H :    0.141609
  11 H :    0.123248
  12 H :    0.112765
  13 H :    0.317525
  14 H :    0.331914
  15 H :    0.130474
  16 H :    0.112269
  17 H :    0.139404
  18 H :    0.215344
  19 H :    0.140266
Sum of atomic charges:    0.0000000

LOEWDIN ATOMIC CHARGES
----------------------
   0 C :   -0.301005
   1 C :   -0.336046
   2 O :   -0.034040
   3 C :   -0.329760
   4 O :    0.019961
   5 C :   -0.171161
   6 C :   -0.232991
   7 N :   -0.003695
   8 C :   -0.198791
   9 H :    0.128923
  10 H :    0.128626
  11 H :    0.119985
  12 H :    0.145672
  13 H :    0.173639
  14 H :    0.182702
  15 H :    0.145609
  16 H :    0.132326
  17 H :    0.127489
  18 H :    0.171360
  19 H :    0.131195

  Mayer bond orders larger than 0.1
B(  0-C ,  1-C ) :   0.9368 B(  0-C ,  9-H ) :   0.9329 B(  0-C , 10-H ) :   0.9282
B(  0-C , 11-H ) :   0.9374 B(  1-C ,  2-O ) :   0.9257 B(  1-C ,  3-C ) :   0.8893
B(  1-C , 12-H ) :   0.9190 B(  2-O , 13-H ) :   0.8448 B(  3-C ,  4-O ) :   0.9736
B(  3-C ,  5-C ) :   0.9549 B(  3-C ,  8-C ) :   0.8614 B(  4-O , 14-H ) :   0.8162
B(  5-C ,  6-C ) :   0.9640 B(  5-C , 15-H ) :   0.9210 B(  5-C , 16-H ) :   0.9024
B(  6-C ,  7-N ) :   0.9342 B(  6-C ,  8-C ) :   0.8999 B(  6-C , 17-H ) :   0.9184
B(  7-N ,  8-C ) :   0.9206 B(  7-N , 18-H ) :   0.8682 B(  8-C , 19-H ) :   0.9127

MP2 TOTAL ENERGY:     -439.528565245 Eh
FINAL SINGLE POINT ENERGY      -439.528565244964

DIPOLE MOMENT
-------------
                                X             Y             Z
Electronic contribution:     -1.03128      -3.51316      -2.37823
Nuclear contribution   :      0.86900       3.39674       2.73191
                        -----------------------------------------
Total Dipole Moment    :     -0.16227      -0.11643       0.35368
                        -----------------------------------------
Magnitude (a.u.)       :      0.40617
Magnitude (Debye)      :      1.03241

                             ****ORCA TERMINATED NORMALLY****
TOTAL RUN TIME: 0 days 0 hours 21 minutes 19 seconds 682 msec
