                         Program Version 3.0.3 - RELEASE   -
|  1> ! RI-MP2 RIJK def2-TZVP def2-TZVP/C def2-TZVP/JK TIGHTSCF
|  2> % maxcore 2000
|  3> % mp2 density relaxed end
|  4> *xyz 0 1
|  5>  N        0.0806179952     1.4159404165     0.0730852583
|  6>  C        0.0179837557     0.0200769174     0.0334315806
|  7>  N       -1.1209127080    -0.5663801923     0.1480287168
|  8>  O       -1.1149013625    -1.9439484180     0.1848408960
|  9>  C        0.0544333906    -2.7044402046    -0.0426418200
| 10>  O       -0.0991101919    -3.8858741765    -0.1434193926
| 11>  N        1.2610070656    -2.0425496407    -0.0882236344
| 12>  C        1.2617617720    -0.7481373919    -0.0364360038
| 13>  N        2.4252829508    -0.0548809097    -0.0655392779
| 14>  H        0.5405031394     1.8134962127    -0.7396037301
| 15>  H       -0.8463364036     1.8153064728     0.1773008565
| 16>  H        3.2709611467    -0.5989597156     0.0229436510
| 17>  H        2.4278655999     0.8793944497     0.3128248398
| 18> *
| 19>
| 20>                          ****END OF INPUT****

CARTESIAN COORDINATES (ANGSTROEM)
---------------------------------
  N      0.080618    1.415940    0.073085
  C      0.017984    0.020077    0.033432
  N     -1.120913   -0.566380    0.148029
  O     -1.114901   -1.943948    0.184841
  C      0.054433   -2.704440   -0.042642
  O     -0.099110   -3.885874   -0.143419
  N      1.261007   -2.042550   -0.088224
  C      1.261762   -0.748137   -0.036436
  N      2.425283   -0.054881   -0.065539
  H      0.540503    1.813496   -0.739604
  H     -0.846336    1.815306    0.177301
  H      3.270961   -0.598960    0.022944
  H      2.427866    0.879394    0.312825

 Total Charge           Charge          ....    0
 Multiplicity           Mult            ....    1
 Number of Electrons    NEL             ....   66
 Basis Dimension        Dim             ....  303

ORBITAL ENERGIES
----------------

  NO   OCC          E(Eh)            E(eV)
   0   2.0000     -20.641051      -561.6716
   1   2.0000     -20.531140      -558.6807
   2   2.0000     -15.665438      -426.2783
   3   2.0000     -15.629283      -425.2944
   4   2.0000     -15.615566      -424.9212
   5   2.0000     -15.583007      -424.0352
   6   2.0000     -11.405817      -310.3681
   7   2.0000     -11.389139      -309.9142
   8   2.0000     -11.357489      -309.0530
   9   2.0000      -1.496788       -40.7297
  10   2.0000      -1.387761       -37.7629
  11   2.0000      -1.336580       -36.3702
  12   2.0000      -1.277643       -34.7664
  13   2.0000      -1.219485       -33.1839
  14   2.0000      -1.152404       -31.3585
  15   2.0000      -0.956082       -26.0163
  16   2.0000      -0.901165       -24.5219
  17   2.0000      -0.822428       -22.3794
  18   2.0000      -0.754278       -20.5249
  19   2.0000      -0.742956       -20.2169
  20   2.0000      -0.719255       -19.5719
  21   2.0000      -0.698194       -18.9988
  22   2.0000      -0.676446       -18.4070
  23   2.0000      -0.646024       -17.5792
  24   2.0000      -0.605457       -16.4753
  25   2.0000      -0.582471       -15.8499
  26   2.0000      -0.558718       -15.2035
  27   2.0000      -0.544659       -14.8209
  28   2.0000      -0.509776       -13.8717
  29   2.0000      -0.474329       -12.9071
  30   2.0000      -0.436357       -11.8739
  31   2.0000      -0.424100       -11.5404
  32   2.0000      -0.387143       -10.5347
  33   0.0000       0.055202         1.5021
  34   0.0000       0.100102         2.7239
  35   0.0000       0.132976         3.6185
  36   0.0000       0.164623         4.4796
  37   0.0000       0.169648         4.6164

MULLIKEN ATOMIC CHARGES
-----------------------
   0 N :   -0.548579
   1 C :    0.177603
   2 N :   -0.084527
   3 O :   -0.125889
   4 C :    0.282500
   5 O :   -0.273570
   6 N :   -0.273124
   7 C :    0.226387
   8 N :   -0.479911
   9 H :    0.269351
  10 H :    0.268635
  11 H :    0.276712
  12 H :    0.284411
Sum of atomic charges:    0.0000000

LOEWDIN ATOMIC CHARGES
----------------------
   0 N :   -0.074434
   1 C :   -0.355319
   2 N :    0.065130
   3 O :    0.207953
   4 C :   -0.549826
   5 O :    0.141238
   6 N :    0.144314
   7 C :   -0.319260
   8 N :    0.016881
   9 H :    0.176041
  10 H :    0.180279
  11 H :    0.185655
  12 H :    0.181350

  Mayer bond orders larger than 0.1
B(  0-N ,  1-C ) :   1.0278 B(  0-N ,  9-H ) :   0.8597 B(  0-N , 10-H ) :   0.8640
B(  1-C ,  2-N ) :   1.7141 B(  1-C ,  7-C ) :   1.0359 B(  2-N ,  3-O ) :   0.8422
B(  3-O ,  4-C ) :   1.0054 B(  4-C ,  5-O ) :   2.0399 B(  4-C ,  6-N ) :   1.1388
B(  6-N ,  7-C ) :   1.6114 B(  7-C ,  8-N ) :   1.1763 B(  8-N , 11-H ) :   0.8537
B(  8-N , 12-H ) :   0.8531

MP2 TOTAL ENERGY:     -485.307279050 Eh
FINAL SINGLE POINT ENERGY      -485.307279050247

DIPOLE MOMENT
-------------
                                X             Y             Z
Electronic contribution:     -2.58847      -5.15948       0.10728
Nuclear contribution   :      3.89491       7.97119      -0.23618
                        -----------------------------------------
Total Dipole Moment    :      1.30644       2.81170      -0.12890
                        -----------------------------------------
Magnitude (a.u.)       :      3.10308
Magnitude (Debye)      :      7.88739

                             ****ORCA TERMINATED NORMALLY****
TOTAL RUN TIME: 0 days 0 hours 13 minutes 42 seconds 322 msec
