                         Program Version 3.0.3 - RELEASE   -
|  1> ! RI-MP2 RIJK def2-TZVP def2-TZVP/C def2-TZVP/JK TIGHTSCF
|  2> % maxcore 2000
|  3> % mp2 density relaxed end
|  4> *xyz 0 1
|  5>  O        0.4912786412     1.0252737667     0.6023163666
|  6>  C       -0.0018916969    -0.1532374941     0.0308357127
|  7>  C       -1.4114749908    -0.0793110728    -0.5930610058
|  8>  C       -1.4065130794    -1.2560491473    -1.5734830576
|  9>  O       -0.0135250569    -1.5492430067    -1.8561486934
| 10>  C        0.8089692308    -0.6794542352    -1.1669604865
| 11>  O        1.1300666681     0.4881743439    -1.9598061430
| 12>  C        2.1107408099     0.3649500362    -2.8820729360
| 13>  O        2.4079377983     1.2507125825    -3.6236882761
| 14>  H        0.6918582806     1.6279280350    -0.1250276267
| 15>  H        0.0227182831    -0.9160193075     0.8160644754
| 16>  H       -2.2049074915    -0.1492526231     0.1524126825
| 17>  H       -1.5153001212     0.8742975327    -1.1193151563
| 18>  H       -1.8493219104    -2.1601303016    -1.1423889742
| 19>  H       -1.9157564118    -1.0376109745    -2.5160734746
| 20>  H        1.7392516747    -1.1957747507    -0.9121296798
| 21>  H        2.5966597721    -0.6277383335    -2.8610187771
| 22> *
| 23>
| 24>                          ****END OF INPUT****

CARTESIAN COORDINATES (ANGSTROEM)
---------------------------------
  O      0.491279    1.025274    0.602316
  C     -0.001892   -0.153237    0.030836
  C     -1.411475   -0.079311   -0.593061
  C     -1.406513   -1.256049   -1.573483
  O     -0.013525   -1.549243   -1.856149
  C      0.808969   -0.679454   -1.166960
  O      1.130067    0.488174   -1.959806
  C      2.110741    0.364950   -2.882073
  O      2.407938    1.250713   -3.623688
  H      0.691858    1.627928   -0.125028
  H      0.022718   -0.916019    0.816064
  H     -2.204907   -0.149253    0.152413
  H     -1.515300    0.874298   -1.119315
  H     -1.849322   -2.160130   -1.142389
  H     -1.915756   -1.037611   -2.516073
  H      1.739252   -1.195775   -0.912130
  H      2.596660   -0.627738   -2.861019

 Total Charge           Charge          ....    0
 Multiplicity           Mult            ....    1
 Number of Electrons    NEL             ....   70
 Basis Dimension        Dim             ....  327

ORBITAL ENERGIES
----------------

  NO   OCC          E(Eh)            E(eV)
   0   2.0000     -20.617386      -561.0276
   1   2.0000     -20.588601      -560.2443
   2   2.0000     -20.572733      -559.8125
   3   2.0000     -20.558938      -559.4371
   4   2.0000     -11.390915      -309.9626
   5   2.0000     -11.365909      -309.2821
   6   2.0000     -11.306663      -307.6699
   7   2.0000     -11.299782      -307.4827
   8   2.0000     -11.245008      -305.9922
   9   2.0000      -1.482209       -40.3330
  10   2.0000      -1.420823       -38.6626
  11   2.0000      -1.383755       -37.6539
  12   2.0000      -1.367926       -37.2231
  13   2.0000      -1.071403       -29.1544
  14   2.0000      -1.018840       -27.7240
  15   2.0000      -0.885084       -24.0844
  16   2.0000      -0.845491       -23.0070
  17   2.0000      -0.838979       -22.8298
  18   2.0000      -0.751839       -20.4586
  19   2.0000      -0.742596       -20.2071
  20   2.0000      -0.697664       -18.9844
  21   2.0000      -0.674805       -18.3624
  22   2.0000      -0.663648       -18.0588
  23   2.0000      -0.626101       -17.0371
  24   2.0000      -0.617412       -16.8006
  25   2.0000      -0.602945       -16.4070
  26   2.0000      -0.596562       -16.2333
  27   2.0000      -0.576155       -15.6780
  28   2.0000      -0.533044       -14.5049
  29   2.0000      -0.527820       -14.3627
  30   2.0000      -0.500174       -13.6104
  31   2.0000      -0.488061       -13.2808
  32   2.0000      -0.468837       -12.7577
  33   2.0000      -0.461406       -12.5555
  34   2.0000      -0.442495       -12.0409
  35   0.0000       0.129004         3.5104
  36   0.0000       0.140108         3.8125
  37   0.0000       0.154362         4.2004
  38   0.0000       0.165477         4.5028
  39   0.0000       0.166280         4.5247

MULLIKEN ATOMIC CHARGES
-----------------------
   0 O :   -0.466498
   1 C :    0.059429
   2 C :   -0.238768
   3 C :   -0.057414
   4 O :   -0.298000
   5 C :    0.167038
   6 O :   -0.251151
   7 C :    0.185096
   8 O :   -0.262715
   9 H :    0.334947
  10 H :    0.112926
  11 H :    0.142116
  12 H :    0.124467
  13 H :    0.116646
  14 H :    0.120278
  15 H :    0.122318
  16 H :    0.089285
Sum of atomic charges:    0.0000000

LOEWDIN ATOMIC CHARGES
----------------------
   0 O :    0.002423
   1 C :   -0.334426
   2 C :   -0.243876
   3 C :   -0.266019
   4 O :    0.187172
   5 C :   -0.381391
   6 O :    0.232141
   7 C :   -0.440115
   8 O :    0.126736
   9 H :    0.182018
  10 H :    0.152638
  11 H :    0.141461
  12 H :    0.144465
  13 H :    0.125958
  14 H :    0.127445
  15 H :    0.136091
  16 H :    0.107280

  Mayer bond orders larger than 0.1
B(  0-O ,  1-C ) :   0.9919 B(  0-O ,  9-H ) :   0.8191 B(  1-C ,  2-C ) :   0.9109
B(  1-C ,  5-C ) :   0.9355 B(  1-C , 10-H ) :   0.9267 B(  2-C ,  3-C ) :   0.9514
B(  2-C , 11-H ) :   0.9288 B(  2-C , 12-H ) :   0.9114 B(  3-C ,  4-O ) :   0.8804
B(  3-C , 13-H ) :   0.9285 B(  3-C , 14-H ) :   0.9248 B(  4-O ,  5-C ) :   1.0474
B(  5-C ,  6-O ) :   0.8535 B(  5-C , 15-H ) :   0.9169 B(  6-O ,  7-C ) :   1.0441
B(  7-C ,  8-O ) :   2.0376 B(  7-C , 16-H ) :   0.9237

MP2 TOTAL ENERGY:     -495.369049874 Eh
FINAL SINGLE POINT ENERGY      -495.369049874433

DIPOLE MOMENT
-------------
                                X             Y             Z
Electronic contribution:      5.08929       2.07638      -3.05391
Nuclear contribution   :     -5.83169      -3.01078       3.62953
                        -----------------------------------------
Total Dipole Moment    :     -0.74241      -0.93440       0.57562
                        -----------------------------------------
Magnitude (a.u.)       :      1.32499
Magnitude (Debye)      :      3.36787

                             ****ORCA TERMINATED NORMALLY****
TOTAL RUN TIME: 0 days 0 hours 14 minutes 20 seconds 43 msec
