                         Program Version 3.0.3 - RELEASE   -
|  1> ! RI-MP2 RIJK def2-TZVP def2-TZVP/C def2-TZVP/JK TIGHTSCF
|  2> % maxcore 2000
|  3> % mp2 density relaxed end
|  4> *xyz 0 1
|  5>  C        0.0471721716     1.5381443042     0.0992023852
|  6>  C       -0.0106566115     0.0049402881    -0.0157214542
|  7>  C       -1.4599225805    -0.5038951325    -0.0313646381
|  8>  O       -2.0571747967    -0.1324365178     1.2003669732
|  9>  C        0.7114046873    -0.4797573649    -1.2331182537
| 10>  N        1.8090831209    -1.2310943565    -1.2086875382
| 11>  N        2.0496387662    -1.3769430502    -2.5055080668
| 12>  N        1.1818684085    -0.7748194830    -3.3034199359
| 13>  N        0.3215100577    -0.1968980782    -2.5074553220
| 14>  H        1.0794145058     1.8837417319     0.2051164945
| 15>  H       -0.3786578596     2.0059507142    -0.7938017236
| 16>  H       -0.5246032534     1.8618794575     0.9707999813
| 17>  H        0.4849548598    -0.4402857189     0.8530913319
| 18>  H       -1.9886117445    -0.0646627372    -0.8899773774
| 19>  H       -1.4624519034    -1.5973024370    -0.1616600450
| 20>  H       -2.9926859259    -0.3493946962     1.1590721121
| 21>  H        2.8331514579    -1.9038115434    -2.8614110731
| 22> *
| 23>
| 24>                          ****END OF INPUT****

CARTESIAN COORDINATES (ANGSTROEM)
---------------------------------
  C      0.047172    1.538144    0.099202
  C     -0.010657    0.004940   -0.015721
  C     -1.459923   -0.503895   -0.031365
  O     -2.057175   -0.132437    1.200367
  C      0.711405   -0.479757   -1.233118
  N      1.809083   -1.231094   -1.208688
  N      2.049639   -1.376943   -2.505508
  N      1.181868   -0.774819   -3.303420
  N      0.321510   -0.196898   -2.507455
  H      1.079415    1.883742    0.205116
  H     -0.378658    2.005951   -0.793802
  H     -0.524603    1.861879    0.970800
  H      0.484955   -0.440286    0.853091
  H     -1.988612   -0.064663   -0.889977
  H     -1.462452   -1.597302   -0.161660
  H     -2.992686   -0.349395    1.159072
  H      2.833151   -1.903812   -2.861411

 Total Charge           Charge          ....    0
 Multiplicity           Mult            ....    1
 Number of Electrons    NEL             ....   68
 Basis Dimension        Dim             ....  327

ORBITAL ENERGIES
----------------

  NO   OCC          E(Eh)            E(eV)
   0   2.0000     -20.561478      -559.5063
   1   2.0000     -15.700948      -427.2445
   2   2.0000     -15.673701      -426.5031
   3   2.0000     -15.624416      -425.1620
   4   2.0000     -15.607358      -424.6978
   5   2.0000     -11.303289      -307.5781
   6   2.0000     -11.282481      -307.0119
   7   2.0000     -11.246808      -306.0412
   8   2.0000     -11.215303      -305.1839
   9   2.0000      -1.500900       -40.8416
  10   2.0000      -1.366882       -37.1947
  11   2.0000      -1.261435       -34.3254
  12   2.0000      -1.191021       -32.4093
  13   2.0000      -1.066780       -29.0286
  14   2.0000      -0.928310       -25.2606
  15   2.0000      -0.918166       -24.9846
  16   2.0000      -0.879784       -23.9401
  17   2.0000      -0.807395       -21.9703
  18   2.0000      -0.749498       -20.3949
  19   2.0000      -0.708844       -19.2886
  20   2.0000      -0.683913       -18.6102
  21   2.0000      -0.652753       -17.7623
  22   2.0000      -0.616061       -16.7639
  23   2.0000      -0.596533       -16.2325
  24   2.0000      -0.568921       -15.4811
  25   2.0000      -0.546525       -14.8717
  26   2.0000      -0.521247       -14.1839
  27   2.0000      -0.510543       -13.8926
  28   2.0000      -0.498557       -13.5664
  29   2.0000      -0.486730       -13.2446
  30   2.0000      -0.465483       -12.6664
  31   2.0000      -0.449388       -12.2285
  32   2.0000      -0.444467       -12.0946
  33   2.0000      -0.396300       -10.7839
  34   0.0000       0.118056         3.2125
  35   0.0000       0.127347         3.4653
  36   0.0000       0.135690         3.6923
  37   0.0000       0.166174         4.5218
  38   0.0000       0.179237         4.8773

MULLIKEN ATOMIC CHARGES
-----------------------
   0 C :   -0.431997
   1 C :    0.035538
   2 C :   -0.104105
   3 O :   -0.467628
   4 C :    0.041807
   5 N :   -0.194348
   6 N :    0.036088
   7 N :   -0.119227
   8 N :   -0.163733
   9 H :    0.134640
  10 H :    0.139472
  11 H :    0.158839
  12 H :    0.106631
  13 H :    0.123328
  14 H :    0.106301
  15 H :    0.320217
  16 H :    0.278177
Sum of atomic charges:   -0.0000000

LOEWDIN ATOMIC CHARGES
----------------------
   0 C :   -0.278806
   1 C :   -0.253799
   2 C :   -0.321403
   3 O :   -0.043451
   4 C :   -0.346904
   5 N :    0.048659
   6 N :    0.058956
   7 N :   -0.053313
   8 N :    0.026120
   9 H :    0.125246
  10 H :    0.129025
  11 H :    0.130781
  12 H :    0.167372
  13 H :    0.124343
  14 H :    0.120482
  15 H :    0.174863
  16 H :    0.191827

  Mayer bond orders larger than 0.1
B(  0-C ,  1-C ) :   0.9078 B(  0-C ,  9-H ) :   0.9361 B(  0-C , 10-H ) :   0.9286
B(  0-C , 11-H ) :   0.9317 B(  1-C ,  2-C ) :   0.9128 B(  1-C ,  4-C ) :   0.9077
B(  1-C , 12-H ) :   0.9238 B(  2-C ,  3-O ) :   1.0102 B(  2-C , 13-H ) :   0.9218
B(  2-C , 14-H ) :   0.9297 B(  3-O , 15-H ) :   0.8460 B(  4-C ,  5-N ) :   1.5381
B(  4-C ,  8-N ) :   1.3744 B(  5-N ,  6-N ) :   1.1153 B(  5-N ,  7-N ) :   0.1132
B(  6-N ,  7-N ) :   1.1206 B(  6-N , 16-H ) :   0.8619 B(  7-N ,  8-N ) :   1.2504

MP2 TOTAL ENERGY:     -450.588042228 Eh
FINAL SINGLE POINT ENERGY      -450.588042227557

DIPOLE MOMENT
-------------
                                X             Y             Z
Electronic contribution:      4.79805      -4.51816      -6.14017
Nuclear contribution   :     -4.57328       3.88592       6.18825
                        -----------------------------------------
Total Dipole Moment    :      0.22477      -0.63225       0.04808
                        -----------------------------------------
Magnitude (a.u.)       :      0.67273
Magnitude (Debye)      :      1.70994

                             ****ORCA TERMINATED NORMALLY****
TOTAL RUN TIME: 0 days 0 hours 16 minutes 8 seconds 997 msec
