                         Program Version 3.0.3 - RELEASE   -
|  1> ! RI-MP2 RIJK def2-TZVP def2-TZVP/C def2-TZVP/JK TIGHTSCF
|  2> % maxcore 2000
|  3> % mp2 density relaxed end
|  4> *xyz 0 1
|  5>  N        0.1240494127     1.3804001713    -0.1834820913
|  6>  C        0.0424024030    -0.0288178079    -0.0417657368
|  7>  C       -1.0511440477    -0.8327134893     0.1948252807
|  8>  N       -0.5973641828    -2.1134712338     0.3843086028
|  9>  C        0.7768428785    -2.1610303413     0.2115248961
| 10>  C        1.5123596508    -3.4495331856     0.3085744602
| 11>  O        1.0161199248    -4.4461709923    -0.5932276704
| 12>  C        1.1985285418    -0.8671071028    -0.0318737660
| 13>  N        2.4962814960    -0.3756260876    -0.2748637336
| 14>  H        0.4282260458     1.6425379529    -1.1169363367
| 15>  H       -0.7711656900     1.8245463736    -0.0172350650
| 16>  H       -2.0994904970    -0.5886633766     0.2634869140
| 17>  H       -1.1742069956    -2.9359572398     0.4026400945
| 18>  H        2.5866067004    -3.2683337323     0.1515047632
| 19>  H        1.4071268089    -3.9086493264     1.2998348737
| 20>  H        1.0098451039    -4.0446214835    -1.4693966017
| 21>  H        3.2172508565    -0.9412755958     0.1550039313
| 22>  H        2.5761221399     0.5738030171     0.0764073349
| 23> *
| 24>
| 25>                          ****END OF INPUT****

CARTESIAN COORDINATES (ANGSTROEM)
---------------------------------
  N      0.124049    1.380400   -0.183482
  C      0.042402   -0.028818   -0.041766
  C     -1.051144   -0.832713    0.194825
  N     -0.597364   -2.113471    0.384309
  C      0.776843   -2.161030    0.211525
  C      1.512360   -3.449533    0.308574
  O      1.016120   -4.446171   -0.593228
  C      1.198529   -0.867107   -0.031874
  N      2.496281   -0.375626   -0.274864
  H      0.428226    1.642538   -1.116936
  H     -0.771166    1.824546   -0.017235
  H     -2.099490   -0.588663    0.263487
  H     -1.174207   -2.935957    0.402640
  H      2.586607   -3.268334    0.151505
  H      1.407127   -3.908649    1.299835
  H      1.009845   -4.044621   -1.469397
  H      3.217251   -0.941276    0.155004
  H      2.576122    0.573803    0.076407

 Total Charge           Charge          ....    0
 Multiplicity           Mult            ....    1
 Number of Electrons    NEL             ....   68
 Basis Dimension        Dim             ....  333

ORBITAL ENERGIES
----------------

  NO   OCC          E(Eh)            E(eV)
   0   2.0000     -20.555232      -559.3363
   1   2.0000     -15.587465      -424.1565
   2   2.0000     -15.553872      -423.2424
   3   2.0000     -15.551493      -423.1776
   4   2.0000     -11.283678      -307.0445
   5   2.0000     -11.246060      -306.0208
   6   2.0000     -11.245925      -306.0172
   7   2.0000     -11.240641      -305.8734
   8   2.0000     -11.238842      -305.8244
   9   2.0000      -1.357561       -36.9411
  10   2.0000      -1.284061       -34.9411
  11   2.0000      -1.201795       -32.7025
  12   2.0000      -1.175344       -31.9827
  13   2.0000      -1.005618       -27.3643
  14   2.0000      -0.998388       -27.1675
  15   2.0000      -0.896872       -24.4051
  16   2.0000      -0.789521       -21.4840
  17   2.0000      -0.751054       -20.4372
  18   2.0000      -0.723930       -19.6991
  19   2.0000      -0.678190       -18.4545
  20   2.0000      -0.664944       -18.0940
  21   2.0000      -0.644628       -17.5412
  22   2.0000      -0.618023       -16.8173
  23   2.0000      -0.608680       -16.5630
  24   2.0000      -0.598890       -16.2966
  25   2.0000      -0.581839       -15.8327
  26   2.0000      -0.555637       -15.1197
  27   2.0000      -0.536585       -14.6012
  28   2.0000      -0.496168       -13.5014
  29   2.0000      -0.472327       -12.8527
  30   2.0000      -0.455761       -12.4019
  31   2.0000      -0.448880       -12.2146
  32   2.0000      -0.296563        -8.0699
  33   2.0000      -0.278402        -7.5757
  34   0.0000       0.131689         3.5834
  35   0.0000       0.136334         3.7098
  36   0.0000       0.150038         4.0827
  37   0.0000       0.158577         4.3151
  38   0.0000       0.183716         4.9992

MULLIKEN ATOMIC CHARGES
-----------------------
   0 N :   -0.577394
   1 C :    0.119325
   2 C :   -0.145628
   3 N :   -0.256711
   4 C :   -0.091623
   5 C :    0.000344
   6 O :   -0.476386
   7 C :    0.070527
   8 N :   -0.544938
   9 H :    0.257804
  10 H :    0.239431
  11 H :    0.133530
  12 H :    0.248726
  13 H :    0.095165
  14 H :    0.121785
  15 H :    0.314563
  16 H :    0.233738
  17 H :    0.257742
Sum of atomic charges:    0.0000000

LOEWDIN ATOMIC CHARGES
----------------------
   0 N :   -0.118000
   1 C :   -0.272510
   2 C :   -0.238362
   3 N :    0.187692
   4 C :   -0.251305
   5 C :   -0.319011
   6 O :   -0.064282
   7 C :   -0.239007
   8 N :   -0.102707
   9 H :    0.167093
  10 H :    0.163691
  11 H :    0.130309
  12 H :    0.192818
  13 H :    0.124844
  14 H :    0.133907
  15 H :    0.172883
  16 H :    0.161054
  17 H :    0.170893

  Mayer bond orders larger than 0.1
B(  0-N ,  1-C ) :   0.9178 B(  0-N ,  9-H ) :   0.8727 B(  0-N , 10-H ) :   0.8886
B(  1-C ,  2-C ) :   1.4972 B(  1-C ,  7-C ) :   1.2838 B(  2-C ,  3-N ) :   1.1454
B(  2-C , 11-H ) :   0.9173 B(  3-N ,  4-C ) :   1.1052 B(  3-N , 12-H ) :   0.8663
B(  4-C ,  5-C ) :   0.9464 B(  4-C ,  7-C ) :   1.4291 B(  5-C ,  6-O ) :   0.8866
B(  5-C , 13-H ) :   0.9546 B(  5-C , 14-H ) :   0.9187 B(  6-O , 15-H ) :   0.8429
B(  7-C ,  8-N ) :   1.0068 B(  8-N , 16-H ) :   0.8834 B(  8-N , 17-H ) :   0.8707

MP2 TOTAL ENERGY:     -434.569751294 Eh
FINAL SINGLE POINT ENERGY      -434.569751293832

DIPOLE MOMENT
-------------
                                X             Y             Z
Electronic contribution:     -1.68890      -1.01904      -0.00566
Nuclear contribution   :      1.32321       1.43624      -0.04267
                        -----------------------------------------
Total Dipole Moment    :     -0.36569       0.41720      -0.04834
                        -----------------------------------------
Magnitude (a.u.)       :      0.55689
Magnitude (Debye)      :      1.41549

                             ****ORCA TERMINATED NORMALLY****
TOTAL RUN TIME: 0 days 0 hours 15 minutes 17 seconds 878 msec
