                         Program Version 3.0.3 - RELEASE   -
|  1> ! RI-MP2 RIJK def2-TZVP def2-TZVP/C def2-TZVP/JK TIGHTSCF
|  2> % maxcore 2000
|  3> % mp2 density relaxed end
|  4> *xyz 0 1
|  5>  C       -0.0290933730     1.4330765974    -0.0884953841
|  6>  C       -0.0058539504    -0.0839290218    -0.0900455941
|  7>  O       -1.3560698718    -0.5371890841     0.0491745006
|  8>  C       -1.5363623064    -1.8684543261     0.0668201952
|  9>  N       -0.5368796889    -2.7382803984    -0.0356393819
| 10>  N       -1.1448616915    -3.9520566741     0.0255350577
| 11>  C       -0.3459718071    -5.1505675948    -0.0567207633
| 12>  C       -2.4865535115    -3.8437890224     0.1624285728
| 13>  C       -2.7940252697    -2.5006319787     0.1946571623
| 14>  H        0.9879097747     1.8227626310    -0.1931774028
| 15>  H       -0.6325278264     1.8131886988    -0.9177904116
| 16>  H       -0.4513371093     1.8141382063     0.8457715956
| 17>  H        0.4175072414    -0.4820485939    -1.0202705208
| 18>  H        0.5981301710    -0.4809856266     0.7349566211
| 19>  H       -1.0052504137    -6.0180259735     0.0100428449
| 20>  H        0.1981436083    -5.1854660340    -1.0054919190
| 21>  H        0.3785935728    -5.1864879910     0.7625143408
| 22>  H       -3.1147224624    -4.7189913875     0.2257602992
| 23>  H       -3.7612806261    -2.0386890764     0.2935852675
| 24> *
| 25>
| 26>                          ****END OF INPUT****

CARTESIAN COORDINATES (ANGSTROEM)
---------------------------------
  C     -0.029093    1.433077   -0.088495
  C     -0.005854   -0.083929   -0.090046
  O     -1.356070   -0.537189    0.049175
  C     -1.536362   -1.868454    0.066820
  N     -0.536880   -2.738280   -0.035639
  N     -1.144862   -3.952057    0.025535
  C     -0.345972   -5.150568   -0.056721
  C     -2.486554   -3.843789    0.162429
  C     -2.794025   -2.500632    0.194657
  H      0.987910    1.822763   -0.193177
  H     -0.632528    1.813189   -0.917790
  H     -0.451337    1.814138    0.845772
  H      0.417507   -0.482049   -1.020271
  H      0.598130   -0.480986    0.734957
  H     -1.005250   -6.018026    0.010043
  H      0.198144   -5.185466   -1.005492
  H      0.378594   -5.186488    0.762514
  H     -3.114722   -4.718991    0.225760
  H     -3.761281   -2.038689    0.293585

 Total Charge           Charge          ....    0
 Multiplicity           Mult            ....    1
 Number of Electrons    NEL             ....   68
 Basis Dimension        Dim             ....  339

ORBITAL ENERGIES
----------------

  NO   OCC          E(Eh)            E(eV)
   0   2.0000     -20.574726      -559.8667
   1   2.0000     -15.628698      -425.2785
   2   2.0000     -15.563998      -423.5179
   3   2.0000     -11.306971      -307.6783
   4   2.0000     -11.274979      -306.8078
   5   2.0000     -11.273317      -306.7625
   6   2.0000     -11.270857      -306.6956
   7   2.0000     -11.213105      -305.1241
   8   2.0000     -11.209514      -305.0264
   9   2.0000      -1.414698       -38.4959
  10   2.0000      -1.358264       -36.9602
  11   2.0000      -1.113619       -30.3031
  12   2.0000      -1.056531       -28.7497
  13   2.0000      -1.020403       -27.7666
  14   2.0000      -0.932907       -25.3857
  15   2.0000      -0.851411       -23.1681
  16   2.0000      -0.806027       -21.9331
  17   2.0000      -0.760495       -20.6941
  18   2.0000      -0.721054       -19.6209
  19   2.0000      -0.667988       -18.1769
  20   2.0000      -0.649370       -17.6702
  21   2.0000      -0.640271       -17.4227
  22   2.0000      -0.610531       -16.6134
  23   2.0000      -0.593490       -16.1497
  24   2.0000      -0.563410       -15.3312
  25   2.0000      -0.560649       -15.2560
  26   2.0000      -0.541749       -14.7418
  27   2.0000      -0.527866       -14.3640
  28   2.0000      -0.522566       -14.2197
  29   2.0000      -0.498375       -13.5615
  30   2.0000      -0.465559       -12.6685
  31   2.0000      -0.449050       -12.2193
  32   2.0000      -0.345461        -9.4005
  33   2.0000      -0.321633        -8.7521
  34   0.0000       0.140521         3.8238
  35   0.0000       0.151425         4.1205
  36   0.0000       0.153564         4.1787
  37   0.0000       0.174117         4.7380
  38   0.0000       0.195880         5.3302

MULLIKEN ATOMIC CHARGES
-----------------------
   0 C :   -0.359059
   1 C :   -0.049309
   2 O :   -0.273858
   3 C :    0.214545
   4 N :   -0.308726
   5 N :    0.102147
   6 C :   -0.301718
   7 C :   -0.102563
   8 C :   -0.257070
   9 H :    0.125548
  10 H :    0.129730
  11 H :    0.129748
  12 H :    0.110230
  13 H :    0.110220
  14 H :    0.139417
  15 H :    0.150572
  16 H :    0.150587
  17 H :    0.146992
  18 H :    0.142567
Sum of atomic charges:    0.0000000

LOEWDIN ATOMIC CHARGES
----------------------
   0 C :   -0.317276
   1 C :   -0.318892
   2 O :    0.245153
   3 C :   -0.397073
   4 N :    0.042773
   5 N :    0.165621
   6 C :   -0.279404
   7 C :   -0.231589
   8 C :   -0.186468
   9 H :    0.125675
  10 H :    0.124056
  11 H :    0.124063
  12 H :    0.124097
  13 H :    0.124091
  14 H :    0.126362
  15 H :    0.124266
  16 H :    0.124271
  17 H :    0.137069
  18 H :    0.143207

  Mayer bond orders larger than 0.1
B(  0-C ,  1-C ) :   0.9389 B(  0-C ,  9-H ) :   0.9360 B(  0-C , 10-H ) :   0.9350
B(  0-C , 11-H ) :   0.9350 B(  1-C ,  2-O ) :   0.8441 B(  1-C , 12-H ) :   0.9275
B(  1-C , 13-H ) :   0.9276 B(  2-O ,  3-C ) :   1.1062 B(  3-C ,  4-N ) :   1.4385
B(  3-C ,  8-C ) :   1.2897 B(  4-N ,  5-N ) :   0.9364 B(  4-N ,  7-C ) :   0.1058
B(  5-N ,  6-C ) :   0.8844 B(  5-N ,  7-C ) :   1.2169 B(  6-C , 14-H ) :   0.9295
B(  6-C , 15-H ) :   0.9287 B(  6-C , 16-H ) :   0.9287 B(  7-C ,  8-C ) :   1.4437
B(  7-C , 17-H ) :   0.9058 B(  8-C , 18-H ) :   0.9201

MP2 TOTAL ENERGY:     -418.514970554 Eh
FINAL SINGLE POINT ENERGY      -418.514970553980

DIPOLE MOMENT
-------------
                                X             Y             Z
Electronic contribution:     -4.13833      -3.04644       0.42827
Nuclear contribution   :      4.28166       2.24039      -0.44432
                        -----------------------------------------
Total Dipole Moment    :      0.14333      -0.80606      -0.01605
                        -----------------------------------------
Magnitude (a.u.)       :      0.81886
Magnitude (Debye)      :      2.08137

                             ****ORCA TERMINATED NORMALLY****
TOTAL RUN TIME: 0 days 0 hours 17 minutes 29 seconds 920 msec
