                         Program Version 3.0.3 - RELEASE   -
|  1> ! RI-MP2 RIJK def2-TZVP def2-TZVP/C def2-TZVP/JK TIGHTSCF
|  2> % maxcore 2000
|  3> % mp2 density relaxed end
|  4> *xyz 0 1
|  5>  C        0.0257172750     1.3634222285     0.0072412896
|  6>  O       -0.0415193034    -0.0735757474     0.0034708602
|  7>  C       -1.2622849862    -0.5821721678     0.0111063801
|  8>  N       -2.4076160357     0.0434230728     0.0215716457
|  9>  C       -3.3041841318    -1.0041734241     0.0251406682
| 10>  N       -2.7938694933    -2.2086502320     0.0177212318
| 11>  N       -1.4389659110    -1.9475240341     0.0083140664
| 12>  C       -0.4479704596    -2.9422868313    -0.0021666568
| 13>  O       -0.6704949321    -4.1173446359    -0.0040576691
| 14>  H        1.0881334461     1.6034835794    -0.0003896598
| 15>  H       -0.4698410216     1.7671378083    -0.8786207063
| 16>  H       -0.4558131023     1.7617951626     0.9032059093
| 17>  H       -4.3724595721    -0.8445665962     0.0336112325
| 18>  H        0.5549186582    -2.4849238128    -0.0083335317
| 19> *
| 20>
| 21>                          ****END OF INPUT****

CARTESIAN COORDINATES (ANGSTROEM)
---------------------------------
  C      0.025717    1.363422    0.007241
  O     -0.041519   -0.073576    0.003471
  C     -1.262285   -0.582172    0.011106
  N     -2.407616    0.043423    0.021572
  C     -3.304184   -1.004173    0.025141
  N     -2.793869   -2.208650    0.017721
  N     -1.438966   -1.947524    0.008314
  C     -0.447970   -2.942287   -0.002167
  O     -0.670495   -4.117345   -0.004058
  H      1.088133    1.603484   -0.000390
  H     -0.469841    1.767138   -0.878621
  H     -0.455813    1.761795    0.903206
  H     -4.372460   -0.844567    0.033611
  H      0.554919   -2.484924   -0.008334

 Total Charge           Charge          ....    0
 Multiplicity           Mult            ....    1
 Number of Electrons    NEL             ....   66
 Basis Dimension        Dim             ....  309

ORBITAL ENERGIES
----------------

  NO   OCC          E(Eh)            E(eV)
   0   2.0000     -20.642910      -561.7221
   1   2.0000     -20.566813      -559.6514
   2   2.0000     -15.668290      -426.3558
   3   2.0000     -15.606477      -424.6738
   4   2.0000     -15.575719      -423.8368
   5   2.0000     -11.407458      -310.4127
   6   2.0000     -11.383890      -309.7714
   7   2.0000     -11.314809      -307.8916
   8   2.0000     -11.314109      -307.8726
   9   2.0000      -1.493551       -40.6416
  10   2.0000      -1.434802       -39.0429
  11   2.0000      -1.396455       -37.9995
  12   2.0000      -1.229726       -33.4625
  13   2.0000      -1.145091       -31.1595
  14   2.0000      -1.000542       -27.2261
  15   2.0000      -0.925661       -25.1885
  16   2.0000      -0.855616       -23.2825
  17   2.0000      -0.816838       -22.2273
  18   2.0000      -0.770604       -20.9692
  19   2.0000      -0.719551       -19.5800
  20   2.0000      -0.691619       -18.8199
  21   2.0000      -0.664747       -18.0887
  22   2.0000      -0.657588       -17.8939
  23   2.0000      -0.651259       -17.7217
  24   2.0000      -0.624645       -16.9974
  25   2.0000      -0.565594       -15.3906
  26   2.0000      -0.559875       -15.2350
  27   2.0000      -0.531183       -14.4542
  28   2.0000      -0.521237       -14.1836
  29   2.0000      -0.480151       -13.0656
  30   2.0000      -0.456864       -12.4319
  31   2.0000      -0.437586       -11.9073
  32   2.0000      -0.379251       -10.3200
  33   0.0000       0.096558         2.6275
  34   0.0000       0.133899         3.6436
  35   0.0000       0.162605         4.4247
  36   0.0000       0.175876         4.7858
  37   0.0000       0.183711         4.9990

MULLIKEN ATOMIC CHARGES
-----------------------
   0 C :   -0.207184
   1 O :   -0.287517
   2 C :    0.339355
   3 N :   -0.346198
   4 C :    0.045692
   5 N :   -0.232810
   6 N :    0.070269
   7 C :    0.123138
   8 O :   -0.238047
   9 H :    0.154049
  10 H :    0.148412
  11 H :    0.148394
  12 H :    0.152326
  13 H :    0.130121
Sum of atomic charges:    0.0000000

LOEWDIN ATOMIC CHARGES
----------------------
   0 C :   -0.285527
   1 O :    0.243630
   2 C :   -0.428271
   3 N :    0.086829
   4 C :   -0.314804
   5 N :    0.070744
   6 N :    0.195880
   7 C :   -0.341122
   8 O :    0.155704
   9 H :    0.118350
  10 H :    0.118234
  11 H :    0.118230
  12 H :    0.135547
  13 H :    0.126577

  Mayer bond orders larger than 0.1
B(  0-C ,  1-O ) :   0.8252 B(  0-C ,  9-H ) :   0.9316 B(  0-C , 10-H ) :   0.9359
B(  0-C , 11-H ) :   0.9359 B(  1-O ,  2-C ) :   1.1221 B(  2-C ,  3-N ) :   1.5187
B(  2-C ,  6-N ) :   1.1566 B(  3-N ,  4-C ) :   1.1963 B(  4-C ,  5-N ) :   1.5751
B(  4-C , 12-H ) :   0.9321 B(  5-N ,  6-N ) :   0.9137 B(  6-N ,  7-C ) :   0.9338
B(  7-C ,  8-O ) :   2.0267 B(  7-C , 13-H ) :   0.9224

MP2 TOTAL ENERGY:     -469.277318164 Eh
FINAL SINGLE POINT ENERGY      -469.277318163739

DIPOLE MOMENT
-------------
                                X             Y             Z
Electronic contribution:     -1.96016      -6.00669      -0.00325
Nuclear contribution   :      2.78528       7.60182       0.00181
                        -----------------------------------------
Total Dipole Moment    :      0.82512       1.59513      -0.00144
                        -----------------------------------------
Magnitude (a.u.)       :      1.79591
Magnitude (Debye)      :      4.56483

                             ****ORCA TERMINATED NORMALLY****
TOTAL RUN TIME: 0 days 0 hours 14 minutes 12 seconds 982 msec
