                         Program Version 3.0.3 - RELEASE   -
|  1> ! RI-MP2 RIJK def2-TZVP def2-TZVP/C def2-TZVP/JK TIGHTSCF
|  2> % maxcore 2000
|  3> % mp2 density relaxed end
|  4> *xyz 0 1
|  5>  C       -0.0864534044     1.5665960322     0.0066085249
|  6>  C        0.0416172047     0.0533160999     0.0411181909
|  7>  N        1.1459861399    -0.5076045239    -0.7701224454
|  8>  C        1.7700572945    -1.1592652703     0.2736555037
|  9>  O        2.7220076019    -1.8918995748     0.3407808105
| 10>  C        0.7521414463    -0.5928253465     1.2471525722
| 11>  C        0.9693698990    -0.0779967963     2.6464883892
| 12>  C        0.1330961301    -1.3072608728     2.4041552410
| 13>  O       -1.2591469853    -1.2170407138     2.4826819183
| 14>  H        0.8695575070     2.0437263644     0.2405227039
| 15>  H       -0.4111181740     1.9089675931    -0.9816781814
| 16>  H       -0.8340023301     1.8984171291     0.7345375496
| 17>  H       -0.9214239779    -0.4239513965    -0.1717054809
| 18>  H        1.2232004861    -0.6528817495    -1.7659640087
| 19>  H        1.9590840613    -0.1940217773     3.0761074110
| 20>  H        0.4395812063     0.8282812005     2.9226158908
| 21>  H        0.5594799799    -2.2750872489     2.6675612656
| 22>  H       -1.5061555552    -1.2166905085     3.4136362147
| 23> *
| 24>
| 25>                          ****END OF INPUT****

CARTESIAN COORDINATES (ANGSTROEM)
---------------------------------
  C     -0.086453    1.566596    0.006609
  C      0.041617    0.053316    0.041118
  N      1.145986   -0.507605   -0.770122
  C      1.770057   -1.159265    0.273656
  O      2.722008   -1.891900    0.340781
  C      0.752141   -0.592825    1.247153
  C      0.969370   -0.077997    2.646488
  C      0.133096   -1.307261    2.404155
  O     -1.259147   -1.217041    2.482682
  H      0.869558    2.043726    0.240523
  H     -0.411118    1.908968   -0.981678
  H     -0.834002    1.898417    0.734538
  H     -0.921424   -0.423951   -0.171705
  H      1.223200   -0.652882   -1.765964
  H      1.959084   -0.194022    3.076107
  H      0.439581    0.828281    2.922616
  H      0.559480   -2.275087    2.667561
  H     -1.506156   -1.216691    3.413636

 Total Charge           Charge          ....    0
 Multiplicity           Mult            ....    1
 Number of Electrons    NEL             ....   68
 Basis Dimension        Dim             ....  333

ORBITAL ENERGIES
----------------

  NO   OCC          E(Eh)            E(eV)
   0   2.0000     -20.579151      -559.9872
   1   2.0000     -20.522123      -558.4353
   2   2.0000     -15.578205      -423.9045
   3   2.0000     -11.347505      -308.7813
   4   2.0000     -11.301277      -307.5234
   5   2.0000     -11.283754      -307.0466
   6   2.0000     -11.252352      -306.1921
   7   2.0000     -11.245102      -305.9948
   8   2.0000     -11.226396      -305.4858
   9   2.0000      -1.389875       -37.8204
  10   2.0000      -1.382071       -37.6081
  11   2.0000      -1.266694       -34.4685
  12   2.0000      -1.139725       -31.0135
  13   2.0000      -1.015477       -27.6325
  14   2.0000      -0.922375       -25.0991
  15   2.0000      -0.845079       -22.9958
  16   2.0000      -0.833178       -22.6719
  17   2.0000      -0.736032       -20.0285
  18   2.0000      -0.724275       -19.7085
  19   2.0000      -0.679009       -18.4768
  20   2.0000      -0.667861       -18.1734
  21   2.0000      -0.635804       -17.3011
  22   2.0000      -0.618745       -16.8369
  23   2.0000      -0.614659       -16.7257
  24   2.0000      -0.576991       -15.7007
  25   2.0000      -0.555888       -15.1265
  26   2.0000      -0.543031       -14.7766
  27   2.0000      -0.526847       -14.3362
  28   2.0000      -0.520240       -14.1564
  29   2.0000      -0.495972       -13.4961
  30   2.0000      -0.434046       -11.8110
  31   2.0000      -0.426553       -11.6071
  32   2.0000      -0.405705       -11.0398
  33   2.0000      -0.393369       -10.7041
  34   0.0000       0.127735         3.4759
  35   0.0000       0.140371         3.8197
  36   0.0000       0.156350         4.2545
  37   0.0000       0.173719         4.7271
  38   0.0000       0.177205         4.8220

MULLIKEN ATOMIC CHARGES
-----------------------
   0 C :   -0.438791
   1 C :    0.136389
   2 N :   -0.352326
   3 C :    0.230583
   4 O :   -0.318635
   5 C :    0.022000
   6 C :   -0.300406
   7 C :   -0.027202
   8 O :   -0.464793
   9 H :    0.140041
  10 H :    0.133306
  11 H :    0.132657
  12 H :    0.130233
  13 H :    0.233606
  14 H :    0.146178
  15 H :    0.143542
  16 H :    0.126705
  17 H :    0.326914
Sum of atomic charges:   -0.0000000

LOEWDIN ATOMIC CHARGES
----------------------
   0 C :   -0.292412
   1 C :   -0.222465
   2 N :    0.142377
   3 C :   -0.407247
   4 O :    0.099712
   5 C :   -0.160268
   6 C :   -0.182429
   7 C :   -0.290257
   8 O :    0.001328
   9 H :    0.128915
  10 H :    0.125332
  11 H :    0.129281
  12 H :    0.147785
  13 H :    0.170304
  14 H :    0.143527
  15 H :    0.142171
  16 H :    0.140710
  17 H :    0.183635

  Mayer bond orders larger than 0.1
B(  0-C ,  1-C ) :   0.8813 B(  0-C ,  9-H ) :   0.9443 B(  0-C , 10-H ) :   0.9328
B(  0-C , 11-H ) :   0.9347 B(  1-C ,  2-N ) :   0.8698 B(  1-C ,  5-C ) :   0.8560
B(  1-C , 12-H ) :   0.9308 B(  2-N ,  3-C ) :   1.1575 B(  2-N , 13-H ) :   0.8594
B(  3-C ,  4-O ) :   2.0430 B(  3-C ,  5-C ) :   0.8436 B(  5-C ,  6-C ) :   0.8273
B(  5-C ,  7-C ) :   0.7955 B(  5-C ,  8-O ) :  -0.1185 B(  6-C ,  7-C ) :   0.9501
B(  6-C , 14-H ) :   0.9101 B(  6-C , 15-H ) :   0.9234 B(  7-C ,  8-O ) :   1.0630
B(  7-C , 16-H ) :   0.9474 B(  8-O , 17-H ) :   0.8392

MP2 TOTAL ENERGY:     -438.367606836 Eh
FINAL SINGLE POINT ENERGY      -438.367606836469

DIPOLE MOMENT
-------------
                                X             Y             Z
Electronic contribution:      3.22986      -5.80816      -0.94691
Nuclear contribution   :     -4.27020       6.62716       1.27044
                        -----------------------------------------
Total Dipole Moment    :     -1.04034       0.81900       0.32353
                        -----------------------------------------
Magnitude (a.u.)       :      1.36299
Magnitude (Debye)      :      3.46445

                             ****ORCA TERMINATED NORMALLY****
TOTAL RUN TIME: 0 days 0 hours 16 minutes 2 seconds 781 msec
