                         Program Version 3.0.3 - RELEASE   -
|  1> ! RI-MP2 RIJK def2-TZVP def2-TZVP/C def2-TZVP/JK TIGHTSCF
|  2> % maxcore 2000
|  3> % mp2 density relaxed end
|  4> *xyz 0 1
|  5>  C        0.8138989451    -0.4116608671     1.3993643917
|  6>  C        0.1367266892     0.0827372000     0.1177741731
|  7>  C        0.7625736565    -0.3786638362    -1.2010662221
|  8>  C        0.6004253933     0.5901221394    -2.3673524892
|  9>  C        1.4763279968     1.8452391033    -2.2500707929
| 10>  N        2.0133215105    -1.1417509371    -1.1126033267
| 11>  C        0.7921378353    -1.8384258285    -1.5669608104
| 12>  C        0.2555293936    -2.8775945582    -0.7218520361
| 13>  N       -0.2169547852    -3.7130507688    -0.0765423979
| 14>  H        0.7896602556    -1.4996840470     1.4852231409
| 15>  H        1.8601429895    -0.0989483338     1.4345567904
| 16>  H        0.2980184434     0.0049195853     2.2698730481
| 17>  H       -0.9197712711    -0.2140336084     0.1111082692
| 18>  H        0.1357682367     1.1786055699     0.1225249904
| 19>  H        0.8422461455     0.0719541486    -3.3038594417
| 20>  H       -0.4548466728     0.8806826555    -2.4409263161
| 21>  H        1.2331424469     2.4328135509    -1.3602429828
| 22>  H        2.5388750548     1.5857776621    -2.1947349166
| 23>  H        1.3363165130     2.4913609275    -3.1213511622
| 24>  H        2.6131613799    -0.9630742376    -1.9154185144
| 25>  H        0.6989523234    -2.0713273098    -2.6248900550
| 26> *
| 27>
| 28>                          ****END OF INPUT****

CARTESIAN COORDINATES (ANGSTROEM)
---------------------------------
  C      0.813899   -0.411661    1.399364
  C      0.136727    0.082737    0.117774
  C      0.762574   -0.378664   -1.201066
  C      0.600425    0.590122   -2.367352
  C      1.476328    1.845239   -2.250071
  N      2.013322   -1.141751   -1.112603
  C      0.792138   -1.838426   -1.566961
  C      0.255529   -2.877595   -0.721852
  N     -0.216955   -3.713051   -0.076542
  H      0.789660   -1.499684    1.485223
  H      1.860143   -0.098948    1.434557
  H      0.298018    0.004920    2.269873
  H     -0.919771   -0.214034    0.111108
  H      0.135768    1.178606    0.122525
  H      0.842246    0.071954   -3.303859
  H     -0.454847    0.880683   -2.440926
  H      1.233142    2.432814   -1.360243
  H      2.538875    1.585778   -2.194735
  H      1.336317    2.491361   -3.121351
  H      2.613161   -0.963074   -1.915419
  H      0.698952   -2.071327   -2.624890

 Total Charge           Charge          ....    0
 Multiplicity           Mult            ....    1
 Number of Electrons    NEL             ....   68
 Basis Dimension        Dim             ....  351

ORBITAL ENERGIES
----------------

  NO   OCC          E(Eh)            E(eV)
   0   2.0000     -15.587599      -424.1601
   1   2.0000     -15.569117      -423.6572
   2   2.0000     -11.307683      -307.6977
   3   2.0000     -11.297397      -307.4178
   4   2.0000     -11.272466      -306.7394
   5   2.0000     -11.251159      -306.1596
   6   2.0000     -11.235922      -305.7450
   7   2.0000     -11.235378      -305.7302
   8   2.0000     -11.210808      -305.0616
   9   2.0000      -1.301224       -35.4081
  10   2.0000      -1.213013       -33.0078
  11   2.0000      -1.072122       -29.1739
  12   2.0000      -1.032230       -28.0884
  13   2.0000      -0.962755       -26.1979
  14   2.0000      -0.918551       -24.9950
  15   2.0000      -0.858332       -23.3564
  16   2.0000      -0.791737       -21.5443
  17   2.0000      -0.722261       -19.6537
  18   2.0000      -0.684103       -18.6154
  19   2.0000      -0.636025       -17.3071
  20   2.0000      -0.622840       -16.9483
  21   2.0000      -0.601872       -16.3778
  22   2.0000      -0.573353       -15.6017
  23   2.0000      -0.556597       -15.1458
  24   2.0000      -0.547494       -14.8981
  25   2.0000      -0.537871       -14.6362
  26   2.0000      -0.518897       -14.1199
  27   2.0000      -0.514007       -13.9868
  28   2.0000      -0.499198       -13.5839
  29   2.0000      -0.491907       -13.3855
  30   2.0000      -0.480447       -13.0736
  31   2.0000      -0.453482       -12.3399
  32   2.0000      -0.450061       -12.2468
  33   2.0000      -0.402251       -10.9458
  34   0.0000       0.112194         3.0529
  35   0.0000       0.142005         3.8641
  36   0.0000       0.145342         3.9549
  37   0.0000       0.159591         4.3427
  38   0.0000       0.173340         4.7168

MULLIKEN ATOMIC CHARGES
-----------------------
   0 C :   -0.395826
   1 C :   -0.245148
   2 C :    0.204216
   3 C :   -0.218895
   4 C :   -0.393295
   5 N :   -0.353680
   6 C :   -0.031712
   7 C :   -0.190558
   8 N :   -0.055936
   9 H :    0.152554
  10 H :    0.130293
  11 H :    0.130702
  12 H :    0.132099
  13 H :    0.114499
  14 H :    0.115145
  15 H :    0.128150
  16 H :    0.132368
  17 H :    0.127431
  18 H :    0.143227
  19 H :    0.221907
  20 H :    0.152458
Sum of atomic charges:   -0.0000000

LOEWDIN ATOMIC CHARGES
----------------------
   0 C :   -0.307134
   1 C :   -0.243677
   2 C :   -0.267248
   3 C :   -0.254520
   4 C :   -0.309240
   5 N :    0.060561
   6 C :   -0.231620
   7 C :   -0.173283
   8 N :    0.067986
   9 H :    0.128636
  10 H :    0.124467
  11 H :    0.122644
  12 H :    0.148469
  13 H :    0.142945
  14 H :    0.141293
  15 H :    0.148236
  16 H :    0.122164
  17 H :    0.121790
  18 H :    0.125040
  19 H :    0.172047
  20 H :    0.160444

  Mayer bond orders larger than 0.1
B(  0-C ,  1-C ) :   0.9382 B(  0-C ,  9-H ) :   0.9347 B(  0-C , 10-H ) :   0.9336
B(  0-C , 11-H ) :   0.9336 B(  1-C ,  2-C ) :   0.9217 B(  1-C , 12-H ) :   0.9272
B(  1-C , 13-H ) :   0.9341 B(  2-C ,  3-C ) :   0.9044 B(  2-C ,  5-N ) :   0.8773
B(  2-C ,  6-C ) :   0.8725 B(  3-C ,  4-C ) :   0.9216 B(  3-C , 14-H ) :   0.9305
B(  3-C , 15-H ) :   0.9231 B(  4-C , 16-H ) :   0.9328 B(  4-C , 17-H ) :   0.9377
B(  4-C , 18-H ) :   0.9388 B(  5-N ,  6-C ) :   0.9877 B(  5-N , 19-H ) :   0.8636
B(  6-C ,  7-C ) :   0.9340 B(  6-C , 20-H ) :   0.9018 B(  7-C ,  8-N ) :   2.8457

MP2 TOTAL ENERGY:     -382.591150500 Eh
FINAL SINGLE POINT ENERGY      -382.591150500236

DIPOLE MOMENT
-------------
                                X             Y             Z
Electronic contribution:     -1.44472     -11.09619      -0.16513
Nuclear contribution   :      1.74382      12.61754      -1.08179
                        -----------------------------------------
Total Dipole Moment    :      0.29910       1.52134      -1.24692
                        -----------------------------------------
Magnitude (a.u.)       :      1.98966
Magnitude (Debye)      :      5.05732

                             ****ORCA TERMINATED NORMALLY****
TOTAL RUN TIME: 0 days 0 hours 21 minutes 23 seconds 499 msec
