                         Program Version 3.0.3 - RELEASE   -
|  1> ! RI-MP2 RIJK def2-TZVP def2-TZVP/C def2-TZVP/JK TIGHTSCF
|  2> % maxcore 2000
|  3> % mp2 density relaxed end
|  4> *xyz 0 1
|  5>  O       -0.0726807441     1.3502349933     0.0228439036
|  6>  C        0.0792505087    -0.0274115159    -0.0112378075
|  7>  C        1.0899955530    -0.8092053639     0.8685048294
|  8>  C        0.8235063071    -1.9495220935    -0.1490464040
|  9>  O        1.6362976273    -3.0633570148    -0.2936000901
| 10>  C       -0.6907257584    -2.2477510563    -0.1297927508
| 11>  C       -0.9858733197    -1.4516647001    -1.3816479467
| 12>  C       -1.2409032390    -0.8268646881    -0.0279158143
| 13>  C        0.4658568264    -0.8967311893    -1.2814177756
| 14>  H        0.7960709624     1.7558179184    -0.0657488488
| 15>  H        2.1066719066    -0.4075539356     0.7571318342
| 16>  H        0.8621574352    -0.9732299818     1.9257865881
| 17>  H        2.5471978792    -2.7665903071    -0.3898583066
| 18>  H       -1.1916548673    -3.1160352846     0.2778221926
| 19>  H       -1.6546890515    -1.6514372958    -2.2072786568
| 20>  H       -2.1743336774    -0.5781675802     0.4597876046
| 21>  H        1.1373461316    -0.5797163948    -2.0765679913
| 22> *
| 23>
| 24>                          ****END OF INPUT****

CARTESIAN COORDINATES (ANGSTROEM)
---------------------------------
  O     -0.072681    1.350235    0.022844
  C      0.079251   -0.027412   -0.011238
  C      1.089996   -0.809205    0.868505
  C      0.823506   -1.949522   -0.149046
  O      1.636298   -3.063357   -0.293600
  C     -0.690726   -2.247751   -0.129793
  C     -0.985873   -1.451665   -1.381648
  C     -1.240903   -0.826865   -0.027916
  C      0.465857   -0.896731   -1.281418
  H      0.796071    1.755818   -0.065749
  H      2.106672   -0.407554    0.757132
  H      0.862157   -0.973230    1.925787
  H      2.547198   -2.766590   -0.389858
  H     -1.191655   -3.116035    0.277822
  H     -1.654689   -1.651437   -2.207279
  H     -2.174334   -0.578168    0.459788
  H      1.137346   -0.579716   -2.076568

 Total Charge           Charge          ....    0
 Multiplicity           Mult            ....    1
 Number of Electrons    NEL             ....   66
 Basis Dimension        Dim             ....  327

ORBITAL ENERGIES
----------------

  NO   OCC          E(Eh)            E(eV)
   0   2.0000     -20.567454      -559.6689
   1   2.0000     -20.567454      -559.6689
   2   2.0000     -11.294404      -307.3364
   3   2.0000     -11.294393      -307.3361
   4   2.0000     -11.234585      -305.7086
   5   2.0000     -11.232982      -305.6650
   6   2.0000     -11.231913      -305.6359
   7   2.0000     -11.231365      -305.6210
   8   2.0000     -11.224738      -305.4407
   9   2.0000      -1.382922       -37.6312
  10   2.0000      -1.375629       -37.4328
  11   2.0000      -1.243009       -33.8240
  12   2.0000      -1.038737       -28.2655
  13   2.0000      -0.919937       -25.0328
  14   2.0000      -0.913857       -24.8673
  15   2.0000      -0.823120       -22.3982
  16   2.0000      -0.749313       -20.3898
  17   2.0000      -0.741023       -20.1643
  18   2.0000      -0.710432       -19.3318
  19   2.0000      -0.662245       -18.0206
  20   2.0000      -0.653496       -17.7825
  21   2.0000      -0.627638       -17.0789
  22   2.0000      -0.617059       -16.7910
  23   2.0000      -0.575276       -15.6541
  24   2.0000      -0.560993       -15.2654
  25   2.0000      -0.557487       -15.1700
  26   2.0000      -0.532623       -14.4934
  27   2.0000      -0.476764       -12.9734
  28   2.0000      -0.461391       -12.5551
  29   2.0000      -0.413851       -11.2615
  30   2.0000      -0.411318       -11.1925
  31   2.0000      -0.387609       -10.5474
  32   2.0000      -0.351246        -9.5579
  33   0.0000       0.126621         3.4455
  34   0.0000       0.143805         3.9131
  35   0.0000       0.169050         4.6001
  36   0.0000       0.176807         4.8112
  37   0.0000       0.192573         5.2402

MULLIKEN ATOMIC CHARGES
-----------------------
   0 O :   -0.435234
   1 C :    0.127209
   2 C :   -0.229193
   3 C :    0.127215
   4 O :   -0.435233
   5 C :   -0.144229
   6 C :   -0.283227
   7 C :   -0.144223
   8 C :   -0.015744
   9 H :    0.321515
  10 H :    0.095633
  11 H :    0.119159
  12 H :    0.321515
  13 H :    0.139549
  14 H :    0.141730
  15 H :    0.139550
  16 H :    0.154010
Sum of atomic charges:   -0.0000000

LOEWDIN ATOMIC CHARGES
----------------------
   0 O :    0.032367
   1 C :   -0.309977
   2 C :   -0.184512
   3 C :   -0.309977
   4 O :    0.032367
   5 C :   -0.108348
   6 C :   -0.127792
   7 C :   -0.108348
   8 C :   -0.087153
   9 H :    0.181552
  10 H :    0.133900
  11 H :    0.129609
  12 H :    0.181552
  13 H :    0.141074
  14 H :    0.131235
  15 H :    0.141074
  16 H :    0.131376

  Mayer bond orders larger than 0.1
B(  0-O ,  1-C ) :   1.1051 B(  0-O ,  8-C ) :  -0.1059 B(  0-O ,  9-H ) :   0.8355
B(  1-C ,  2-C ) :   0.9684 B(  1-C ,  7-C ) :   0.8982 B(  1-C ,  8-C ) :   0.8363
B(  2-C ,  3-C ) :   0.9684 B(  2-C ,  8-C ) :  -0.1020 B(  2-C , 10-H ) :   0.9056
B(  2-C , 11-H ) :   0.9095 B(  3-C ,  4-O ) :   1.1051 B(  3-C ,  5-C ) :   0.8982
B(  3-C ,  8-C ) :   0.8363 B(  4-O ,  8-C ) :  -0.1060 B(  4-O , 12-H ) :   0.8355
B(  5-C ,  6-C ) :   0.8549 B(  5-C ,  7-C ) :   0.8614 B(  5-C , 13-H ) :   0.9260
B(  6-C ,  7-C ) :   0.8548 B(  6-C ,  8-C ) :   0.8314 B(  6-C , 14-H ) :   0.9056
B(  7-C , 15-H ) :   0.9260 B(  8-C , 16-H ) :   0.8762

MP2 TOTAL ENERGY:     -421.045668442 Eh
FINAL SINGLE POINT ENERGY      -421.045668442012

DIPOLE MOMENT
-------------
                                X             Y             Z
Electronic contribution:     -0.22901      -0.03744      -0.71468
Nuclear contribution   :      0.96925       0.32925       0.64238
                        -----------------------------------------
Total Dipole Moment    :      0.74023       0.29181      -0.07230
                        -----------------------------------------
Magnitude (a.u.)       :      0.79895
Magnitude (Debye)      :      2.03078

                             ****ORCA TERMINATED NORMALLY****
TOTAL RUN TIME: 0 days 0 hours 17 minutes 8 seconds 933 msec
