                         Program Version 3.0.3 - RELEASE   -
|  1> ! RI-MP2 RIJK def2-TZVP def2-TZVP/C def2-TZVP/JK TIGHTSCF
|  2> % maxcore 2000
|  3> % mp2 density relaxed end
|  4> *xyz 0 1
|  5>  N       -0.1551807480     1.4360999196    -0.3102667313
|  6>  C       -0.0367608284     0.0425271744    -0.0967014491
|  7>  C        0.6180615147    -0.7564623100     1.0288735155
|  8>  O       -0.4381736492    -1.7574488006     0.9776466005
|  9>  C       -1.1696344114    -0.9949192080     0.0173731733
| 10>  C       -2.5800818280    -0.8430724566     0.1234113242
| 11>  N       -3.7268837813    -0.7066277115     0.2019129797
| 12>  C       -0.3623263357    -0.8718127237    -1.2653577890
| 13>  O       -0.9467406386    -0.2625259301    -2.3530981798
| 14>  H       -0.5298339407     1.9334598732     0.4899211779
| 15>  H        0.7272882205     1.8595887983    -0.5795047656
| 16>  H        1.6065441841    -1.1892973753     0.8407862336
| 17>  H        0.6113994209    -0.2369305343     1.9953546202
| 18>  H        0.2801634015    -1.7127218199    -1.5183879888
| 19>  H       -1.0226588504     0.6809615345    -2.1355233913
| 20> *
| 21>
| 22>                          ****END OF INPUT****

CARTESIAN COORDINATES (ANGSTROEM)
---------------------------------
  N     -0.155181    1.436100   -0.310267
  C     -0.036761    0.042527   -0.096701
  C      0.618062   -0.756462    1.028874
  O     -0.438174   -1.757449    0.977647
  C     -1.169634   -0.994919    0.017373
  C     -2.580082   -0.843072    0.123411
  N     -3.726884   -0.706628    0.201913
  C     -0.362326   -0.871813   -1.265358
  O     -0.946741   -0.262526   -2.353098
  H     -0.529834    1.933460    0.489921
  H      0.727288    1.859589   -0.579505
  H      1.606544   -1.189297    0.840786
  H      0.611399   -0.236931    1.995355
  H      0.280163   -1.712722   -1.518388
  H     -1.022659    0.680962   -2.135523

 Total Charge           Charge          ....    0
 Multiplicity           Mult            ....    1
 Number of Electrons    NEL             ....   66
 Basis Dimension        Dim             ....  315

ORBITAL ENERGIES
----------------

  NO   OCC          E(Eh)            E(eV)
   0   2.0000     -20.594833      -560.4139
   1   2.0000     -20.583891      -560.1162
   2   2.0000     -15.599216      -424.4762
   3   2.0000     -15.580078      -423.9555
   4   2.0000     -11.340710      -308.5964
   5   2.0000     -11.325855      -308.1922
   6   2.0000     -11.318641      -307.9959
   7   2.0000     -11.314370      -307.8797
   8   2.0000     -11.281483      -306.9848
   9   2.0000      -1.438118       -39.1332
  10   2.0000      -1.399026       -38.0694
  11   2.0000      -1.242000       -33.7965
  12   2.0000      -1.222305       -33.2606
  13   2.0000      -1.111252       -30.2387
  14   2.0000      -0.996192       -27.1078
  15   2.0000      -0.898399       -24.4467
  16   2.0000      -0.833765       -22.6879
  17   2.0000      -0.752914       -20.4878
  18   2.0000      -0.735624       -20.0173
  19   2.0000      -0.715387       -19.4667
  20   2.0000      -0.676831       -18.4175
  21   2.0000      -0.645308       -17.5597
  22   2.0000      -0.634585       -17.2679
  23   2.0000      -0.611338       -16.6354
  24   2.0000      -0.574332       -15.6284
  25   2.0000      -0.564071       -15.3491
  26   2.0000      -0.558460       -15.1965
  27   2.0000      -0.519661       -14.1407
  28   2.0000      -0.499627       -13.5955
  29   2.0000      -0.475036       -12.9264
  30   2.0000      -0.461530       -12.5589
  31   2.0000      -0.424617       -11.5544
  32   2.0000      -0.381064       -10.3693
  33   0.0000       0.099808         2.7159
  34   0.0000       0.135419         3.6850
  35   0.0000       0.144630         3.9356
  36   0.0000       0.151848         4.1320
  37   0.0000       0.173116         4.7107

MULLIKEN ATOMIC CHARGES
-----------------------
   0 N :   -0.599146
   1 C :   -0.000604
   2 C :    0.012753
   3 O :   -0.302462
   4 C :    0.297992
   5 C :   -0.235757
   6 N :   -0.040694
   7 C :    0.071430
   8 O :   -0.449149
   9 H :    0.267085
  10 H :    0.260177
  11 H :    0.121128
  12 H :    0.105408
  13 H :    0.144026
  14 H :    0.347814
Sum of atomic charges:   -0.0000000

LOEWDIN ATOMIC CHARGES
----------------------
   0 N :   -0.098080
   1 C :   -0.284021
   2 C :   -0.213594
   3 O :    0.192637
   4 C :   -0.256143
   5 C :   -0.147691
   6 N :    0.088830
   7 C :   -0.252423
   8 O :    0.037451
   9 H :    0.171995
  10 H :    0.171941
  11 H :    0.125037
  12 H :    0.127590
  13 H :    0.147874
  14 H :    0.188597

  Mayer bond orders larger than 0.1
B(  0-N ,  1-C ) :   0.9957 B(  0-N ,  9-H ) :   0.8765 B(  0-N , 10-H ) :   0.8716
B(  1-C ,  2-C ) :   0.9864 B(  1-C ,  4-C ) :   0.7986 B(  1-C ,  7-C ) :   0.8781
B(  2-C ,  3-O ) :   0.9244 B(  2-C , 11-H ) :   0.9111 B(  2-C , 12-H ) :   0.9001
B(  3-O ,  4-C ) :   0.9592 B(  4-C ,  5-C ) :   0.9517 B(  4-C ,  7-C ) :   0.7865
B(  5-C ,  6-N ) :   2.8327 B(  7-C ,  8-O ) :   1.0579 B(  7-C , 13-H ) :   0.9387
B(  8-O , 14-H ) :   0.7994

MP2 TOTAL ENERGY:     -453.161047134 Eh
FINAL SINGLE POINT ENERGY      -453.161047134257

DIPOLE MOMENT
-------------
                                X             Y             Z
Electronic contribution:     -4.64203      -2.80779       0.07641
Nuclear contribution   :      6.79895       4.00840       0.33034
                        -----------------------------------------
Total Dipole Moment    :      2.15692       1.20061       0.40675
                        -----------------------------------------
Magnitude (a.u.)       :      2.50184
Magnitude (Debye)      :      6.35918

                             ****ORCA TERMINATED NORMALLY****
TOTAL RUN TIME: 0 days 0 hours 14 minutes 47 seconds 271 msec
