                         Program Version 3.0.3 - RELEASE   -
|  1> ! RI-MP2 RIJK def2-TZVP def2-TZVP/C def2-TZVP/JK TIGHTSCF
|  2> % maxcore 2000
|  3> % mp2 density relaxed end
|  4> *xyz 0 1
|  5>  N       -0.0801357364     1.3289713160    -0.0163415497
|  6>  C        0.0245727950    -0.0362469174    -0.0413003239
|  7>  O        1.0940604398    -0.6105597637    -0.1103085434
|  8>  C       -1.2700360744    -0.7732197523    -0.0103817334
|  9>  C       -1.3885836778    -2.1042465823     0.0205277218
| 10>  C       -2.8092070229    -2.4636423393     0.0352810110
| 11>  N       -3.3011849886    -3.6286062783     0.0670217102
| 12>  O       -3.5403961388    -1.2940822768     0.0079255368
| 13>  C       -2.6555278808    -0.1749513751    -0.0246887272
| 14>  H        0.7782858688     1.8516303961     0.0568872126
| 15>  H       -0.9358130567     1.7998261154     0.2225485151
| 16>  H       -0.5871405532    -2.8267203070     0.0318360858
| 17>  H       -4.3216662963    -3.5906171672     0.0690788385
| 18>  H       -2.8586381712     0.4629139463     0.8477590818
| 19>  H       -2.8537596667     0.4154659056    -0.9295128660
| 20> *
| 21>
| 22>                          ****END OF INPUT****

CARTESIAN COORDINATES (ANGSTROEM)
---------------------------------
  N     -0.080136    1.328971   -0.016342
  C      0.024573   -0.036247   -0.041300
  O      1.094060   -0.610560   -0.110309
  C     -1.270036   -0.773220   -0.010382
  C     -1.388584   -2.104247    0.020528
  C     -2.809207   -2.463642    0.035281
  N     -3.301185   -3.628606    0.067022
  O     -3.540396   -1.294082    0.007926
  C     -2.655528   -0.174951   -0.024689
  H      0.778286    1.851630    0.056887
  H     -0.935813    1.799826    0.222549
  H     -0.587141   -2.826720    0.031836
  H     -4.321666   -3.590617    0.069079
  H     -2.858638    0.462914    0.847759
  H     -2.853760    0.415466   -0.929513

 Total Charge           Charge          ....    0
 Multiplicity           Mult            ....    1
 Number of Electrons    NEL             ....   66
 Basis Dimension        Dim             ....  315

ORBITAL ENERGIES
----------------

  NO   OCC          E(Eh)            E(eV)
   0   2.0000     -20.609699      -560.8184
   1   2.0000     -20.537470      -558.8530
   2   2.0000     -15.606201      -424.6663
   3   2.0000     -15.545975      -423.0275
   4   2.0000     -11.379551      -309.6533
   5   2.0000     -11.351032      -308.8773
   6   2.0000     -11.325033      -308.1698
   7   2.0000     -11.279579      -306.9329
   8   2.0000     -11.271661      -306.7175
   9   2.0000      -1.447007       -39.3751
  10   2.0000      -1.402424       -38.1619
  11   2.0000      -1.234096       -33.5815
  12   2.0000      -1.207128       -32.8476
  13   2.0000      -1.123741       -30.5786
  14   2.0000      -0.988801       -26.9066
  15   2.0000      -0.905530       -24.6407
  16   2.0000      -0.804992       -21.9049
  17   2.0000      -0.786496       -21.4016
  18   2.0000      -0.758890       -20.6504
  19   2.0000      -0.701955       -19.1012
  20   2.0000      -0.696470       -18.9519
  21   2.0000      -0.676171       -18.3995
  22   2.0000      -0.650200       -17.6928
  23   2.0000      -0.613500       -16.6942
  24   2.0000      -0.597087       -16.2476
  25   2.0000      -0.568929       -15.4813
  26   2.0000      -0.550814       -14.9884
  27   2.0000      -0.549538       -14.9537
  28   2.0000      -0.455408       -12.3923
  29   2.0000      -0.451940       -12.2979
  30   2.0000      -0.449395       -12.2287
  31   2.0000      -0.436499       -11.8777
  32   2.0000      -0.373717       -10.1694
  33   0.0000       0.059406         1.6165
  34   0.0000       0.106008         2.8846
  35   0.0000       0.148819         4.0496
  36   0.0000       0.167853         4.5675
  37   0.0000       0.182809         4.9745

MULLIKEN ATOMIC CHARGES
-----------------------
   0 N :   -0.474972
   1 C :    0.255636
   2 O :   -0.328707
   3 C :    0.018620
   4 C :   -0.156613
   5 C :    0.179963
   6 N :   -0.363177
   7 O :   -0.267634
   8 C :   -0.062222
   9 H :    0.265951
  10 H :    0.258971
  11 H :    0.175761
  12 H :    0.227328
  13 H :    0.127396
  14 H :    0.143696
Sum of atomic charges:   -0.0000000

LOEWDIN ATOMIC CHARGES
----------------------
   0 N :   -0.009515
   1 C :   -0.449010
   2 O :    0.106118
   3 C :   -0.120510
   4 C :   -0.042352
   5 C :   -0.388275
   6 N :   -0.046495
   7 O :    0.236748
   8 C :   -0.242832
   9 H :    0.178361
  10 H :    0.170284
  11 H :    0.164311
  12 H :    0.170158
  13 H :    0.134541
  14 H :    0.138468

  Mayer bond orders larger than 0.1
B(  0-N ,  1-C ) :   1.1834 B(  0-N ,  9-H ) :   0.8587 B(  0-N , 10-H ) :   0.8694
B(  1-C ,  2-O ) :   2.0088 B(  1-C ,  3-C ) :   0.8768 B(  2-O ,  3-C ) :  -0.1072
B(  3-C ,  4-C ) :   1.6655 B(  3-C ,  8-C ) :   0.9237 B(  4-C ,  5-C ) :   0.9948
B(  4-C , 11-H ) :   0.9198 B(  5-C ,  6-N ) :   2.0123 B(  5-C ,  7-O ) :   1.0516
B(  6-N , 12-H ) :   0.8542 B(  7-O ,  8-C ) :   0.9196 B(  8-C , 13-H ) :   0.9086
B(  8-C , 14-H ) :   0.9138

MP2 TOTAL ENERGY:     -453.255297691 Eh
FINAL SINGLE POINT ENERGY      -453.255297691024

DIPOLE MOMENT
-------------
                                X             Y             Z
Electronic contribution:      0.86645      -2.09121      -0.11780
Nuclear contribution   :     -1.41685       4.08997       0.31820
                        -----------------------------------------
Total Dipole Moment    :     -0.55041       1.99876       0.20040
                        -----------------------------------------
Magnitude (a.u.)       :      2.08282
Magnitude (Debye)      :      5.29411

                             ****ORCA TERMINATED NORMALLY****
TOTAL RUN TIME: 0 days 0 hours 15 minutes 35 seconds 785 msec
