                         Program Version 3.0.3 - RELEASE   -
|  1> ! RI-MP2 RIJK def2-TZVP def2-TZVP/C def2-TZVP/JK TIGHTSCF
|  2> % maxcore 2000
|  3> % mp2 density relaxed end
|  4> *xyz 0 1
|  5>  O        0.2296442192     0.0554048201     0.0393631409
|  6>  C        0.1111257161     1.2517787459     0.0022682484
|  7>  N       -0.9701713218     2.0955240810    -0.0216447703
|  8>  C       -0.2051353738     3.3432555499     0.0970805535
|  9>  C        1.0805301686     2.4798884275     0.0002666932
| 10>  O        1.9190826092     2.6150914338     1.1104150619
| 11>  C        3.0052339560     1.6875326152     1.0875870652
| 12>  C        3.8546939363     1.9075771431     2.2481909610
| 13>  C        4.5732186364     2.0667615439     3.1968152803
| 14>  H       -1.9592172489     1.9088799452     0.0552289419
| 15>  H       -0.3702652112     4.0559329790    -0.7154079951
| 16>  H       -0.2975553544     3.8396120784     1.0668681811
| 17>  H        1.6312201921     2.5900095065    -0.9459048144
| 18>  H        2.6230335359     0.6579469699     1.0812154726
| 19>  H        3.5917437719     1.8225076917     0.1633580750
| 20>  H        5.2053591285     2.2086456588     4.0383023147
| 21> *
| 22>
| 23>                          ****END OF INPUT****

CARTESIAN COORDINATES (ANGSTROEM)
---------------------------------
  O      0.229644    0.055405    0.039363
  C      0.111126    1.251779    0.002268
  N     -0.970171    2.095524   -0.021645
  C     -0.205135    3.343256    0.097081
  C      1.080530    2.479888    0.000267
  O      1.919083    2.615091    1.110415
  C      3.005234    1.687533    1.087587
  C      3.854694    1.907577    2.248191
  C      4.573219    2.066762    3.196815
  H     -1.959217    1.908880    0.055229
  H     -0.370265    4.055933   -0.715408
  H     -0.297555    3.839612    1.066868
  H      1.631220    2.590010   -0.945905
  H      2.623034    0.657947    1.081215
  H      3.591744    1.822508    0.163358
  H      5.205359    2.208646    4.038302

 Total Charge           Charge          ....    0
 Multiplicity           Mult            ....    1
 Number of Electrons    NEL             ....   66
 Basis Dimension        Dim             ....  321

ORBITAL ENERGIES
----------------

  NO   OCC          E(Eh)            E(eV)
   0   2.0000     -20.585620      -560.1632
   1   2.0000     -20.536199      -558.8184
   2   2.0000     -15.595735      -424.3815
   3   2.0000     -11.358326      -309.0758
   4   2.0000     -11.313951      -307.8683
   5   2.0000     -11.313250      -307.8492
   6   2.0000     -11.287854      -307.1581
   7   2.0000     -11.238299      -305.8097
   8   2.0000     -11.230413      -305.5951
   9   2.0000      -1.414650       -38.4946
  10   2.0000      -1.389399       -37.8075
  11   2.0000      -1.275123       -34.6979
  12   2.0000      -1.065009       -28.9804
  13   2.0000      -1.004035       -27.3212
  14   2.0000      -0.941042       -25.6071
  15   2.0000      -0.906844       -24.6765
  16   2.0000      -0.795841       -21.6559
  17   2.0000      -0.734888       -19.9973
  18   2.0000      -0.713240       -19.4083
  19   2.0000      -0.691730       -18.8229
  20   2.0000      -0.684499       -18.6262
  21   2.0000      -0.664983       -18.0951
  22   2.0000      -0.638107       -17.3638
  23   2.0000      -0.609978       -16.5983
  24   2.0000      -0.568329       -15.4650
  25   2.0000      -0.558081       -15.1861
  26   2.0000      -0.550241       -14.9728
  27   2.0000      -0.514049       -13.9880
  28   2.0000      -0.484187       -13.1754
  29   2.0000      -0.410743       -11.1769
  30   2.0000      -0.409091       -11.1319
  31   2.0000      -0.402307       -10.9473
  32   2.0000      -0.389597       -10.6015
  33   0.0000       0.131321         3.5734
  34   0.0000       0.138295         3.7632
  35   0.0000       0.162951         4.4341
  36   0.0000       0.168234         4.5779
  37   0.0000       0.168606         4.5880

MULLIKEN ATOMIC CHARGES
-----------------------
   0 O :   -0.317107
   1 C :    0.200443
   2 N :   -0.315931
   3 C :   -0.085199
   4 C :    0.057099
   5 O :   -0.282446
   6 C :   -0.235006
   7 C :   -0.028073
   8 C :   -0.078817
   9 H :    0.240899
  10 H :    0.124087
  11 H :    0.135094
  12 H :    0.098772
  13 H :    0.167473
  14 H :    0.123930
  15 H :    0.194782
Sum of atomic charges:    0.0000000

LOEWDIN ATOMIC CHARGES
----------------------
   0 O :    0.101812
   1 C :   -0.431468
   2 N :    0.123764
   3 C :   -0.218411
   4 C :   -0.276567
   5 O :    0.193487
   6 C :   -0.288193
   7 C :   -0.103393
   8 C :   -0.083829
   9 H :    0.171389
  10 H :    0.123668
  11 H :    0.131785
  12 H :    0.137185
  13 H :    0.150308
  14 H :    0.140231
  15 H :    0.128233

  Mayer bond orders larger than 0.1
B(  0-O ,  1-C ) :   1.9923 B(  1-C ,  2-N ) :   1.1862 B(  1-C ,  4-C ) :   0.8424
B(  2-N ,  3-C ) :   0.9032 B(  2-N ,  9-H ) :   0.8582 B(  3-C ,  4-C ) :   0.9120
B(  3-C , 10-H ) :   0.9259 B(  3-C , 11-H ) :   0.9244 B(  4-C ,  5-O ) :   0.9555
B(  4-C , 12-H ) :   0.9003 B(  5-O ,  6-C ) :   0.9515 B(  6-C ,  7-C ) :   1.1016
B(  6-C ,  8-C ) :  -0.1048 B(  6-C , 13-H ) :   0.9227 B(  6-C , 14-H ) :   0.9205
B(  7-C ,  8-C ) :   2.6270 B(  8-C , 15-H ) :   0.8963

MP2 TOTAL ENERGY:     -437.114103465 Eh
FINAL SINGLE POINT ENERGY      -437.114103465419

DIPOLE MOMENT
-------------
                                X             Y             Z
Electronic contribution:     -0.66697      -2.26300       0.62597
Nuclear contribution   :      0.28387       3.29456      -0.94288
                        -----------------------------------------
Total Dipole Moment    :     -0.38310       1.03156      -0.31692
                        -----------------------------------------
Magnitude (a.u.)       :      1.14513
Magnitude (Debye)      :      2.91069

                             ****ORCA TERMINATED NORMALLY****
TOTAL RUN TIME: 0 days 0 hours 14 minutes 23 seconds 86 msec
