                         Program Version 3.0.3 - RELEASE   -
|  1> ! RI-MP2 RIJK def2-TZVP def2-TZVP/C def2-TZVP/JK TIGHTSCF
|  2> % maxcore 2000
|  3> % mp2 density relaxed end
|  4> *xyz 0 1
|  5>  O        0.0759191581     1.4033782569    -0.0072641996
|  6>  C       -0.0375336995     0.0154633365    -0.0761446834
|  7>  C       -0.4625191067    -0.7008901131     1.1855455294
|  8>  O       -0.7796629571     0.1361928212     2.2743905720
|  9>  C       -1.4074031622    -0.6621869346    -0.0009231214
| 10>  C       -2.6418287253     0.2115409963     0.0869920023
| 11>  C       -1.5178108777    -1.9691094381    -0.7442821390
| 12>  C       -2.7872223682    -2.7852114847    -0.7887372787
| 13>  C       -2.2734553538    -2.1170473914    -2.0420162501
| 14>  H       -0.1564430355     1.6429646997     0.9010249633
| 15>  H        0.7164619101    -0.4241062603    -0.7237840101
| 16>  H       -0.0209929445    -1.6567316191     1.4622130591
| 17>  H       -0.0007913146     0.1877632779     2.8393754593
| 18>  H       -2.3906010577     1.2092589544     0.4471520681
| 19>  H       -3.1039108423     0.3328211744    -0.8976138771
| 20>  H       -3.3876912534    -0.2128346984     0.7661658419
| 21>  H       -0.6043876679    -2.5579895233    -0.6926331343
| 22>  H       -2.7098416824    -3.8637273027    -0.7047035188
| 23>  H       -3.6775520470    -2.3695527689    -0.3304783166
| 24>  H       -2.8250907969    -1.2645181894    -2.4217717695
| 25>  H       -1.8348409353    -2.7363241331    -2.8167397867
| 26> *
| 27>
| 28>                          ****END OF INPUT****

CARTESIAN COORDINATES (ANGSTROEM)
---------------------------------
  O      0.075919    1.403378   -0.007264
  C     -0.037534    0.015463   -0.076145
  C     -0.462519   -0.700890    1.185546
  O     -0.779663    0.136193    2.274391
  C     -1.407403   -0.662187   -0.000923
  C     -2.641829    0.211541    0.086992
  C     -1.517811   -1.969109   -0.744282
  C     -2.787222   -2.785211   -0.788737
  C     -2.273455   -2.117047   -2.042016
  H     -0.156443    1.642965    0.901025
  H      0.716462   -0.424106   -0.723784
  H     -0.020993   -1.656732    1.462213
  H     -0.000791    0.187763    2.839375
  H     -2.390601    1.209259    0.447152
  H     -3.103911    0.332821   -0.897614
  H     -3.387691   -0.212835    0.766166
  H     -0.604388   -2.557990   -0.692633
  H     -2.709842   -3.863727   -0.704704
  H     -3.677552   -2.369553   -0.330478
  H     -2.825091   -1.264518   -2.421772
  H     -1.834841   -2.736324   -2.816740

 Total Charge           Charge          ....    0
 Multiplicity           Mult            ....    1
 Number of Electrons    NEL             ....   70
 Basis Dimension        Dim             ....  351

ORBITAL ENERGIES
----------------

  NO   OCC          E(Eh)            E(eV)
   0   2.0000     -20.580468      -560.0230
   1   2.0000     -20.555043      -559.3311
   2   2.0000     -11.283875      -307.0498
   3   2.0000     -11.276635      -306.8528
   4   2.0000     -11.238110      -305.8045
   5   2.0000     -11.235482      -305.7330
   6   2.0000     -11.223961      -305.4195
   7   2.0000     -11.222902      -305.3907
   8   2.0000     -11.212306      -305.1024
   9   2.0000      -1.395178       -37.9647
  10   2.0000      -1.356863       -36.9221
  11   2.0000      -1.160146       -31.5692
  12   2.0000      -1.103757       -30.0348
  13   2.0000      -0.961198       -26.1555
  14   2.0000      -0.849978       -23.1291
  15   2.0000      -0.830395       -22.5962
  16   2.0000      -0.818162       -22.2633
  17   2.0000      -0.750837       -20.4313
  18   2.0000      -0.715402       -19.4671
  19   2.0000      -0.701600       -19.0915
  20   2.0000      -0.660480       -17.9726
  21   2.0000      -0.637088       -17.3361
  22   2.0000      -0.608475       -16.5574
  23   2.0000      -0.586979       -15.9725
  24   2.0000      -0.582130       -15.8405
  25   2.0000      -0.553217       -15.0538
  26   2.0000      -0.539656       -14.6848
  27   2.0000      -0.524517       -14.2728
  28   2.0000      -0.511176       -13.9098
  29   2.0000      -0.504841       -13.7374
  30   2.0000      -0.482152       -13.1200
  31   2.0000      -0.450581       -12.2609
  32   2.0000      -0.431072       -11.7301
  33   2.0000      -0.381405       -10.3786
  34   2.0000      -0.357260        -9.7216
  35   0.0000       0.126685         3.4473
  36   0.0000       0.147925         4.0253
  37   0.0000       0.157112         4.2752
  38   0.0000       0.171502         4.6668
  39   0.0000       0.185054         5.0356

MULLIKEN ATOMIC CHARGES
-----------------------
   0 O :   -0.470065
   1 C :    0.044623
   2 C :   -0.050255
   3 O :   -0.476534
   4 C :    0.067784
   5 C :   -0.385657
   6 C :   -0.114509
   7 C :   -0.263344
   8 C :   -0.269404
   9 H :    0.329369
  10 H :    0.118882
  11 H :    0.110717
  12 H :    0.330274
  13 H :    0.124329
  14 H :    0.133204
  15 H :    0.138057
  16 H :    0.111861
  17 H :    0.128242
  18 H :    0.132524
  19 H :    0.130565
  20 H :    0.129338
Sum of atomic charges:   -0.0000000

LOEWDIN ATOMIC CHARGES
----------------------
   0 O :    0.001643
   1 C :   -0.287215
   2 C :   -0.286041
   3 O :   -0.007133
   4 C :   -0.228328
   5 C :   -0.255656
   6 C :   -0.190045
   7 C :   -0.222321
   8 C :   -0.223305
   9 H :    0.176458
  10 H :    0.138041
  11 H :    0.131528
  12 H :    0.183099
  13 H :    0.130544
  14 H :    0.129550
  15 H :    0.129542
  16 H :    0.153875
  17 H :    0.129412
  18 H :    0.134180
  19 H :    0.131964
  20 H :    0.130208

  Mayer bond orders larger than 0.1
B(  0-O ,  1-C ) :   0.9605 B(  0-O ,  9-H ) :   0.8176 B(  1-C ,  2-C ) :   0.9105
B(  1-C ,  4-C ) :   0.8395 B(  1-C , 10-H ) :   0.9452 B(  2-C ,  3-O ) :   1.0437
B(  2-C ,  4-C ) :   0.8312 B(  2-C , 11-H ) :   0.9410 B(  3-O , 12-H ) :   0.8362
B(  4-C ,  5-C ) :   0.9189 B(  4-C ,  6-C ) :   0.8689 B(  5-C , 13-H ) :   0.9151
B(  5-C , 14-H ) :   0.9417 B(  5-C , 15-H ) :   0.9381 B(  6-C ,  7-C ) :   0.8849
B(  6-C ,  8-C ) :   0.8923 B(  6-C , 16-H ) :   0.9118 B(  7-C ,  8-C ) :   0.9016
B(  7-C , 17-H ) :   0.9280 B(  7-C , 18-H ) :   0.9279 B(  8-C , 19-H ) :   0.9291
B(  8-C , 20-H ) :   0.9292

MP2 TOTAL ENERGY:     -423.481536286 Eh
FINAL SINGLE POINT ENERGY      -423.481536285549

DIPOLE MOMENT
-------------
                                X             Y             Z
Electronic contribution:      4.52895       3.03949       3.00664
Nuclear contribution   :     -4.23254      -3.62543      -2.48851
                        -----------------------------------------
Total Dipole Moment    :      0.29641      -0.58594       0.51813
                        -----------------------------------------
Magnitude (a.u.)       :      0.83645
Magnitude (Debye)      :      2.12608

                             ****ORCA TERMINATED NORMALLY****
TOTAL RUN TIME: 0 days 0 hours 17 minutes 52 seconds 229 msec
