                         Program Version 3.0.3 - RELEASE   -
|  1> ! RI-MP2 RIJK def2-TZVP def2-TZVP/C def2-TZVP/JK TIGHTSCF
|  2> % maxcore 2000
|  3> % mp2 density relaxed end
|  4> *xyz 0 1
|  5>  C       -0.6572822301    -0.6775325621    -1.0328499421
|  6>  C        0.1005286625    -1.4247704303     0.0450192228
|  7>  C        1.6113839614    -1.5331616137     0.0505641284
|  8>  C        2.4665424915    -0.7998921675    -0.9631754481
|  9>  C        0.8977647235    -0.8128373603     1.1822477904
| 10>  C        1.1042647562     0.6399974968     1.5177653590
| 11>  C        2.4939149787     0.9793461640     2.0231045911
| 12>  C        0.2513691352     1.7350240930     1.0192551817
| 13>  O        0.0567937636     1.2107072725     2.3294329243
| 14>  H       -0.1192622019     0.1940556494    -1.4102712973
| 15>  H       -0.8373741300    -1.3410475367    -1.8864227456
| 16>  H       -1.6344525766    -0.3393301704    -0.6713866448
| 17>  H       -0.4138157800    -2.3362051383     0.3415760802
| 18>  H        2.0087444357    -2.5120286923     0.3082645265
| 19>  H        2.1290927663     0.2258405277    -1.1331615325
| 20>  H        3.5083732644    -0.7479973212    -0.6287298641
| 21>  H        2.4593831480    -1.3158682530    -1.9299999785
| 22>  H        0.8441690989    -1.3878226613     2.1056419375
| 23>  H        3.2427538694     0.8630357879     1.2341683688
| 24>  H        2.5251021161     2.0083071212     2.3904033338
| 25>  H        2.7707869974     0.3141371763     2.8483098525
| 26>  H        0.6645028881     2.7437650813     0.9739704577
| 27>  H       -0.5554218080     1.5432277869     0.3189266383
| 28> *
| 29>
| 30>                          ****END OF INPUT****

CARTESIAN COORDINATES (ANGSTROEM)
---------------------------------
  C     -0.657282   -0.677533   -1.032850
  C      0.100529   -1.424770    0.045019
  C      1.611384   -1.533162    0.050564
  C      2.466542   -0.799892   -0.963175
  C      0.897765   -0.812837    1.182248
  C      1.104265    0.639997    1.517765
  C      2.493915    0.979346    2.023105
  C      0.251369    1.735024    1.019255
  O      0.056794    1.210707    2.329433
  H     -0.119262    0.194056   -1.410271
  H     -0.837374   -1.341048   -1.886423
  H     -1.634453   -0.339330   -0.671387
  H     -0.413816   -2.336205    0.341576
  H      2.008744   -2.512029    0.308265
  H      2.129093    0.225841   -1.133162
  H      3.508373   -0.747997   -0.628730
  H      2.459383   -1.315868   -1.930000
  H      0.844169   -1.387823    2.105642
  H      3.242754    0.863036    1.234168
  H      2.525102    2.008307    2.390403
  H      2.770787    0.314137    2.848310
  H      0.664503    2.743765    0.973970
  H     -0.555422    1.543228    0.318927

 Total Charge           Charge          ....    0
 Multiplicity           Mult            ....    1
 Number of Electrons    NEL             ....   70
 Basis Dimension        Dim             ....  363

ORBITAL ENERGIES
----------------

  NO   OCC          E(Eh)            E(eV)
   0   2.0000     -20.555493      -559.3434
   1   2.0000     -11.290447      -307.2287
   2   2.0000     -11.274552      -306.7962
   3   2.0000     -11.232880      -305.6622
   4   2.0000     -11.231690      -305.6298
   5   2.0000     -11.230470      -305.5966
   6   2.0000     -11.221655      -305.3567
   7   2.0000     -11.220360      -305.3215
   8   2.0000     -11.218572      -305.2729
   9   2.0000      -1.401099       -38.1259
  10   2.0000      -1.153995       -31.4018
  11   2.0000      -1.012466       -27.5506
  12   2.0000      -0.983097       -26.7514
  13   2.0000      -0.953305       -25.9408
  14   2.0000      -0.902411       -24.5559
  15   2.0000      -0.853475       -23.2242
  16   2.0000      -0.754882       -20.5414
  17   2.0000      -0.741948       -20.1894
  18   2.0000      -0.680521       -18.5179
  19   2.0000      -0.665779       -18.1168
  20   2.0000      -0.632602       -17.2140
  21   2.0000      -0.598636       -16.2897
  22   2.0000      -0.577988       -15.7278
  23   2.0000      -0.564287       -15.3550
  24   2.0000      -0.557705       -15.1759
  25   2.0000      -0.549337       -14.9482
  26   2.0000      -0.543469       -14.7885
  27   2.0000      -0.540009       -14.6944
  28   2.0000      -0.519062       -14.1244
  29   2.0000      -0.492474       -13.4009
  30   2.0000      -0.484502       -13.1840
  31   2.0000      -0.441567       -12.0157
  32   2.0000      -0.426335       -11.6012
  33   2.0000      -0.398413       -10.8414
  34   2.0000      -0.388305       -10.5663
  35   0.0000       0.130771         3.5585
  36   0.0000       0.152442         4.1482
  37   0.0000       0.159270         4.3340
  38   0.0000       0.172281         4.6880
  39   0.0000       0.185843         5.0570

MULLIKEN ATOMIC CHARGES
-----------------------
   0 C :   -0.441682
   1 C :   -0.060783
   2 C :   -0.090302
   3 C :   -0.434864
   4 C :   -0.118915
   5 C :    0.159244
   6 C :   -0.416804
   7 C :   -0.074160
   8 O :   -0.340484
   9 H :    0.128631
  10 H :    0.138958
  11 H :    0.145674
  12 H :    0.115644
  13 H :    0.116044
  14 H :    0.132594
  15 H :    0.139540
  16 H :    0.140383
  17 H :    0.123481
  18 H :    0.131025
  19 H :    0.138734
  20 H :    0.135021
  21 H :    0.109440
  22 H :    0.123581
Sum of atomic charges:   -0.0000000

LOEWDIN ATOMIC CHARGES
----------------------
   0 C :   -0.297864
   1 C :   -0.206694
   2 C :   -0.208884
   3 C :   -0.295733
   4 C :   -0.155862
   5 C :   -0.326433
   6 C :   -0.261256
   7 C :   -0.251871
   8 O :    0.163525
   9 H :    0.121947
  10 H :    0.127922
  11 H :    0.126256
  12 H :    0.150611
  13 H :    0.146106
  14 H :    0.125314
  15 H :    0.125064
  16 H :    0.126986
  17 H :    0.160856
  18 H :    0.128171
  19 H :    0.130787
  20 H :    0.131441
  21 H :    0.118553
  22 H :    0.121058

  Mayer bond orders larger than 0.1
B(  0-C ,  1-C ) :   0.8992 B(  0-C ,  9-H ) :   0.9438 B(  0-C , 10-H ) :   0.9334
B(  0-C , 11-H ) :   0.9398 B(  1-C ,  2-C ) :   0.8731 B(  1-C ,  4-C ) :   0.8829
B(  1-C , 12-H ) :   0.9301 B(  2-C ,  3-C ) :   0.9008 B(  2-C ,  4-C ) :   0.8588
B(  2-C , 13-H ) :   0.9257 B(  3-C , 14-H ) :   0.9388 B(  3-C , 15-H ) :   0.9401
B(  3-C , 16-H ) :   0.9358 B(  4-C ,  5-C ) :   0.9310 B(  4-C , 17-H ) :   0.9263
B(  5-C ,  6-C ) :   0.8798 B(  5-C ,  7-C ) :   0.9799 B(  5-C ,  8-O ) :   0.8201
B(  6-C , 18-H ) :   0.9342 B(  6-C , 19-H ) :   0.9354 B(  6-C , 20-H ) :   0.9394
B(  7-C ,  8-O ) :   0.9230 B(  7-C , 21-H ) :   0.9151 B(  7-C , 22-H ) :   0.8989

MP2 TOTAL ENERGY:     -387.580355209 Eh
FINAL SINGLE POINT ENERGY      -387.580355208647

DIPOLE MOMENT
-------------
                                X             Y             Z
Electronic contribution:     -2.97472       1.19517       5.57798
Nuclear contribution   :      3.38238      -1.36982      -6.27297
                        -----------------------------------------
Total Dipole Moment    :      0.40766      -0.17465      -0.69498
                        -----------------------------------------
Magnitude (a.u.)       :      0.82443
Magnitude (Debye)      :      2.09554

                             ****ORCA TERMINATED NORMALLY****
TOTAL RUN TIME: 0 days 0 hours 20 minutes 3 seconds 102 msec
