                         Program Version 3.0.3 - RELEASE   -
|  1> ! RI-MP2 RIJK def2-TZVP def2-TZVP/C def2-TZVP/JK TIGHTSCF
|  2> % maxcore 2000
|  3> % mp2 density relaxed end
|  4> *xyz 0 1
|  5>  C       -0.3058858575     1.5493308762     0.0827175322
|  6>  C        0.0284440167     0.0645393844    -0.0353947980
|  7>  C        0.7829607752    -0.4594492852    -1.2853448673
|  8>  C        2.1578799629     0.2388817080    -1.4119156474
|  9>  C        2.9729943958    -0.3565332347    -0.2199028863
| 10>  C        1.9712546349    -1.3542680991     0.4389389959
| 11>  C        1.2019349372    -1.8672731895    -0.7977599398
| 12>  C        0.9249691761    -0.4630541689     1.1034463343
| 13>  O        0.8307528282    -0.1817985079     2.2713351251
| 14>  H        0.5843842970     2.1793513377    -0.0044412411
| 15>  H       -1.0167312533     1.8596000752    -0.6893033063
| 16>  H       -0.7499110430     1.7464046003     1.0623232369
| 17>  H       -0.9107658595    -0.5046074968     0.0395386627
| 18>  H        0.1849366799    -0.4311849797    -2.1981883408
| 19>  H        2.6231660045    -0.0118949690    -2.3694000448
| 20>  H        2.0859607794     1.3279974455    -1.3698633521
| 21>  H        3.8541102111    -0.9016339185    -0.5698756613
| 22>  H        3.3185455319     0.4025106004     0.4864035216
| 23>  H        2.4278498838    -2.0770602442     1.1137326806
| 24>  H        0.3526075139    -2.5108631710    -0.5484787726
| 25>  H        1.8472699149    -2.3943042432    -1.5069327718
| 26> *
| 27>
| 28>                          ****END OF INPUT****

CARTESIAN COORDINATES (ANGSTROEM)
---------------------------------
  C     -0.305886    1.549331    0.082718
  C      0.028444    0.064539   -0.035395
  C      0.782961   -0.459449   -1.285345
  C      2.157880    0.238882   -1.411916
  C      2.972994   -0.356533   -0.219903
  C      1.971255   -1.354268    0.438939
  C      1.201935   -1.867273   -0.797760
  C      0.924969   -0.463054    1.103446
  O      0.830753   -0.181799    2.271335
  H      0.584384    2.179351   -0.004441
  H     -1.016731    1.859600   -0.689303
  H     -0.749911    1.746405    1.062323
  H     -0.910766   -0.504607    0.039539
  H      0.184937   -0.431185   -2.198188
  H      2.623166   -0.011895   -2.369400
  H      2.085961    1.327997   -1.369863
  H      3.854110   -0.901634   -0.569876
  H      3.318546    0.402511    0.486404
  H      2.427850   -2.077060    1.113733
  H      0.352608   -2.510863   -0.548479
  H      1.847270   -2.394304   -1.506933

 Total Charge           Charge          ....    0
 Multiplicity           Mult            ....    1
 Number of Electrons    NEL             ....   68
 Basis Dimension        Dim             ....  351

ORBITAL ENERGIES
----------------

  NO   OCC          E(Eh)            E(eV)
   0   2.0000     -20.538419      -558.8788
   1   2.0000     -11.319081      -308.0079
   2   2.0000     -11.239267      -305.8360
   3   2.0000     -11.238283      -305.8092
   4   2.0000     -11.238126      -305.8050
   5   2.0000     -11.235552      -305.7349
   6   2.0000     -11.233460      -305.6780
   7   2.0000     -11.229551      -305.5716
   8   2.0000     -11.219735      -305.3045
   9   2.0000      -1.382089       -37.6086
  10   2.0000      -1.176801       -32.0224
  11   2.0000      -1.041712       -28.3464
  12   2.0000      -0.986045       -26.8316
  13   2.0000      -0.965522       -26.2732
  14   2.0000      -0.890195       -24.2234
  15   2.0000      -0.810087       -22.0436
  16   2.0000      -0.774436       -21.0735
  17   2.0000      -0.708360       -19.2755
  18   2.0000      -0.684805       -18.6345
  19   2.0000      -0.661888       -18.0109
  20   2.0000      -0.628555       -17.1038
  21   2.0000      -0.603378       -16.4187
  22   2.0000      -0.585114       -15.9218
  23   2.0000      -0.570019       -15.5110
  24   2.0000      -0.538139       -14.6435
  25   2.0000      -0.530003       -14.4221
  26   2.0000      -0.516212       -14.0468
  27   2.0000      -0.506120       -13.7722
  28   2.0000      -0.502953       -13.6860
  29   2.0000      -0.491324       -13.3696
  30   2.0000      -0.472226       -12.8499
  31   2.0000      -0.450855       -12.2684
  32   2.0000      -0.443563       -12.0700
  33   2.0000      -0.381456       -10.3799
  34   0.0000       0.121185         3.2976
  35   0.0000       0.149615         4.0712
  36   0.0000       0.154924         4.2157
  37   0.0000       0.160770         4.3748
  38   0.0000       0.166712         4.5365

MULLIKEN ATOMIC CHARGES
-----------------------
   0 C :   -0.416240
   1 C :   -0.091639
   2 C :    0.037240
   3 C :   -0.321146
   4 C :   -0.279544
   5 C :    0.063844
   6 C :   -0.309822
   7 C :    0.035333
   8 O :   -0.270541
   9 H :    0.123127
  10 H :    0.135126
  11 H :    0.155096
  12 H :    0.119141
  13 H :    0.123619
  14 H :    0.124550
  15 H :    0.127481
  16 H :    0.129282
  17 H :    0.132642
  18 H :    0.129741
  19 H :    0.128948
  20 H :    0.123763
Sum of atomic charges:   -0.0000000

LOEWDIN ATOMIC CHARGES
----------------------
   0 C :   -0.285462
   1 C :   -0.220484
   2 C :   -0.207653
   3 C :   -0.224437
   4 C :   -0.211619
   5 C :   -0.197968
   6 C :   -0.199563
   7 C :   -0.275271
   8 O :    0.151929
   9 H :    0.123341
  10 H :    0.124481
  11 H :    0.133743
  12 H :    0.170941
  13 H :    0.143501
  14 H :    0.136364
  15 H :    0.133469
  16 H :    0.138412
  17 H :    0.138859
  18 H :    0.148293
  19 H :    0.139177
  20 H :    0.139946

  Mayer bond orders larger than 0.1
B(  0-C ,  1-C ) :   0.8927 B(  0-C ,  9-H ) :   0.9358 B(  0-C , 10-H ) :   0.9401
B(  0-C , 11-H ) :   0.9338 B(  1-C ,  2-C ) :   0.8775 B(  1-C ,  5-C ) :  -0.1114
B(  1-C ,  7-C ) :   0.8971 B(  1-C , 12-H ) :   0.8914 B(  2-C ,  3-C ) :   0.8877
B(  2-C ,  6-C ) :   0.8875 B(  2-C , 13-H ) :   0.9131 B(  3-C ,  4-C ) :   0.9581
B(  3-C , 14-H ) :   0.9247 B(  3-C , 15-H ) :   0.9364 B(  4-C ,  5-C ) :   0.8584
B(  4-C , 16-H ) :   0.9222 B(  4-C , 17-H ) :   0.9281 B(  5-C ,  6-C ) :   0.9150
B(  5-C ,  7-C ) :   0.8696 B(  5-C , 18-H ) :   0.9120 B(  6-C , 19-H ) :   0.9241
B(  6-C , 20-H ) :   0.9164 B(  7-C ,  8-O ) :   2.0545

MP2 TOTAL ENERGY:     -386.466448670 Eh
FINAL SINGLE POINT ENERGY      -386.466448669597

DIPOLE MOMENT
-------------
                                X             Y             Z
Electronic contribution:     -0.43686      -2.24216       5.34593
Nuclear contribution   :      0.55464       2.03436      -6.49750
                        -----------------------------------------
Total Dipole Moment    :      0.11778      -0.20780      -1.15157
                        -----------------------------------------
Magnitude (a.u.)       :      1.17608
Magnitude (Debye)      :      2.98936

                             ****ORCA TERMINATED NORMALLY****
TOTAL RUN TIME: 0 days 0 hours 21 minutes 55 seconds 941 msec
