                         Program Version 3.0.3 - RELEASE   -
|  1> ! RI-MP2 RIJK def2-TZVP def2-TZVP/C def2-TZVP/JK TIGHTSCF
|  2> % maxcore 2000
|  3> % mp2 density relaxed end
|  4> *xyz 0 1
|  5>  O        0.1037532908     1.4263329011     0.1022908827
|  6>  C        0.0254136554     0.0196021797    -0.0685403280
|  7>  C       -1.3827022598    -0.5216036206     0.2017262614
|  8>  C       -1.4625883203    -2.0376697306     0.0527739158
|  9>  C       -2.8320474002    -2.7432624987     0.0942591067
| 10>  N       -3.5937514110    -2.2210995655    -1.0437461018
| 11>  C       -2.6349727035    -3.3662703227    -1.2587378960
| 12>  C       -1.2783170325    -2.7015543999    -1.3522649024
| 13>  O       -0.3605073770    -2.7675084101    -2.1166862695
| 14>  H       -0.4281572337     1.8339573960    -0.5884975696
| 15>  H        0.3626247070    -0.2887090634    -1.0685180022
| 16>  H        0.7341238724    -0.4043220214     0.6522858252
| 17>  H       -1.6830977366    -0.2290208025     1.2153203627
| 18>  H       -2.0962680172    -0.0603805618    -0.4906751792
| 19>  H       -0.7547447772    -2.5381983286     0.7275079748
| 20>  H       -3.3158962828    -3.1810559495     0.9576222657
| 21>  H       -4.5231652362    -2.6417118895    -1.0239019807
| 22>  H       -2.9812379176    -4.3046131619    -1.6722803355
| 23> *
| 24>
| 25>                          ****END OF INPUT****

CARTESIAN COORDINATES (ANGSTROEM)
---------------------------------
  O      0.103753    1.426333    0.102291
  C      0.025414    0.019602   -0.068540
  C     -1.382702   -0.521604    0.201726
  C     -1.462588   -2.037670    0.052774
  C     -2.832047   -2.743262    0.094259
  N     -3.593751   -2.221100   -1.043746
  C     -2.634973   -3.366270   -1.258738
  C     -1.278317   -2.701554   -1.352265
  O     -0.360507   -2.767508   -2.116686
  H     -0.428157    1.833957   -0.588498
  H      0.362625   -0.288709   -1.068518
  H      0.734124   -0.404322    0.652286
  H     -1.683098   -0.229021    1.215320
  H     -2.096268   -0.060381   -0.490675
  H     -0.754745   -2.538198    0.727508
  H     -3.315896   -3.181056    0.957622
  H     -4.523165   -2.641712   -1.023902
  H     -2.981238   -4.304613   -1.672280

 Total Charge           Charge          ....    0
 Multiplicity           Mult            ....    1
 Number of Electrons    NEL             ....   68
 Basis Dimension        Dim             ....  333

ORBITAL ENERGIES
----------------

  NO   OCC          E(Eh)            E(eV)
   0   2.0000     -20.559454      -559.4512
   1   2.0000     -20.551877      -559.2450
   2   2.0000     -15.593980      -424.3338
   3   2.0000     -11.343408      -308.6698
   4   2.0000     -11.292759      -307.2916
   5   2.0000     -11.286215      -307.1135
   6   2.0000     -11.271886      -306.7236
   7   2.0000     -11.259390      -306.3836
   8   2.0000     -11.230125      -305.5872
   9   2.0000      -1.404245       -38.2114
  10   2.0000      -1.355850       -36.8946
  11   2.0000      -1.306265       -35.5453
  12   2.0000      -1.086433       -29.5633
  13   2.0000      -1.004490       -27.3336
  14   2.0000      -0.907667       -24.6989
  15   2.0000      -0.851096       -23.1595
  16   2.0000      -0.822944       -22.3934
  17   2.0000      -0.753768       -20.5111
  18   2.0000      -0.709394       -19.3036
  19   2.0000      -0.692593       -18.8464
  20   2.0000      -0.648085       -17.6353
  21   2.0000      -0.636113       -17.3095
  22   2.0000      -0.630552       -17.1582
  23   2.0000      -0.594976       -16.1901
  24   2.0000      -0.567894       -15.4532
  25   2.0000      -0.553028       -15.0487
  26   2.0000      -0.546860       -14.8808
  27   2.0000      -0.523075       -14.2336
  28   2.0000      -0.515327       -14.0227
  29   2.0000      -0.482622       -13.1328
  30   2.0000      -0.478192       -13.0123
  31   2.0000      -0.441112       -12.0033
  32   2.0000      -0.409226       -11.1356
  33   2.0000      -0.386234       -10.5100
  34   0.0000       0.113400         3.0858
  35   0.0000       0.141463         3.8494
  36   0.0000       0.147020         4.0006
  37   0.0000       0.152427         4.1478
  38   0.0000       0.167835         4.5670

MULLIKEN ATOMIC CHARGES
-----------------------
   0 O :   -0.472011
   1 C :   -0.043366
   2 C :   -0.269348
   3 C :   -0.018809
   4 C :   -0.070752
   5 N :   -0.377642
   6 C :   -0.084290
   7 C :    0.123952
   8 O :   -0.253718
   9 H :    0.314214
  10 H :    0.131847
  11 H :    0.106069
  12 H :    0.120349
  13 H :    0.132273
  14 H :    0.124632
  15 H :    0.154234
  16 H :    0.224443
  17 H :    0.157922
Sum of atomic charges:    0.0000000

LOEWDIN ATOMIC CHARGES
----------------------
   0 O :   -0.051862
   1 C :   -0.344789
   2 C :   -0.257227
   3 C :   -0.181185
   4 C :   -0.210355
   5 N :    0.014407
   6 C :   -0.182581
   7 C :   -0.277609
   8 O :    0.168306
   9 H :    0.173268
  10 H :    0.122515
  11 H :    0.127941
  12 H :    0.141994
  13 H :    0.143465
  14 H :    0.167631
  15 H :    0.134117
  16 H :    0.176758
  17 H :    0.135206

  Mayer bond orders larger than 0.1
B(  0-O ,  1-C ) :   0.9258 B(  0-O ,  9-H ) :   0.8482 B(  1-C ,  2-C ) :   0.9191
B(  1-C , 10-H ) :   0.9411 B(  1-C , 11-H ) :   0.9226 B(  2-C ,  3-C ) :   0.8734
B(  2-C , 12-H ) :   0.9268 B(  2-C , 13-H ) :   0.9239 B(  3-C ,  4-C ) :   0.9100
B(  3-C ,  6-C ) :  -0.1080 B(  3-C ,  7-C ) :   0.8874 B(  3-C , 14-H ) :   0.8949
B(  4-C ,  5-N ) :   0.9728 B(  4-C ,  6-C ) :   0.8897 B(  4-C , 15-H ) :   0.9131
B(  5-N ,  6-C ) :   0.8645 B(  5-N , 16-H ) :   0.8651 B(  6-C ,  7-C ) :   0.9097
B(  6-C , 17-H ) :   0.9074 B(  7-C ,  8-O ) :   2.0189

MP2 TOTAL ENERGY:     -438.323492422 Eh
FINAL SINGLE POINT ENERGY      -438.323492422411

DIPOLE MOMENT
-------------
                                X             Y             Z
Electronic contribution:      0.19449      -3.11351      -3.31873
Nuclear contribution   :     -1.52212       2.27557       3.83093
                        -----------------------------------------
Total Dipole Moment    :     -1.32763      -0.83794       0.51220
                        -----------------------------------------
Magnitude (a.u.)       :      1.65139
Magnitude (Debye)      :      4.19751

                             ****ORCA TERMINATED NORMALLY****
TOTAL RUN TIME: 0 days 0 hours 15 minutes 8 seconds 171 msec
