                         Program Version 3.0.3 - RELEASE   -
|  1> ! RI-MP2 RIJK def2-TZVP def2-TZVP/C def2-TZVP/JK TIGHTSCF
|  2> % maxcore 2000
|  3> % mp2 density relaxed end
|  4> *xyz 0 1
|  5>  C        0.4846612314     1.0523031292     0.4696071549
|  6>  C        0.2202892704    -0.3884150536     0.0063757336
|  7>  C       -1.2423311502    -0.7914252321     0.0830999327
|  8>  C       -2.1538797266    -0.0691955509    -0.8621875884
|  9>  O       -1.7898111115     0.6018137700    -1.7963840261
| 10>  C       -1.6794660369    -2.2169473630     0.3783059333
| 11>  C       -0.6964870948    -3.3465307607     0.6040252628
| 12>  N       -1.9494620025    -1.1569042180     1.3300250044
| 13>  C       -1.2594128707    -1.1118510684     2.6117056704
| 14>  H        1.5466130626     1.2957373526     0.3688505254
| 15>  H       -0.0819235502     1.7639574297    -0.1350689745
| 16>  H        0.2078390736     1.1969474309     1.5184533206
| 17>  H        0.5234459258    -0.4855820706    -1.0418510673
| 18>  H        0.8447528986    -1.0800949803     0.5762035054
| 19>  H       -3.2314979264    -0.2257057440    -0.6314017216
| 20>  H       -2.5842521643    -2.5567334167    -0.1294076889
| 21>  H        0.2224788262    -3.0369674174     1.1023999325
| 22>  H       -1.1617258690    -4.1276493817     1.2153394799
| 23>  H       -0.4228788900    -3.7988584851    -0.3546301351
| 24>  H       -0.1896470603    -1.3577713691     2.5872702000
| 25>  H       -1.3665672894    -0.1078149393     3.0324559733
| 26>  H       -1.7522499957    -1.8135481117     3.2922810926
| 27> *
| 28>
| 29>                          ****END OF INPUT****

CARTESIAN COORDINATES (ANGSTROEM)
---------------------------------
  C      0.484661    1.052303    0.469607
  C      0.220289   -0.388415    0.006376
  C     -1.242331   -0.791425    0.083100
  C     -2.153880   -0.069196   -0.862188
  O     -1.789811    0.601814   -1.796384
  C     -1.679466   -2.216947    0.378306
  C     -0.696487   -3.346531    0.604025
  N     -1.949462   -1.156904    1.330025
  C     -1.259413   -1.111851    2.611706
  H      1.546613    1.295737    0.368851
  H     -0.081924    1.763957   -0.135069
  H      0.207839    1.196947    1.518453
  H      0.523446   -0.485582   -1.041851
  H      0.844753   -1.080095    0.576204
  H     -3.231498   -0.225706   -0.631402
  H     -2.584252   -2.556733   -0.129408
  H      0.222479   -3.036967    1.102400
  H     -1.161726   -4.127649    1.215339
  H     -0.422879   -3.798858   -0.354630
  H     -0.189647   -1.357771    2.587270
  H     -1.366567   -0.107815    3.032456
  H     -1.752250   -1.813548    3.292281

 Total Charge           Charge          ....    0
 Multiplicity           Mult            ....    1
 Number of Electrons    NEL             ....   70
 Basis Dimension        Dim             ....  357

ORBITAL ENERGIES
----------------

  NO   OCC          E(Eh)            E(eV)
   0   2.0000     -20.549949      -559.1925
   1   2.0000     -15.572012      -423.7360
   2   2.0000     -11.324100      -308.1444
   3   2.0000     -11.278083      -306.8922
   4   2.0000     -11.273629      -306.7710
   5   2.0000     -11.257341      -306.3278
   6   2.0000     -11.236299      -305.7553
   7   2.0000     -11.232815      -305.6604
   8   2.0000     -11.214575      -305.1641
   9   2.0000      -1.390218       -37.8298
  10   2.0000      -1.287867       -35.0447
  11   2.0000      -1.054232       -28.6871
  12   2.0000      -1.023132       -27.8408
  13   2.0000      -0.987681       -26.8762
  14   2.0000      -0.898209       -24.4415
  15   2.0000      -0.856197       -23.2983
  16   2.0000      -0.792242       -21.5580
  17   2.0000      -0.740882       -20.1604
  18   2.0000      -0.696685       -18.9578
  19   2.0000      -0.659164       -17.9368
  20   2.0000      -0.636442       -17.3185
  21   2.0000      -0.612732       -16.6733
  22   2.0000      -0.602684       -16.3999
  23   2.0000      -0.586043       -15.9471
  24   2.0000      -0.576419       -15.6851
  25   2.0000      -0.560386       -15.2489
  26   2.0000      -0.555359       -15.1121
  27   2.0000      -0.540939       -14.7197
  28   2.0000      -0.517532       -14.0828
  29   2.0000      -0.510811       -13.8999
  30   2.0000      -0.493695       -13.4341
  31   2.0000      -0.455609       -12.3977
  32   2.0000      -0.448169       -12.1953
  33   2.0000      -0.416979       -11.3466
  34   2.0000      -0.367903       -10.0111
  35   0.0000       0.127348         3.4653
  36   0.0000       0.132855         3.6152
  37   0.0000       0.153774         4.1844
  38   0.0000       0.171121         4.6564
  39   0.0000       0.172005         4.6805

MULLIKEN ATOMIC CHARGES
-----------------------
   0 C :   -0.420875
   1 C :   -0.173842
   2 C :    0.142627
   3 C :    0.037048
   4 O :   -0.282014
   5 C :   -0.067008
   6 C :   -0.389925
   7 N :   -0.232185
   8 C :   -0.319059
   9 H :    0.133381
  10 H :    0.156158
  11 H :    0.123968
  12 H :    0.133686
  13 H :    0.107340
  14 H :    0.098894
  15 H :    0.120148
  16 H :    0.128037
  17 H :    0.145148
  18 H :    0.147945
  19 H :    0.115332
  20 H :    0.149049
  21 H :    0.146147
Sum of atomic charges:    0.0000000

LOEWDIN ATOMIC CHARGES
----------------------
   0 C :   -0.307029
   1 C :   -0.248803
   2 C :   -0.258882
   3 C :   -0.262531
   4 O :    0.130548
   5 C :   -0.236630
   6 C :   -0.292252
   7 N :    0.130765
   8 C :   -0.322927
   9 H :    0.122555
  10 H :    0.128504
  11 H :    0.118948
  12 H :    0.154443
  13 H :    0.137040
  14 H :    0.122317
  15 H :    0.145114
  16 H :    0.122952
  17 H :    0.131213
  18 H :    0.134635
  19 H :    0.106667
  20 H :    0.120933
  21 H :    0.122419

  Mayer bond orders larger than 0.1
B(  0-C ,  1-C ) :   0.9055 B(  0-C ,  9-H ) :   0.9391 B(  0-C , 10-H ) :   0.9352
B(  0-C , 11-H ) :   0.9387 B(  1-C ,  2-C ) :   0.9155 B(  1-C , 12-H ) :   0.9133
B(  1-C , 13-H ) :   0.9453 B(  2-C ,  3-C ) :   0.8259 B(  2-C ,  5-C ) :   0.8550
B(  2-C ,  7-N ) :   0.7987 B(  3-C ,  4-O ) :   1.9864 B(  3-C , 14-H ) :   0.9572
B(  5-C ,  6-C ) :   0.9008 B(  5-C ,  7-N ) :   0.9211 B(  5-C , 15-H ) :   0.9057
B(  6-C , 16-H ) :   0.9377 B(  6-C , 17-H ) :   0.9351 B(  6-C , 18-H ) :   0.9300
B(  7-N ,  8-C ) :   0.8860 B(  8-C , 19-H ) :   0.9273 B(  8-C , 20-H ) :   0.9372
B(  8-C , 21-H ) :   0.9341

MP2 TOTAL ENERGY:     -403.638686243 Eh
FINAL SINGLE POINT ENERGY      -403.638686242703

DIPOLE MOMENT
-------------
                                X             Y             Z
Electronic contribution:     -5.89496       2.59502      -5.89460
Nuclear contribution   :      6.37059      -3.49768       6.74743
                        -----------------------------------------
Total Dipole Moment    :      0.47563      -0.90266       0.85283
                        -----------------------------------------
Magnitude (a.u.)       :      1.32978
Magnitude (Debye)      :      3.38004

                             ****ORCA TERMINATED NORMALLY****
TOTAL RUN TIME: 0 days 0 hours 20 minutes 40 seconds 83 msec
