                         Program Version 3.0.3 - RELEASE   -
|  1> ! RI-MP2 RIJK def2-TZVP def2-TZVP/C def2-TZVP/JK TIGHTSCF
|  2> % maxcore 2000
|  3> % mp2 density relaxed end
|  4> *xyz 0 1
|  5>  O       -0.0402421651     0.1275303485    -0.6055963261
|  6>  C        0.0156598759     1.2912038605    -0.2529650649
|  7>  C        1.2633713548     1.9256448211     0.1201079632
|  8>  C        2.2868122079     2.4760597806     0.4338114717
|  9>  C       -1.2028640235     2.1540044959    -0.1871666184
| 10>  C       -2.0700018653     2.1496159382    -1.4138662694
| 11>  N       -2.5025138818     1.4716513848    -0.2020267139
| 12>  H        3.2011079716     2.9450208345     0.7069742679
| 13>  H       -1.1349400856     3.0523506824     0.4172437180
| 14>  H       -2.6126930431     3.0558145027    -1.6659301607
| 15>  H       -1.7262418499     1.5523262385    -2.2536671773
| 16>  H       -2.3098444558     0.4736094624    -0.2996254400
| 17> *
| 18>
| 19>                          ****END OF INPUT****

CARTESIAN COORDINATES (ANGSTROEM)
---------------------------------
  O     -0.040242    0.127530   -0.605596
  C      0.015660    1.291204   -0.252965
  C      1.263371    1.925645    0.120108
  C      2.286812    2.476060    0.433811
  C     -1.202864    2.154004   -0.187167
  C     -2.070002    2.149616   -1.413866
  N     -2.502514    1.471651   -0.202027
  H      3.201108    2.945021    0.706974
  H     -1.134940    3.052351    0.417244
  H     -2.612693    3.055815   -1.665930
  H     -1.726242    1.552326   -2.253667
  H     -2.309844    0.473609   -0.299625

 Total Charge           Charge          ....    0
 Multiplicity           Mult            ....    1
 Number of Electrons    NEL             ....   50
 Basis Dimension        Dim             ....  247

ORBITAL ENERGIES
----------------

  NO   OCC          E(Eh)            E(eV)
   0   2.0000     -20.570226      -559.7443
   1   2.0000     -15.577431      -423.8834
   2   2.0000     -11.372586      -309.4638
   3   2.0000     -11.282893      -307.0231
   4   2.0000     -11.279937      -306.9427
   5   2.0000     -11.273212      -306.7597
   6   2.0000     -11.262576      -306.4703
   7   2.0000      -1.413966       -38.4760
   8   2.0000      -1.282741       -34.9051
   9   2.0000      -1.077014       -29.3070
  10   2.0000      -0.972294       -26.4575
  11   2.0000      -0.894649       -24.3446
  12   2.0000      -0.835327       -22.7304
  13   2.0000      -0.759765       -20.6742
  14   2.0000      -0.731456       -19.9039
  15   2.0000      -0.683558       -18.6006
  16   2.0000      -0.648579       -17.6487
  17   2.0000      -0.590151       -16.0588
  18   2.0000      -0.571384       -15.5481
  19   2.0000      -0.515358       -14.0236
  20   2.0000      -0.494197       -13.4478
  21   2.0000      -0.460163       -12.5217
  22   2.0000      -0.430990       -11.7278
  23   2.0000      -0.428003       -11.6466
  24   2.0000      -0.408115       -11.1054
  25   0.0000       0.065945         1.7944
  26   0.0000       0.148143         4.0312
  27   0.0000       0.153190         4.1685
  28   0.0000       0.163489         4.4488
  29   0.0000       0.172250         4.6872

MULLIKEN ATOMIC CHARGES
-----------------------
   0 O :   -0.296495
   1 C :    0.023379
   2 C :    0.077475
   3 C :   -0.096728
   4 C :   -0.107453
   5 C :   -0.135380
   6 N :   -0.345712
   7 H :    0.205854
   8 H :    0.150690
   9 H :    0.135996
  10 H :    0.144574
  11 H :    0.243801
Sum of atomic charges:   -0.0000000

LOEWDIN ATOMIC CHARGES
----------------------
   0 O :    0.164020
   1 C :   -0.324637
   2 C :   -0.053858
   3 C :   -0.033743
   4 C :   -0.242942
   5 C :   -0.241720
   6 N :    0.012184
   7 H :    0.133779
   8 H :    0.151754
   9 H :    0.128515
  10 H :    0.129877
  11 H :    0.176770

  Mayer bond orders larger than 0.1
B(  0-O ,  1-C ) :   1.9312 B(  1-C ,  2-C ) :   0.9886 B(  1-C ,  3-C ) :  -0.1030
B(  1-C ,  4-C ) :   1.0496 B(  2-C ,  3-C ) :   2.6260 B(  2-C ,  4-C ) :  -0.1202
B(  3-C ,  7-H ) :   0.8904 B(  4-C ,  5-C ) :   0.8999 B(  4-C ,  6-N ) :   0.9424
B(  4-C ,  8-H ) :   0.9032 B(  5-C ,  6-N ) :   0.9143 B(  5-C ,  9-H ) :   0.9289
B(  5-C , 10-H ) :   0.9083 B(  6-N , 11-H ) :   0.8628

MP2 TOTAL ENERGY:     -322.763224050 Eh
FINAL SINGLE POINT ENERGY      -322.763224049787

DIPOLE MOMENT
-------------
                                X             Y             Z
Electronic contribution:      2.99639      -1.89170       1.23874
Nuclear contribution   :     -2.49081       2.78066      -1.36546
                        -----------------------------------------
Total Dipole Moment    :      0.50559       0.88896      -0.12672
                        -----------------------------------------
Magnitude (a.u.)       :      1.03050
Magnitude (Debye)      :      2.61931

                             ****ORCA TERMINATED NORMALLY****
TOTAL RUN TIME: 0 days 0 hours 6 minutes 28 seconds 541 msec
