                         Program Version 3.0.3 - RELEASE   -
|  1> ! RI-MP2 RIJK def2-TZVP def2-TZVP/C def2-TZVP/JK TIGHTSCF
|  2> % maxcore 2000
|  3> % mp2 density relaxed end
|  4> *xyz 0 1
|  5>  C        1.2270337829     0.8570518235    -0.9170905333
|  6>  C        1.7644880132    -0.5106269912    -0.4671278303
|  7>  C        3.2941920653    -0.5798458875    -0.5684544754
|  8>  C        1.3054623985    -0.7903627599     0.9501140771
|  9>  N       -0.0559051028    -1.2599166172     1.1618172936
| 10>  C        1.0467112922    -2.1765037828     1.5034064330
| 11>  C        1.1966798121    -3.4493400682     0.7004192167
| 12>  C        1.3458097752    -2.2901357580     2.9628695057
| 13>  O        0.9333310407    -1.5149349514     3.7949507048
| 14>  H        1.6286069135     1.6625055844    -0.2908180762
| 15>  H        1.5131336542     1.0669510508    -1.9526669932
| 16>  H        0.1358544071     0.8855443341    -0.8493965166
| 17>  H        1.3289331967    -1.2706750828    -1.1247664173
| 18>  H        3.7648341335     0.1610193207     0.0885594173
| 19>  H        3.6724043795    -1.5664842548    -0.2821089921
| 20>  H        3.6277424015    -0.3738162067    -1.5903105702
| 21>  H        1.6918722812    -0.0850152103     1.6876202829
| 22>  H       -0.4145665964    -0.8756449053     2.0369927747
| 23>  H        0.4613602652    -4.1955979889     1.0202883473
| 24>  H        1.0401675550    -3.2701746888    -0.3635521693
| 25>  H        2.1949877963    -3.8807974926     0.8343883555
| 26>  H        1.9864182154    -3.1521536372     3.2503399853
| 27> *
| 28>
| 29>                          ****END OF INPUT****

CARTESIAN COORDINATES (ANGSTROEM)
---------------------------------
  C      1.227034    0.857052   -0.917091
  C      1.764488   -0.510627   -0.467128
  C      3.294192   -0.579846   -0.568454
  C      1.305462   -0.790363    0.950114
  N     -0.055905   -1.259917    1.161817
  C      1.046711   -2.176504    1.503406
  C      1.196680   -3.449340    0.700419
  C      1.345810   -2.290136    2.962870
  O      0.933331   -1.514935    3.794951
  H      1.628607    1.662506   -0.290818
  H      1.513134    1.066951   -1.952667
  H      0.135854    0.885544   -0.849397
  H      1.328933   -1.270675   -1.124766
  H      3.764834    0.161019    0.088559
  H      3.672404   -1.566484   -0.282109
  H      3.627742   -0.373816   -1.590311
  H      1.691872   -0.085015    1.687620
  H     -0.414567   -0.875645    2.036993
  H      0.461360   -4.195598    1.020288
  H      1.040168   -3.270175   -0.363552
  H      2.194988   -3.880797    0.834388
  H      1.986418   -3.152154    3.250340

 Total Charge           Charge          ....    0
 Multiplicity           Mult            ....    1
 Number of Electrons    NEL             ....   70
 Basis Dimension        Dim             ....  357

ORBITAL ENERGIES
----------------

  NO   OCC          E(Eh)            E(eV)
   0   2.0000     -20.562043      -559.5216
   1   2.0000     -15.564493      -423.5314
   2   2.0000     -11.338531      -308.5371
   3   2.0000     -11.277124      -306.8661
   4   2.0000     -11.272355      -306.7364
   5   2.0000     -11.236542      -305.7619
   6   2.0000     -11.234448      -305.7049
   7   2.0000     -11.221352      -305.3485
   8   2.0000     -11.215935      -305.2011
   9   2.0000      -1.402938       -38.1759
  10   2.0000      -1.277010       -34.7492
  11   2.0000      -1.077562       -29.3219
  12   2.0000      -1.022391       -27.8207
  13   2.0000      -0.934858       -25.4388
  14   2.0000      -0.902518       -24.5588
  15   2.0000      -0.888323       -24.1725
  16   2.0000      -0.786823       -21.4105
  17   2.0000      -0.756359       -20.5816
  18   2.0000      -0.720737       -19.6123
  19   2.0000      -0.664033       -18.0692
  20   2.0000      -0.634074       -17.2540
  21   2.0000      -0.610317       -16.6076
  22   2.0000      -0.593128       -16.1398
  23   2.0000      -0.577973       -15.7274
  24   2.0000      -0.561512       -15.2795
  25   2.0000      -0.558950       -15.2098
  26   2.0000      -0.542028       -14.7493
  27   2.0000      -0.537352       -14.6221
  28   2.0000      -0.521888       -14.2013
  29   2.0000      -0.493707       -13.4345
  30   2.0000      -0.482361       -13.1257
  31   2.0000      -0.464704       -12.6452
  32   2.0000      -0.458532       -12.4773
  33   2.0000      -0.427697       -11.6382
  34   2.0000      -0.388560       -10.5733
  35   0.0000       0.114396         3.1129
  36   0.0000       0.129142         3.5141
  37   0.0000       0.148592         4.0434
  38   0.0000       0.169767         4.6196
  39   0.0000       0.172497         4.6939

MULLIKEN ATOMIC CHARGES
-----------------------
   0 C :   -0.410147
   1 C :    0.000474
   2 C :   -0.419817
   3 C :   -0.058987
   4 N :   -0.383419
   5 C :    0.118460
   6 C :   -0.425870
   7 C :    0.106537
   8 O :   -0.296682
   9 H :    0.121503
  10 H :    0.133035
  11 H :    0.148361
  12 H :    0.086240
  13 H :    0.126327
  14 H :    0.131765
  15 H :    0.136751
  16 H :    0.140873
  17 H :    0.235209
  18 H :    0.144971
  19 H :    0.147263
  20 H :    0.131321
  21 H :    0.085831
Sum of atomic charges:    0.0000000

LOEWDIN ATOMIC CHARGES
----------------------
   0 C :   -0.286877
   1 C :   -0.291788
   2 C :   -0.288958
   3 C :   -0.210095
   4 N :    0.053411
   5 C :   -0.310281
   6 C :   -0.265472
   7 C :   -0.264662
   8 O :    0.122973
   9 H :    0.123492
  10 H :    0.123613
  11 H :    0.128641
  12 H :    0.154224
  13 H :    0.124858
  14 H :    0.122839
  15 H :    0.125108
  16 H :    0.149953
  17 H :    0.175216
  18 H :    0.132641
  19 H :    0.132140
  20 H :    0.129594
  21 H :    0.119428

  Mayer bond orders larger than 0.1
B(  0-C ,  1-C ) :   0.9159 B(  0-C ,  9-H ) :   0.9325 B(  0-C , 10-H ) :   0.9387
B(  0-C , 11-H ) :   0.9382 B(  1-C ,  2-C ) :   0.9134 B(  1-C ,  3-C ) :   0.8961
B(  1-C , 12-H ) :   0.9269 B(  2-C , 13-H ) :   0.9302 B(  2-C , 14-H ) :   0.9392
B(  2-C , 15-H ) :   0.9390 B(  3-C ,  4-N ) :   0.9083 B(  3-C ,  5-C ) :   0.8874
B(  3-C , 16-H ) :   0.8959 B(  4-N ,  5-C ) :   0.9337 B(  4-N , 17-H ) :   0.8551
B(  5-C ,  6-C ) :   0.8779 B(  5-C ,  7-C ) :   0.9046 B(  6-C , 18-H ) :   0.9323
B(  6-C , 19-H ) :   0.9425 B(  6-C , 20-H ) :   0.9331 B(  7-C ,  8-O ) :   1.9136
B(  7-C , 21-H ) :   0.9349

MP2 TOTAL ENERGY:     -403.657989394 Eh
FINAL SINGLE POINT ENERGY      -403.657989393725

DIPOLE MOMENT
-------------
                                X             Y             Z
Electronic contribution:     -4.16250      -2.12148       9.49690
Nuclear contribution   :      4.79717       1.77602     -10.06295
                        -----------------------------------------
Total Dipole Moment    :      0.63467      -0.34546      -0.56605
                        -----------------------------------------
Magnitude (a.u.)       :      0.91791
Magnitude (Debye)      :      2.33314

                             ****ORCA TERMINATED NORMALLY****
TOTAL RUN TIME: 0 days 0 hours 21 minutes 42 seconds 422 msec
