                         Program Version 3.0.3 - RELEASE   -
|  1> ! RI-MP2 RIJK def2-TZVP def2-TZVP/C def2-TZVP/JK TIGHTSCF
|  2> % maxcore 2000
|  3> % mp2 density relaxed end
|  4> *xyz 0 1
|  5>  C       -0.1118464045     1.3657855779    -0.2441730840
|  6>  C        1.2874964567     0.9188166602     0.0093530979
|  7>  N        0.1857892393    -0.0329757808     0.0806959999
|  8>  C       -0.1885525868    -0.5373783373     1.3228130034
|  9>  N        0.6856678814    -0.7347014923     2.2868098071
| 10>  O       -0.0372507774    -1.3251785600     3.3262719695
| 11>  C       -1.3171371353    -1.4485622478     2.9482547377
| 12>  C       -1.4975580314    -0.9749053299     1.6930451204
| 13>  H       -0.5908139564     1.9689655383     0.5230000811
| 14>  H       -0.4609469927     1.5391414585    -1.2573730237
| 15>  H        1.9684024642     0.7690305485    -0.8224391304
| 16>  H        1.7510376428     1.2126280983     0.9458714647
| 17>  H       -1.9797413508    -1.8947670680     3.6742678172
| 18>  H       -2.3989445291    -0.9434453956     1.1052198994
| 19> *
| 20>
| 21>                          ****END OF INPUT****

CARTESIAN COORDINATES (ANGSTROEM)
---------------------------------
  C     -0.111846    1.365786   -0.244173
  C      1.287496    0.918817    0.009353
  N      0.185789   -0.032976    0.080696
  C     -0.188553   -0.537378    1.322813
  N      0.685668   -0.734701    2.286810
  O     -0.037251   -1.325179    3.326272
  C     -1.317137   -1.448562    2.948255
  C     -1.497558   -0.974905    1.693045
  H     -0.590814    1.968966    0.523000
  H     -0.460947    1.539141   -1.257373
  H      1.968402    0.769031   -0.822439
  H      1.751038    1.212628    0.945871
  H     -1.979741   -1.894767    3.674268
  H     -2.398945   -0.943445    1.105220

 Total Charge           Charge          ....    0
 Multiplicity           Mult            ....    1
 Number of Electrons    NEL             ....   58
 Basis Dimension        Dim             ....  284

ORBITAL ENERGIES
----------------

  NO   OCC          E(Eh)            E(eV)
   0   2.0000     -20.637576      -561.5770
   1   2.0000     -15.605468      -424.6464
   2   2.0000     -15.586722      -424.1363
   3   2.0000     -11.315849      -307.9199
   4   2.0000     -11.312020      -307.8157
   5   2.0000     -11.277279      -306.8704
   6   2.0000     -11.270458      -306.6847
   7   2.0000     -11.236667      -305.7653
   8   2.0000      -1.486876       -40.4600
   9   2.0000      -1.308300       -35.6007
  10   2.0000      -1.153085       -31.3770
  11   2.0000      -1.071567       -29.1588
  12   2.0000      -0.953025       -25.9331
  13   2.0000      -0.865807       -23.5598
  14   2.0000      -0.825769       -22.4703
  15   2.0000      -0.773535       -21.0490
  16   2.0000      -0.738118       -20.0852
  17   2.0000      -0.687393       -18.7049
  18   2.0000      -0.655776       -17.8446
  19   2.0000      -0.645870       -17.5750
  20   2.0000      -0.612506       -16.6671
  21   2.0000      -0.571831       -15.5603
  22   2.0000      -0.544316       -14.8116
  23   2.0000      -0.509144       -13.8545
  24   2.0000      -0.497775       -13.5452
  25   2.0000      -0.474992       -12.9252
  26   2.0000      -0.457490       -12.4489
  27   2.0000      -0.373445       -10.1620
  28   2.0000      -0.363617        -9.8945
  29   0.0000       0.126489         3.4419
  30   0.0000       0.155702         4.2369
  31   0.0000       0.167539         4.5590
  32   0.0000       0.172099         4.6830
  33   0.0000       0.187034         5.0895

MULLIKEN ATOMIC CHARGES
-----------------------
   0 C :   -0.164110
   1 C :   -0.172448
   2 N :   -0.226397
   3 C :    0.193301
   4 N :   -0.140946
   5 O :   -0.109335
   6 C :    0.023716
   7 C :   -0.282275
   8 H :    0.135873
   9 H :    0.134755
  10 H :    0.140578
  11 H :    0.153868
  12 H :    0.160330
  13 H :    0.153090
Sum of atomic charges:   -0.0000000

LOEWDIN ATOMIC CHARGES
----------------------
   0 C :   -0.237660
   1 C :   -0.238220
   2 N :    0.153952
   3 C :   -0.357026
   4 N :    0.043053
   5 O :    0.270611
   6 C :   -0.265153
   7 C :   -0.171605
   8 H :    0.128026
   9 H :    0.126345
  10 H :    0.128680
  11 H :    0.131699
  12 H :    0.137807
  13 H :    0.149492

  Mayer bond orders larger than 0.1
B(  0-C ,  1-C ) :   0.9478 B(  0-C ,  2-N ) :   0.8472 B(  0-C ,  8-H ) :   0.9161
B(  0-C ,  9-H ) :   0.9264 B(  1-C ,  2-N ) :   0.8703 B(  1-C , 10-H ) :   0.9270
B(  1-C , 11-H ) :   0.9221 B(  2-N ,  3-C ) :   1.0445 B(  3-C ,  4-N ) :   1.5839
B(  3-C ,  7-C ) :   1.1809 B(  4-N ,  5-O ) :   0.8666 B(  4-N ,  6-C ) :   0.1004
B(  5-O ,  6-C ) :   1.1178 B(  6-C ,  7-C ) :   1.5724 B(  6-C , 12-H ) :   0.9193
B(  7-C , 13-H ) :   0.9104

MP2 TOTAL ENERGY:     -378.034201357 Eh
FINAL SINGLE POINT ENERGY      -378.034201357243

DIPOLE MOMENT
-------------
                                X             Y             Z
Electronic contribution:      0.11226      -3.85320       3.88171
Nuclear contribution   :     -0.98137       4.38463      -4.21246
                        -----------------------------------------
Total Dipole Moment    :     -0.86911       0.53143      -0.33075
                        -----------------------------------------
Magnitude (a.u.)       :      1.07106
Magnitude (Debye)      :      2.72241

                             ****ORCA TERMINATED NORMALLY****
TOTAL RUN TIME: 0 days 0 hours 11 minutes 2 seconds 310 msec
