                         Program Version 3.0.3 - RELEASE   -
|  1> ! RI-MP2 RIJK def2-TZVP def2-TZVP/C def2-TZVP/JK TIGHTSCF
|  2> % maxcore 2000
|  3> % mp2 density relaxed end
|  4> *xyz 0 1
|  5>  C        0.1523543794     1.3588559478    -0.2820610549
|  6>  C        0.1265449875    -0.1025618116     0.1565062144
|  7>  O        0.5229855793    -0.2696921392     1.5153296237
|  8>  C       -1.2604189453    -0.7216954691    -0.0157318633
|  9>  O       -1.8230041636    -0.6377372694    -1.3670842754
| 10>  C       -2.2044973444    -2.0241178727    -1.3034235913
| 11>  C       -0.9700422026    -2.8488038655    -1.2996533170
| 12>  O        0.1713698024    -2.4606843514    -1.9985331870
| 13>  C       -1.4485511614    -2.2334362317     0.0087134484
| 14>  H        1.1520915875     1.7794523254    -0.1451888111
| 15>  H       -0.1328959209     1.4545295102    -1.3336560920
| 16>  H       -0.5565154187     1.9542148232     0.3086479920
| 17>  H        0.8488544683    -0.6844674066    -0.4211679950
| 18>  H        0.0099796471     0.3477439067     2.0492734285
| 19>  H       -1.9597472857    -0.2244475710     0.6741057203
| 20>  H       -3.1953042492    -2.2867521887    -1.6569251017
| 21>  H       -1.1253149839    -3.9236866162    -1.3401225756
| 22>  H       -0.0332924773    -1.5962003056    -2.3798050710
| 23>  H       -1.6930511485    -2.8241129046     0.8806677081
| 24> *
| 25>
| 26>                          ****END OF INPUT****

CARTESIAN COORDINATES (ANGSTROEM)
---------------------------------
  C      0.152354    1.358856   -0.282061
  C      0.126545   -0.102562    0.156506
  O      0.522986   -0.269692    1.515330
  C     -1.260419   -0.721695   -0.015732
  O     -1.823004   -0.637737   -1.367084
  C     -2.204497   -2.024118   -1.303424
  C     -0.970042   -2.848804   -1.299653
  O      0.171370   -2.460684   -1.998533
  C     -1.448551   -2.233436    0.008713
  H      1.152092    1.779452   -0.145189
  H     -0.132896    1.454530   -1.333656
  H     -0.556515    1.954215    0.308648
  H      0.848854   -0.684467   -0.421168
  H      0.009980    0.347744    2.049273
  H     -1.959747   -0.224448    0.674106
  H     -3.195304   -2.286752   -1.656925
  H     -1.125315   -3.923687   -1.340123
  H     -0.033292   -1.596200   -2.379805
  H     -1.693051   -2.824113    0.880668

 Total Charge           Charge          ....    0
 Multiplicity           Mult            ....    1
 Number of Electrons    NEL             ....   70
 Basis Dimension        Dim             ....  339

ORBITAL ENERGIES
----------------

  NO   OCC          E(Eh)            E(eV)
   0   2.0000     -20.571641      -559.7828
   1   2.0000     -20.563812      -559.5698
   2   2.0000     -20.561361      -559.5031
   3   2.0000     -11.298051      -307.4356
   4   2.0000     -11.297237      -307.4134
   5   2.0000     -11.296167      -307.3843
   6   2.0000     -11.282380      -307.0092
   7   2.0000     -11.244460      -305.9773
   8   2.0000     -11.222062      -305.3678
   9   2.0000      -1.415012       -38.5044
  10   2.0000      -1.367824       -37.2204
  11   2.0000      -1.362874       -37.0857
  12   2.0000      -1.114300       -30.3216
  13   2.0000      -1.041964       -28.3533
  14   2.0000      -0.952514       -25.9192
  15   2.0000      -0.845615       -23.0104
  16   2.0000      -0.825188       -22.4545
  17   2.0000      -0.771747       -21.0003
  18   2.0000      -0.735312       -20.0088
  19   2.0000      -0.702678       -19.1208
  20   2.0000      -0.660249       -17.9663
  21   2.0000      -0.645275       -17.5588
  22   2.0000      -0.637989       -17.3606
  23   2.0000      -0.601567       -16.3695
  24   2.0000      -0.588432       -16.0121
  25   2.0000      -0.568196       -15.4614
  26   2.0000      -0.559160       -15.2155
  27   2.0000      -0.540436       -14.7060
  28   2.0000      -0.529470       -14.4076
  29   2.0000      -0.508842       -13.8463
  30   2.0000      -0.501137       -13.6366
  31   2.0000      -0.477638       -12.9972
  32   2.0000      -0.446309       -12.1447
  33   2.0000      -0.397278       -10.8105
  34   2.0000      -0.386306       -10.5119
  35   0.0000       0.129276         3.5178
  36   0.0000       0.148540         4.0420
  37   0.0000       0.158959         4.3255
  38   0.0000       0.180567         4.9135
  39   0.0000       0.183780         5.0009

MULLIKEN ATOMIC CHARGES
-----------------------
   0 C :   -0.390871
   1 C :    0.078233
   2 O :   -0.467244
   3 C :    0.030518
   4 O :   -0.356805
   5 C :    0.031145
   6 C :    0.049199
   7 O :   -0.464313
   8 C :   -0.176353
   9 H :    0.151646
  10 H :    0.141923
  11 H :    0.111756
  12 H :    0.116055
  13 H :    0.309721
  14 H :    0.097491
  15 H :    0.133608
  16 H :    0.125838
  17 H :    0.334809
  18 H :    0.143644
Sum of atomic charges:   -0.0000000

LOEWDIN ATOMIC CHARGES
----------------------
   0 C :   -0.300686
   1 C :   -0.361052
   2 O :   -0.012229
   3 C :   -0.243218
   4 O :    0.152066
   5 C :   -0.231345
   6 C :   -0.307411
   7 O :    0.003630
   8 C :   -0.154621
   9 H :    0.128128
  10 H :    0.131906
  11 H :    0.122170
  12 H :    0.151021
  13 H :    0.173556
  14 H :    0.144284
  15 H :    0.129695
  16 H :    0.151371
  17 H :    0.182727
  18 H :    0.140007

  Mayer bond orders larger than 0.1
B(  0-C ,  1-C ) :   0.9396 B(  0-C ,  9-H ) :   0.9404 B(  0-C , 10-H ) :   0.9286
B(  0-C , 11-H ) :   0.9153 B(  1-C ,  2-O ) :   0.9120 B(  1-C ,  3-C ) :   0.9373
B(  1-C , 12-H ) :   0.9116 B(  2-O , 13-H ) :   0.8421 B(  3-C ,  4-O ) :   0.8865
B(  3-C ,  8-C ) :   0.9270 B(  3-C , 14-H ) :   0.8908 B(  4-O ,  5-C ) :   0.9284
B(  5-C ,  6-C ) :   0.9120 B(  5-C ,  8-C ) :   0.8547 B(  5-C , 15-H ) :   0.9175
B(  6-C ,  7-O ) :   0.9784 B(  6-C ,  8-C ) :   0.8642 B(  6-C , 16-H ) :   0.9476
B(  7-O , 17-H ) :   0.8196 B(  8-C , 18-H ) :   0.9098

MP2 TOTAL ENERGY:     -459.376968203 Eh
FINAL SINGLE POINT ENERGY      -459.376968203246

DIPOLE MOMENT
-------------
                                X             Y             Z
Electronic contribution:     -1.24549      -4.06658      -1.28339
Nuclear contribution   :      0.38306       4.37597       1.58603
                        -----------------------------------------
Total Dipole Moment    :     -0.86242       0.30939       0.30264
                        -----------------------------------------
Magnitude (a.u.)       :      0.96493
Magnitude (Debye)      :      2.45265

                             ****ORCA TERMINATED NORMALLY****
TOTAL RUN TIME: 0 days 0 hours 17 minutes 9 seconds 14 msec
