                         Program Version 3.0.3 - RELEASE   -
|  1> ! RI-MP2 RIJK def2-TZVP def2-TZVP/C def2-TZVP/JK TIGHTSCF
|  2> % maxcore 2000
|  3> % mp2 density relaxed end
|  4> *xyz 0 1
|  5>  C        0.0085279015     1.4779549162     0.0113679510
|  6>  C       -0.0036366826    -0.0466485140    -0.0271829763
|  7>  C        0.7922870877    -0.6298766865    -1.1854941907
|  8>  O        0.6047752129    -0.5721060087     1.1830070759
|  9>  C       -0.1767275206    -0.6610221416     2.2794208836
| 10>  O       -1.3416783183    -0.3451631112     2.3058272901
| 11>  C        0.6184584672    -1.1899187646     3.4650002965
| 12>  C        1.5615438682    -0.0832993890     3.9787835810
| 13>  C       -0.3164096243    -1.7031819961     4.5618147377
| 14>  H        1.0333229117     1.8534921944     0.0977829400
| 15>  H       -0.4281612760     1.8797458384    -0.9083421810
| 16>  H       -0.5780630581     1.8441507917     0.8565433437
| 17>  H       -1.0380162626    -0.4010837967    -0.0514189541
| 18>  H        1.8369011693    -0.3059051632    -1.1408971664
| 19>  H        0.7698072467    -1.7226781880    -1.1614561834
| 20>  H        0.3693155198    -0.2962733288    -2.1377142427
| 21>  H        1.2403713201    -2.0103237511     3.0882952928
| 22>  H        2.1705718987    -0.4602909241     4.8058620820
| 23>  H        2.2309656506     0.2636093630     3.1878027588
| 24>  H        0.9883217300     0.7745114012     4.3466197036
| 25>  H       -0.9574648122    -2.5091986449     4.1945839428
| 26>  H        0.2644463577    -2.0830969547     5.4077386507
| 27>  H       -0.9686313975    -0.9015857417     4.9182375746
| 28> *
| 29>
| 30>                          ****END OF INPUT****

CARTESIAN COORDINATES (ANGSTROEM)
---------------------------------
  C      0.008528    1.477955    0.011368
  C     -0.003637   -0.046649   -0.027183
  C      0.792287   -0.629877   -1.185494
  O      0.604775   -0.572106    1.183007
  C     -0.176728   -0.661022    2.279421
  O     -1.341678   -0.345163    2.305827
  C      0.618458   -1.189919    3.465000
  C      1.561544   -0.083299    3.978784
  C     -0.316410   -1.703182    4.561815
  H      1.033323    1.853492    0.097783
  H     -0.428161    1.879746   -0.908342
  H     -0.578063    1.844151    0.856543
  H     -1.038016   -0.401084   -0.051419
  H      1.836901   -0.305905   -1.140897
  H      0.769807   -1.722678   -1.161456
  H      0.369316   -0.296273   -2.137714
  H      1.240371   -2.010324    3.088295
  H      2.170572   -0.460291    4.805862
  H      2.230966    0.263609    3.187803
  H      0.988322    0.774511    4.346620
  H     -0.957465   -2.509199    4.194584
  H      0.264446   -2.083097    5.407739
  H     -0.968631   -0.901586    4.918238

 Total Charge           Charge          ....    0
 Multiplicity           Mult            ....    1
 Number of Electrons    NEL             ....   72
 Basis Dimension        Dim             ....  363

ORBITAL ENERGIES
----------------

  NO   OCC          E(Eh)            E(eV)
   0   2.0000     -20.591049      -560.3109
   1   2.0000     -20.535329      -558.7947
   2   2.0000     -11.369149      -309.3703
   3   2.0000     -11.290103      -307.2193
   4   2.0000     -11.244824      -305.9872
   5   2.0000     -11.225383      -305.4582
   6   2.0000     -11.221385      -305.3494
   7   2.0000     -11.217563      -305.2454
   8   2.0000     -11.214831      -305.1711
   9   2.0000      -1.450213       -39.4623
  10   2.0000      -1.352078       -36.7919
  11   2.0000      -1.091592       -29.7037
  12   2.0000      -1.055403       -28.7190
  13   2.0000      -0.944091       -25.6900
  14   2.0000      -0.936164       -25.4743
  15   2.0000      -0.886607       -24.1258
  16   2.0000      -0.803090       -21.8532
  17   2.0000      -0.755882       -20.5686
  18   2.0000      -0.698966       -19.0198
  19   2.0000      -0.662802       -18.0358
  20   2.0000      -0.651209       -17.7203
  21   2.0000      -0.624078       -16.9820
  22   2.0000      -0.602478       -16.3943
  23   2.0000      -0.580109       -15.7856
  24   2.0000      -0.567082       -15.4311
  25   2.0000      -0.548617       -14.9286
  26   2.0000      -0.547688       -14.9034
  27   2.0000      -0.544021       -14.8036
  28   2.0000      -0.533198       -14.5091
  29   2.0000      -0.510762       -13.8986
  30   2.0000      -0.504886       -13.7387
  31   2.0000      -0.488399       -13.2900
  32   2.0000      -0.483091       -13.1456
  33   2.0000      -0.478638       -13.0244
  34   2.0000      -0.448267       -12.1980
  35   2.0000      -0.432004       -11.7554
  36   0.0000       0.129027         3.5110
  37   0.0000       0.148627         4.0443
  38   0.0000       0.165904         4.5145
  39   0.0000       0.170381         4.6363
  40   0.0000       0.187675         5.1069

MULLIKEN ATOMIC CHARGES
-----------------------
   0 C :   -0.415682
   1 C :    0.077721
   2 C :   -0.362442
   3 O :   -0.253752
   4 C :    0.286750
   5 O :   -0.339584
   6 C :   -0.019181
   7 C :   -0.423093
   8 C :   -0.384099
   9 H :    0.125943
  10 H :    0.130969
  11 H :    0.158177
  12 H :    0.108549
  13 H :    0.128802
  14 H :    0.136938
  15 H :    0.127915
  16 H :    0.103582
  17 H :    0.134614
  18 H :    0.144427
  19 H :    0.133685
  20 H :    0.133534
  21 H :    0.129928
  22 H :    0.136298
Sum of atomic charges:   -0.0000000

LOEWDIN ATOMIC CHARGES
----------------------
   0 C :   -0.294090
   1 C :   -0.331243
   2 C :   -0.292908
   3 O :    0.269306
   4 C :   -0.457487
   5 O :    0.121215
   6 C :   -0.275965
   7 C :   -0.283129
   8 C :   -0.285961
   9 H :    0.125220
  10 H :    0.128972
  11 H :    0.130383
  12 H :    0.145648
  13 H :    0.126365
  14 H :    0.126360
  15 H :    0.128558
  16 H :    0.160865
  17 H :    0.125115
  18 H :    0.125965
  19 H :    0.127185
  20 H :    0.126742
  21 H :    0.123255
  22 H :    0.129629

  Mayer bond orders larger than 0.1
B(  0-C ,  1-C ) :   0.9281 B(  0-C ,  9-H ) :   0.9300 B(  0-C , 10-H ) :   0.9316
B(  0-C , 11-H ) :   0.9355 B(  1-C ,  2-C ) :   0.9255 B(  1-C ,  3-O ) :   0.8026
B(  1-C , 12-H ) :   0.9328 B(  2-C , 13-H ) :   0.9308 B(  2-C , 14-H ) :   0.9370
B(  2-C , 15-H ) :   0.9349 B(  3-O ,  4-C ) :   1.1313 B(  4-C ,  5-O ) :   1.9129
B(  4-C ,  6-C ) :   0.9230 B(  6-C ,  7-C ) :   0.8898 B(  6-C ,  8-C ) :   0.9267
B(  6-C , 16-H ) :   0.9223 B(  7-C , 17-H ) :   0.9354 B(  7-C , 18-H ) :   0.9353
B(  7-C , 19-H ) :   0.9332 B(  8-C , 20-H ) :   0.9371 B(  8-C , 21-H ) :   0.9378
B(  8-C , 22-H ) :   0.9258

MP2 TOTAL ENERGY:     -424.774989067 Eh
FINAL SINGLE POINT ENERGY      -424.774989067468

DIPOLE MOMENT
-------------
                                X             Y             Z
Electronic contribution:     -3.33727      -1.54472      -0.14807
Nuclear contribution   :      3.96264       1.50704      -0.15536
                        -----------------------------------------
Total Dipole Moment    :      0.62537      -0.03769      -0.30343
                        -----------------------------------------
Magnitude (a.u.)       :      0.69612
Magnitude (Debye)      :      1.76939

                             ****ORCA TERMINATED NORMALLY****
TOTAL RUN TIME: 0 days 0 hours 20 minutes 28 seconds 890 msec
