                         Program Version 3.0.3 - RELEASE   -
|  1> ! RI-MP2 RIJK def2-TZVP def2-TZVP/C def2-TZVP/JK TIGHTSCF
|  2> % maxcore 2000
|  3> % mp2 density relaxed end
|  4> *xyz 0 1
|  5>  C        0.8930648800     0.8409163550     0.1648855026
|  6>  N       -0.3364726414     0.3206031213    -0.4311677506
|  7>  C       -0.1138457093    -0.5974334327    -1.5232937697
|  8>  C        0.4206004714    -1.9665943971    -1.1144692341
|  9>  O        0.4718181272    -2.3881257286     0.0093380737
| 10>  O        0.8045608746    -2.6719299156    -2.2242436197
| 11>  C        1.2617573629    -3.9591297773    -2.0520149755
| 12>  N        1.6150590726    -4.6056292896    -3.0653085736
| 13>  C        2.0916687540    -5.9589569476    -2.8547772474
| 14>  H        1.5790182253     0.0662810958     0.5411543738
| 15>  H        1.4281727605     1.4413500274    -0.5795156618
| 16>  H        0.6340578847     1.5012228672     0.9970587072
| 17>  H       -0.8819577757    -0.1479285766     0.2849011328
| 18>  H       -1.0512809321    -0.7787253085    -2.0669434097
| 19>  H        0.5746339062    -0.1593666608    -2.2541949828
| 20>  H        1.2667991850    -4.2879099430    -1.0106050554
| 21>  H        1.4696133889    -6.6526276362    -3.4305671597
| 22>  H        3.1111329605    -6.0457845951    -3.2456852865
| 23>  H        2.0907956946    -6.2775385479    -1.8011213234
| 24> *
| 25>
| 26>                          ****END OF INPUT****

CARTESIAN COORDINATES (ANGSTROEM)
---------------------------------
  C      0.893065    0.840916    0.164886
  N     -0.336473    0.320603   -0.431168
  C     -0.113846   -0.597433   -1.523294
  C      0.420600   -1.966594   -1.114469
  O      0.471818   -2.388126    0.009338
  O      0.804561   -2.671930   -2.224244
  C      1.261757   -3.959130   -2.052015
  N      1.615059   -4.605629   -3.065309
  C      2.091669   -5.958957   -2.854777
  H      1.579018    0.066281    0.541154
  H      1.428173    1.441350   -0.579516
  H      0.634058    1.501223    0.997059
  H     -0.881958   -0.147929    0.284901
  H     -1.051281   -0.778725   -2.066943
  H      0.574634   -0.159367   -2.254195
  H      1.266799   -4.287910   -1.010605
  H      1.469613   -6.652628   -3.430567
  H      3.111133   -6.045785   -3.245685
  H      2.090796   -6.277539   -1.801121

 Total Charge           Charge          ....    0
 Multiplicity           Mult            ....    1
 Number of Electrons    NEL             ....   70
 Basis Dimension        Dim             ....  339

ORBITAL ENERGIES
----------------

  NO   OCC          E(Eh)            E(eV)
   0   2.0000     -20.629721      -561.3633
   1   2.0000     -20.566771      -559.6503
   2   2.0000     -15.563562      -423.5061
   3   2.0000     -15.556050      -423.3016
   4   2.0000     -11.399331      -310.1916
   5   2.0000     -11.341665      -308.6224
   6   2.0000     -11.280810      -306.9664
   7   2.0000     -11.257043      -306.3197
   8   2.0000     -11.248634      -306.0909
   9   2.0000      -1.489901       -40.5423
  10   2.0000      -1.394283       -37.9404
  11   2.0000      -1.238382       -33.6981
  12   2.0000      -1.219536       -33.1853
  13   2.0000      -1.017333       -27.6830
  14   2.0000      -0.961179       -26.1550
  15   2.0000      -0.898296       -24.4439
  16   2.0000      -0.834275       -22.7018
  17   2.0000      -0.795982       -21.6598
  18   2.0000      -0.729509       -19.8509
  19   2.0000      -0.700131       -19.0515
  20   2.0000      -0.685503       -18.6535
  21   2.0000      -0.654684       -17.8149
  22   2.0000      -0.641359       -17.4523
  23   2.0000      -0.611402       -16.6371
  24   2.0000      -0.599346       -16.3090
  25   2.0000      -0.593279       -16.1439
  26   2.0000      -0.574694       -15.6382
  27   2.0000      -0.552213       -15.0265
  28   2.0000      -0.534902       -14.5554
  29   2.0000      -0.524380       -14.2691
  30   2.0000      -0.514787       -14.0081
  31   2.0000      -0.481710       -13.1080
  32   2.0000      -0.428338       -11.6557
  33   2.0000      -0.407683       -11.0936
  34   2.0000      -0.387660       -10.5488
  35   0.0000       0.131976         3.5912
  36   0.0000       0.136196         3.7061
  37   0.0000       0.152593         4.1523
  38   0.0000       0.170358         4.6357
  39   0.0000       0.175282         4.7697

MULLIKEN ATOMIC CHARGES
-----------------------
   0 C :   -0.312070
   1 N :   -0.329854
   2 C :   -0.162861
   3 C :    0.282606
   4 O :   -0.323620
   5 O :   -0.202259
   6 C :    0.033993
   7 N :   -0.168354
   8 C :   -0.248514
   9 H :    0.129808
  10 H :    0.128154
  11 H :    0.137370
  12 H :    0.212547
  13 H :    0.161052
  14 H :    0.154121
  15 H :    0.121846
  16 H :    0.142287
  17 H :    0.142311
  18 H :    0.101436
Sum of atomic charges:    0.0000000

LOEWDIN ATOMIC CHARGES
----------------------
   0 C :   -0.347889
   1 N :   -0.041092
   2 C :   -0.293123
   3 C :   -0.456286
   4 O :    0.131931
   5 O :    0.292621
   6 C :   -0.319441
   7 N :    0.077622
   8 C :   -0.329406
   9 H :    0.103413
  10 H :    0.115135
  11 H :    0.117203
  12 H :    0.173546
  13 H :    0.154361
  14 H :    0.152306
  15 H :    0.123175
  16 H :    0.120601
  17 H :    0.120608
  18 H :    0.104717

  Mayer bond orders larger than 0.1
B(  0-C ,  1-N ) :   0.9295 B(  0-C ,  9-H ) :   0.9276 B(  0-C , 10-H ) :   0.9361
B(  0-C , 11-H ) :   0.9406 B(  1-N ,  2-C ) :   1.0010 B(  1-N , 12-H ) :   0.8800
B(  2-C ,  3-C ) :   0.9121 B(  2-C , 13-H ) :   0.9045 B(  2-C , 14-H ) :   0.9317
B(  3-C ,  4-O ) :   1.9232 B(  3-C ,  5-O ) :   1.0320 B(  5-O ,  6-C ) :   0.9467
B(  6-C ,  7-N ) :   1.9212 B(  6-C , 15-H ) :   0.9285 B(  7-N ,  8-C ) :   0.8740
B(  8-C , 16-H ) :   0.9307 B(  8-C , 17-H ) :   0.9306 B(  8-C , 18-H ) :   0.9280

MP2 TOTAL ENERGY:     -455.615645866 Eh
FINAL SINGLE POINT ENERGY      -455.615645866240

DIPOLE MOMENT
-------------
                                X             Y             Z
Electronic contribution:     -1.98419      -2.04486      -1.30794
Nuclear contribution   :      2.13474       1.76653       1.60465
                        -----------------------------------------
Total Dipole Moment    :      0.15055      -0.27834       0.29671
                        -----------------------------------------
Magnitude (a.u.)       :      0.43379
Magnitude (Debye)      :      1.10260

                             ****ORCA TERMINATED NORMALLY****
TOTAL RUN TIME: 0 days 0 hours 13 minutes 36 seconds 253 msec
