                         Program Version 3.0.3 - RELEASE   -
|  1> ! RI-MP2 RIJK def2-TZVP def2-TZVP/C def2-TZVP/JK TIGHTSCF
|  2> % maxcore 2000
|  3> % mp2 density relaxed end
|  4> *xyz 0 1
|  5>  O        0.1483227086     1.3728250722    -0.1384569282
|  6>  C        0.0492332811    -0.0237750486     0.0166738216
|  7>  C       -1.4203893476    -0.5147847882     0.0784432358
|  8>  C       -2.1201735824    -0.1092377581    -1.1435602301
|  9>  N       -2.6476102947     0.2311364116    -2.1145210986
| 10>  C       -1.4879600139    -2.0330628757     0.2943555990
| 11>  C       -2.8346625093    -2.7636246040     0.1015021850
| 12>  C       -2.0876686871    -3.5409689830    -1.0023422800
| 13>  O       -0.8854508236    -2.7599625357    -0.7927701048
| 14>  H       -0.1479126847     1.5985312548    -1.0274440479
| 15>  H        0.5702661186    -0.5746927584    -0.7764730539
| 16>  H        0.5286126469    -0.2657124831     0.9702580079
| 17>  H       -1.9102470685    -0.0168243011     0.9251408780
| 18>  H       -0.9854224178    -2.2558529701     1.2463655158
| 19>  H       -3.1747603575    -3.3503562683     0.9551314051
| 20>  H       -3.6497481087    -2.1326450113    -0.2558984102
| 21>  H       -1.9169253120    -4.6037656850    -0.7969228592
| 22>  H       -2.4716340675    -3.4238372979    -2.0203979452
| 23> *
| 24>
| 25>                          ****END OF INPUT****

CARTESIAN COORDINATES (ANGSTROEM)
---------------------------------
  O      0.148323    1.372825   -0.138457
  C      0.049233   -0.023775    0.016674
  C     -1.420389   -0.514785    0.078443
  C     -2.120174   -0.109238   -1.143560
  N     -2.647610    0.231136   -2.114521
  C     -1.487960   -2.033063    0.294356
  C     -2.834663   -2.763625    0.101502
  C     -2.087669   -3.540969   -1.002342
  O     -0.885451   -2.759963   -0.792770
  H     -0.147913    1.598531   -1.027444
  H      0.570266   -0.574693   -0.776473
  H      0.528613   -0.265712    0.970258
  H     -1.910247   -0.016824    0.925141
  H     -0.985422   -2.255853    1.246366
  H     -3.174760   -3.350356    0.955131
  H     -3.649748   -2.132645   -0.255898
  H     -1.916925   -4.603766   -0.796923
  H     -2.471634   -3.423837   -2.020398

 Total Charge           Charge          ....    0
 Multiplicity           Mult            ....    1
 Number of Electrons    NEL             ....   68
 Basis Dimension        Dim             ....  333

ORBITAL ENERGIES
----------------

  NO   OCC          E(Eh)            E(eV)
   0   2.0000     -20.572006      -559.7927
   1   2.0000     -20.567220      -559.6625
   2   2.0000     -15.576854      -423.8677
   3   2.0000     -11.315928      -307.9221
   4   2.0000     -11.301820      -307.5382
   5   2.0000     -11.293911      -307.3229
   6   2.0000     -11.289244      -307.1959
   7   2.0000     -11.278987      -306.9168
   8   2.0000     -11.249223      -306.1069
   9   2.0000      -1.400536       -38.1105
  10   2.0000      -1.380098       -37.5544
  11   2.0000      -1.226547       -33.3760
  12   2.0000      -1.099583       -29.9212
  13   2.0000      -1.027748       -27.9664
  14   2.0000      -0.938352       -25.5338
  15   2.0000      -0.893279       -24.3074
  16   2.0000      -0.796550       -21.6752
  17   2.0000      -0.726888       -19.7796
  18   2.0000      -0.712216       -19.3804
  19   2.0000      -0.700658       -19.0659
  20   2.0000      -0.666261       -18.1299
  21   2.0000      -0.635355       -17.2889
  22   2.0000      -0.617330       -16.7984
  23   2.0000      -0.591614       -16.0986
  24   2.0000      -0.583141       -15.8681
  25   2.0000      -0.559656       -15.2290
  26   2.0000      -0.554260       -15.0822
  27   2.0000      -0.522593       -14.2205
  28   2.0000      -0.500755       -13.6262
  29   2.0000      -0.483870       -13.1668
  30   2.0000      -0.482688       -13.1346
  31   2.0000      -0.467030       -12.7085
  32   2.0000      -0.444186       -12.0869
  33   2.0000      -0.430903       -11.7255
  34   0.0000       0.123598         3.3633
  35   0.0000       0.145227         3.9518
  36   0.0000       0.147398         4.0109
  37   0.0000       0.156551         4.2600
  38   0.0000       0.171057         4.6547

MULLIKEN ATOMIC CHARGES
-----------------------
   0 O :   -0.467074
   1 C :   -0.074539
   2 C :    0.119984
   3 C :   -0.298955
   4 N :   -0.047527
   5 C :    0.086770
   6 C :   -0.306722
   7 C :   -0.012522
   8 O :   -0.348782
   9 H :    0.332828
  10 H :    0.146983
  11 H :    0.122268
  12 H :    0.131473
  13 H :    0.105794
  14 H :    0.136794
  15 H :    0.147517
  16 H :    0.107952
  17 H :    0.117758
Sum of atomic charges:   -0.0000000

LOEWDIN ATOMIC CHARGES
----------------------
   0 O :   -0.027221
   1 C :   -0.307872
   2 C :   -0.239252
   3 C :   -0.180220
   4 N :    0.062744
   5 C :   -0.256989
   6 C :   -0.219474
   7 C :   -0.258653
   8 O :    0.139866
   9 H :    0.182009
  10 H :    0.131603
  11 H :    0.135351
  12 H :    0.181962
  13 H :    0.142459
  14 H :    0.132450
  15 H :    0.140783
  16 H :    0.118183
  17 H :    0.122271

  Mayer bond orders larger than 0.1
B(  0-O ,  1-C ) :   0.9576 B(  0-O ,  9-H ) :   0.8361 B(  1-C ,  2-C ) :   0.8554
B(  1-C , 10-H ) :   0.9285 B(  1-C , 11-H ) :   0.9248 B(  2-C ,  3-C ) :   0.8741
B(  2-C ,  5-C ) :   0.8812 B(  2-C , 12-H ) :   0.8925 B(  3-C ,  4-N ) :   2.8664
B(  5-C ,  6-C ) :   0.9049 B(  5-C ,  8-O ) :   0.9313 B(  5-C , 13-H ) :   0.9118
B(  6-C ,  7-C ) :   0.9794 B(  6-C , 14-H ) :   0.9265 B(  6-C , 15-H ) :   0.9249
B(  7-C ,  8-O ) :   0.9167 B(  7-C , 16-H ) :   0.9198 B(  7-C , 17-H ) :   0.9185

MP2 TOTAL ENERGY:     -438.357296450 Eh
FINAL SINGLE POINT ENERGY      -438.357296449742

DIPOLE MOMENT
-------------
                                X             Y             Z
Electronic contribution:      0.11111       3.67722      -2.58409
Nuclear contribution   :     -0.29495      -4.64440       3.58922
                        -----------------------------------------
Total Dipole Moment    :     -0.18384      -0.96718       1.00513
                        -----------------------------------------
Magnitude (a.u.)       :      1.40695
Magnitude (Debye)      :      3.57620

                             ****ORCA TERMINATED NORMALLY****
TOTAL RUN TIME: 0 days 0 hours 17 minutes 15 seconds 461 msec
