                         Program Version 3.0.3 - RELEASE   -
|  1> ! RI-MP2 RIJK def2-TZVP def2-TZVP/C def2-TZVP/JK TIGHTSCF
|  2> % maxcore 2000
|  3> % mp2 density relaxed end
|  4> *xyz 0 1
|  5>  C        0.0611229246     1.4445699507     0.0754420282
|  6>  N       -0.0504475808     0.0130421654    -0.0813391078
|  7>  C       -1.2260835551    -0.6783079746    -0.0207826250
|  8>  C       -2.4905099674    -0.0449272451     0.0016734751
|  9>  N       -3.6191890571    -0.7389375822     0.0342643173
| 10>  C       -3.5176058230    -2.0730192490     0.0486252028
| 11>  C       -2.2748892602    -2.6960360159     0.0355400875
| 12>  N       -1.1302847537    -2.0167339507     0.0032899355
| 13>  H        1.1152202781     1.7220782802     0.0201615579
| 14>  H       -0.4645967296     1.9763724856    -0.7267761189
| 15>  H       -0.3375110751     1.8004383549     1.0365600030
| 16>  H        0.7711979962    -0.5570907017     0.0370989285
| 17>  H       -2.5763075589     1.0374663370    -0.0075280926
| 18>  H       -4.4391152913    -2.6458994877     0.0752882179
| 19>  H       -2.1955458366    -3.7807741869     0.0542977006
| 20> *
| 21>
| 22>                          ****END OF INPUT****

CARTESIAN COORDINATES (ANGSTROEM)
---------------------------------
  C      0.061123    1.444570    0.075442
  N     -0.050448    0.013042   -0.081339
  C     -1.226084   -0.678308   -0.020783
  C     -2.490510   -0.044927    0.001673
  N     -3.619189   -0.738938    0.034264
  C     -3.517606   -2.073019    0.048625
  C     -2.274889   -2.696036    0.035540
  N     -1.130285   -2.016734    0.003290
  H      1.115220    1.722078    0.020162
  H     -0.464597    1.976372   -0.726776
  H     -0.337511    1.800438    1.036560
  H      0.771198   -0.557091    0.037099
  H     -2.576308    1.037466   -0.007528
  H     -4.439115   -2.645899    0.075288
  H     -2.195546   -3.780774    0.054298

 Total Charge           Charge          ....    0
 Multiplicity           Mult            ....    1
 Number of Electrons    NEL             ....   58
 Basis Dimension        Dim             ....  290

ORBITAL ENERGIES
----------------

  NO   OCC          E(Eh)            E(eV)
   0   2.0000     -15.585231      -424.0957
   1   2.0000     -15.576841      -423.8674
   2   2.0000     -15.568630      -423.6440
   3   2.0000     -11.320669      -308.0511
   4   2.0000     -11.276613      -306.8522
   5   2.0000     -11.271426      -306.7111
   6   2.0000     -11.265861      -306.5597
   7   2.0000     -11.254972      -306.2634
   8   2.0000      -1.312447       -35.7135
   9   2.0000      -1.244747       -33.8713
  10   2.0000      -1.193996       -32.4903
  11   2.0000      -1.032369       -28.0922
  12   2.0000      -0.950309       -25.8592
  13   2.0000      -0.894514       -24.3410
  14   2.0000      -0.850690       -23.1484
  15   2.0000      -0.731561       -19.9068
  16   2.0000      -0.712173       -19.3792
  17   2.0000      -0.680837       -18.5265
  18   2.0000      -0.635211       -17.2850
  19   2.0000      -0.626826       -17.0568
  20   2.0000      -0.612613       -16.6701
  21   2.0000      -0.566595       -15.4178
  22   2.0000      -0.554767       -15.0960
  23   2.0000      -0.550385       -14.9767
  24   2.0000      -0.485000       -13.1975
  25   2.0000      -0.461942       -12.5701
  26   2.0000      -0.411222       -11.1899
  27   2.0000      -0.403657       -10.9841
  28   2.0000      -0.304527        -8.2866
  29   0.0000       0.092018         2.5039
  30   0.0000       0.134542         3.6611
  31   0.0000       0.140303         3.8179
  32   0.0000       0.159029         4.3274
  33   0.0000       0.176929         4.8145

MULLIKEN ATOMIC CHARGES
-----------------------
   0 C :   -0.301658
   1 N :   -0.319117
   2 C :    0.267671
   3 C :   -0.113563
   4 N :   -0.249303
   5 C :   -0.035711
   6 C :   -0.042354
   7 N :   -0.280705
   8 H :    0.147110
   9 H :    0.144351
  10 H :    0.141200
  11 H :    0.242677
  12 H :    0.137545
  13 H :    0.132712
  14 H :    0.129144
Sum of atomic charges:   -0.0000000

LOEWDIN ATOMIC CHARGES
----------------------
   0 C :   -0.325884
   1 N :    0.074225
   2 C :   -0.314170
   3 C :   -0.205244
   4 N :    0.130932
   5 C :   -0.238617
   6 C :   -0.230938
   7 N :    0.147690
   8 H :    0.123618
   9 H :    0.118041
  10 H :    0.113606
  11 H :    0.187652
  12 H :    0.140714
  13 H :    0.138575
  14 H :    0.139800

  Mayer bond orders larger than 0.1
B(  0-C ,  1-N ) :   0.8989 B(  0-C ,  8-H ) :   0.9331 B(  0-C ,  9-H ) :   0.9316
B(  0-C , 10-H ) :   0.9327 B(  1-N ,  2-C ) :   1.1425 B(  1-N , 11-H ) :   0.8609
B(  2-C ,  3-C ) :   1.2258 B(  2-C ,  7-N ) :   1.3372 B(  3-C ,  4-N ) :   1.4627
B(  3-C , 12-H ) :   0.9318 B(  4-N ,  5-C ) :   1.3465 B(  5-C ,  6-C ) :   1.3243
B(  5-C , 13-H ) :   0.9317 B(  6-C ,  7-N ) :   1.4163 B(  6-C , 14-H ) :   0.9311

MP2 TOTAL ENERGY:     -358.259336495 Eh
FINAL SINGLE POINT ENERGY      -358.259336494927

DIPOLE MOMENT
-------------
                                X             Y             Z
Electronic contribution:     -2.92973      -4.40024      -0.25748
Nuclear contribution   :      3.74558       4.84293       0.36407
                        -----------------------------------------
Total Dipole Moment    :      0.81584       0.44269       0.10660
                        -----------------------------------------
Magnitude (a.u.)       :      0.93431
Magnitude (Debye)      :      2.37483

                             ****ORCA TERMINATED NORMALLY****
TOTAL RUN TIME: 0 days 0 hours 10 minutes 59 seconds 49 msec
