                         Program Version 3.0.3 - RELEASE   -
|  1> ! RI-MP2 RIJK def2-TZVP def2-TZVP/C def2-TZVP/JK TIGHTSCF
|  2> % maxcore 2000
|  3> % mp2 density relaxed end
|  4> *xyz 0 1
|  5>  C       -0.6397134398     1.1154072878     0.6209734226
|  6>  C        0.0952865607    -0.1244782177     0.1691783004
|  7>  N        1.3424326512     0.0721926612    -0.5914320327
|  8>  C        1.3990942992    -0.5961473180     0.7180620260
|  9>  C        2.1713017136     0.1043423581     1.8140225491
| 10>  C        1.8072974509    -0.4504473334     3.2052739400
| 11>  O        2.0757753308    -1.8245876849     3.2962893500
| 12>  C        2.5540888215     0.3023820621     4.2855429738
| 13>  O        3.2752459456    -0.2619624192     5.0728371251
| 14>  H        0.0518456356     1.9051178369     0.9227549470
| 15>  H       -1.2527023014     1.5125020757    -0.1953078697
| 16>  H       -1.3066380251     0.8924287959     1.4613324062
| 17>  H       -0.5638492027    -0.9202662588    -0.1775206352
| 18>  H        1.4208788158    -0.6064503601    -1.3435086294
| 19>  H        1.5441421986    -1.6742945150     0.7229210219
| 20>  H        3.2456726740    -0.0449482715     1.6498601133
| 21>  H        1.9857992521     1.1826230637     1.7807860246
| 22>  H        0.7313828490    -0.2609951566     3.3781143958
| 23>  H        2.6848954330    -1.9218383995     4.0454924977
| 24>  H        2.4068561574     1.4015381734     4.3124517935
| 25> *
| 26>
| 27>                          ****END OF INPUT****

CARTESIAN COORDINATES (ANGSTROEM)
---------------------------------
  C     -0.639713    1.115407    0.620973
  C      0.095287   -0.124478    0.169178
  N      1.342433    0.072193   -0.591432
  C      1.399094   -0.596147    0.718062
  C      2.171302    0.104342    1.814023
  C      1.807297   -0.450447    3.205274
  O      2.075775   -1.824588    3.296289
  C      2.554089    0.302382    4.285543
  O      3.275246   -0.261962    5.072837
  H      0.051846    1.905118    0.922755
  H     -1.252702    1.512502   -0.195308
  H     -1.306638    0.892429    1.461332
  H     -0.563849   -0.920266   -0.177521
  H      1.420879   -0.606450   -1.343509
  H      1.544142   -1.674295    0.722921
  H      3.245673   -0.044948    1.649860
  H      1.985799    1.182623    1.780786
  H      0.731383   -0.260995    3.378114
  H      2.684895   -1.921838    4.045492
  H      2.406856    1.401538    4.312452

 Total Charge           Charge          ....    0
 Multiplicity           Mult            ....    1
 Number of Electrons    NEL             ....   70
 Basis Dimension        Dim             ....  345

ORBITAL ENERGIES
----------------

  NO   OCC          E(Eh)            E(eV)
   0   2.0000     -20.579446      -559.9952
   1   2.0000     -20.562146      -559.5245
   2   2.0000     -15.556989      -423.3272
   3   2.0000     -11.348488      -308.8081
   4   2.0000     -11.302766      -307.5639
   5   2.0000     -11.264307      -306.5174
   6   2.0000     -11.262108      -306.4575
   7   2.0000     -11.240972      -305.8824
   8   2.0000     -11.224267      -305.4278
   9   2.0000      -1.425478       -38.7892
  10   2.0000      -1.368926       -37.2504
  11   2.0000      -1.264435       -34.4070
  12   2.0000      -1.061626       -28.8883
  13   2.0000      -0.995147       -27.0793
  14   2.0000      -0.942669       -25.6513
  15   2.0000      -0.846011       -23.0211
  16   2.0000      -0.805002       -21.9052
  17   2.0000      -0.769358       -20.9353
  18   2.0000      -0.734359       -19.9829
  19   2.0000      -0.716903       -19.5079
  20   2.0000      -0.686330       -18.6760
  21   2.0000      -0.649943       -17.6859
  22   2.0000      -0.605483       -16.4760
  23   2.0000      -0.593287       -16.1442
  24   2.0000      -0.580401       -15.7935
  25   2.0000      -0.561457       -15.2780
  26   2.0000      -0.554136       -15.0788
  27   2.0000      -0.546481       -14.8705
  28   2.0000      -0.536262       -14.5924
  29   2.0000      -0.497530       -13.5385
  30   2.0000      -0.481558       -13.1038
  31   2.0000      -0.455438       -12.3931
  32   2.0000      -0.445739       -12.1292
  33   2.0000      -0.434567       -11.8252
  34   2.0000      -0.391958       -10.6657
  35   0.0000       0.115644         3.1468
  36   0.0000       0.132222         3.5980
  37   0.0000       0.139909         3.8071
  38   0.0000       0.161853         4.4043
  39   0.0000       0.171546         4.6680

MULLIKEN ATOMIC CHARGES
-----------------------
   0 C :   -0.404199
   1 C :   -0.017597
   2 N :   -0.400473
   3 C :   -0.030707
   4 C :   -0.216629
   5 C :    0.063540
   6 O :   -0.482852
   7 C :    0.118515
   8 O :   -0.294049
   9 H :    0.131365
  10 H :    0.137478
  11 H :    0.125116
  12 H :    0.119053
  13 H :    0.220361
  14 H :    0.138634
  15 H :    0.123658
  16 H :    0.130402
  17 H :    0.103851
  18 H :    0.331862
  19 H :    0.102672
Sum of atomic charges:    0.0000000

LOEWDIN ATOMIC CHARGES
----------------------
   0 C :   -0.299472
   1 C :   -0.283992
   2 N :    0.000321
   3 C :   -0.261575
   4 C :   -0.225286
   5 C :   -0.362317
   6 O :   -0.003531
   7 C :   -0.269489
   8 O :    0.127162
   9 H :    0.125266
  10 H :    0.128416
  11 H :    0.124497
  12 H :    0.137196
  13 H :    0.164893
  14 H :    0.145460
  15 H :    0.148810
  16 H :    0.146493
  17 H :    0.153564
  18 H :    0.182653
  19 H :    0.120930

  Mayer bond orders larger than 0.1
B(  0-C ,  1-C ) :   0.8968 B(  0-C ,  9-H ) :   0.9439 B(  0-C , 10-H ) :   0.9356
B(  0-C , 11-H ) :   0.9365 B(  1-C ,  2-N ) :   0.9092 B(  1-C ,  3-C ) :   0.9220
B(  1-C , 12-H ) :   0.9273 B(  2-N ,  3-C ) :   0.9048 B(  2-N , 13-H ) :   0.8706
B(  3-C ,  4-C ) :   0.8822 B(  3-C , 14-H ) :   0.9334 B(  4-C ,  5-C ) :   0.8573
B(  4-C , 15-H ) :   0.9069 B(  4-C , 16-H ) :   0.9325 B(  5-C ,  6-O ) :   1.0639
B(  5-C ,  7-C ) :   0.8819 B(  5-C , 17-H ) :   0.9286 B(  6-O , 18-H ) :   0.8058
B(  7-C ,  8-O ) :   1.9212 B(  7-C , 19-H ) :   0.9327

MP2 TOTAL ENERGY:     -439.549492580 Eh
FINAL SINGLE POINT ENERGY      -439.549492580421

DIPOLE MOMENT
-------------
                                X             Y             Z
Electronic contribution:      5.40346      -3.23281       5.88701
Nuclear contribution   :     -6.01170       3.48319      -6.16706
                        -----------------------------------------
Total Dipole Moment    :     -0.60824       0.25038      -0.28005
                        -----------------------------------------
Magnitude (a.u.)       :      0.71489
Magnitude (Debye)      :      1.81711

                             ****ORCA TERMINATED NORMALLY****
TOTAL RUN TIME: 0 days 0 hours 17 minutes 58 seconds 837 msec
