                         Program Version 3.0.3 - RELEASE   -
|  1> ! RI-MP2 RIJK def2-TZVP def2-TZVP/C def2-TZVP/JK TIGHTSCF
|  2> % maxcore 2000
|  3> % mp2 density relaxed end
|  4> *xyz 0 1
|  5>  C       -0.1678024138     1.5648675899     0.1078706681
|  6>  C       -0.0674027121     0.0727666853     0.0124027737
|  7>  N        1.1433975218    -0.5593084748    -0.4678125176
|  8>  C        0.7085447939    -0.9310109848     0.8924977462
|  9>  C        1.6150582580    -0.6571636190     2.0229741728
| 10>  O        1.5521944504    -1.2265326766     3.0852922904
| 11>  C       -0.4892814902    -1.8541566878     0.8794873661
| 12>  N       -1.6411266664    -1.0922946061     1.4265420499
| 13>  C       -1.2392598858    -0.9013188546     0.0129053313
| 14>  H        0.8056046225     2.0093639223     0.3261946090
| 15>  H       -0.5213427071     1.9838417855    -0.8415666362
| 16>  H       -0.8762036614     1.8460388856     0.8917844832
| 17>  H        0.9689211801    -1.3164099858    -1.1259265746
| 18>  H        2.3792299185     0.1216308789     1.8126374249
| 19>  H       -0.4893272313    -2.9367272828     0.8655865355
| 20>  H       -2.4458555964    -1.7221583147     1.4387375987
| 21>  H       -1.9218754108    -1.1077428208    -0.8031622712
| 22> *
| 23>
| 24>                          ****END OF INPUT****

CARTESIAN COORDINATES (ANGSTROEM)
---------------------------------
  C     -0.167802    1.564868    0.107871
  C     -0.067403    0.072767    0.012403
  N      1.143398   -0.559308   -0.467813
  C      0.708545   -0.931011    0.892498
  C      1.615058   -0.657164    2.022974
  O      1.552194   -1.226533    3.085292
  C     -0.489281   -1.854157    0.879487
  N     -1.641127   -1.092295    1.426542
  C     -1.239260   -0.901319    0.012905
  H      0.805605    2.009364    0.326195
  H     -0.521343    1.983842   -0.841567
  H     -0.876204    1.846039    0.891784
  H      0.968921   -1.316410   -1.125927
  H      2.379230    0.121631    1.812637
  H     -0.489327   -2.936727    0.865587
  H     -2.445856   -1.722158    1.438738
  H     -1.921875   -1.107743   -0.803162

 Total Charge           Charge          ....    0
 Multiplicity           Mult            ....    1
 Number of Electrons    NEL             ....   66
 Basis Dimension        Dim             ....  327

ORBITAL ENERGIES
----------------

  NO   OCC          E(Eh)            E(eV)
   0   2.0000     -20.550980      -559.2206
   1   2.0000     -15.585534      -424.1040
   2   2.0000     -15.580843      -423.9763
   3   2.0000     -11.329757      -308.2984
   4   2.0000     -11.297490      -307.4203
   5   2.0000     -11.283492      -307.0394
   6   2.0000     -11.282726      -307.0186
   7   2.0000     -11.281457      -306.9840
   8   2.0000     -11.232873      -305.6620
   9   2.0000      -1.390276       -37.8313
  10   2.0000      -1.337719       -36.4012
  11   2.0000      -1.247585       -33.9485
  12   2.0000      -1.013523       -27.5794
  13   2.0000      -0.978892       -26.6370
  14   2.0000      -0.937440       -25.5090
  15   2.0000      -0.858052       -23.3488
  16   2.0000      -0.811678       -22.0869
  17   2.0000      -0.728843       -19.8328
  18   2.0000      -0.721341       -19.6287
  19   2.0000      -0.686675       -18.6854
  20   2.0000      -0.659055       -17.9338
  21   2.0000      -0.636951       -17.3323
  22   2.0000      -0.588181       -16.0052
  23   2.0000      -0.575609       -15.6631
  24   2.0000      -0.551639       -15.0109
  25   2.0000      -0.539402       -14.6779
  26   2.0000      -0.522765       -14.2252
  27   2.0000      -0.513804       -13.9813
  28   2.0000      -0.475295       -12.9334
  29   2.0000      -0.448045       -12.1919
  30   2.0000      -0.429406       -11.6847
  31   2.0000      -0.400309       -10.8929
  32   2.0000      -0.383320       -10.4307
  33   0.0000       0.117262         3.1909
  34   0.0000       0.134491         3.6597
  35   0.0000       0.142724         3.8837
  36   0.0000       0.160484         4.3670
  37   0.0000       0.170742         4.6461

MULLIKEN ATOMIC CHARGES
-----------------------
   0 C :   -0.432467
   1 C :    0.137580
   2 N :   -0.343304
   3 C :    0.129257
   4 C :    0.032764
   5 O :   -0.265090
   6 C :   -0.087506
   7 N :   -0.367146
   8 C :   -0.077134
   9 H :    0.145707
  10 H :    0.137828
  11 H :    0.158562
  12 H :    0.227944
  13 H :    0.092267
  14 H :    0.148439
  15 H :    0.214378
  16 H :    0.147921
Sum of atomic charges:   -0.0000000

LOEWDIN ATOMIC CHARGES
----------------------
   0 C :   -0.262829
   1 C :   -0.239363
   2 N :    0.082930
   3 C :   -0.221664
   4 C :   -0.266464
   5 O :    0.138658
   6 C :   -0.194403
   7 N :    0.023523
   8 C :   -0.204485
   9 H :    0.135150
  10 H :    0.133044
  11 H :    0.138518
  12 H :    0.173173
  13 H :    0.120443
  14 H :    0.136940
  15 H :    0.172348
  16 H :    0.134480

  Mayer bond orders larger than 0.1
B(  0-C ,  1-C ) :   0.8753 B(  0-C ,  9-H ) :   0.9349 B(  0-C , 10-H ) :   0.9297
B(  0-C , 11-H ) :   0.9415 B(  1-C ,  2-N ) :   0.9573 B(  1-C ,  3-C ) :   0.7971
B(  1-C ,  8-C ) :   0.9057 B(  2-N ,  3-C ) :   0.9025 B(  2-N , 12-H ) :   0.8612
B(  3-C ,  4-C ) :   0.8559 B(  3-C ,  5-O ) :  -0.1152 B(  3-C ,  6-C ) :   0.8839
B(  4-C ,  5-O ) :   2.0230 B(  4-C , 13-H ) :   0.9640 B(  6-C ,  7-N ) :   0.9532
B(  6-C ,  8-C ) :   0.9105 B(  6-C , 14-H ) :   0.9232 B(  7-N ,  8-C ) :   0.9457
B(  7-N , 15-H ) :   0.8656 B(  8-C , 16-H ) :   0.9182

MP2 TOTAL ENERGY:     -417.235543178 Eh
FINAL SINGLE POINT ENERGY      -417.235543178138

DIPOLE MOMENT
-------------
                                X             Y             Z
Electronic contribution:      2.32161      -3.76778       2.97231
Nuclear contribution   :     -3.16810       3.55425      -4.37163
                        -----------------------------------------
Total Dipole Moment    :     -0.84649      -0.21353      -1.39932
                        -----------------------------------------
Magnitude (a.u.)       :      1.64931
Magnitude (Debye)      :      4.19222

                             ****ORCA TERMINATED NORMALLY****
TOTAL RUN TIME: 0 days 0 hours 18 minutes 0 seconds 944 msec
