                         Program Version 3.0.3 - RELEASE   -
|  1> ! RI-MP2 RIJK def2-TZVP def2-TZVP/C def2-TZVP/JK TIGHTSCF
|  2> % maxcore 2000
|  3> % mp2 density relaxed end
|  4> *xyz 0 1
|  5>  C       -0.7942908009     0.7976654037     0.3169053275
|  6>  O       -0.0750313162    -0.3925453026     0.0576607546
|  7>  C        0.7947707726    -0.3073346892    -1.0536279528
|  8>  C        1.8088181099    -1.4399214454    -0.9547076764
|  9>  C        2.3619062983    -1.8488011348     0.3559535164
| 10>  N        1.4187847758    -2.7288861113    -0.3654285291
| 11>  C        0.0540560939    -0.4165115278    -2.4054443657
| 12>  C       -1.1060576217    -1.3866578324    -2.4811584370
| 13>  O        0.4468456725     0.2184415239    -3.3557432323
| 14>  H       -0.1154568892     1.6378801868     0.5201641885
| 15>  H       -1.4481509542     1.0766409266    -0.5219820514
| 16>  H       -1.4110658710     0.6134784263     1.1991855732
| 17>  H        1.3281939859     0.6549392086    -1.0668205413
| 18>  H        2.4368769443    -1.5222302797    -1.8389411281
| 19>  H        3.3815210683    -2.2174758781     0.4186977467
| 20>  H        1.9963709015    -1.3307595928     1.2367993542
| 21>  H        0.5028123976    -2.6147260294     0.0649507164
| 22>  H       -0.7529668416    -2.3967763666    -2.2431111374
| 23>  H       -1.8720113717    -1.1404393265    -1.7402505867
| 24>  H       -1.5312913842    -1.3704390892    -3.4850473594
| 25> *
| 26>
| 27>                          ****END OF INPUT****

CARTESIAN COORDINATES (ANGSTROEM)
---------------------------------
  C     -0.794291    0.797665    0.316905
  O     -0.075031   -0.392545    0.057661
  C      0.794771   -0.307335   -1.053628
  C      1.808818   -1.439921   -0.954708
  C      2.361906   -1.848801    0.355954
  N      1.418785   -2.728886   -0.365429
  C      0.054056   -0.416512   -2.405444
  C     -1.106058   -1.386658   -2.481158
  O      0.446846    0.218442   -3.355743
  H     -0.115457    1.637880    0.520164
  H     -1.448151    1.076641   -0.521982
  H     -1.411066    0.613478    1.199186
  H      1.328194    0.654939   -1.066821
  H      2.436877   -1.522230   -1.838941
  H      3.381521   -2.217476    0.418698
  H      1.996371   -1.330760    1.236799
  H      0.502812   -2.614726    0.064951
  H     -0.752967   -2.396776   -2.243111
  H     -1.872011   -1.140439   -1.740251
  H     -1.531291   -1.370439   -3.485047

 Total Charge           Charge          ....    0
 Multiplicity           Mult            ....    1
 Number of Electrons    NEL             ....   70
 Basis Dimension        Dim             ....  345

ORBITAL ENERGIES
----------------

  NO   OCC          E(Eh)            E(eV)
   0   2.0000     -20.584206      -560.1247
   1   2.0000     -20.554005      -559.3029
   2   2.0000     -15.559942      -423.4075
   3   2.0000     -11.335539      -308.4557
   4   2.0000     -11.305279      -307.6323
   5   2.0000     -11.293078      -307.3003
   6   2.0000     -11.269823      -306.6675
   7   2.0000     -11.256987      -306.3182
   8   2.0000     -11.235279      -305.7275
   9   2.0000      -1.411117       -38.3984
  10   2.0000      -1.392738       -37.8983
  11   2.0000      -1.263476       -34.3809
  12   2.0000      -1.044764       -28.4295
  13   2.0000      -0.994909       -27.0728
  14   2.0000      -0.929829       -25.3019
  15   2.0000      -0.887583       -24.1524
  16   2.0000      -0.820268       -22.3206
  17   2.0000      -0.758806       -20.6482
  18   2.0000      -0.709732       -19.3128
  19   2.0000      -0.690762       -18.7966
  20   2.0000      -0.685915       -18.6647
  21   2.0000      -0.638133       -17.3645
  22   2.0000      -0.624309       -16.9883
  23   2.0000      -0.615952       -16.7609
  24   2.0000      -0.600510       -16.3407
  25   2.0000      -0.590075       -16.0568
  26   2.0000      -0.552867       -15.0443
  27   2.0000      -0.526200       -14.3186
  28   2.0000      -0.517456       -14.0807
  29   2.0000      -0.508516       -13.8374
  30   2.0000      -0.488719       -13.2987
  31   2.0000      -0.477277       -12.9874
  32   2.0000      -0.468933       -12.7603
  33   2.0000      -0.411251       -11.1907
  34   2.0000      -0.388063       -10.5597
  35   0.0000       0.129188         3.5154
  36   0.0000       0.135799         3.6953
  37   0.0000       0.157302         4.2804
  38   0.0000       0.169419         4.6101
  39   0.0000       0.169923         4.6238

MULLIKEN ATOMIC CHARGES
-----------------------
   0 C :   -0.235766
   1 O :   -0.334737
   2 C :    0.134970
   3 C :   -0.075929
   4 C :   -0.174228
   5 N :   -0.379936
   6 C :    0.164539
   7 C :   -0.434278
   8 O :   -0.271501
   9 H :    0.130313
  10 H :    0.125345
  11 H :    0.145792
  12 H :    0.094537
  13 H :    0.142678
  14 H :    0.125623
  15 H :    0.137096
  16 H :    0.237440
  17 H :    0.165667
  18 H :    0.148941
  19 H :    0.153434
Sum of atomic charges:    0.0000000

LOEWDIN ATOMIC CHARGES
----------------------
   0 C :   -0.346672
   1 O :    0.159792
   2 C :   -0.295626
   3 C :   -0.260264
   4 C :   -0.259591
   5 N :   -0.017206
   6 C :   -0.331848
   7 C :   -0.276733
   8 O :    0.157543
   9 H :    0.108393
  10 H :    0.106779
  11 H :    0.116221
  12 H :    0.153016
  13 H :    0.151773
  14 H :    0.124707
  15 H :    0.125318
  16 H :    0.167535
  17 H :    0.145220
  18 H :    0.137675
  19 H :    0.133969

  Mayer bond orders larger than 0.1
B(  0-C ,  1-O ) :   0.8982 B(  0-C ,  9-H ) :   0.9368 B(  0-C , 10-H ) :   0.9314
B(  0-C , 11-H ) :   0.9374 B(  1-O ,  2-C ) :   0.8890 B(  2-C ,  3-C ) :   0.9200
B(  2-C ,  6-C ) :   0.8561 B(  2-C , 12-H ) :   0.9145 B(  3-C ,  4-C ) :   0.9306
B(  3-C ,  5-N ) :   0.9294 B(  3-C , 13-H ) :   0.9185 B(  4-C ,  5-N ) :   0.9133
B(  4-C , 14-H ) :   0.9245 B(  4-C , 15-H ) :   0.9117 B(  5-N , 16-H ) :   0.8697
B(  6-C ,  7-C ) :   0.9209 B(  6-C ,  8-O ) :   2.0277 B(  7-C , 17-H ) :   0.9076
B(  7-C , 18-H ) :   0.9056 B(  7-C , 19-H ) :   0.9341

MP2 TOTAL ENERGY:     -439.536574411 Eh
FINAL SINGLE POINT ENERGY      -439.536574411166

DIPOLE MOMENT
-------------
                                X             Y             Z
Electronic contribution:      2.36945       0.16942      -3.27443
Nuclear contribution   :     -2.90440       0.31948       4.18875
                        -----------------------------------------
Total Dipole Moment    :     -0.53495       0.48890       0.91432
                        -----------------------------------------
Magnitude (a.u.)       :      1.16670
Magnitude (Debye)      :      2.96551

                             ****ORCA TERMINATED NORMALLY****
TOTAL RUN TIME: 0 days 0 hours 17 minutes 49 seconds 290 msec
