                         Program Version 3.0.3 - RELEASE   -
|  1> ! RI-MP2 RIJK def2-TZVP def2-TZVP/C def2-TZVP/JK TIGHTSCF
|  2> % maxcore 2000
|  3> % mp2 density relaxed end
|  4> *xyz 0 1
|  5>  N        0.0004906445    -1.1324481567     0.0229383990
|  6>  C        0.0017570409     0.0243531349     0.0261623140
|  7>  C       -0.0089668769     1.4715631015     0.0441267744
|  8>  C       -0.9196005101     2.1615360606     1.0720811033
|  9>  C       -0.6147238629     3.6465049197     0.7350222949
| 10>  C        0.3909203261     3.4589110043    -0.3979372071
| 11>  C        1.3463993228     2.2673745694    -0.0619328752
| 12>  C        1.4248138705     1.9259419575    -1.5681482014
| 13>  C       -0.0602484779     2.2724737298    -1.3114053070
| 14>  H       -1.9690061072     1.8930173406     0.9234731312
| 15>  H       -0.6495462702     1.8881564763     2.0956851385
| 16>  H       -1.5047647555     4.1934606396     0.4101507901
| 17>  H       -0.1848053970     4.1885379528     1.5825202489
| 18>  H        0.8191731352     4.3404892104    -0.8764679381
| 19>  H        2.1449417969     2.2490845312     0.6814162221
| 20>  H        1.9827973894     2.6268098364    -2.1934598853
| 21>  H        1.6543696211     0.8909963860    -1.8308067365
| 22>  H       -0.8926444298     2.2600952657    -2.0167680659
| 23> *
| 24>
| 25>                          ****END OF INPUT****

CARTESIAN COORDINATES (ANGSTROEM)
---------------------------------
  N      0.000491   -1.132448    0.022938
  C      0.001757    0.024353    0.026162
  C     -0.008967    1.471563    0.044127
  C     -0.919601    2.161536    1.072081
  C     -0.614724    3.646505    0.735022
  C      0.390920    3.458911   -0.397937
  C      1.346399    2.267375   -0.061933
  C      1.424814    1.925942   -1.568148
  C     -0.060248    2.272474   -1.311405
  H     -1.969006    1.893017    0.923473
  H     -0.649546    1.888156    2.095685
  H     -1.504765    4.193461    0.410151
  H     -0.184805    4.188538    1.582520
  H      0.819173    4.340489   -0.876468
  H      2.144942    2.249085    0.681416
  H      1.982797    2.626810   -2.193460
  H      1.654370    0.890996   -1.830807
  H     -0.892644    2.260095   -2.016768

 Total Charge           Charge          ....    0
 Multiplicity           Mult            ....    1
 Number of Electrons    NEL             ....   64
 Basis Dimension        Dim             ....  333

ORBITAL ENERGIES
----------------

  NO   OCC          E(Eh)            E(eV)
   0   2.0000     -15.564461      -423.5305
   1   2.0000     -11.286100      -307.1104
   2   2.0000     -11.266652      -306.5812
   3   2.0000     -11.266591      -306.5795
   4   2.0000     -11.266561      -306.5787
   5   2.0000     -11.255075      -306.2661
   6   2.0000     -11.243649      -305.9552
   7   2.0000     -11.243587      -305.9536
   8   2.0000     -11.237228      -305.7805
   9   2.0000      -1.257285       -34.2125
  10   2.0000      -1.207401       -32.8551
  11   2.0000      -1.062908       -28.9232
  12   2.0000      -0.992434       -27.0055
  13   2.0000      -0.891901       -24.2699
  14   2.0000      -0.882117       -24.0036
  15   2.0000      -0.828704       -22.5502
  16   2.0000      -0.770419       -20.9642
  17   2.0000      -0.701810       -19.0972
  18   2.0000      -0.671853       -18.2821
  19   2.0000      -0.637011       -17.3339
  20   2.0000      -0.606471       -16.5029
  21   2.0000      -0.568623       -15.4730
  22   2.0000      -0.558330       -15.1929
  23   2.0000      -0.524470       -14.2715
  24   2.0000      -0.503929       -13.7126
  25   2.0000      -0.496821       -13.5192
  26   2.0000      -0.496090       -13.4993
  27   2.0000      -0.474474       -12.9111
  28   2.0000      -0.465408       -12.6644
  29   2.0000      -0.450886       -12.2692
  30   2.0000      -0.436217       -11.8701
  31   2.0000      -0.417418       -11.3585
  32   0.0000       0.129771         3.5312
  33   0.0000       0.148385         4.0378
  34   0.0000       0.149075         4.0565
  35   0.0000       0.153241         4.1699
  36   0.0000       0.183968         5.0060

MULLIKEN ATOMIC CHARGES
-----------------------
   0 N :   -0.035394
   1 C :   -0.272311
   2 C :    0.195726
   3 C :   -0.250432
   4 C :   -0.218544
   5 C :   -0.120721
   6 C :   -0.122601
   7 C :   -0.235602
   8 C :   -0.122599
   9 H :    0.131544
  10 H :    0.131553
  11 H :    0.122439
  12 H :    0.122431
  13 H :    0.128500
  14 H :    0.140905
  15 H :    0.121409
  16 H :    0.142792
  17 H :    0.140905
Sum of atomic charges:   -0.0000000

LOEWDIN ATOMIC CHARGES
----------------------
   0 N :    0.065585
   1 C :   -0.150302
   2 C :   -0.190591
   3 C :   -0.183672
   4 C :   -0.223609
   5 C :   -0.161587
   6 C :   -0.102858
   7 C :   -0.185915
   8 C :   -0.102860
   9 H :    0.142347
  10 H :    0.142343
  11 H :    0.137904
  12 H :    0.137908
  13 H :    0.143376
  14 H :    0.132212
  15 H :    0.131377
  16 H :    0.136128
  17 H :    0.132212

  Mayer bond orders larger than 0.1
B(  0-N ,  1-C ) :   2.9003 B(  1-C ,  2-C ) :   0.8852 B(  2-C ,  3-C ) :   0.9183
B(  2-C ,  6-C ) :   0.8524 B(  2-C ,  8-C ) :   0.8524 B(  3-C ,  4-C ) :   0.9996
B(  3-C ,  9-H ) :   0.9189 B(  3-C , 10-H ) :   0.9189 B(  4-C ,  5-C ) :   0.9626
B(  4-C , 11-H ) :   0.9217 B(  4-C , 12-H ) :   0.9217 B(  5-C ,  6-C ) :   0.8812
B(  5-C ,  8-C ) :   0.8812 B(  5-C , 13-H ) :   0.9223 B(  6-C ,  7-C ) :   0.9225
B(  6-C , 14-H ) :   0.8860 B(  7-C ,  8-C ) :   0.9225 B(  7-C , 15-H ) :   0.9335
B(  7-C , 16-H ) :   0.9146 B(  8-C , 17-H ) :   0.8860

MP2 TOTAL ENERGY:     -364.141507754 Eh
FINAL SINGLE POINT ENERGY      -364.141507754298

DIPOLE MOMENT
-------------
                                X             Y             Z
Electronic contribution:      0.14695      -6.01052      -0.18993
Nuclear contribution   :     -0.11543       7.70747       0.16133
                        -----------------------------------------
Total Dipole Moment    :      0.03152       1.69696      -0.02860
                        -----------------------------------------
Magnitude (a.u.)       :      1.69749
Magnitude (Debye)      :      4.31467

                             ****ORCA TERMINATED NORMALLY****
TOTAL RUN TIME: 0 days 0 hours 20 minutes 23 seconds 496 msec
