                         Program Version 3.0.3 - RELEASE   -
|  1> ! RI-MP2 RIJK def2-TZVP def2-TZVP/C def2-TZVP/JK TIGHTSCF
|  2> % maxcore 2000
|  3> % mp2 density relaxed end
|  4> *xyz 0 1
|  5>  O       -0.0634139582     1.4556641622     0.1521902091
|  6>  C       -0.0183507485     0.0607907128     0.0587974307
|  7>  C       -0.6248219643    -0.7795117171     1.1555166574
|  8>  C       -1.3192625668    -0.6458133891    -0.1898463902
|  9>  C       -2.6144562259     0.1279898637    -0.3056359763
| 10>  C       -3.8322944035    -0.7092171723     0.1418450835
| 11>  C       -5.0930078942     0.0131730337     0.0255666458
| 12>  C       -6.1185927879     0.6316034321    -0.0793708419
| 13>  H        0.5530185855     1.7268065572     0.8400443474
| 14>  H        0.8651377272    -0.3301199431    -0.4462443754
| 15>  H       -0.1551158728    -1.7192775232     1.4250163847
| 16>  H       -1.0668505948    -0.2363816350     1.9853957101
| 17>  H       -1.2541304779    -1.5151318095    -0.8402840606
| 18>  H       -2.5551057899     1.0399112506     0.2935900335
| 19>  H       -2.7650635240     0.4500217484    -1.3423601133
| 20>  H       -3.8838671451    -1.6298793050    -0.4547013671
| 21>  H       -3.6869988390    -1.0318457677     1.1807625848
| 22>  H       -7.0299190200     1.1685606713    -0.1687463420
| 23> *
| 24>
| 25>                          ****END OF INPUT****

CARTESIAN COORDINATES (ANGSTROEM)
---------------------------------
  O     -0.063414    1.455664    0.152190
  C     -0.018351    0.060791    0.058797
  C     -0.624822   -0.779512    1.155517
  C     -1.319263   -0.645813   -0.189846
  C     -2.614456    0.127990   -0.305636
  C     -3.832294   -0.709217    0.141845
  C     -5.093008    0.013173    0.025567
  C     -6.118593    0.631603   -0.079371
  H      0.553019    1.726807    0.840044
  H      0.865138   -0.330120   -0.446244
  H     -0.155116   -1.719278    1.425016
  H     -1.066851   -0.236382    1.985396
  H     -1.254130   -1.515132   -0.840284
  H     -2.555106    1.039911    0.293590
  H     -2.765064    0.450022   -1.342360
  H     -3.883867   -1.629879   -0.454701
  H     -3.686999   -1.031846    1.180763
  H     -7.029919    1.168561   -0.168746

 Total Charge           Charge          ....    0
 Multiplicity           Mult            ....    1
 Number of Electrons    NEL             ....   60
 Basis Dimension        Dim             ....  308

ORBITAL ENERGIES
----------------

  NO   OCC          E(Eh)            E(eV)
   0   2.0000     -20.565029      -559.6029
   1   2.0000     -11.285483      -307.0936
   2   2.0000     -11.247198      -306.0518
   3   2.0000     -11.234965      -305.7189
   4   2.0000     -11.228256      -305.5364
   5   2.0000     -11.227642      -305.5197
   6   2.0000     -11.227201      -305.5077
   7   2.0000     -11.213505      -305.1350
   8   2.0000      -1.374519       -37.4026
   9   2.0000      -1.141568       -31.0636
  10   2.0000      -1.071361       -29.1532
  11   2.0000      -0.992267       -27.0010
  12   2.0000      -0.893704       -24.3189
  13   2.0000      -0.829516       -22.5723
  14   2.0000      -0.775628       -21.1059
  15   2.0000      -0.714583       -19.4448
  16   2.0000      -0.707676       -19.2568
  17   2.0000      -0.668879       -18.2011
  18   2.0000      -0.637877       -17.3575
  19   2.0000      -0.621457       -16.9107
  20   2.0000      -0.593201       -16.1418
  21   2.0000      -0.559080       -15.2133
  22   2.0000      -0.544399       -14.8138
  23   2.0000      -0.519577       -14.1384
  24   2.0000      -0.502190       -13.6653
  25   2.0000      -0.487186       -13.2570
  26   2.0000      -0.415443       -11.3048
  27   2.0000      -0.401629       -10.9289
  28   2.0000      -0.379316       -10.3217
  29   2.0000      -0.375949       -10.2301
  30   0.0000       0.136547         3.7156
  31   0.0000       0.147674         4.0184
  32   0.0000       0.157079         4.2743
  33   0.0000       0.171458         4.6656
  34   0.0000       0.175327         4.7709

MULLIKEN ATOMIC CHARGES
-----------------------
   0 O :   -0.469187
   1 C :    0.027894
   2 C :   -0.322291
   3 C :   -0.069116
   4 C :   -0.208600
   5 C :   -0.396932
   6 C :   -0.002855
   7 C :   -0.124164
   8 H :    0.324584
   9 H :    0.108009
  10 H :    0.130303
  11 H :    0.139152
  12 H :    0.123534
  13 H :    0.142954
  14 H :    0.126653
  15 H :    0.137442
  16 H :    0.144940
  17 H :    0.187682
Sum of atomic charges:    0.0000000

LOEWDIN ATOMIC CHARGES
----------------------
   0 O :   -0.004045
   1 C :   -0.322397
   2 C :   -0.223935
   3 C :   -0.213603
   4 C :   -0.227130
   5 C :   -0.245756
   6 C :   -0.112268
   7 C :   -0.112135
   8 H :    0.181022
   9 H :    0.129724
  10 H :    0.130042
  11 H :    0.137798
  12 H :    0.149090
  13 H :    0.149937
  14 H :    0.146725
  15 H :    0.155455
  16 H :    0.156447
  17 H :    0.125028

  Mayer bond orders larger than 0.1
B(  0-O ,  1-C ) :   1.0246 B(  0-O ,  8-H ) :   0.8407 B(  1-C ,  2-C ) :   0.8940
B(  1-C ,  3-C ) :   0.8728 B(  1-C ,  9-H ) :   0.9536 B(  2-C ,  3-C ) :   0.8751
B(  2-C , 10-H ) :   0.9194 B(  2-C , 11-H ) :   0.9270 B(  3-C ,  4-C ) :   0.9157
B(  3-C , 12-H ) :   0.9178 B(  4-C ,  5-C ) :   0.9235 B(  4-C , 13-H ) :   0.9277
B(  4-C , 14-H ) :   0.9311 B(  5-C ,  6-C ) :   1.1158 B(  5-C ,  7-C ) :  -0.1218
B(  5-C , 15-H ) :   0.9201 B(  5-C , 16-H ) :   0.9293 B(  6-C ,  7-C ) :   2.6122
B(  7-C , 17-H ) :   0.8969

MP2 TOTAL ENERGY:     -347.138022652 Eh
FINAL SINGLE POINT ENERGY      -347.138022651889

DIPOLE MOMENT
-------------
                                X             Y             Z
Electronic contribution:     -1.64726       2.04163      -0.70445
Nuclear contribution   :      2.31034      -2.40243       1.07488
                        -----------------------------------------
Total Dipole Moment    :      0.66308      -0.36080       0.37042
                        -----------------------------------------
Magnitude (a.u.)       :      0.84087
Magnitude (Debye)      :      2.13733

                             ****ORCA TERMINATED NORMALLY****
TOTAL RUN TIME: 0 days 0 hours 10 minutes 37 seconds 701 msec
