                         Program Version 3.0.3 - RELEASE   -
|  1> ! RI-MP2 RIJK def2-TZVP def2-TZVP/C def2-TZVP/JK TIGHTSCF
|  2> % maxcore 2000
|  3> % mp2 density relaxed end
|  4> *xyz 0 1
|  5>  O        0.0172082880     0.0276449412    -0.6446755008
|  6>  C       -0.0398963464     1.1023848777    -0.1152659311
|  7>  C       -1.3444051457     1.8591245988     0.1081192328
|  8>  C       -1.2516881536     2.9105885040     1.2080261588
|  9>  C       -0.6085152280     2.4414174689     2.5594958782
| 10>  C        0.6250658191     3.2916189818     2.2556370899
| 11>  C        1.1374268556     2.9858378843     0.8811839494
| 12>  O        1.1118555504     1.6843674234     0.3177299163
| 13>  C       -0.0610528967     3.8558149734     0.9874175639
| 14>  H       -1.6146326696     2.3297961434    -0.8459783636
| 15>  H       -2.1086165897     1.1031873504     0.3094323251
| 16>  H       -2.2062704803     3.4181920259     1.3525082623
| 17>  H       -1.1664647590     2.8139042715     3.4203609973
| 18>  H       -0.4432938920     1.3662301534     2.6859892327
| 19>  H        1.2431734908     3.7983389643     2.9870565817
| 20>  H        2.0710908456     3.4648398090     0.6093916832
| 21>  H       -0.1014732185     4.8617226384     0.5872134638
| 22> *
| 23>
| 24>                          ****END OF INPUT****

CARTESIAN COORDINATES (ANGSTROEM)
---------------------------------
  O      0.017208    0.027645   -0.644676
  C     -0.039896    1.102385   -0.115266
  C     -1.344405    1.859125    0.108119
  C     -1.251688    2.910589    1.208026
  C     -0.608515    2.441417    2.559496
  C      0.625066    3.291619    2.255637
  C      1.137427    2.985838    0.881184
  O      1.111856    1.684367    0.317730
  C     -0.061053    3.855815    0.987418
  H     -1.614633    2.329796   -0.845978
  H     -2.108617    1.103187    0.309432
  H     -2.206270    3.418192    1.352508
  H     -1.166465    2.813904    3.420361
  H     -0.443294    1.366230    2.685989
  H      1.243173    3.798339    2.987057
  H      2.071091    3.464840    0.609392
  H     -0.101473    4.861723    0.587213

 Total Charge           Charge          ....    0
 Multiplicity           Mult            ....    1
 Number of Electrons    NEL             ....   66
 Basis Dimension        Dim             ....  327

ORBITAL ENERGIES
----------------

  NO   OCC          E(Eh)            E(eV)
   0   2.0000     -20.598863      -560.5236
   1   2.0000     -20.532155      -558.7083
   2   2.0000     -11.376990      -309.5836
   3   2.0000     -11.307544      -307.6939
   4   2.0000     -11.258665      -306.3639
   5   2.0000     -11.253910      -306.2345
   6   2.0000     -11.253190      -306.2149
   7   2.0000     -11.250822      -306.1504
   8   2.0000     -11.245283      -305.9997
   9   2.0000      -1.453135       -39.5418
  10   2.0000      -1.359685       -36.9989
  11   2.0000      -1.210865       -32.9493
  12   2.0000      -1.065473       -28.9930
  13   2.0000      -0.975333       -26.5402
  14   2.0000      -0.894282       -24.3347
  15   2.0000      -0.876124       -23.8405
  16   2.0000      -0.767871       -20.8948
  17   2.0000      -0.738047       -20.0833
  18   2.0000      -0.711624       -19.3643
  19   2.0000      -0.679343       -18.4859
  20   2.0000      -0.660824       -17.9819
  21   2.0000      -0.650748       -17.7078
  22   2.0000      -0.613264       -16.6878
  23   2.0000      -0.597749       -16.2656
  24   2.0000      -0.573147       -15.5961
  25   2.0000      -0.553465       -15.0605
  26   2.0000      -0.538599       -14.6560
  27   2.0000      -0.496594       -13.5130
  28   2.0000      -0.478997       -13.0342
  29   2.0000      -0.467494       -12.7212
  30   2.0000      -0.440280       -11.9806
  31   2.0000      -0.408646       -11.1198
  32   2.0000      -0.401115       -10.9149
  33   0.0000       0.125390         3.4120
  34   0.0000       0.147774         4.0211
  35   0.0000       0.156421         4.2564
  36   0.0000       0.163575         4.4511
  37   0.0000       0.174201         4.7402

MULLIKEN ATOMIC CHARGES
-----------------------
   0 O :   -0.282270
   1 C :    0.230313
   2 C :   -0.283028
   3 C :   -0.017156
   4 C :   -0.253116
   5 C :   -0.134303
   6 C :    0.035204
   7 O :   -0.210627
   8 C :   -0.186278
   9 H :    0.142862
  10 H :    0.149568
  11 H :    0.126066
  12 H :    0.130392
  13 H :    0.130383
  14 H :    0.139557
  15 H :    0.138353
  16 H :    0.144081
Sum of atomic charges:    0.0000000

LOEWDIN ATOMIC CHARGES
----------------------
   0 O :    0.136797
   1 C :   -0.463087
   2 C :   -0.213031
   3 C :   -0.197797
   4 C :   -0.185125
   5 C :   -0.154260
   6 C :   -0.246151
   7 O :    0.288893
   8 C :   -0.139610
   9 H :    0.160957
  10 H :    0.158195
  11 H :    0.150253
  12 H :    0.139934
  13 H :    0.135488
  14 H :    0.137238
  15 H :    0.153693
  16 H :    0.137612

  Mayer bond orders larger than 0.1
B(  0-O ,  1-C ) :   2.0423 B(  1-C ,  2-C ) :   0.9555 B(  1-C ,  7-O ) :   1.1023
B(  2-C ,  3-C ) :   0.8797 B(  2-C ,  9-H ) :   0.9067 B(  2-C , 10-H ) :   0.9139
B(  3-C ,  4-C ) :   0.9718 B(  3-C ,  8-C ) :   0.8939 B(  3-C , 11-H ) :   0.9199
B(  4-C ,  5-C ) :   0.9506 B(  4-C , 12-H ) :   0.9305 B(  4-C , 13-H ) :   0.9122
B(  5-C ,  6-C ) :   0.8662 B(  5-C ,  8-C ) :   0.8045 B(  5-C , 14-H ) :   0.9195
B(  6-C ,  7-O ) :   0.9062 B(  6-C ,  8-C ) :   0.9207 B(  6-C , 15-H ) :   0.9543
B(  8-C , 16-H ) :   0.9134

MP2 TOTAL ENERGY:     -421.128463846 Eh
FINAL SINGLE POINT ENERGY      -421.128463845902

DIPOLE MOMENT
-------------
                                X             Y             Z
Electronic contribution:      3.16758      -3.62838      -3.52372
Nuclear contribution   :     -3.74908       5.22209       4.30430
                        -----------------------------------------
Total Dipole Moment    :     -0.58150       1.59371       0.78057
                        -----------------------------------------
Magnitude (a.u.)       :      1.86744
Magnitude (Debye)      :      4.74665

                             ****ORCA TERMINATED NORMALLY****
TOTAL RUN TIME: 0 days 0 hours 17 minutes 37 seconds 261 msec
