                         Program Version 3.0.3 - RELEASE   -
|  1> ! RI-MP2 RIJK def2-TZVP def2-TZVP/C def2-TZVP/JK TIGHTSCF
|  2> % maxcore 2000
|  3> % mp2 density relaxed end
|  4> *xyz 0 1
|  5>  O        0.0861314296     1.4616691291    -0.1167116156
|  6>  C        0.0046834603     0.0414660956    -0.0206235933
|  7>  C        0.5424300508    -0.5129832990     1.3600576089
|  8>  N       -0.3876982459    -1.5859671809     1.8132072150
|  9>  C       -1.5607359409    -1.3393811040     1.0840822026
| 10>  C       -1.3895996110    -0.4498513946     0.0672435456
| 11>  N       -2.5778259101    -0.4806425429    -0.6352087762
| 12>  C       -3.3964382687    -1.3366945486     0.0489432639
| 13>  N       -2.8053437433    -1.8944130690     1.0960410451
| 14>  H        0.9949095199     1.6911463567    -0.3375412347
| 15>  H        0.5610980711    -0.4051937455    -0.8611033221
| 16>  H        1.5619827840    -0.9006748516     1.2821116090
| 17>  H        0.5405449390     0.3417174968     2.0485191390
| 18>  H       -0.5140181085    -1.6129608419     2.8184877128
| 19>  H       -2.8417592220     0.0944992447    -1.4167621901
| 20>  H       -4.4190807043    -1.5077487049    -0.2527172500
| 21> *
| 22>
| 23>                          ****END OF INPUT****

CARTESIAN COORDINATES (ANGSTROEM)
---------------------------------
  O      0.086131    1.461669   -0.116712
  C      0.004683    0.041466   -0.020624
  C      0.542430   -0.512983    1.360058
  N     -0.387698   -1.585967    1.813207
  C     -1.560736   -1.339381    1.084082
  C     -1.389600   -0.449851    0.067244
  N     -2.577826   -0.480643   -0.635209
  C     -3.396438   -1.336695    0.048943
  N     -2.805344   -1.894413    1.096041
  H      0.994910    1.691146   -0.337541
  H      0.561098   -0.405194   -0.861103
  H      1.561983   -0.900675    1.282112
  H      0.540545    0.341717    2.048519
  H     -0.514018   -1.612961    2.818488
  H     -2.841759    0.094499   -1.416762
  H     -4.419081   -1.507749   -0.252717

 Total Charge           Charge          ....    0
 Multiplicity           Mult            ....    1
 Number of Electrons    NEL             ....   66
 Basis Dimension        Dim             ....  321

ORBITAL ENERGIES
----------------

  NO   OCC          E(Eh)            E(eV)
   0   2.0000     -20.564586      -559.5908
   1   2.0000     -15.618412      -424.9986
   2   2.0000     -15.557803      -423.3494
   3   2.0000     -15.543518      -422.9606
   4   2.0000     -11.304028      -307.5982
   5   2.0000     -11.301566      -307.5312
   6   2.0000     -11.266098      -306.5661
   7   2.0000     -11.262289      -306.4625
   8   2.0000     -11.232620      -305.6551
   9   2.0000      -1.371040       -37.3079
  10   2.0000      -1.339526       -36.4504
  11   2.0000      -1.229456       -33.4552
  12   2.0000      -1.162015       -31.6200
  13   2.0000      -1.022987       -27.8369
  14   2.0000      -0.964973       -26.2583
  15   2.0000      -0.842001       -22.9120
  16   2.0000      -0.830254       -22.5924
  17   2.0000      -0.774624       -21.0786
  18   2.0000      -0.732997       -19.9458
  19   2.0000      -0.712479       -19.3875
  20   2.0000      -0.642202       -17.4752
  21   2.0000      -0.626748       -17.0547
  22   2.0000      -0.614558       -16.7230
  23   2.0000      -0.596307       -16.2263
  24   2.0000      -0.575091       -15.6490
  25   2.0000      -0.563783       -15.3413
  26   2.0000      -0.546227       -14.8636
  27   2.0000      -0.508104       -13.8262
  28   2.0000      -0.459154       -12.4942
  29   2.0000      -0.446793       -12.1579
  30   2.0000      -0.429804       -11.6956
  31   2.0000      -0.381719       -10.3871
  32   2.0000      -0.283913        -7.7257
  33   0.0000       0.121404         3.3036
  34   0.0000       0.138415         3.7665
  35   0.0000       0.151167         4.1135
  36   0.0000       0.166500         4.5307
  37   0.0000       0.181515         4.9393

MULLIKEN ATOMIC CHARGES
-----------------------
   0 O :   -0.449494
   1 C :    0.022871
   2 C :   -0.146782
   3 N :   -0.313403
   4 C :    0.091095
   5 C :    0.059290
   6 N :   -0.291691
   7 C :    0.045703
   8 N :   -0.292616
   9 H :    0.313924
  10 H :    0.096476
  11 H :    0.116901
  12 H :    0.117248
  13 H :    0.226578
  14 H :    0.257091
  15 H :    0.146806
Sum of atomic charges:    0.0000000

LOEWDIN ATOMIC CHARGES
----------------------
   0 O :   -0.027723
   1 C :   -0.305908
   2 C :   -0.225407
   3 N :    0.043522
   4 C :   -0.316989
   5 C :   -0.220176
   6 N :    0.195689
   7 C :   -0.304427
   8 N :    0.101096
   9 H :    0.171832
  10 H :    0.134879
  11 H :    0.123029
  12 H :    0.129752
  13 H :    0.176191
  14 H :    0.195865
  15 H :    0.128775

  Mayer bond orders larger than 0.1
B(  0-O ,  1-C ) :   1.1450 B(  0-O ,  5-C ) :  -0.1588 B(  0-O ,  9-H ) :   0.8447
B(  1-C ,  2-C ) :   0.9368 B(  1-C ,  5-C ) :   0.9208 B(  1-C , 10-H ) :   0.9420
B(  2-C ,  3-N ) :   0.9248 B(  2-C , 11-H ) :   0.9208 B(  2-C , 12-H ) :   0.9284
B(  3-N ,  4-C ) :   1.0768 B(  3-N , 13-H ) :   0.8699 B(  4-C ,  5-C ) :   1.4488
B(  4-C ,  8-N ) :   1.3558 B(  5-C ,  6-N ) :   1.0603 B(  6-N ,  7-C ) :   1.1875
B(  6-N , 14-H ) :   0.8626 B(  7-C ,  8-N ) :   1.4988 B(  7-C , 15-H ) :   0.9285

MP2 TOTAL ENERGY:     -433.368765547 Eh
FINAL SINGLE POINT ENERGY      -433.368765547408

DIPOLE MOMENT
-------------
                                X             Y             Z
Electronic contribution:     -3.54455      -1.08217      -0.59030
Nuclear contribution   :      4.18972       1.93605      -0.27526
                        -----------------------------------------
Total Dipole Moment    :      0.64516       0.85388      -0.86555
                        -----------------------------------------
Magnitude (a.u.)       :      1.37642
Magnitude (Debye)      :      3.49858

                             ****ORCA TERMINATED NORMALLY****
TOTAL RUN TIME: 0 days 0 hours 15 minutes 48 seconds 422 msec
