                         Program Version 3.0.3 - RELEASE   -
|  1> ! RI-MP2 RIJK def2-TZVP def2-TZVP/C def2-TZVP/JK TIGHTSCF
|  2> % maxcore 2000
|  3> % mp2 density relaxed end
|  4> *xyz 0 1
|  5>  C       -0.0082551969    -1.0799033573     0.4535725599
|  6>  C        0.0153772715     0.1005803689     0.2297958219
|  7>  C        0.0982260430     1.5339060667    -0.0129124867
|  8>  C        1.5622628964     2.0167871675    -0.2061167241
|  9>  C        1.7260743461     3.5491884523     0.0522635073
| 10>  C        2.2679197487     3.1465188776     1.4464343102
| 11>  N        2.4576389813     1.7682760414     0.9404344017
| 12>  C        2.0884740094     1.5196604509    -1.4860740488
| 13>  N        2.4921408682     1.1612371460    -2.5077644659
| 14>  H       -0.0445290377    -2.1268081340     0.6294603083
| 15>  H       -0.4922814860     1.8105147178    -0.8945926164
| 16>  H       -0.3276102319     2.0794482522     0.8380395193
| 17>  H        2.4822482562     4.0002929806    -0.5893374951
| 18>  H        0.8086320288     4.1371691308     0.0106267352
| 19>  H        3.1926506549     3.6291297527     1.7747316294
| 20>  H        1.5187569332     3.2485269911     2.2426204342
| 21>  H        2.1813695448     0.9966468149     1.5390913296
| 22> *
| 23>
| 24>                          ****END OF INPUT****

CARTESIAN COORDINATES (ANGSTROEM)
---------------------------------
  C     -0.008255   -1.079903    0.453573
  C      0.015377    0.100580    0.229796
  C      0.098226    1.533906   -0.012912
  C      1.562263    2.016787   -0.206117
  C      1.726074    3.549188    0.052264
  C      2.267920    3.146519    1.446434
  N      2.457639    1.768276    0.940434
  C      2.088474    1.519660   -1.486074
  N      2.492141    1.161237   -2.507764
  H     -0.044529   -2.126808    0.629460
  H     -0.492281    1.810515   -0.894593
  H     -0.327610    2.079448    0.838040
  H      2.482248    4.000293   -0.589337
  H      0.808632    4.137169    0.010627
  H      3.192651    3.629130    1.774732
  H      1.518757    3.248527    2.242620
  H      2.181370    0.996647    1.539091

 Total Charge           Charge          ....    0
 Multiplicity           Mult            ....    1
 Number of Electrons    NEL             ....   64
 Basis Dimension        Dim             ....  327

ORBITAL ENERGIES
----------------

  NO   OCC          E(Eh)            E(eV)
   0   2.0000     -15.569277      -423.6616
   1   2.0000     -15.567244      -423.6063
   2   2.0000     -11.327126      -308.2268
   3   2.0000     -11.283188      -307.0312
   4   2.0000     -11.277034      -306.8637
   5   2.0000     -11.265823      -306.5586
   6   2.0000     -11.258835      -306.3685
   7   2.0000     -11.249648      -306.1185
   8   2.0000     -11.239528      -305.8431
   9   2.0000      -1.276419       -34.7331
  10   2.0000      -1.209752       -32.9190
  11   2.0000      -1.094471       -29.7821
  12   2.0000      -1.020823       -27.7780
  13   2.0000      -0.994535       -27.0627
  14   2.0000      -0.931332       -25.3428
  15   2.0000      -0.818536       -22.2735
  16   2.0000      -0.746051       -20.3011
  17   2.0000      -0.732380       -19.9291
  18   2.0000      -0.699899       -19.0452
  19   2.0000      -0.660057       -17.9611
  20   2.0000      -0.617354       -16.7990
  21   2.0000      -0.605958       -16.4890
  22   2.0000      -0.575858       -15.6699
  23   2.0000      -0.561221       -15.2716
  24   2.0000      -0.550418       -14.9776
  25   2.0000      -0.515047       -14.0151
  26   2.0000      -0.506518       -13.7831
  27   2.0000      -0.460237       -12.5237
  28   2.0000      -0.449231       -12.2242
  29   2.0000      -0.416789       -11.3414
  30   2.0000      -0.404171       -10.9981
  31   2.0000      -0.394320       -10.7300
  32   0.0000       0.117207         3.1894
  33   0.0000       0.140485         3.8228
  34   0.0000       0.145754         3.9662
  35   0.0000       0.157304         4.2805
  36   0.0000       0.163030         4.4363

MULLIKEN ATOMIC CHARGES
-----------------------
   0 C :   -0.118250
   1 C :   -0.088750
   2 C :   -0.327075
   3 C :    0.274711
   4 C :   -0.248379
   5 C :   -0.148205
   6 N :   -0.337830
   7 C :   -0.211893
   8 N :   -0.045070
   9 H :    0.198072
  10 H :    0.162734
  11 H :    0.151176
  12 H :    0.145759
  13 H :    0.135036
  14 H :    0.120730
  15 H :    0.115729
  16 H :    0.221503
Sum of atomic charges:   -0.0000000

LOEWDIN ATOMIC CHARGES
----------------------
   0 C :   -0.084403
   1 C :   -0.112792
   2 C :   -0.198291
   3 C :   -0.290619
   4 C :   -0.176779
   5 C :   -0.264388
   6 N :    0.048480
   7 C :   -0.142429
   8 N :    0.072313
   9 H :    0.129938
  10 H :    0.168341
  11 H :    0.164847
  12 H :    0.145175
  13 H :    0.133562
  14 H :    0.122656
  15 H :    0.118702
  16 H :    0.165688

  Mayer bond orders larger than 0.1
B(  0-C ,  1-C ) :   2.6118 B(  0-C ,  9-H ) :   0.8947 B(  1-C ,  2-C ) :   1.1095
B(  2-C ,  3-C ) :   0.9006 B(  2-C , 10-H ) :   0.9198 B(  2-C , 11-H ) :   0.8996
B(  3-C ,  4-C ) :   0.8632 B(  3-C ,  6-N ) :   1.0359 B(  3-C ,  7-C ) :   0.8961
B(  4-C ,  5-C ) :   0.9536 B(  4-C , 12-H ) :   0.9138 B(  4-C , 13-H ) :   0.9237
B(  5-C ,  6-N ) :   0.9648 B(  5-C , 14-H ) :   0.9169 B(  5-C , 15-H ) :   0.9244
B(  6-N , 16-H ) :   0.8774 B(  7-C ,  8-N ) :   2.8835

MP2 TOTAL ENERGY:     -380.140814165 Eh
FINAL SINGLE POINT ENERGY      -380.140814164582

DIPOLE MOMENT
-------------
                                X             Y             Z
Electronic contribution:      1.04105      -4.16719      -4.39495
Nuclear contribution   :     -1.97751       4.89968       5.86380
                        -----------------------------------------
Total Dipole Moment    :     -0.93646       0.73249       1.46885
                        -----------------------------------------
Magnitude (a.u.)       :      1.88971
Magnitude (Debye)      :      4.80327

                             ****ORCA TERMINATED NORMALLY****
TOTAL RUN TIME: 0 days 0 hours 17 minutes 5 seconds 842 msec
