                         Program Version 3.0.3 - RELEASE   -
|  1> ! RI-MP2 RIJK def2-TZVP def2-TZVP/C def2-TZVP/JK TIGHTSCF
|  2> % maxcore 2000
|  3> % mp2 density relaxed end
|  4> *xyz 0 1
|  5>  N       -0.0478991990     1.2669633069    -0.4617750863
|  6>  C       -0.0141487120     0.0708539717    -0.0602212017
|  7>  O        1.1268954768    -0.6251560731     0.2494880580
|  8>  C        0.7967378935    -1.9282654861     0.7749408003
|  9>  O        0.8005899809    -1.8879843344     2.1692270871
| 10>  C       -0.4416975426    -1.2990522445     2.5880066028
| 11>  C       -1.4138408278    -1.5305857559     1.4355829946
| 12>  C       -0.6518839579    -2.2083219324     0.3400196217
| 13>  C       -1.1917418097    -0.8281166198     0.0941329605
| 14>  H        0.8966798612     1.6517119901    -0.5171486657
| 15>  H        1.5672721583    -2.6212385797     0.4415666414
| 16>  H       -0.7646329158    -1.8102700053     3.4992044085
| 17>  H       -0.2968564998    -0.2359423702     2.8148728586
| 18>  H       -2.4348214838    -1.8102976639     1.6640511836
| 19>  H       -0.9390701629    -3.1099429229    -0.1826517532
| 20>  H       -2.0566865394    -0.6266690306    -0.5226787003
| 21> *
| 22>
| 23>                          ****END OF INPUT****

CARTESIAN COORDINATES (ANGSTROEM)
---------------------------------
  N     -0.047899    1.266963   -0.461775
  C     -0.014149    0.070854   -0.060221
  O      1.126895   -0.625156    0.249488
  C      0.796738   -1.928265    0.774941
  O      0.800590   -1.887984    2.169227
  C     -0.441698   -1.299052    2.588007
  C     -1.413841   -1.530586    1.435583
  C     -0.651884   -2.208322    0.340020
  C     -1.191742   -0.828117    0.094133
  H      0.896680    1.651712   -0.517149
  H      1.567272   -2.621239    0.441567
  H     -0.764633   -1.810270    3.499204
  H     -0.296856   -0.235942    2.814873
  H     -2.434821   -1.810298    1.664051
  H     -0.939070   -3.109943   -0.182652
  H     -2.056687   -0.626669   -0.522679

 Total Charge           Charge          ....    0
 Multiplicity           Mult            ....    1
 Number of Electrons    NEL             ....   66
 Basis Dimension        Dim             ....  321

ORBITAL ENERGIES
----------------

  NO   OCC          E(Eh)            E(eV)
   0   2.0000     -20.594526      -560.4055
   1   2.0000     -20.575616      -559.8910
   2   2.0000     -15.533672      -422.6927
   3   2.0000     -11.357903      -309.0643
   4   2.0000     -11.340557      -308.5922
   5   2.0000     -11.295690      -307.3713
   6   2.0000     -11.266921      -306.5885
   7   2.0000     -11.263546      -306.4967
   8   2.0000     -11.260683      -306.4188
   9   2.0000      -1.458174       -39.6789
  10   2.0000      -1.381619       -37.5958
  11   2.0000      -1.199689       -32.6452
  12   2.0000      -1.182225       -32.1700
  13   2.0000      -1.005731       -27.3673
  14   2.0000      -0.935793       -25.4642
  15   2.0000      -0.846721       -23.0405
  16   2.0000      -0.830112       -22.5885
  17   2.0000      -0.779090       -21.2001
  18   2.0000      -0.744370       -20.2553
  19   2.0000      -0.681402       -18.5419
  20   2.0000      -0.669693       -18.2233
  21   2.0000      -0.647708       -17.6250
  22   2.0000      -0.643300       -17.5051
  23   2.0000      -0.602322       -16.3900
  24   2.0000      -0.575177       -15.6514
  25   2.0000      -0.569979       -15.5099
  26   2.0000      -0.514742       -14.0068
  27   2.0000      -0.503603       -13.7037
  28   2.0000      -0.479898       -13.0587
  29   2.0000      -0.458766       -12.4837
  30   2.0000      -0.439478       -11.9588
  31   2.0000      -0.426185       -11.5971
  32   2.0000      -0.395037       -10.7495
  33   0.0000       0.134995         3.6734
  34   0.0000       0.159110         4.3296
  35   0.0000       0.165949         4.5157
  36   0.0000       0.171394         4.6639
  37   0.0000       0.181655         4.9431

MULLIKEN ATOMIC CHARGES
-----------------------
   0 N :   -0.369060
   1 C :    0.095483
   2 O :   -0.249883
   3 C :    0.155123
   4 O :   -0.283161
   5 C :   -0.031784
   6 C :   -0.176525
   7 C :   -0.128981
   8 C :   -0.062916
   9 H :    0.227502
  10 H :    0.125041
  11 H :    0.126594
  12 H :    0.117453
  13 H :    0.145619
  14 H :    0.158857
  15 H :    0.150636
Sum of atomic charges:   -0.0000000

LOEWDIN ATOMIC CHARGES
----------------------
   0 N :   -0.051513
   1 C :   -0.390541
   2 O :    0.248869
   3 C :   -0.329674
   4 O :    0.189262
   5 C :   -0.255690
   6 C :   -0.165875
   7 C :   -0.148171
   8 C :   -0.134056
   9 H :    0.170121
  10 H :    0.142007
  11 H :    0.132111
  12 H :    0.131805
  13 H :    0.153663
  14 H :    0.146473
  15 H :    0.161209

  Mayer bond orders larger than 0.1
B(  0-N ,  1-C ) :   2.0539 B(  0-N ,  9-H ) :   0.8538 B(  1-C ,  2-O ) :   1.0851
B(  1-C ,  8-C ) :   0.9412 B(  2-O ,  3-C ) :   0.9161 B(  3-C ,  4-O ) :   1.0469
B(  3-C ,  7-C ) :   0.9356 B(  3-C , 10-H ) :   0.9338 B(  4-O ,  5-C ) :   0.9109
B(  5-C ,  6-C ) :   0.9744 B(  5-C , 11-H ) :   0.9210 B(  5-C , 12-H ) :   0.9166
B(  6-C ,  7-C ) :   0.8765 B(  6-C ,  8-C ) :   0.8543 B(  6-C , 13-H ) :   0.9239
B(  7-C ,  8-C ) :   0.8718 B(  7-C , 14-H ) :   0.9100 B(  8-C , 15-H ) :   0.9223

MP2 TOTAL ENERGY:     -437.178144307 Eh
FINAL SINGLE POINT ENERGY      -437.178144307281

DIPOLE MOMENT
-------------
                                X             Y             Z
Electronic contribution:      2.70383       0.52118      -1.25033
Nuclear contribution   :     -3.27994      -1.52803       1.42403
                        -----------------------------------------
Total Dipole Moment    :     -0.57611      -1.00686       0.17370
                        -----------------------------------------
Magnitude (a.u.)       :      1.17296
Magnitude (Debye)      :      2.98142

                             ****ORCA TERMINATED NORMALLY****
TOTAL RUN TIME: 0 days 0 hours 16 minutes 23 seconds 641 msec
