                         Program Version 3.0.3 - RELEASE   -
|  1> ! RI-MP2 RIJK def2-TZVP def2-TZVP/C def2-TZVP/JK TIGHTSCF
|  2> % maxcore 2000
|  3> % mp2 density relaxed end
|  4> *xyz 0 1
|  5>  C       -0.1525796057     1.5661986676    -0.0752839864
|  6>  C       -0.0444603344     0.0423599712    -0.0219818221
|  7>  C       -1.3533026114    -0.6194289944    -0.4423458481
|  8>  C        1.2429955350    -0.4954439594    -0.6993683466
|  9>  O        1.8548156300    -0.7825800809     0.5723391484
| 10>  C        0.6104295484    -0.5384290973     1.2725616641
| 11>  C        0.7925809505     0.3007139083     2.5225769886
| 12>  C        1.6575077494    -0.4073506753     3.5599642195
| 13>  O        1.7568924566     0.4431559090     4.6936039749
| 14>  H        0.7943640062     2.0503538721     0.1792515591
| 15>  H       -0.4290080465     1.8891263882    -1.0854194526
| 16>  H       -0.9193314786     1.9389513821     0.6123821928
| 17>  H       -1.6351822754    -0.3242755436    -1.4594965830
| 18>  H       -1.2751267603    -1.7111856064    -0.4192278844
| 19>  H       -2.1735902403    -0.3272962779     0.2234974310
| 20>  H        1.0954891480    -1.4056060196    -1.2978972293
| 21>  H        1.8292825921     0.2238636870    -1.2839887225
| 22>  H        0.1434817983    -1.4991157053     1.5472390284
| 23>  H        1.2575646467     1.2605453604     2.2788996842
| 24>  H       -0.1895314928     0.5124743583     2.9640681007
| 25>  H        1.2012322125    -1.3751644810     3.8272173790
| 26>  H        2.6447611151    -0.6178870607     3.1244644205
| 27>  H        2.3644150066     0.0373005076     5.3186058837
| 28> *
| 29>
| 30>                          ****END OF INPUT****

CARTESIAN COORDINATES (ANGSTROEM)
---------------------------------
  C     -0.152580    1.566199   -0.075284
  C     -0.044460    0.042360   -0.021982
  C     -1.353303   -0.619429   -0.442346
  C      1.242996   -0.495444   -0.699368
  O      1.854816   -0.782580    0.572339
  C      0.610430   -0.538429    1.272562
  C      0.792581    0.300714    2.522577
  C      1.657508   -0.407351    3.559964
  O      1.756892    0.443156    4.693604
  H      0.794364    2.050354    0.179252
  H     -0.429008    1.889126   -1.085419
  H     -0.919331    1.938951    0.612382
  H     -1.635182   -0.324276   -1.459497
  H     -1.275127   -1.711186   -0.419228
  H     -2.173590   -0.327296    0.223497
  H      1.095489   -1.405606   -1.297897
  H      1.829283    0.223864   -1.283989
  H      0.143482   -1.499116    1.547239
  H      1.257565    1.260545    2.278900
  H     -0.189531    0.512474    2.964068
  H      1.201232   -1.375164    3.827217
  H      2.644761   -0.617887    3.124464
  H      2.364415    0.037301    5.318606

 Total Charge           Charge          ....    0
 Multiplicity           Mult            ....    1
 Number of Electrons    NEL             ....   72
 Basis Dimension        Dim             ....  363

ORBITAL ENERGIES
----------------

  NO   OCC          E(Eh)            E(eV)
   0   2.0000     -20.551114      -559.2242
   1   2.0000     -20.543218      -559.0094
   2   2.0000     -11.278075      -306.8920
   3   2.0000     -11.272045      -306.7279
   4   2.0000     -11.269966      -306.6714
   5   2.0000     -11.241183      -305.8881
   6   2.0000     -11.221204      -305.3445
   7   2.0000     -11.218935      -305.2827
   8   2.0000     -11.216672      -305.2212
   9   2.0000      -1.374875       -37.4122
  10   2.0000      -1.354575       -36.8599
  11   2.0000      -1.082619       -29.4596
  12   2.0000      -1.040058       -28.3014
  13   2.0000      -0.940491       -25.5921
  14   2.0000      -0.912360       -24.8266
  15   2.0000      -0.897585       -24.4245
  16   2.0000      -0.816472       -22.2173
  17   2.0000      -0.730368       -19.8743
  18   2.0000      -0.692776       -18.8514
  19   2.0000      -0.658181       -17.9100
  20   2.0000      -0.643234       -17.5033
  21   2.0000      -0.637660       -17.3516
  22   2.0000      -0.623941       -16.9783
  23   2.0000      -0.577382       -15.7113
  24   2.0000      -0.574726       -15.6391
  25   2.0000      -0.565983       -15.4012
  26   2.0000      -0.545110       -14.8332
  27   2.0000      -0.542401       -14.7595
  28   2.0000      -0.522126       -14.2078
  29   2.0000      -0.510306       -13.8861
  30   2.0000      -0.489413       -13.3176
  31   2.0000      -0.485090       -13.2000
  32   2.0000      -0.443590       -12.0707
  33   2.0000      -0.434321       -11.8185
  34   2.0000      -0.427373       -11.6294
  35   2.0000      -0.407214       -11.0809
  36   0.0000       0.129238         3.5168
  37   0.0000       0.143685         3.9099
  38   0.0000       0.167950         4.5702
  39   0.0000       0.173481         4.7206
  40   0.0000       0.176754         4.8097

MULLIKEN ATOMIC CHARGES
-----------------------
   0 C :   -0.449474
   1 C :    0.150647
   2 C :   -0.416262
   3 C :   -0.052156
   4 O :   -0.327478
   5 C :   -0.029499
   6 C :   -0.146356
   7 C :   -0.079222
   8 O :   -0.465579
   9 H :    0.147480
  10 H :    0.137813
  11 H :    0.133958
  12 H :    0.134146
  13 H :    0.133758
  14 H :    0.131889
  15 H :    0.087014
  16 H :    0.098678
  17 H :    0.069541
  18 H :    0.105182
  19 H :    0.113181
  20 H :    0.086164
  21 H :    0.121014
  22 H :    0.315561
Sum of atomic charges:   -0.0000000

LOEWDIN ATOMIC CHARGES
----------------------
   0 C :   -0.271930
   1 C :   -0.292030
   2 C :   -0.276048
   3 C :   -0.233540
   4 O :    0.133205
   5 C :   -0.245751
   6 C :   -0.251340
   7 C :   -0.346319
   8 O :   -0.054153
   9 H :    0.129186
  10 H :    0.127864
  11 H :    0.127586
  12 H :    0.127015
  13 H :    0.125505
  14 H :    0.127820
  15 H :    0.117712
  16 H :    0.118370
  17 H :    0.138933
  18 H :    0.144492
  19 H :    0.146653
  20 H :    0.113948
  21 H :    0.121133
  22 H :    0.171687

  Mayer bond orders larger than 0.1
B(  0-C ,  1-C ) :   0.9002 B(  0-C ,  9-H ) :   0.9387 B(  0-C , 10-H ) :   0.9324
B(  0-C , 11-H ) :   0.9327 B(  1-C ,  2-C ) :   0.9139 B(  1-C ,  3-C ) :   0.9558
B(  1-C ,  5-C ) :   0.9184 B(  2-C , 12-H ) :   0.9355 B(  2-C , 13-H ) :   0.9331
B(  2-C , 14-H ) :   0.9345 B(  3-C ,  4-O ) :   0.9577 B(  3-C , 15-H ) :   0.9033
B(  3-C , 16-H ) :   0.9100 B(  4-O ,  5-C ) :   0.9590 B(  5-C ,  6-C ) :   0.9077
B(  5-C , 17-H ) :   0.9055 B(  6-C ,  7-C ) :   0.9322 B(  6-C ,  8-O ) :  -0.1001
B(  6-C , 18-H ) :   0.9111 B(  6-C , 19-H ) :   0.9212 B(  7-C ,  8-O ) :   1.0222
B(  7-C , 20-H ) :   0.9309 B(  7-C , 21-H ) :   0.9324 B(  8-O , 22-H ) :   0.8496

MP2 TOTAL ENERGY:     -424.708985536 Eh
FINAL SINGLE POINT ENERGY      -424.708985535699

DIPOLE MOMENT
-------------
                                X             Y             Z
Electronic contribution:      4.84145      -1.53186       3.47283
Nuclear contribution   :     -5.19547       1.27325      -3.71887
                        -----------------------------------------
Total Dipole Moment    :     -0.35402      -0.25861      -0.24604
                        -----------------------------------------
Magnitude (a.u.)       :      0.50274
Magnitude (Debye)      :      1.27786

                             ****ORCA TERMINATED NORMALLY****
TOTAL RUN TIME: 0 days 0 hours 18 minutes 35 seconds 102 msec
