                         Program Version 3.0.3 - RELEASE   -
|  1> ! RI-MP2 RIJK def2-TZVP def2-TZVP/C def2-TZVP/JK TIGHTSCF
|  2> % maxcore 2000
|  3> % mp2 density relaxed end
|  4> *xyz 0 1
|  5>  C        0.0427544796     1.5144467830     0.0760496346
|  6>  C       -0.0005656574    -0.0181958634     0.0457352069
|  7>  C        0.7283990054    -0.6294784808     1.2485143869
|  8>  C       -1.4479307134    -0.5018670636    -0.0306466100
|  9>  O       -1.4619237190    -1.9082736991    -0.1877199635
| 10>  C       -2.7582838656    -2.4531683230    -0.2349896869
| 11>  C       -2.6332604865    -3.9631657084    -0.4413762534
| 12>  C       -3.9559429796    -4.6728191620    -0.2674521212
| 13>  O       -4.4616325955    -5.4007821094    -1.0814973688
| 14>  H        1.0762021421     1.8733473366     0.1007287592
| 15>  H       -0.4424152444     1.9512064411    -0.8033604256
| 16>  H       -0.4629306672     1.9059697574     0.9669346100
| 17>  H        0.4961938130    -0.3635273087    -0.8707849935
| 18>  H        0.2806916946    -0.2876227377     2.1899361387
| 19>  H        0.6720484436    -1.7200846312     1.2241852787
| 20>  H        1.7832151753    -0.3370750373     1.2573980047
| 21>  H       -1.9919778017    -0.2165314987     0.8877860240
| 22>  H       -1.9675042912    -0.0226689195    -0.8776067292
| 23>  H       -3.3029598846    -2.2390074229     0.7017761737
| 24>  H       -3.3410400795    -2.0027331210    -1.0557864878
| 25>  H       -2.2216376263    -4.1967225406    -1.4257601467
| 26>  H       -1.9437293827    -4.3453349391     0.3244336062
| 27>  H       -4.4565442390    -4.4756952617     0.7104288027
| 28> *
| 29>
| 30>                          ****END OF INPUT****

CARTESIAN COORDINATES (ANGSTROEM)
---------------------------------
  C      0.042754    1.514447    0.076050
  C     -0.000566   -0.018196    0.045735
  C      0.728399   -0.629478    1.248514
  C     -1.447931   -0.501867   -0.030647
  O     -1.461924   -1.908274   -0.187720
  C     -2.758284   -2.453168   -0.234990
  C     -2.633260   -3.963166   -0.441376
  C     -3.955943   -4.672819   -0.267452
  O     -4.461633   -5.400782   -1.081497
  H      1.076202    1.873347    0.100729
  H     -0.442415    1.951206   -0.803360
  H     -0.462931    1.905970    0.966935
  H      0.496194   -0.363527   -0.870785
  H      0.280692   -0.287623    2.189936
  H      0.672048   -1.720085    1.224185
  H      1.783215   -0.337075    1.257398
  H     -1.991978   -0.216531    0.887786
  H     -1.967504   -0.022669   -0.877607
  H     -3.302960   -2.239007    0.701776
  H     -3.341040   -2.002733   -1.055786
  H     -2.221638   -4.196723   -1.425760
  H     -1.943729   -4.345335    0.324434
  H     -4.456544   -4.475695    0.710429

 Total Charge           Charge          ....    0
 Multiplicity           Mult            ....    1
 Number of Electrons    NEL             ....   72
 Basis Dimension        Dim             ....  363

ORBITAL ENERGIES
----------------

  NO   OCC          E(Eh)            E(eV)
   0   2.0000     -20.565629      -559.6192
   1   2.0000     -20.559937      -559.4643
   2   2.0000     -11.334983      -308.4406
   3   2.0000     -11.295131      -307.3562
   4   2.0000     -11.279514      -306.9312
   5   2.0000     -11.242151      -305.9145
   6   2.0000     -11.231538      -305.6257
   7   2.0000     -11.219378      -305.2948
   8   2.0000     -11.211721      -305.0864
   9   2.0000      -1.398734       -38.0615
  10   2.0000      -1.389107       -37.7995
  11   2.0000      -1.092663       -29.7329
  12   2.0000      -1.054368       -28.6908
  13   2.0000      -0.933515       -25.4022
  14   2.0000      -0.932581       -25.3768
  15   2.0000      -0.867734       -23.6122
  16   2.0000      -0.800777       -21.7902
  17   2.0000      -0.777364       -21.1531
  18   2.0000      -0.697951       -18.9922
  19   2.0000      -0.677648       -18.4397
  20   2.0000      -0.665572       -18.1111
  21   2.0000      -0.640606       -17.4318
  22   2.0000      -0.619561       -16.8591
  23   2.0000      -0.609833       -16.5944
  24   2.0000      -0.582763       -15.8578
  25   2.0000      -0.573208       -15.5978
  26   2.0000      -0.550341       -14.9755
  27   2.0000      -0.537523       -14.6267
  28   2.0000      -0.528406       -14.3787
  29   2.0000      -0.514123       -13.9900
  30   2.0000      -0.491154       -13.3650
  31   2.0000      -0.478028       -13.0078
  32   2.0000      -0.472798       -12.8655
  33   2.0000      -0.463588       -12.6149
  34   2.0000      -0.433349       -11.7920
  35   2.0000      -0.423382       -11.5208
  36   0.0000       0.125247         3.4081
  37   0.0000       0.131351         3.5742
  38   0.0000       0.148564         4.0426
  39   0.0000       0.159531         4.3411
  40   0.0000       0.168695         4.5904

MULLIKEN ATOMIC CHARGES
-----------------------
   0 C :   -0.412389
   1 C :    0.001272
   2 C :   -0.407739
   3 C :   -0.081614
   4 O :   -0.288733
   5 C :   -0.099702
   6 C :   -0.130459
   7 C :    0.087092
   8 O :   -0.260226
   9 H :    0.137459
  10 H :    0.131239
  11 H :    0.122435
  12 H :    0.088331
  13 H :    0.113282
  14 H :    0.146652
  15 H :    0.129850
  16 H :    0.091588
  17 H :    0.102276
  18 H :    0.093741
  19 H :    0.105431
  20 H :    0.128673
  21 H :    0.130308
  22 H :    0.071234
Sum of atomic charges:    0.0000000

LOEWDIN ATOMIC CHARGES
----------------------
   0 C :   -0.294382
   1 C :   -0.312478
   2 C :   -0.295720
   3 C :   -0.306423
   4 O :    0.165794
   5 C :   -0.328432
   6 C :   -0.259212
   7 C :   -0.296965
   8 O :    0.134041
   9 H :    0.125490
  10 H :    0.122716
  11 H :    0.123273
  12 H :    0.153155
  13 H :    0.121908
  14 H :    0.125955
  15 H :    0.122615
  16 H :    0.121438
  17 H :    0.122569
  18 H :    0.119551
  19 H :    0.122624
  20 H :    0.147051
  21 H :    0.156365
  22 H :    0.109068

  Mayer bond orders larger than 0.1
B(  0-C ,  1-C ) :   0.9141 B(  0-C ,  9-H ) :   0.9392 B(  0-C , 10-H ) :   0.9384
B(  0-C , 11-H ) :   0.9295 B(  1-C ,  2-C ) :   0.9229 B(  1-C ,  3-C ) :   0.9458
B(  1-C , 12-H ) :   0.9241 B(  2-C , 13-H ) :   0.9306 B(  2-C , 14-H ) :   0.9352
B(  2-C , 15-H ) :   0.9389 B(  3-C ,  4-O ) :   0.9210 B(  3-C , 16-H ) :   0.9209
B(  3-C , 17-H ) :   0.9246 B(  4-O ,  5-C ) :   0.9475 B(  5-C ,  6-C ) :   0.9242
B(  5-C , 18-H ) :   0.9214 B(  5-C , 19-H ) :   0.9195 B(  6-C ,  7-C ) :   0.8792
B(  6-C , 20-H ) :   0.9061 B(  6-C , 21-H ) :   0.9087 B(  7-C ,  8-O ) :   1.9921
B(  7-C , 22-H ) :   0.9257

MP2 TOTAL ENERGY:     -424.721905730 Eh
FINAL SINGLE POINT ENERGY      -424.721905729974

DIPOLE MOMENT
-------------
                                X             Y             Z
Electronic contribution:     -8.13059     -11.67876      -3.77210
Nuclear contribution   :      8.43907      12.63495       4.33875
                        -----------------------------------------
Total Dipole Moment    :      0.30848       0.95620       0.56665
                        -----------------------------------------
Magnitude (a.u.)       :      1.15350
Magnitude (Debye)      :      2.93197

                             ****ORCA TERMINATED NORMALLY****
TOTAL RUN TIME: 0 days 0 hours 18 minutes 46 seconds 762 msec
