                         Program Version 3.0.3 - RELEASE   -
|  1> ! RI-MP2 RIJK def2-TZVP def2-TZVP/C def2-TZVP/JK TIGHTSCF
|  2> % maxcore 2000
|  3> % mp2 density relaxed end
|  4> *xyz 0 1
|  5>  C        0.0570681032     1.5277018491    -0.1934084569
|  6>  C       -0.0629409433     0.0323428771     0.0001679458
|  7>  C       -1.1419554879    -0.6494386523    -0.8115435454
|  8>  O        1.2005730587    -0.6747003042     0.0395717946
|  9>  C        0.4392604932    -0.5937207430     1.2310745443
| 10>  C        0.9742995820     0.0552537633     2.5220042333
| 11>  C        0.3635879665    -1.1359119346     3.2874676225
| 12>  O        0.2415150427    -1.3979728005     4.4472384549
| 13>  C       -0.0684631945    -1.8381623294     1.9844117789
| 14>  H        0.8783942492     1.9371279194     0.3983432743
| 15>  H        0.2469095862     1.7599022839    -1.2468834092
| 16>  H       -0.8708322940     2.0324773670     0.0970115540
| 17>  H       -0.9821359170    -0.4715734252    -1.8804625121
| 18>  H       -1.1401630274    -1.7282152088    -0.6423860683
| 19>  H       -2.1305175227    -0.2548605535    -0.5523237309
| 20>  H        2.0678792957     0.0837999118     2.5758042796
| 21>  H        0.5826789105     1.0387762143     2.7974600933
| 22>  H       -1.1334577560    -2.0773364529     1.9127098061
| 23>  H        0.5108972212    -2.7433241978     1.7731070492
| 24> *
| 25>
| 26>                          ****END OF INPUT****

CARTESIAN COORDINATES (ANGSTROEM)
---------------------------------
  C      0.057068    1.527702   -0.193408
  C     -0.062941    0.032343    0.000168
  C     -1.141955   -0.649439   -0.811544
  O      1.200573   -0.674700    0.039572
  C      0.439260   -0.593721    1.231075
  C      0.974300    0.055254    2.522004
  C      0.363588   -1.135912    3.287468
  O      0.241515   -1.397973    4.447238
  C     -0.068463   -1.838162    1.984412
  H      0.878394    1.937128    0.398343
  H      0.246910    1.759902   -1.246883
  H     -0.870832    2.032477    0.097012
  H     -0.982136   -0.471573   -1.880463
  H     -1.140163   -1.728215   -0.642386
  H     -2.130518   -0.254861   -0.552324
  H      2.067879    0.083800    2.575804
  H      0.582679    1.038776    2.797460
  H     -1.133458   -2.077336    1.912710
  H      0.510897   -2.743324    1.773107

 Total Charge           Charge          ....    0
 Multiplicity           Mult            ....    1
 Number of Electrons    NEL             ....   68
 Basis Dimension        Dim             ....  339

ORBITAL ENERGIES
----------------

  NO   OCC          E(Eh)            E(eV)
   0   2.0000     -20.571102      -559.7681
   1   2.0000     -20.558958      -559.4377
   2   2.0000     -11.340746      -308.5974
   3   2.0000     -11.304457      -307.6099
   4   2.0000     -11.303539      -307.5849
   5   2.0000     -11.248594      -306.0898
   6   2.0000     -11.248562      -306.0889
   7   2.0000     -11.233703      -305.6846
   8   2.0000     -11.233685      -305.6841
   9   2.0000      -1.421153       -38.6715
  10   2.0000      -1.401726       -38.1429
  11   2.0000      -1.130857       -30.7722
  12   2.0000      -1.052268       -28.6337
  13   2.0000      -0.967524       -26.3277
  14   2.0000      -0.940450       -25.5909
  15   2.0000      -0.858068       -23.3492
  16   2.0000      -0.767367       -20.8811
  17   2.0000      -0.732037       -19.9197
  18   2.0000      -0.681660       -18.5489
  19   2.0000      -0.666882       -18.1468
  20   2.0000      -0.650896       -17.7118
  21   2.0000      -0.626061       -17.0360
  22   2.0000      -0.611128       -16.6297
  23   2.0000      -0.594244       -16.1702
  24   2.0000      -0.577483       -15.7141
  25   2.0000      -0.571872       -15.5614
  26   2.0000      -0.554765       -15.0959
  27   2.0000      -0.539648       -14.6846
  28   2.0000      -0.521086       -14.1795
  29   2.0000      -0.500529       -13.6201
  30   2.0000      -0.490557       -13.3487
  31   2.0000      -0.443181       -12.0596
  32   2.0000      -0.423031       -11.5113
  33   2.0000      -0.403230       -10.9724
  34   0.0000       0.116810         3.1786
  35   0.0000       0.122134         3.3234
  36   0.0000       0.156825         4.2674
  37   0.0000       0.157060         4.2738
  38   0.0000       0.183246         4.9864

MULLIKEN ATOMIC CHARGES
-----------------------
   0 C :   -0.410173
   1 C :    0.186684
   2 C :   -0.410176
   3 O :   -0.340735
   4 C :    0.076758
   5 C :   -0.204126
   6 C :    0.121603
   7 O :   -0.245671
   8 C :   -0.204125
   9 H :    0.146855
  10 H :    0.140557
  11 H :    0.133721
  12 H :    0.140556
  13 H :    0.146856
  14 H :    0.133722
  15 H :    0.146663
  16 H :    0.147184
  17 H :    0.147185
  18 H :    0.146662
Sum of atomic charges:   -0.0000000

LOEWDIN ATOMIC CHARGES
----------------------
   0 C :   -0.263028
   1 C :   -0.323735
   2 C :   -0.263029
   3 O :    0.199536
   4 C :   -0.273067
   5 C :   -0.172124
   6 C :   -0.299766
   7 O :    0.165666
   8 C :   -0.172124
   9 H :    0.132715
  10 H :    0.132603
  11 H :    0.132023
  12 H :    0.132602
  13 H :    0.132716
  14 H :    0.132023
  15 H :    0.155805
  16 H :    0.147688
  17 H :    0.147688
  18 H :    0.155806

  Mayer bond orders larger than 0.1
B(  0-C ,  1-C ) :   0.8979 B(  0-C ,  9-H ) :   0.9407 B(  0-C , 10-H ) :   0.9343
B(  0-C , 11-H ) :   0.9289 B(  1-C ,  2-C ) :   0.8979 B(  1-C ,  3-O ) :   0.8365
B(  1-C ,  4-C ) :   0.9594 B(  2-C , 12-H ) :   0.9343 B(  2-C , 13-H ) :   0.9407
B(  2-C , 14-H ) :   0.9289 B(  3-O ,  4-C ) :   0.9484 B(  4-C ,  5-C ) :   0.9130
B(  4-C ,  8-C ) :   0.9130 B(  5-C ,  6-C ) :   0.8961 B(  5-C ,  8-C ) :  -0.1417
B(  5-C , 15-H ) :   0.8847 B(  5-C , 16-H ) :   0.8955 B(  6-C ,  7-O ) :   2.0433
B(  6-C ,  8-C ) :   0.8961 B(  8-C , 17-H ) :   0.8955 B(  8-C , 18-H ) :   0.8847

MP2 TOTAL ENERGY:     -422.310253941 Eh
FINAL SINGLE POINT ENERGY      -422.310253940999

DIPOLE MOMENT
-------------
                                X             Y             Z
Electronic contribution:      3.36947      -3.88880       7.16080
Nuclear contribution   :     -3.90279       4.40938      -7.95982
                        -----------------------------------------
Total Dipole Moment    :     -0.53332       0.52058      -0.79902
                        -----------------------------------------
Magnitude (a.u.)       :      1.09264
Magnitude (Debye)      :      2.77728

                             ****ORCA TERMINATED NORMALLY****
TOTAL RUN TIME: 0 days 0 hours 19 minutes 50 seconds 161 msec
