                         Program Version 3.0.3 - RELEASE   -
|  1> ! RI-MP2 RIJK def2-TZVP def2-TZVP/C def2-TZVP/JK TIGHTSCF
|  2> % maxcore 2000
|  3> % mp2 density relaxed end
|  4> *xyz 0 1
|  5>  C       -0.2643962954     1.4558507803     0.1053177196
|  6>  C        0.0550521098    -0.0351501791    -0.0359602273
|  7>  O        0.8356608833    -0.2924737326    -1.2033061852
|  8>  C        0.8452536909    -0.5512344178     1.1348451288
|  9>  C        2.3434791439    -0.2734036951     1.3892929860
| 10>  C        2.4872253975    -1.7204761206     1.9555208431
| 11>  C        0.9881887754    -1.9513854096     1.6889260069
| 12>  N        0.1343301764    -0.9672000815     2.3246196905
| 13>  C        0.4013114970    -0.4244400138     3.6475919232
| 14>  H        0.6566180660     2.0432778594     0.1757577429
| 15>  H       -0.8345927515     1.8162313410    -0.7592541369
| 16>  H       -0.8676641285     1.6365996428     1.0001587089
| 17>  H       -0.8881511073    -0.6016753425    -0.0690660054
| 18>  H        0.4044581342     0.1401877495    -1.9466446062
| 19>  H        2.8831994373    -0.1405721947     0.4513128346
| 20>  H        2.5835889642     0.5574161888     2.0597585625
| 21>  H        3.1167301380    -2.3494462457     1.3229696764
| 22>  H        2.8207397758    -1.8262025227     2.9924357469
| 23>  H        0.5360492370    -2.8797034303     1.3542984664
| 24>  H        1.4589041205    -0.2251268327     3.8678564022
| 25>  H       -0.1503314189     0.5140505833     3.7632685509
| 26>  H        0.0260682142    -1.1292096265     4.3962541311
| 27> *
| 28>
| 29>                          ****END OF INPUT****

CARTESIAN COORDINATES (ANGSTROEM)
---------------------------------
  C     -0.264396    1.455851    0.105318
  C      0.055052   -0.035150   -0.035960
  O      0.835661   -0.292474   -1.203306
  C      0.845254   -0.551234    1.134845
  C      2.343479   -0.273404    1.389293
  C      2.487225   -1.720476    1.955521
  C      0.988189   -1.951385    1.688926
  N      0.134330   -0.967200    2.324620
  C      0.401311   -0.424440    3.647592
  H      0.656618    2.043278    0.175758
  H     -0.834593    1.816231   -0.759254
  H     -0.867664    1.636600    1.000159
  H     -0.888151   -0.601675   -0.069066
  H      0.404458    0.140188   -1.946645
  H      2.883199   -0.140572    0.451313
  H      2.583589    0.557416    2.059759
  H      3.116730   -2.349446    1.322970
  H      2.820740   -1.826203    2.992436
  H      0.536049   -2.879703    1.354298
  H      1.458904   -0.225127    3.867856
  H     -0.150331    0.514051    3.763269
  H      0.026068   -1.129210    4.396254

 Total Charge           Charge          ....    0
 Multiplicity           Mult            ....    1
 Number of Electrons    NEL             ....   70
 Basis Dimension        Dim             ....  357

ORBITAL ENERGIES
----------------

  NO   OCC          E(Eh)            E(eV)
   0   2.0000     -20.552087      -559.2507
   1   2.0000     -15.553639      -423.2360
   2   2.0000     -11.278959      -306.9161
   3   2.0000     -11.253103      -306.2125
   4   2.0000     -11.248749      -306.0940
   5   2.0000     -11.240608      -305.8725
   6   2.0000     -11.222821      -305.3885
   7   2.0000     -11.219732      -305.3044
   8   2.0000     -11.218685      -305.2759
   9   2.0000      -1.358970       -36.9795
  10   2.0000      -1.284936       -34.9649
  11   2.0000      -1.057601       -28.7788
  12   2.0000      -1.022645       -27.8276
  13   2.0000      -0.959706       -26.1149
  14   2.0000      -0.902381       -24.5550
  15   2.0000      -0.847306       -23.0564
  16   2.0000      -0.768747       -20.9187
  17   2.0000      -0.722830       -19.6692
  18   2.0000      -0.689420       -18.7601
  19   2.0000      -0.670159       -18.2360
  20   2.0000      -0.633344       -17.2342
  21   2.0000      -0.626745       -17.0546
  22   2.0000      -0.601989       -16.3809
  23   2.0000      -0.589433       -16.0393
  24   2.0000      -0.554441       -15.0871
  25   2.0000      -0.545664       -14.8483
  26   2.0000      -0.540447       -14.7063
  27   2.0000      -0.513986       -13.9863
  28   2.0000      -0.505004       -13.7419
  29   2.0000      -0.483677       -13.1615
  30   2.0000      -0.459711       -12.5094
  31   2.0000      -0.435984       -11.8637
  32   2.0000      -0.433288       -11.7904
  33   2.0000      -0.389588       -10.6012
  34   2.0000      -0.368444       -10.0259
  35   0.0000       0.130379         3.5478
  36   0.0000       0.150841         4.1046
  37   0.0000       0.166031         4.5179
  38   0.0000       0.181558         4.9405
  39   0.0000       0.186606         5.0778

MULLIKEN ATOMIC CHARGES
-----------------------
   0 C :   -0.447855
   1 C :    0.065016
   2 O :   -0.467781
   3 C :    0.203081
   4 C :   -0.282623
   5 C :   -0.230475
   6 C :   -0.126656
   7 N :   -0.230104
   8 C :   -0.298085
   9 H :    0.141009
  10 H :    0.126069
  11 H :    0.136282
  12 H :    0.086998
  13 H :    0.310768
  14 H :    0.136710
  15 H :    0.123535
  16 H :    0.120681
  17 H :    0.121517
  18 H :    0.124695
  19 H :    0.112524
  20 H :    0.134531
  21 H :    0.140164
Sum of atomic charges:   -0.0000000

LOEWDIN ATOMIC CHARGES
----------------------
   0 C :   -0.297733
   1 C :   -0.340761
   2 O :   -0.020903
   3 C :   -0.234980
   4 C :   -0.201645
   5 C :   -0.226191
   6 C :   -0.196278
   7 N :    0.142063
   8 C :   -0.321865
   9 H :    0.126447
  10 H :    0.119452
  11 H :    0.130299
  12 H :    0.142901
  13 H :    0.172075
  14 H :    0.143177
  15 H :    0.124582
  16 H :    0.137575
  17 H :    0.124214
  18 H :    0.131415
  19 H :    0.108834
  20 H :    0.117548
  21 H :    0.119774

  Mayer bond orders larger than 0.1
B(  0-C ,  1-C ) :   0.9092 B(  0-C ,  9-H ) :   0.9385 B(  0-C , 10-H ) :   0.9348
B(  0-C , 11-H ) :   0.9330 B(  1-C ,  2-O ) :   1.0248 B(  1-C ,  3-C ) :   0.8659
B(  1-C , 12-H ) :   0.9383 B(  2-O , 13-H ) :   0.8452 B(  3-C ,  4-C ) :   0.9160
B(  3-C ,  6-C ) :   0.8064 B(  3-C ,  7-N ) :   0.8510 B(  4-C ,  5-C ) :   0.9610
B(  4-C , 14-H ) :   0.9115 B(  4-C , 15-H ) :   0.9290 B(  5-C ,  6-C ) :   0.9157
B(  5-C , 16-H ) :   0.9160 B(  5-C , 17-H ) :   0.9327 B(  6-C ,  7-N ) :   0.9498
B(  6-C , 18-H ) :   0.9125 B(  7-N ,  8-C ) :   0.8773 B(  8-C , 19-H ) :   0.9208
B(  8-C , 20-H ) :   0.9392 B(  8-C , 21-H ) :   0.9389

MP2 TOTAL ENERGY:     -403.614761568 Eh
FINAL SINGLE POINT ENERGY      -403.614761568457

DIPOLE MOMENT
-------------
                                X             Y             Z
Electronic contribution:     -0.58330      -3.31677      -2.98314
Nuclear contribution   :      0.52064       3.72282       2.96873
                        -----------------------------------------
Total Dipole Moment    :     -0.06267       0.40605      -0.01441
                        -----------------------------------------
Magnitude (a.u.)       :      0.41111
Magnitude (Debye)      :      1.04496

                             ****ORCA TERMINATED NORMALLY****
TOTAL RUN TIME: 0 days 0 hours 20 minutes 57 seconds 588 msec
