                         Program Version 3.0.3 - RELEASE   -
|  1> ! RI-MP2 RIJK def2-TZVP def2-TZVP/C def2-TZVP/JK TIGHTSCF
|  2> % maxcore 2000
|  3> % mp2 density relaxed end
|  4> *xyz 0 1
|  5>  C       -0.0659047475     1.4794640759     0.0498145450
|  6>  C       -0.0339656285    -0.0149251581    -0.0404600915
|  7>  C        0.8260216760    -0.9513985192    -0.9533100043
|  8>  C        1.9548477819    -0.8870660601     0.0682941664
|  9>  N        0.7444221293    -0.8902857986     0.9968357234
| 10>  C        0.0331032164    -1.8624646765     0.0238036107
| 11>  C       -1.2364547486    -0.9939256204    -0.0281706978
| 12>  C       -2.1432911939    -0.9796970182     1.1005892831
| 13>  C       -2.9183336429    -0.9559843576     2.0197148267
| 14>  H        0.9445945491     1.8974756726     0.0982064441
| 15>  H       -0.5700177825     1.9073037454    -0.8232308524
| 16>  H       -0.6099266869     1.7880581782     0.9476212752
| 17>  H        0.8449144035    -0.9906607866    -2.0483452045
| 18>  H        2.5912826426    -1.7699412958     0.1864992552
| 19>  H        2.5570303447     0.0248421834     0.1288661055
| 20>  H        0.1202684130    -2.9410523857     0.1604628348
| 21>  H       -1.7760341518    -1.0462935623    -0.9802836389
| 22>  H       -3.5900961739    -0.9411674662     2.8418225994
| 23> *
| 24>
| 25>                          ****END OF INPUT****

CARTESIAN COORDINATES (ANGSTROEM)
---------------------------------
  C     -0.065905    1.479464    0.049815
  C     -0.033966   -0.014925   -0.040460
  C      0.826022   -0.951399   -0.953310
  C      1.954848   -0.887066    0.068294
  N      0.744422   -0.890286    0.996836
  C      0.033103   -1.862465    0.023804
  C     -1.236455   -0.993926   -0.028171
  C     -2.143291   -0.979697    1.100589
  C     -2.918334   -0.955984    2.019715
  H      0.944595    1.897476    0.098206
  H     -0.570018    1.907304   -0.823231
  H     -0.609927    1.788058    0.947621
  H      0.844914   -0.990661   -2.048345
  H      2.591283   -1.769941    0.186499
  H      2.557030    0.024842    0.128866
  H      0.120268   -2.941052    0.160463
  H     -1.776034   -1.046294   -0.980284
  H     -3.590096   -0.941167    2.841823

 Total Charge           Charge          ....    0
 Multiplicity           Mult            ....    1
 Number of Electrons    NEL             ....   64
 Basis Dimension        Dim             ....  333

ORBITAL ENERGIES
----------------

  NO   OCC          E(Eh)            E(eV)
   0   2.0000     -15.564900      -423.5425
   1   2.0000     -11.287013      -307.1352
   2   2.0000     -11.279848      -306.9403
   3   2.0000     -11.260150      -306.4043
   4   2.0000     -11.256185      -306.2964
   5   2.0000     -11.251942      -306.1809
   6   2.0000     -11.229317      -305.5652
   7   2.0000     -11.225180      -305.4527
   8   2.0000     -11.218455      -305.2697
   9   2.0000      -1.322167       -35.9780
  10   2.0000      -1.074417       -29.2364
  11   2.0000      -1.010922       -27.5086
  12   2.0000      -0.992678       -27.0121
  13   2.0000      -0.935558       -25.4578
  14   2.0000      -0.870685       -23.6925
  15   2.0000      -0.836752       -22.7692
  16   2.0000      -0.729892       -19.8614
  17   2.0000      -0.689459       -18.7611
  18   2.0000      -0.658527       -17.9194
  19   2.0000      -0.641958       -17.4686
  20   2.0000      -0.636217       -17.3123
  21   2.0000      -0.627634       -17.0788
  22   2.0000      -0.576653       -15.6915
  23   2.0000      -0.557261       -15.1638
  24   2.0000      -0.497277       -13.5316
  25   2.0000      -0.491097       -13.3634
  26   2.0000      -0.454383       -12.3644
  27   2.0000      -0.450980       -12.2718
  28   2.0000      -0.440424       -11.9846
  29   2.0000      -0.387157       -10.5351
  30   2.0000      -0.373526       -10.1642
  31   2.0000      -0.368915       -10.0387
  32   0.0000       0.141838         3.8596
  33   0.0000       0.155235         4.2242
  34   0.0000       0.161113         4.3841
  35   0.0000       0.167193         4.5496
  36   0.0000       0.173104         4.7104

MULLIKEN ATOMIC CHARGES
-----------------------
   0 C :   -0.414486
   1 C :    0.049684
   2 C :   -0.056928
   3 C :   -0.168432
   4 N :   -0.195856
   5 C :   -0.094968
   6 C :   -0.184044
   7 C :   -0.011176
   8 C :   -0.155058
   9 H :    0.136982
  10 H :    0.137622
  11 H :    0.158560
  12 H :    0.110893
  13 H :    0.118094
  14 H :    0.116288
  15 H :    0.137751
  16 H :    0.125917
  17 H :    0.189158
Sum of atomic charges:   -0.0000000

LOEWDIN ATOMIC CHARGES
----------------------
   0 C :   -0.267293
   1 C :   -0.204072
   2 C :   -0.153435
   3 C :   -0.238302
   4 N :    0.150396
   5 C :   -0.144001
   6 C :   -0.164772
   7 C :   -0.083478
   8 C :   -0.091780
   9 H :    0.132940
  10 H :    0.133818
  11 H :    0.140031
  12 H :    0.122958
  13 H :    0.123614
  14 H :    0.120743
  15 H :    0.129725
  16 H :    0.166477
  17 H :    0.126430

  Mayer bond orders larger than 0.1
B(  0-C ,  1-C ) :   0.8619 B(  0-C ,  9-H ) :   0.9333 B(  0-C , 10-H ) :   0.9329
B(  0-C , 11-H ) :   0.9383 B(  1-C ,  2-C ) :   0.8779 B(  1-C ,  4-N ) :   0.9229
B(  1-C ,  6-C ) :   0.8156 B(  2-C ,  3-C ) :   0.9547 B(  2-C ,  5-C ) :   0.9134
B(  2-C , 12-H ) :   0.9190 B(  3-C ,  4-N ) :   0.9254 B(  3-C , 13-H ) :   0.9239
B(  3-C , 14-H ) :   0.9259 B(  4-N ,  5-C ) :   0.9490 B(  4-N ,  6-C ) :  -0.1028
B(  5-C ,  6-C ) :   0.8836 B(  5-C , 15-H ) :   0.8888 B(  6-C ,  7-C ) :   1.1899
B(  6-C ,  8-C ) :  -0.1172 B(  6-C , 16-H ) :   0.9458 B(  7-C ,  8-C ) :   2.5945
B(  8-C , 17-H ) :   0.8878

MP2 TOTAL ENERGY:     -364.015684073 Eh
FINAL SINGLE POINT ENERGY      -364.015684073017

DIPOLE MOMENT
-------------
                                X             Y             Z
Electronic contribution:     -2.60901      -3.34371       1.65340
Nuclear contribution   :      2.76067       3.48326      -2.44887
                        -----------------------------------------
Total Dipole Moment    :      0.15166       0.13956      -0.79547
                        -----------------------------------------
Magnitude (a.u.)       :      0.82173
Magnitude (Debye)      :      2.08867

                             ****ORCA TERMINATED NORMALLY****
TOTAL RUN TIME: 0 days 0 hours 18 minutes 52 seconds 550 msec
