                         Program Version 3.0.3 - RELEASE   -
|  1> ! RI-MP2 RIJK def2-TZVP def2-TZVP/C def2-TZVP/JK TIGHTSCF
|  2> % maxcore 2000
|  3> % mp2 density relaxed end
|  4> *xyz 0 1
|  5>  O        0.1848644077     1.4362584106     0.2913840835
|  6>  C        0.0783728105     0.0465172665     0.0118789745
|  7>  C        0.6439045249    -0.7536114634     1.2052679276
|  8>  C       -0.2653324044    -1.6618761053     1.6052642817
|  9>  C       -1.2593328320    -1.2572685470     2.6908485619
| 10>  C       -2.1261973140    -0.8820531966     1.4185567239
| 11>  O       -3.5024493857    -0.7687396625     1.4702668903
| 12>  C       -1.3763780043    -0.4100471213     0.0877366776
| 13>  C       -1.3782245571    -1.8318626537     0.5544392686
| 14>  H        1.0653039985     1.7284077763     0.0342865718
| 15>  H        0.4963013654    -0.1692114184    -0.9845273388
| 16>  H        1.3098262255    -0.2338516206     1.8889569279
| 17>  H       -1.7878913758    -2.0605097271     3.2169083238
| 18>  H       -0.9429716258    -0.4781366533     3.3902313388
| 19>  H       -3.7187034151     0.1298376071     1.7436485942
| 20>  H       -2.0863003455    -0.0882614148    -0.6710941009
| 21>  H       -1.6889274829    -2.7262044568     0.0310717335
| 22> *
| 23>
| 24>                          ****END OF INPUT****

CARTESIAN COORDINATES (ANGSTROEM)
---------------------------------
  O      0.184864    1.436258    0.291384
  C      0.078373    0.046517    0.011879
  C      0.643905   -0.753611    1.205268
  C     -0.265332   -1.661876    1.605264
  C     -1.259333   -1.257269    2.690849
  C     -2.126197   -0.882053    1.418557
  O     -3.502449   -0.768740    1.470267
  C     -1.376378   -0.410047    0.087737
  C     -1.378225   -1.831863    0.554439
  H      1.065304    1.728408    0.034287
  H      0.496301   -0.169211   -0.984527
  H      1.309826   -0.233852    1.888957
  H     -1.787891   -2.060510    3.216908
  H     -0.942972   -0.478137    3.390231
  H     -3.718703    0.129838    1.743649
  H     -2.086300   -0.088261   -0.671094
  H     -1.688927   -2.726204    0.031072

 Total Charge           Charge          ....    0
 Multiplicity           Mult            ....    1
 Number of Electrons    NEL             ....   66
 Basis Dimension        Dim             ....  327

ORBITAL ENERGIES
----------------

  NO   OCC          E(Eh)            E(eV)
   0   2.0000     -20.572504      -559.8063
   1   2.0000     -20.563760      -559.5684
   2   2.0000     -11.305802      -307.6465
   3   2.0000     -11.299982      -307.4881
   4   2.0000     -11.253021      -306.2103
   5   2.0000     -11.245245      -305.9987
   6   2.0000     -11.240921      -305.8810
   7   2.0000     -11.232222      -305.6443
   8   2.0000     -11.228876      -305.5533
   9   2.0000      -1.385203       -37.6933
  10   2.0000      -1.369894       -37.2767
  11   2.0000      -1.217465       -33.1289
  12   2.0000      -1.018486       -27.7144
  13   2.0000      -1.009848       -27.4794
  14   2.0000      -0.889195       -24.1962
  15   2.0000      -0.801590       -21.8124
  16   2.0000      -0.783372       -21.3166
  17   2.0000      -0.726632       -19.7727
  18   2.0000      -0.700063       -19.0497
  19   2.0000      -0.698861       -19.0170
  20   2.0000      -0.649001       -17.6602
  21   2.0000      -0.626238       -17.0408
  22   2.0000      -0.609288       -16.5796
  23   2.0000      -0.577466       -15.7136
  24   2.0000      -0.565985       -15.4012
  25   2.0000      -0.544074       -14.8050
  26   2.0000      -0.509436       -13.8624
  27   2.0000      -0.493701       -13.4343
  28   2.0000      -0.478998       -13.0342
  29   2.0000      -0.441880       -12.0242
  30   2.0000      -0.404684       -11.0120
  31   2.0000      -0.389535       -10.5998
  32   2.0000      -0.318559        -8.6684
  33   0.0000       0.094389         2.5685
  34   0.0000       0.134083         3.6486
  35   0.0000       0.149325         4.0633
  36   0.0000       0.166343         4.5264
  37   0.0000       0.176227         4.7954

MULLIKEN ATOMIC CHARGES
-----------------------
   0 O :   -0.455840
   1 C :    0.101833
   2 C :   -0.192051
   3 C :    0.033308
   4 C :   -0.205699
   5 C :    0.145035
   6 O :   -0.451522
   7 C :   -0.199582
   8 C :   -0.143554
   9 H :    0.318478
  10 H :    0.087008
  11 H :    0.115316
  12 H :    0.117758
  13 H :    0.116861
  14 H :    0.333821
  15 H :    0.121815
  16 H :    0.157015
Sum of atomic charges:    0.0000000

LOEWDIN ATOMIC CHARGES
----------------------
   0 O :   -0.013457
   1 C :   -0.309597
   2 C :   -0.105102
   3 C :   -0.128117
   4 C :   -0.149354
   5 C :   -0.280556
   6 O :    0.035551
   7 C :   -0.129292
   8 C :   -0.116645
   9 H :    0.174628
  10 H :    0.132258
  11 H :    0.137136
  12 H :    0.140485
  13 H :    0.128056
  14 H :    0.189522
  15 H :    0.150843
  16 H :    0.143641

  Mayer bond orders larger than 0.1
B(  0-O ,  1-C ) :   1.0611 B(  0-O ,  9-H ) :   0.8450 B(  1-C ,  2-C ) :   0.9215
B(  1-C ,  7-C ) :   0.9200 B(  1-C , 10-H ) :   0.9060 B(  2-C ,  3-C ) :   1.6628
B(  2-C , 11-H ) :   0.9111 B(  3-C ,  4-C ) :   0.9224 B(  3-C ,  8-C ) :   0.8746
B(  4-C ,  5-C ) :   0.9177 B(  4-C , 12-H ) :   0.9056 B(  4-C , 13-H ) :   0.9113
B(  5-C ,  6-O ) :   1.0310 B(  5-C ,  7-C ) :   0.8621 B(  5-C ,  8-C ) :   0.8609
B(  6-O , 14-H ) :   0.8346 B(  7-C ,  8-C ) :   0.8627 B(  7-C , 15-H ) :   0.9266
B(  8-C , 16-H ) :   0.8800

MP2 TOTAL ENERGY:     -421.009783753 Eh
FINAL SINGLE POINT ENERGY      -421.009783752782

DIPOLE MOMENT
-------------
                                X             Y             Z
Electronic contribution:     -0.53917      -0.42734      -0.47316
Nuclear contribution   :      0.86711       0.86438       0.37906
                        -----------------------------------------
Total Dipole Moment    :      0.32794       0.43704      -0.09410
                        -----------------------------------------
Magnitude (a.u.)       :      0.55444
Magnitude (Debye)      :      1.40927

                             ****ORCA TERMINATED NORMALLY****
TOTAL RUN TIME: 0 days 0 hours 16 minutes 48 seconds 83 msec
