                         Program Version 3.0.3 - RELEASE   -
|  1> ! RI-MP2 RIJK def2-TZVP def2-TZVP/C def2-TZVP/JK TIGHTSCF
|  2> % maxcore 2000
|  3> % mp2 density relaxed end
|  4> *xyz 0 1
|  5>  O       -0.1449266772     0.2095181283     0.7374323519
|  6>  C        0.1209771458     1.0029523170    -0.1373538297
|  7>  C        1.2930071400     1.9245744939    -0.0889306604
|  8>  C        1.7977022061     2.2773518706     1.3043149930
|  9>  C        2.5652943202     1.2982019678     0.4874943764
| 10>  C        1.4337970135     2.9477079672    -1.1775325993
| 11>  N        0.8920385126     2.6111449849    -2.5022208110
| 12>  C        0.2893284737     3.7142190427    -1.7357447673
| 13>  H       -0.4944841572     1.0723208736    -1.0552532973
| 14>  H        2.1996075052     3.2757209425     1.4396448256
| 15>  H        1.2058647612     1.8920297249     2.1264996517
| 16>  H        2.4960011397     0.2508518781     0.7572777566
| 17>  H        3.5050364001     1.6061915286     0.0416021957
| 18>  H        2.3852670683     3.4779184927    -1.1491492794
| 19>  H        1.4890320506     2.9681920056    -3.2421858982
| 20>  H       -0.7192965712     3.5224381201    -1.3780698052
| 21>  H        0.4642230184     4.7373903615    -2.0577096028
| 22> *
| 23>
| 24>                          ****END OF INPUT****

CARTESIAN COORDINATES (ANGSTROEM)
---------------------------------
  O     -0.144927    0.209518    0.737432
  C      0.120977    1.002952   -0.137354
  C      1.293007    1.924574   -0.088931
  C      1.797702    2.277352    1.304315
  C      2.565294    1.298202    0.487494
  C      1.433797    2.947708   -1.177533
  N      0.892039    2.611145   -2.502221
  C      0.289328    3.714219   -1.735745
  H     -0.494484    1.072321   -1.055253
  H      2.199608    3.275721    1.439645
  H      1.205865    1.892030    2.126500
  H      2.496001    0.250852    0.757278
  H      3.505036    1.606192    0.041602
  H      2.385267    3.477918   -1.149149
  H      1.489032    2.968192   -3.242186
  H     -0.719297    3.522438   -1.378070
  H      0.464223    4.737390   -2.057710

 Total Charge           Charge          ....    0
 Multiplicity           Mult            ....    1
 Number of Electrons    NEL             ....   60
 Basis Dimension        Dim             ....  302

ORBITAL ENERGIES
----------------

  NO   OCC          E(Eh)            E(eV)
   0   2.0000     -20.542681      -558.9948
   1   2.0000     -15.570630      -423.6984
   2   2.0000     -11.323225      -308.1206
   3   2.0000     -11.279815      -306.9394
   4   2.0000     -11.267320      -306.5994
   5   2.0000     -11.252302      -306.1907
   6   2.0000     -11.243323      -305.9464
   7   2.0000     -11.240875      -305.8798
   8   2.0000      -1.383144       -37.6373
   9   2.0000      -1.276564       -34.7371
  10   2.0000      -1.159893       -31.5623
  11   2.0000      -0.946163       -25.7464
  12   2.0000      -0.895624       -24.3712
  13   2.0000      -0.855868       -23.2893
  14   2.0000      -0.835219       -22.7275
  15   2.0000      -0.741153       -20.1678
  16   2.0000      -0.716555       -19.4985
  17   2.0000      -0.698207       -18.9992
  18   2.0000      -0.647619       -17.6226
  19   2.0000      -0.624210       -16.9856
  20   2.0000      -0.597905       -16.2698
  21   2.0000      -0.551685       -15.0121
  22   2.0000      -0.541690       -14.7401
  23   2.0000      -0.532581       -14.4923
  24   2.0000      -0.503385       -13.6978
  25   2.0000      -0.494405       -13.4534
  26   2.0000      -0.459763       -12.5108
  27   2.0000      -0.426495       -11.6055
  28   2.0000      -0.405510       -11.0345
  29   2.0000      -0.384649       -10.4668
  30   0.0000       0.125801         3.4232
  31   0.0000       0.129775         3.5314
  32   0.0000       0.156188         4.2501
  33   0.0000       0.169425         4.6103
  34   0.0000       0.182806         4.9744

MULLIKEN ATOMIC CHARGES
-----------------------
   0 O :   -0.300531
   1 C :    0.080816
   2 C :    0.129725
   3 C :   -0.297548
   4 C :   -0.300237
   5 C :   -0.042766
   6 N :   -0.387719
   7 C :   -0.192971
   8 H :    0.117181
   9 H :    0.136127
  10 H :    0.154691
  11 H :    0.154414
  12 H :    0.133731
  13 H :    0.129330
  14 H :    0.221885
  15 H :    0.131574
  16 H :    0.132299
Sum of atomic charges:   -0.0000000

LOEWDIN ATOMIC CHARGES
----------------------
   0 O :    0.121027
   1 C :   -0.249983
   2 C :   -0.231957
   3 C :   -0.185930
   4 C :   -0.181710
   5 C :   -0.244469
   6 N :   -0.014864
   7 C :   -0.259699
   8 H :    0.127422
   9 H :    0.136550
  10 H :    0.144390
  11 H :    0.143369
  12 H :    0.135249
  13 H :    0.145628
  14 H :    0.166032
  15 H :    0.127441
  16 H :    0.121505

  Mayer bond orders larger than 0.1
B(  0-O ,  1-C ) :   1.9395 B(  1-C ,  2-C ) :   0.8806 B(  1-C ,  8-H ) :   0.9564
B(  2-C ,  3-C ) :   0.8216 B(  2-C ,  4-C ) :   0.8130 B(  2-C ,  5-C ) :   0.8836
B(  3-C ,  4-C ) :   0.9568 B(  3-C ,  9-H ) :   0.9268 B(  3-C , 10-H ) :   0.9158
B(  4-C , 11-H ) :   0.9197 B(  4-C , 12-H ) :   0.9263 B(  5-C ,  6-N ) :   0.8885
B(  5-C ,  7-C ) :   0.9328 B(  5-C , 13-H ) :   0.9182 B(  6-N ,  7-C ) :   0.9177
B(  6-N , 14-H ) :   0.8682 B(  7-C , 15-H ) :   0.9142 B(  7-C , 16-H ) :   0.9271

MP2 TOTAL ENERGY:     -363.205236070 Eh
FINAL SINGLE POINT ENERGY      -363.205236069914

DIPOLE MOMENT
-------------
                                X             Y             Z
Electronic contribution:     -2.36346      -3.27141       0.38455
Nuclear contribution   :      3.16234       4.57828      -0.89086
                        -----------------------------------------
Total Dipole Moment    :      0.79889       1.30687      -0.50631
                        -----------------------------------------
Magnitude (a.u.)       :      1.61322
Magnitude (Debye)      :      4.10049

                             ****ORCA TERMINATED NORMALLY****
TOTAL RUN TIME: 0 days 0 hours 11 minutes 56 seconds 287 msec
