                         Program Version 3.0.3 - RELEASE   -
|  1> ! RI-MP2 RIJK def2-TZVP def2-TZVP/C def2-TZVP/JK TIGHTSCF
|  2> % maxcore 2000
|  3> % mp2 density relaxed end
|  4> *xyz 0 1
|  5>  N        0.0659968355     1.4203031641    -0.1364609734
|  6>  C       -0.0860163019     0.0543043075    -0.0557987488
|  7>  C       -1.1236528225    -0.8152931670    -0.0609332040
|  8>  O       -2.4936742634    -0.9332745644    -0.0262171897
|  9>  C       -2.6999132587    -2.3390345333    -0.2484985905
| 10>  O       -1.4622274712    -3.0474479601     0.0062940893
| 11>  C       -0.5241122774    -2.0747745665    -0.0241017112
| 12>  N        0.7765629328    -2.0871377318    -0.0049855720
| 13>  O        1.0645024554    -0.6778918998    -0.0244883618
| 14>  H        0.9461036353     1.7429118266     0.2436771529
| 15>  H       -0.7171064597     1.9421360006     0.2307770168
| 16>  H       -3.4629531578    -2.7040405651     0.4414999596
| 17>  H       -2.9875204464    -2.5086497508    -1.2946586372
| 18> *
| 19>
| 20>                          ****END OF INPUT****

CARTESIAN COORDINATES (ANGSTROEM)
---------------------------------
  N      0.065997    1.420303   -0.136461
  C     -0.086016    0.054304   -0.055799
  C     -1.123653   -0.815293   -0.060933
  O     -2.493674   -0.933275   -0.026217
  C     -2.699913   -2.339035   -0.248499
  O     -1.462227   -3.047448    0.006294
  C     -0.524112   -2.074775   -0.024102
  N      0.776563   -2.087138   -0.004986
  O      1.064502   -0.677892   -0.024488
  H      0.946104    1.742912    0.243677
  H     -0.717106    1.942136    0.230777
  H     -3.462953   -2.704041    0.441500
  H     -2.987520   -2.508650   -1.294659

 Total Charge           Charge          ....    0
 Multiplicity           Mult            ....    1
 Number of Electrons    NEL             ....   66
 Basis Dimension        Dim             ....  303

ORBITAL ENERGIES
----------------

  NO   OCC          E(Eh)            E(eV)
   0   2.0000     -20.633523      -561.4667
   1   2.0000     -20.627734      -561.3092
   2   2.0000     -20.616134      -560.9935
   3   2.0000     -15.609675      -424.7609
   4   2.0000     -15.601486      -424.5380
   5   2.0000     -11.375989      -309.5564
   6   2.0000     -11.365135      -309.2610
   7   2.0000     -11.340681      -308.5956
   8   2.0000     -11.285900      -307.1050
   9   2.0000      -1.502215       -40.8774
  10   2.0000      -1.467214       -39.9249
  11   2.0000      -1.395127       -37.9633
  12   2.0000      -1.249412       -33.9982
  13   2.0000      -1.152847       -31.3706
  14   2.0000      -1.059231       -28.8231
  15   2.0000      -0.951244       -25.8847
  16   2.0000      -0.848077       -23.0773
  17   2.0000      -0.828047       -22.5323
  18   2.0000      -0.744369       -20.2553
  19   2.0000      -0.732413       -19.9300
  20   2.0000      -0.727509       -19.7965
  21   2.0000      -0.672419       -18.2975
  22   2.0000      -0.664623       -18.0853
  23   2.0000      -0.655235       -17.8298
  24   2.0000      -0.600131       -16.3304
  25   2.0000      -0.588924       -16.0254
  26   2.0000      -0.573776       -15.6132
  27   2.0000      -0.565173       -15.3791
  28   2.0000      -0.533369       -14.5137
  29   2.0000      -0.507679       -13.8146
  30   2.0000      -0.478425       -13.0186
  31   2.0000      -0.394013       -10.7216
  32   2.0000      -0.327282        -8.9058
  33   0.0000       0.119006         3.2383
  34   0.0000       0.143158         3.8955
  35   0.0000       0.159778         4.3478
  36   0.0000       0.179524         4.8851
  37   0.0000       0.187138         5.0923

MULLIKEN ATOMIC CHARGES
-----------------------
   0 N :   -0.514626
   1 C :    0.215009
   2 C :    0.036615
   3 O :   -0.308174
   4 C :    0.149532
   5 O :   -0.273521
   6 C :    0.207810
   7 N :   -0.168694
   8 O :   -0.127199
   9 H :    0.269506
  10 H :    0.265791
  11 H :    0.136697
  12 H :    0.111254
Sum of atomic charges:    0.0000000

LOEWDIN ATOMIC CHARGES
----------------------
   0 N :   -0.059011
   1 C :   -0.356642
   2 C :   -0.279058
   3 O :    0.212159
   4 C :   -0.256942
   5 O :    0.246810
   6 C :   -0.404112
   7 N :    0.043026
   8 O :    0.250715
   9 H :    0.181315
  10 H :    0.180655
  11 H :    0.122963
  12 H :    0.118122

  Mayer bond orders larger than 0.1
B(  0-N ,  1-C ) :   1.0753 B(  0-N ,  9-H ) :   0.8637 B(  0-N , 10-H ) :   0.8697
B(  1-C ,  2-C ) :   1.4793 B(  1-C ,  7-N ) :   0.1150 B(  1-C ,  8-O ) :   1.1183
B(  2-C ,  3-O ) :   0.9890 B(  2-C ,  6-C ) :   1.1731 B(  3-O ,  4-C ) :   0.9201
B(  4-C ,  5-O ) :   0.9033 B(  4-C , 11-H ) :   0.9253 B(  4-C , 12-H ) :   0.9189
B(  5-O ,  6-C ) :   1.0557 B(  6-C ,  7-N ) :   1.6299 B(  7-N ,  8-O ) :   0.8182

MP2 TOTAL ENERGY:     -489.062861755 Eh
FINAL SINGLE POINT ENERGY      -489.062861754561

DIPOLE MOMENT
-------------
                                X             Y             Z
Electronic contribution:      1.92595      -1.88615       0.37279
Nuclear contribution   :     -3.08083       2.88149      -0.12632
                        -----------------------------------------
Total Dipole Moment    :     -1.15488       0.99534       0.24647
                        -----------------------------------------
Magnitude (a.u.)       :      1.54441
Magnitude (Debye)      :      3.92558

                             ****ORCA TERMINATED NORMALLY****
TOTAL RUN TIME: 0 days 0 hours 15 minutes 43 seconds 446 msec
