                         Program Version 3.0.3 - RELEASE   -
|  1> ! RI-MP2 RIJK def2-TZVP def2-TZVP/C def2-TZVP/JK TIGHTSCF
|  2> % maxcore 2000
|  3> % mp2 density relaxed end
|  4> *xyz 0 1
|  5>  N       -0.1122563314    -1.1372890965    -0.3182407169
|  6>  C       -0.0638940371     0.0035527719    -0.1352398992
|  7>  C       -0.0105056593     1.4332086467     0.0983418012
|  8>  C       -0.2376037221     2.3131223672    -1.1678538364
|  9>  O        1.1183405423     2.7904830502    -1.1599376001
| 10>  C        1.4027604353     2.1120697414     0.0877814614
| 11>  C        1.3771677409     3.0104657576     1.2902477942
| 12>  C        0.2383603415     2.9035308279     1.9739976058
| 13>  C       -0.7182941182     1.8844737738     1.4017156798
| 14>  H       -0.4734947448     1.7659358126    -2.0853639529
| 15>  H       -0.9681920759     3.1172546553    -1.0166022734
| 16>  H        2.2918304824     1.4811265964    -0.0035925064
| 17>  H        2.1996092626     3.6734716610     1.5303636785
| 18>  H       -0.0065712686     3.4693639438     2.8663082502
| 19>  H       -1.7097703143     2.3054373499     1.1960159601
| 20>  H       -0.8734314633     1.0433262909     2.0868938142
| 21> *
| 22>
| 23>                          ****END OF INPUT****

CARTESIAN COORDINATES (ANGSTROEM)
---------------------------------
  N     -0.112256   -1.137289   -0.318241
  C     -0.063894    0.003553   -0.135240
  C     -0.010506    1.433209    0.098342
  C     -0.237604    2.313122   -1.167854
  O      1.118341    2.790483   -1.159938
  C      1.402760    2.112070    0.087781
  C      1.377168    3.010466    1.290248
  C      0.238360    2.903531    1.973998
  C     -0.718294    1.884474    1.401716
  H     -0.473495    1.765936   -2.085364
  H     -0.968192    3.117255   -1.016602
  H      2.291830    1.481127   -0.003593
  H      2.199609    3.673472    1.530364
  H     -0.006571    3.469364    2.866308
  H     -1.709770    2.305437    1.196016
  H     -0.873431    1.043326    2.086894

 Total Charge           Charge          ....    0
 Multiplicity           Mult            ....    1
 Number of Electrons    NEL             ....   64
 Basis Dimension        Dim             ....  321

ORBITAL ENERGIES
----------------

  NO   OCC          E(Eh)            E(eV)
   0   2.0000     -20.570238      -559.7446
   1   2.0000     -15.575352      -423.8269
   2   2.0000     -11.316584      -307.9399
   3   2.0000     -11.308425      -307.7179
   4   2.0000     -11.296945      -307.4055
   5   2.0000     -11.277748      -306.8831
   6   2.0000     -11.265522      -306.5505
   7   2.0000     -11.260512      -306.4141
   8   2.0000     -11.249310      -306.1093
   9   2.0000      -1.404863       -38.2283
  10   2.0000      -1.224962       -33.3329
  11   2.0000      -1.156519       -31.4705
  12   2.0000      -1.048267       -28.5248
  13   2.0000      -0.978131       -26.6163
  14   2.0000      -0.929658       -25.2973
  15   2.0000      -0.829300       -22.5664
  16   2.0000      -0.775035       -21.0898
  17   2.0000      -0.744462       -20.2578
  18   2.0000      -0.688458       -18.7339
  19   2.0000      -0.657214       -17.8837
  20   2.0000      -0.627649       -17.0792
  21   2.0000      -0.603988       -16.4353
  22   2.0000      -0.591703       -16.1011
  23   2.0000      -0.575837       -15.6693
  24   2.0000      -0.555810       -15.1243
  25   2.0000      -0.535346       -14.5675
  26   2.0000      -0.520372       -14.1600
  27   2.0000      -0.508805       -13.8453
  28   2.0000      -0.454782       -12.3753
  29   2.0000      -0.444911       -12.1066
  30   2.0000      -0.437037       -11.8924
  31   2.0000      -0.385245       -10.4831
  32   0.0000       0.121629         3.3097
  33   0.0000       0.129834         3.5330
  34   0.0000       0.151588         4.1249
  35   0.0000       0.160075         4.3559
  36   0.0000       0.165008         4.4901

MULLIKEN ATOMIC CHARGES
-----------------------
   0 N :   -0.046905
   1 C :   -0.266462
   2 C :    0.210139
   3 C :   -0.052022
   4 O :   -0.322064
   5 C :    0.131507
   6 C :   -0.198831
   7 C :   -0.182386
   8 C :   -0.196762
   9 H :    0.125903
  10 H :    0.100103
  11 H :    0.124754
  12 H :    0.144549
  13 H :    0.141731
  14 H :    0.137734
  15 H :    0.149013
Sum of atomic charges:   -0.0000000

LOEWDIN ATOMIC CHARGES
----------------------
   0 N :    0.069289
   1 C :   -0.156068
   2 C :   -0.200204
   3 C :   -0.204341
   4 O :    0.143749
   5 C :   -0.199350
   6 C :   -0.130474
   7 C :   -0.131181
   8 C :   -0.179003
   9 H :    0.129023
  10 H :    0.125619
  11 H :    0.144439
  12 H :    0.144633
  13 H :    0.142492
  14 H :    0.148217
  15 H :    0.153161

  Mayer bond orders larger than 0.1
B(  0-N ,  1-C ) :   2.8717 B(  1-C ,  2-C ) :   0.8919 B(  2-C ,  3-C ) :   0.9591
B(  2-C ,  5-C ) :   0.9107 B(  2-C ,  8-C ) :   0.8990 B(  3-C ,  4-O ) :   0.9769
B(  3-C ,  9-H ) :   0.9091 B(  3-C , 10-H ) :   0.8908 B(  4-O ,  5-C ) :   0.9459
B(  5-C ,  6-C ) :   0.9198 B(  5-C , 11-H ) :   0.9141 B(  6-C ,  7-C ) :   1.7770
B(  6-C , 12-H ) :   0.9177 B(  7-C ,  8-C ) :   0.9505 B(  7-C , 13-H ) :   0.9236
B(  8-C , 14-H ) :   0.9141 B(  8-C , 15-H ) :   0.9073

MP2 TOTAL ENERGY:     -400.054593865 Eh
FINAL SINGLE POINT ENERGY      -400.054593865426

DIPOLE MOMENT
-------------
                                X             Y             Z
Electronic contribution:      1.43500      -3.24972      -2.13946
Nuclear contribution   :     -1.76370       4.44095       2.95514
                        -----------------------------------------
Total Dipole Moment    :     -0.32870       1.19123       0.81568
                        -----------------------------------------
Magnitude (a.u.)       :      1.48068
Magnitude (Debye)      :      3.76359

                             ****ORCA TERMINATED NORMALLY****
TOTAL RUN TIME: 0 days 0 hours 17 minutes 9 seconds 65 msec
