                         Program Version 3.0.3 - RELEASE   -
|  1> ! RI-MP2 RIJK def2-TZVP def2-TZVP/C def2-TZVP/JK TIGHTSCF
|  2> % maxcore 2000
|  3> % mp2 density relaxed end
|  4> *xyz 0 1
|  5>  C        0.9314263111    -0.2873496077    -1.3384355378
|  6>  C        0.0309171832    -0.1156571768    -0.1143999473
|  7>  C        0.6601791030    -0.6433168172     1.1941465484
|  8>  C       -0.2172671508    -0.3052475633     2.4371390102
|  9>  C       -0.3537026589     1.1271644518     2.6740700397
| 10>  C       -0.4456171498     2.3132166173     2.8633419817
| 11>  C       -0.5667593187     3.7440536092     3.1059986948
| 12>  C        0.8971681531    -2.0844470594     1.1377591382
| 13>  C        1.0620716727    -3.2752701776     1.1028820019
| 14>  H        1.1751245469    -1.3408536090    -1.5050555832
| 15>  H        0.4413465054     0.0939060142    -2.2394297879
| 16>  H        1.8736110797     0.2587566613    -1.2161255976
| 17>  H       -0.2033762435     0.9434029411     0.0359460088
| 18>  H       -0.9225547468    -0.6336835509    -0.2750440837
| 19>  H        1.6266981427    -0.1397114077     1.3328270046
| 20>  H       -1.2046468121    -0.7645081767     2.3015016482
| 21>  H        0.2245199509    -0.7873199724     3.3166791037
| 22>  H       -0.4946192203     3.9736657487     4.1749272075
| 23>  H        0.2250589841     4.3029717894     2.5949722033
| 24>  H       -1.5275837158     4.1306853877     2.7485051334
| 25>  H        1.2234149440    -4.3242216021     1.0685668931
| 26> *
| 27>
| 28>                          ****END OF INPUT****

CARTESIAN COORDINATES (ANGSTROEM)
---------------------------------
  C      0.931426   -0.287350   -1.338436
  C      0.030917   -0.115657   -0.114400
  C      0.660179   -0.643317    1.194147
  C     -0.217267   -0.305248    2.437139
  C     -0.353703    1.127164    2.674070
  C     -0.445617    2.313217    2.863342
  C     -0.566759    3.744054    3.105999
  C      0.897168   -2.084447    1.137759
  C      1.062072   -3.275270    1.102882
  H      1.175125   -1.340854   -1.505056
  H      0.441347    0.093906   -2.239430
  H      1.873611    0.258757   -1.216126
  H     -0.203376    0.943403    0.035946
  H     -0.922555   -0.633684   -0.275044
  H      1.626698   -0.139711    1.332827
  H     -1.204647   -0.764508    2.301502
  H      0.224520   -0.787320    3.316679
  H     -0.494619    3.973666    4.174927
  H      0.225059    4.302972    2.594972
  H     -1.527584    4.130685    2.748505
  H      1.223415   -4.324222    1.068567

 Total Charge           Charge          ....    0
 Multiplicity           Mult            ....    1
 Number of Electrons    NEL             ....   66
 Basis Dimension        Dim             ....  351

ORBITAL ENERGIES
----------------

  NO   OCC          E(Eh)            E(eV)
   0   2.0000     -11.259819      -306.3952
   1   2.0000     -11.252823      -306.2049
   2   2.0000     -11.246437      -306.0311
   3   2.0000     -11.231417      -305.6224
   4   2.0000     -11.225404      -305.4588
   5   2.0000     -11.222711      -305.3855
   6   2.0000     -11.219996      -305.3116
   7   2.0000     -11.217503      -305.2438
   8   2.0000     -11.211639      -305.0842
   9   2.0000      -1.120193       -30.4820
  10   2.0000      -1.058137       -28.7934
  11   2.0000      -1.014550       -27.6073
  12   2.0000      -1.006994       -27.4017
  13   2.0000      -0.943870       -25.6840
  14   2.0000      -0.884571       -24.0704
  15   2.0000      -0.821459       -22.3530
  16   2.0000      -0.717956       -19.5366
  17   2.0000      -0.679539       -18.4912
  18   2.0000      -0.643239       -17.5034
  19   2.0000      -0.617072       -16.7914
  20   2.0000      -0.607245       -16.5240
  21   2.0000      -0.592843       -16.1321
  22   2.0000      -0.584759       -15.9121
  23   2.0000      -0.582641       -15.8545
  24   2.0000      -0.568514       -15.4700
  25   2.0000      -0.535517       -14.5722
  26   2.0000      -0.493174       -13.4199
  27   2.0000      -0.488735       -13.2991
  28   2.0000      -0.481400       -13.0996
  29   2.0000      -0.393180       -10.6990
  30   2.0000      -0.384245       -10.4558
  31   2.0000      -0.366599        -9.9757
  32   2.0000      -0.363207        -9.8834
  33   0.0000       0.129704         3.5294
  34   0.0000       0.147176         4.0049
  35   0.0000       0.159014         4.3270
  36   0.0000       0.168147         4.5755
  37   0.0000       0.172933         4.7057

MULLIKEN ATOMIC CHARGES
-----------------------
   0 C :   -0.401677
   1 C :   -0.202741
   2 C :   -0.123348
   3 C :   -0.336455
   4 C :   -0.014641
   5 C :    0.045469
   6 C :   -0.483321
   7 C :   -0.053902
   8 C :   -0.155024
   9 H :    0.142531
  10 H :    0.133571
  11 H :    0.121293
  12 H :    0.131275
  13 H :    0.109383
  14 H :    0.115001
  15 H :    0.144933
  16 H :    0.154016
  17 H :    0.162501
  18 H :    0.160647
  19 H :    0.161611
  20 H :    0.188877
Sum of atomic charges:   -0.0000000

LOEWDIN ATOMIC CHARGES
----------------------
   0 C :   -0.313630
   1 C :   -0.252791
   2 C :   -0.231416
   3 C :   -0.212324
   4 C :   -0.090547
   5 C :   -0.109160
   6 C :   -0.296304
   7 C :   -0.088740
   8 C :   -0.102750
   9 H :    0.126342
  10 H :    0.121793
  11 H :    0.121506
  12 H :    0.144754
  13 H :    0.141160
  14 H :    0.173296
  15 H :    0.159829
  16 H :    0.161327
  17 H :    0.140966
  18 H :    0.140202
  19 H :    0.140190
  20 H :    0.126297

  Mayer bond orders larger than 0.1
B(  0-C ,  1-C ) :   0.9236 B(  0-C ,  9-H ) :   0.9361 B(  0-C , 10-H ) :   0.9404
B(  0-C , 11-H ) :   0.9369 B(  1-C ,  2-C ) :   0.9049 B(  1-C , 12-H ) :   0.9302
B(  1-C , 13-H ) :   0.9213 B(  2-C ,  3-C ) :   0.9225 B(  2-C ,  7-C ) :   1.1102
B(  2-C , 14-H ) :   0.9299 B(  3-C ,  4-C ) :   1.0090 B(  3-C , 15-H ) :   0.9220
B(  3-C , 16-H ) :   0.9342 B(  4-C ,  5-C ) :   2.7008 B(  5-C ,  6-C ) :   0.8542
B(  6-C , 17-H ) :   0.9496 B(  6-C , 18-H ) :   0.9460 B(  6-C , 19-H ) :   0.9481
B(  7-C ,  8-C ) :   2.6132 B(  8-C , 20-H ) :   0.8912

MP2 TOTAL ENERGY:     -349.240726021 Eh
FINAL SINGLE POINT ENERGY      -349.240726020992

DIPOLE MOMENT
-------------
                                X             Y             Z
Electronic contribution:      0.13254      -3.95371       4.27161
Nuclear contribution   :     -0.19201       4.28819      -4.28496
                        -----------------------------------------
Total Dipole Moment    :     -0.05947       0.33448      -0.01335
                        -----------------------------------------
Magnitude (a.u.)       :      0.33998
Magnitude (Debye)      :      0.86417

                             ****ORCA TERMINATED NORMALLY****
TOTAL RUN TIME: 0 days 0 hours 17 minutes 28 seconds 413 msec
