                         Program Version 3.0.3 - RELEASE   -
|  1> ! RI-MP2 RIJK def2-TZVP def2-TZVP/C def2-TZVP/JK TIGHTSCF
|  2> % maxcore 2000
|  3> % mp2 density relaxed end
|  4> *xyz 0 1
|  5>  C        0.2453728094     1.4559459522    -0.3574739850
|  6>  C       -0.1563607093     0.0258505248     0.0302537129
|  7>  C        0.5194016491    -0.4655880357     1.2884868328
|  8>  N        1.9635153170    -0.8628262577     1.2457001334
|  9>  C        0.9233214894    -1.8767702135     1.5392776993
| 10>  C        0.7550648693    -2.1710627537     3.0235214925
| 11>  C        0.2967813789    -0.8382620171     3.5988729759
| 12>  C        0.0935854810    -0.6530802124     5.0685956393
| 13>  C        0.1511463255     0.0777223279     2.6353543261
| 14>  H        1.3264595093     1.5333701561    -0.5114772487
| 15>  H       -0.2519159844     1.7659945219    -1.2815766918
| 16>  H       -0.0277715282     2.1726766904     0.4235929751
| 17>  H       -1.2444616796    -0.0265044252     0.1639505877
| 18>  H        0.0856610905    -0.6582020200    -0.7937007473
| 19>  H        2.2348946708    -0.9727046750     0.2680521603
| 20>  H        0.7429427241    -2.6575335897     0.8070498177
| 21>  H        0.0117809331    -2.9609637223     3.2001072202
| 22>  H        1.6933535092    -2.5086654559     3.4813924169
| 23>  H        1.0294379939    -0.8101215325     5.6200878975
| 24>  H       -0.2708708656     0.3509848864     5.3023621716
| 25>  H       -0.6261980370    -1.3807830979     5.4655020976
| 26>  H       -0.1593554966     1.1041772389     2.7970002060
| 27> *
| 28>
| 29>                          ****END OF INPUT****

CARTESIAN COORDINATES (ANGSTROEM)
---------------------------------
  C      0.245373    1.455946   -0.357474
  C     -0.156361    0.025851    0.030254
  C      0.519402   -0.465588    1.288487
  N      1.963515   -0.862826    1.245700
  C      0.923321   -1.876770    1.539278
  C      0.755065   -2.171063    3.023521
  C      0.296781   -0.838262    3.598873
  C      0.093585   -0.653080    5.068596
  C      0.151146    0.077722    2.635354
  H      1.326460    1.533370   -0.511477
  H     -0.251916    1.765995   -1.281577
  H     -0.027772    2.172677    0.423593
  H     -1.244462   -0.026504    0.163951
  H      0.085661   -0.658202   -0.793701
  H      2.234895   -0.972705    0.268052
  H      0.742943   -2.657534    0.807050
  H      0.011781   -2.960964    3.200107
  H      1.693354   -2.508665    3.481392
  H      1.029438   -0.810122    5.620088
  H     -0.270871    0.350985    5.302362
  H     -0.626198   -1.380783    5.465502
  H     -0.159355    1.104177    2.797000

 Total Charge           Charge          ....    0
 Multiplicity           Mult            ....    1
 Number of Electrons    NEL             ....   68
 Basis Dimension        Dim             ....  357

ORBITAL ENERGIES
----------------

  NO   OCC          E(Eh)            E(eV)
   0   2.0000     -15.547318      -423.0640
   1   2.0000     -11.255813      -306.2863
   2   2.0000     -11.249394      -306.1116
   3   2.0000     -11.229318      -305.5653
   4   2.0000     -11.228874      -305.5532
   5   2.0000     -11.222975      -305.3927
   6   2.0000     -11.219755      -305.3050
   7   2.0000     -11.215898      -305.2001
   8   2.0000     -11.210308      -305.0480
   9   2.0000      -1.262042       -34.3419
  10   2.0000      -1.091228       -29.6938
  11   2.0000      -1.041849       -28.3502
  12   2.0000      -0.966843       -26.3091
  13   2.0000      -0.949554       -25.8387
  14   2.0000      -0.880146       -23.9500
  15   2.0000      -0.821838       -22.3633
  16   2.0000      -0.756268       -20.5791
  17   2.0000      -0.719414       -19.5762
  18   2.0000      -0.666235       -18.1292
  19   2.0000      -0.621321       -16.9070
  20   2.0000      -0.610403       -16.6099
  21   2.0000      -0.588022       -16.0009
  22   2.0000      -0.575922       -15.6716
  23   2.0000      -0.562675       -15.3112
  24   2.0000      -0.540821       -14.7165
  25   2.0000      -0.530824       -14.4444
  26   2.0000      -0.520209       -14.1556
  27   2.0000      -0.503058       -13.6889
  28   2.0000      -0.490735       -13.3536
  29   2.0000      -0.479544       -13.0490
  30   2.0000      -0.454026       -12.3547
  31   2.0000      -0.446363       -12.1462
  32   2.0000      -0.369018       -10.0415
  33   2.0000      -0.326329        -8.8799
  34   0.0000       0.133160         3.6235
  35   0.0000       0.148995         4.0544
  36   0.0000       0.152110         4.1391
  37   0.0000       0.160898         4.3782
  38   0.0000       0.182143         4.9564

MULLIKEN ATOMIC CHARGES
-----------------------
   0 C :   -0.398656
   1 C :   -0.202457
   2 C :    0.327692
   3 N :   -0.401969
   4 C :   -0.195842
   5 C :   -0.109202
   6 C :    0.033179
   7 C :   -0.429711
   8 C :   -0.332756
   9 H :    0.131253
  10 H :    0.133493
  11 H :    0.128524
  12 H :    0.116930
  13 H :    0.108308
  14 H :    0.207292
  15 H :    0.128052
  16 H :    0.109755
  17 H :    0.115234
  18 H :    0.141888
  19 H :    0.135735
  20 H :    0.134362
  21 H :    0.118897
Sum of atomic charges:   -0.0000000

LOEWDIN ATOMIC CHARGES
----------------------
   0 C :   -0.310345
   1 C :   -0.258418
   2 C :   -0.263086
   3 N :    0.019655
   4 C :   -0.219675
   5 C :   -0.194400
   6 C :   -0.168642
   7 C :   -0.275135
   8 C :   -0.101980
   9 H :    0.122953
  10 H :    0.120535
  11 H :    0.121605
  12 H :    0.144831
  13 H :    0.140405
  14 H :    0.165216
  15 H :    0.133894
  16 H :    0.142321
  17 H :    0.147678
  18 H :    0.132511
  19 H :    0.130083
  20 H :    0.129801
  21 H :    0.140195

  Mayer bond orders larger than 0.1
B(  0-C ,  1-C ) :   0.9283 B(  0-C ,  9-H ) :   0.9369 B(  0-C , 10-H ) :   0.9396
B(  0-C , 11-H ) :   0.9379 B(  1-C ,  2-C ) :   0.9143 B(  1-C , 12-H ) :   0.9184
B(  1-C , 13-H ) :   0.9311 B(  2-C ,  3-N ) :   0.8109 B(  2-C ,  4-C ) :   0.8596
B(  2-C ,  8-C ) :   0.9178 B(  3-N ,  4-C ) :   1.0626 B(  3-N , 14-H ) :   0.8703
B(  4-C ,  5-C ) :   0.9271 B(  4-C , 15-H ) :   0.9220 B(  5-C ,  6-C ) :   0.9824
B(  5-C , 16-H ) :   0.9046 B(  5-C , 17-H ) :   0.8865 B(  6-C ,  7-C ) :   0.8835
B(  6-C ,  8-C ) :   1.8132 B(  7-C , 18-H ) :   0.9292 B(  7-C , 19-H ) :   0.9469
B(  7-C , 20-H ) :   0.9337 B(  8-C , 21-H ) :   0.9205

MP2 TOTAL ENERGY:     -366.544156254 Eh
FINAL SINGLE POINT ENERGY      -366.544156253902

DIPOLE MOMENT
-------------
                                X             Y             Z
Electronic contribution:      1.78346      -2.48060       0.53354
Nuclear contribution   :     -2.26825       2.24804      -0.82807
                        -----------------------------------------
Total Dipole Moment    :     -0.48479      -0.23256      -0.29453
                        -----------------------------------------
Magnitude (a.u.)       :      0.61307
Magnitude (Debye)      :      1.55829

                             ****ORCA TERMINATED NORMALLY****
TOTAL RUN TIME: 0 days 0 hours 20 minutes 48 seconds 649 msec
