                         Program Version 3.0.3 - RELEASE   -
|  1> ! RI-MP2 RIJK def2-TZVP def2-TZVP/C def2-TZVP/JK TIGHTSCF
|  2> % maxcore 2000
|  3> % mp2 density relaxed end
|  4> *xyz 0 1
|  5>  C        0.0103379988     1.4635732327     0.0446997910
|  6>  C       -0.0062826441    -0.0223822335    -0.0244478506
|  7>  C       -0.0151275123    -0.8910011029    -1.0395335683
|  8>  C       -0.0099608891    -2.2588100320    -0.3408087841
|  9>  C        1.0635111026    -2.0071264164     0.7763669426
| 10>  C        0.0011747733    -0.9577638642     1.2131049916
| 11>  O        0.0861070774    -0.4027583522     2.4878513190
| 12>  C       -1.0777654566    -2.0164976617     0.7805605860
| 13>  H        0.8751730846     1.8240074423     0.6152198478
| 14>  H        0.0456100472     1.9091715225    -0.9532536719
| 15>  H       -0.8804842518     1.8589118558     0.5527517635
| 16>  H       -0.0184835061    -0.7101816482    -2.1058664895
| 17>  H       -0.0082315872    -3.1616909259    -0.9473378958
| 18>  H        1.1607174142    -2.8342543964     1.4863605459
| 19>  H        2.0409388958    -1.6336345125     0.4637928319
| 20>  H       -0.6731466457     0.1744483129     2.6223529386
| 21>  H       -2.0587878299    -1.6486717390     0.4689996741
| 22>  H       -1.1676593112    -2.8450699311     1.4900586482
| 23> *
| 24>
| 25>                          ****END OF INPUT****

CARTESIAN COORDINATES (ANGSTROEM)
---------------------------------
  C      0.010338    1.463573    0.044700
  C     -0.006283   -0.022382   -0.024448
  C     -0.015128   -0.891001   -1.039534
  C     -0.009961   -2.258810   -0.340809
  C      1.063511   -2.007126    0.776367
  C      0.001175   -0.957764    1.213105
  O      0.086107   -0.402758    2.487851
  C     -1.077765   -2.016498    0.780561
  H      0.875173    1.824007    0.615220
  H      0.045610    1.909172   -0.953254
  H     -0.880484    1.858912    0.552752
  H     -0.018484   -0.710182   -2.105866
  H     -0.008232   -3.161691   -0.947338
  H      1.160717   -2.834254    1.486361
  H      2.040939   -1.633635    0.463793
  H     -0.673147    0.174448    2.622353
  H     -2.058788   -1.648672    0.469000
  H     -1.167659   -2.845070    1.490059

 Total Charge           Charge          ....    0
 Multiplicity           Mult            ....    1
 Number of Electrons    NEL             ....   60
 Basis Dimension        Dim             ....  308

ORBITAL ENERGIES
----------------

  NO   OCC          E(Eh)            E(eV)
   0   2.0000     -20.561811      -559.5153
   1   2.0000     -11.290859      -307.2399
   2   2.0000     -11.237352      -305.7839
   3   2.0000     -11.228382      -305.5398
   4   2.0000     -11.227177      -305.5070
   5   2.0000     -11.223854      -305.4166
   6   2.0000     -11.222040      -305.3672
   7   2.0000     -11.215460      -305.1882
   8   2.0000      -1.372879       -37.3579
   9   2.0000      -1.187016       -32.3004
  10   2.0000      -1.030818       -28.0500
  11   2.0000      -0.939379       -25.5618
  12   2.0000      -0.900067       -24.4921
  13   2.0000      -0.878960       -23.9177
  14   2.0000      -0.750528       -20.4229
  15   2.0000      -0.735490       -20.0137
  16   2.0000      -0.674587       -18.3564
  17   2.0000      -0.642010       -17.4700
  18   2.0000      -0.628020       -17.0893
  19   2.0000      -0.588588       -16.0163
  20   2.0000      -0.573161       -15.5965
  21   2.0000      -0.550010       -14.9665
  22   2.0000      -0.546272       -14.8648
  23   2.0000      -0.539129       -14.6704
  24   2.0000      -0.498620       -13.5681
  25   2.0000      -0.470359       -12.7991
  26   2.0000      -0.464065       -12.6278
  27   2.0000      -0.444792       -12.1034
  28   2.0000      -0.405087       -11.0230
  29   2.0000      -0.322300        -8.7702
  30   0.0000       0.126093         3.4312
  31   0.0000       0.154267         4.1978
  32   0.0000       0.158752         4.3199
  33   0.0000       0.171378         4.6634
  34   0.0000       0.188373         5.1259

MULLIKEN ATOMIC CHARGES
-----------------------
   0 C :   -0.474542
   1 C :   -0.033238
   2 C :   -0.236407
   3 C :   -0.057540
   4 C :   -0.196069
   5 C :    0.215618
   6 O :   -0.457956
   7 C :   -0.229446
   8 H :    0.158189
   9 H :    0.144927
  10 H :    0.129263
  11 H :    0.128470
  12 H :    0.133864
  13 H :    0.117869
  14 H :    0.110260
  15 H :    0.319902
  16 H :    0.108939
  17 H :    0.117898
Sum of atomic charges:    0.0000000

LOEWDIN ATOMIC CHARGES
----------------------
   0 C :   -0.281788
   1 C :   -0.154058
   2 C :   -0.118356
   3 C :   -0.185009
   4 C :   -0.159860
   5 C :   -0.317756
   6 O :    0.022015
   7 C :   -0.173807
   8 H :    0.136396
   9 H :    0.133680
  10 H :    0.128309
  11 H :    0.133053
  12 H :    0.132660
  13 H :    0.135250
  14 H :    0.129212
  15 H :    0.181633
  16 H :    0.125392
  17 H :    0.133032

  Mayer bond orders larger than 0.1
B(  0-C ,  1-C ) :   0.8734 B(  0-C ,  8-H ) :   0.9349 B(  0-C ,  9-H ) :   0.9520
B(  0-C , 10-H ) :   0.9301 B(  1-C ,  2-C ) :   1.7019 B(  1-C ,  5-C ) :   0.8876
B(  2-C ,  3-C ) :   0.9005 B(  2-C , 11-H ) :   0.9272 B(  3-C ,  4-C ) :   0.9114
B(  3-C ,  7-C ) :   0.9100 B(  3-C , 12-H ) :   0.9164 B(  4-C ,  5-C ) :   0.9138
B(  4-C , 13-H ) :   0.9261 B(  4-C , 14-H ) :   0.9147 B(  5-C ,  6-O ) :   0.9956
B(  5-C ,  7-C ) :   0.9185 B(  6-O , 15-H ) :   0.8380 B(  7-C , 16-H ) :   0.9147
B(  7-C , 17-H ) :   0.9253

MP2 TOTAL ENERGY:     -347.174307398 Eh
FINAL SINGLE POINT ENERGY      -347.174307397883

DIPOLE MOMENT
-------------
                                X             Y             Z
Electronic contribution:      0.24506      -1.17721       1.38511
Nuclear contribution   :     -0.66449       1.37565      -1.65587
                        -----------------------------------------
Total Dipole Moment    :     -0.41944       0.19844      -0.27076
                        -----------------------------------------
Magnitude (a.u.)       :      0.53723
Magnitude (Debye)      :      1.36553

                             ****ORCA TERMINATED NORMALLY****
TOTAL RUN TIME: 0 days 0 hours 14 minutes 40 seconds 731 msec
