                         Program Version 3.0.3 - RELEASE   -
|  1> ! RI-MP2 RIJK def2-TZVP def2-TZVP/C def2-TZVP/JK TIGHTSCF
|  2> % maxcore 2000
|  3> % mp2 density relaxed end
|  4> *xyz 0 1
|  5>  C       -0.6878571128    -0.6414236885     3.4164124529
|  6>  C       -0.3581960126    -0.8056497688     1.9508739384
|  7>  C        0.8901290952    -0.2271976154     1.4193888411
|  8>  O        0.8049514814    -1.6231833190     1.7030765403
|  9>  C       -1.4679890793    -1.0831118229     0.9627160658
| 10>  C       -2.9190345178    -1.2531452363     1.3404083002
| 11>  C       -2.4971142525    -0.0659439601     0.5065146932
| 12>  C       -2.5820236966     1.3680664872     1.0216087635
| 13>  O       -2.9197843911     1.5047163976     2.3945051491
| 14>  H        0.2287415698    -0.4722133531     3.9867724253
| 15>  H       -1.3685163641     0.1991387851     3.5703577119
| 16>  H       -1.1641760429    -1.5496807878     3.8011023077
| 17>  H        0.9572501825     0.0313810374     0.3625014704
| 18>  H        1.5437615362     0.3472710762     2.0756829267
| 19>  H       -1.1081669985    -1.7357796173     0.1728224901
| 20>  H       -3.4923228951    -2.0489663567     0.8778673212
| 21>  H       -3.1812061472    -1.0586133481     2.3746607452
| 22>  H       -2.7356386738    -0.1303126265    -0.5522674767
| 23>  H       -1.6157180539     1.8723172125     0.9108497068
| 24>  H       -3.3024933375     1.9171393449     0.3968786354
| 25>  H       -3.8043637893     1.1436722597     2.5122813716
| 26> *
| 27>
| 28>                          ****END OF INPUT****

CARTESIAN COORDINATES (ANGSTROEM)
---------------------------------
  C     -0.687857   -0.641424    3.416412
  C     -0.358196   -0.805650    1.950874
  C      0.890129   -0.227198    1.419389
  O      0.804951   -1.623183    1.703077
  C     -1.467989   -1.083112    0.962716
  C     -2.919035   -1.253145    1.340408
  C     -2.497114   -0.065944    0.506515
  C     -2.582024    1.368066    1.021609
  O     -2.919784    1.504716    2.394505
  H      0.228742   -0.472213    3.986772
  H     -1.368516    0.199139    3.570358
  H     -1.164176   -1.549681    3.801102
  H      0.957250    0.031381    0.362501
  H      1.543762    0.347271    2.075683
  H     -1.108167   -1.735780    0.172822
  H     -3.492323   -2.048966    0.877867
  H     -3.181206   -1.058613    2.374661
  H     -2.735639   -0.130313   -0.552267
  H     -1.615718    1.872317    0.910850
  H     -3.302493    1.917139    0.396879
  H     -3.804364    1.143672    2.512281

 Total Charge           Charge          ....    0
 Multiplicity           Mult            ....    1
 Number of Electrons    NEL             ....   70
 Basis Dimension        Dim             ....  351

ORBITAL ENERGIES
----------------

  NO   OCC          E(Eh)            E(eV)
   0   2.0000     -20.563917      -559.5726
   1   2.0000     -20.555541      -559.3447
   2   2.0000     -11.289289      -307.1972
   3   2.0000     -11.285821      -307.1028
   4   2.0000     -11.272609      -306.7433
   5   2.0000     -11.240000      -305.8559
   6   2.0000     -11.236585      -305.7630
   7   2.0000     -11.233580      -305.6813
   8   2.0000     -11.210477      -305.0526
   9   2.0000      -1.400389       -38.1065
  10   2.0000      -1.369214       -37.2582
  11   2.0000      -1.152551       -31.3625
  12   2.0000      -1.004137       -27.3240
  13   2.0000      -0.954604       -25.9761
  14   2.0000      -0.904980       -24.6257
  15   2.0000      -0.867587       -23.6082
  16   2.0000      -0.799124       -21.7453
  17   2.0000      -0.749649       -20.3990
  18   2.0000      -0.699397       -19.0316
  19   2.0000      -0.688941       -18.7470
  20   2.0000      -0.661915       -18.0116
  21   2.0000      -0.626674       -17.0527
  22   2.0000      -0.610564       -16.6143
  23   2.0000      -0.600698       -16.3458
  24   2.0000      -0.572362       -15.5748
  25   2.0000      -0.559816       -15.2334
  26   2.0000      -0.542219       -14.7545
  27   2.0000      -0.518836       -14.1182
  28   2.0000      -0.504066       -13.7163
  29   2.0000      -0.500492       -13.6191
  30   2.0000      -0.465025       -12.6540
  31   2.0000      -0.449855       -12.2412
  32   2.0000      -0.441296       -12.0083
  33   2.0000      -0.415273       -11.3002
  34   2.0000      -0.384701       -10.4682
  35   0.0000       0.131922         3.5898
  36   0.0000       0.142656         3.8819
  37   0.0000       0.162584         4.4241
  38   0.0000       0.165003         4.4900
  39   0.0000       0.192672         5.2429

MULLIKEN ATOMIC CHARGES
-----------------------
   0 C :   -0.447598
   1 C :    0.230782
   2 C :   -0.103849
   3 O :   -0.340169
   4 C :   -0.108700
   5 C :   -0.316430
   6 C :   -0.174029
   7 C :   -0.000554
   8 O :   -0.483306
   9 H :    0.135068
  10 H :    0.170495
  11 H :    0.135977
  12 H :    0.110138
  13 H :    0.112565
  14 H :    0.138315
  15 H :    0.137315
  16 H :    0.141025
  17 H :    0.117104
  18 H :    0.111381
  19 H :    0.115584
  20 H :    0.318884
Sum of atomic charges:    0.0000000

LOEWDIN ATOMIC CHARGES
----------------------
   0 C :   -0.270263
   1 C :   -0.320996
   2 C :   -0.252409
   3 O :    0.157877
   4 C :   -0.168233
   5 C :   -0.205084
   6 C :   -0.215652
   7 C :   -0.326711
   8 O :   -0.041188
   9 H :    0.131456
  10 H :    0.134165
  11 H :    0.130321
  12 H :    0.120014
  13 H :    0.119300
  14 H :    0.162205
  15 H :    0.131585
  16 H :    0.134879
  17 H :    0.151332
  18 H :    0.132452
  19 H :    0.122318
  20 H :    0.172630

  Mayer bond orders larger than 0.1
B(  0-C ,  1-C ) :   0.8802 B(  0-C ,  9-H ) :   0.9320 B(  0-C , 10-H ) :   0.9247
B(  0-C , 11-H ) :   0.9384 B(  1-C ,  2-C ) :   0.9828 B(  1-C ,  3-O ) :   0.8557
B(  1-C ,  4-C ) :   0.8752 B(  2-C ,  3-O ) :   0.8988 B(  2-C , 12-H ) :   0.9053
B(  2-C , 13-H ) :   0.9091 B(  4-C ,  5-C ) :   0.8544 B(  4-C ,  6-C ) :   0.8575
B(  4-C , 14-H ) :   0.9321 B(  5-C ,  6-C ) :   0.9111 B(  5-C , 15-H ) :   0.9266
B(  5-C , 16-H ) :   0.9328 B(  6-C ,  7-C ) :   0.9264 B(  6-C , 17-H ) :   0.9212
B(  7-C ,  8-O ) :   0.9162 B(  7-C , 18-H ) :   0.9278 B(  7-C , 19-H ) :   0.9354
B(  8-O , 20-H ) :   0.8419

MP2 TOTAL ENERGY:     -423.478224249 Eh
FINAL SINGLE POINT ENERGY      -423.478224249477

DIPOLE MOMENT
-------------
                                X             Y             Z
Electronic contribution:      2.19930      -1.35230      -0.88792
Nuclear contribution   :     -3.04854       1.76899       0.45961
                        -----------------------------------------
Total Dipole Moment    :     -0.84924       0.41670      -0.42831
                        -----------------------------------------
Magnitude (a.u.)       :      1.03841
Magnitude (Debye)      :      2.63944

                             ****ORCA TERMINATED NORMALLY****
TOTAL RUN TIME: 0 days 0 hours 28 minutes 28 seconds 418 msec
