                         Program Version 3.0.3 - RELEASE   -
|  1> ! RI-MP2 RIJK def2-TZVP def2-TZVP/C def2-TZVP/JK TIGHTSCF
|  2> % maxcore 2000
|  3> % mp2 density relaxed end
|  4> *xyz 0 1
|  5>  C        0.0272130721     1.5279113163    -0.1618623429
|  6>  C        1.5816352378     1.5726789429     0.1145363489
|  7>  C        1.5269661922     0.1223105302     0.6307728392
|  8>  O        1.6331850522    -0.3188124189     1.9767160874
|  9>  C        0.9199411612    -1.4983846165     1.4864417874
| 10>  C       -0.5072489237    -0.9138313193     1.2359894797
| 11>  C        0.0320893287     0.0138205111     0.1414109284
| 12>  N        0.5278000107    -0.8955062938    -0.9420805223
| 13>  C        1.5681458615    -1.2764554693     0.0174628705
| 14>  H       -0.5448012358     2.1046428284     0.5696433584
| 15>  H       -0.2929707974     1.8063838870    -1.1675054357
| 16>  H        2.2016257664     1.7060404416    -0.7738257619
| 17>  H        1.8969572277     2.2890345498     0.8758438845
| 18>  H        1.0689789457    -2.3852916890     2.1007791331
| 19>  H       -1.2515128654    -1.6377853659     0.8904553610
| 20>  H       -0.8672418899    -0.4130686544     2.1368778445
| 21>  H       -0.1257363523    -1.6332791557    -1.2024500334
| 22>  H        2.4288766681    -1.8759407845    -0.2873419769
| 23> *
| 24>
| 25>                          ****END OF INPUT****

CARTESIAN COORDINATES (ANGSTROEM)
---------------------------------
  C      0.027213    1.527911   -0.161862
  C      1.581635    1.572679    0.114536
  C      1.526966    0.122311    0.630773
  O      1.633185   -0.318812    1.976716
  C      0.919941   -1.498385    1.486442
  C     -0.507249   -0.913831    1.235989
  C      0.032089    0.013821    0.141411
  N      0.527800   -0.895506   -0.942081
  C      1.568146   -1.276455    0.017463
  H     -0.544801    2.104643    0.569643
  H     -0.292971    1.806384   -1.167505
  H      2.201626    1.706040   -0.773826
  H      1.896957    2.289035    0.875844
  H      1.068979   -2.385292    2.100779
  H     -1.251513   -1.637785    0.890455
  H     -0.867242   -0.413069    2.136878
  H     -0.125736   -1.633279   -1.202450
  H      2.428877   -1.875941   -0.287342

 Total Charge           Charge          ....    0
 Multiplicity           Mult            ....    1
 Number of Electrons    NEL             ....   66
 Basis Dimension        Dim             ....  333

ORBITAL ENERGIES
----------------

  NO   OCC          E(Eh)            E(eV)
   0   2.0000     -20.554407      -559.3139
   1   2.0000     -15.552144      -423.1954
   2   2.0000     -11.293812      -307.3202
   3   2.0000     -11.277994      -306.8898
   4   2.0000     -11.271206      -306.7051
   5   2.0000     -11.255899      -306.2886
   6   2.0000     -11.235131      -305.7235
   7   2.0000     -11.234800      -305.7145
   8   2.0000     -11.234104      -305.6955
   9   2.0000      -1.404513       -38.2187
  10   2.0000      -1.248732       -33.9797
  11   2.0000      -1.081243       -29.4221
  12   2.0000      -1.017242       -27.6806
  13   2.0000      -0.949294       -25.8316
  14   2.0000      -0.878052       -23.8930
  15   2.0000      -0.863602       -23.4998
  16   2.0000      -0.773977       -21.0610
  17   2.0000      -0.698499       -19.0071
  18   2.0000      -0.678900       -18.4738
  19   2.0000      -0.658417       -17.9164
  20   2.0000      -0.654860       -17.8197
  21   2.0000      -0.620058       -16.8726
  22   2.0000      -0.588309       -16.0087
  23   2.0000      -0.563330       -15.3290
  24   2.0000      -0.538670       -14.6580
  25   2.0000      -0.511195       -13.9103
  26   2.0000      -0.497032       -13.5249
  27   2.0000      -0.481219       -13.0946
  28   2.0000      -0.465389       -12.6639
  29   2.0000      -0.456670       -12.4266
  30   2.0000      -0.436278       -11.8717
  31   2.0000      -0.379712       -10.3325
  32   2.0000      -0.354947        -9.6586
  33   0.0000       0.138206         3.7608
  34   0.0000       0.159776         4.3477
  35   0.0000       0.166600         4.5334
  36   0.0000       0.174646         4.7524
  37   0.0000       0.184384         5.0174

MULLIKEN ATOMIC CHARGES
-----------------------
   0 C :   -0.256969
   1 C :   -0.216598
   2 C :    0.061502
   3 O :   -0.309278
   4 C :    0.119609
   5 C :   -0.319011
   6 C :    0.181955
   7 N :   -0.312410
   8 C :   -0.153965
   9 H :    0.122917
  10 H :    0.120212
  11 H :    0.133733
  12 H :    0.129846
  13 H :    0.133195
  14 H :    0.119596
  15 H :    0.122817
  16 H :    0.201844
  17 H :    0.121005
Sum of atomic charges:   -0.0000000

LOEWDIN ATOMIC CHARGES
----------------------
   0 C :   -0.195183
   1 C :   -0.187787
   2 C :   -0.258144
   3 O :    0.188735
   4 C :   -0.206946
   5 C :   -0.209492
   6 C :   -0.221521
   7 N :    0.051204
   8 C :   -0.199850
   9 H :    0.136935
  10 H :    0.132085
  11 H :    0.140987
  12 H :    0.139900
  13 H :    0.126788
  14 H :    0.133451
  15 H :    0.144086
  16 H :    0.157079
  17 H :    0.127672

  Mayer bond orders larger than 0.1
B(  0-C ,  1-C ) :   1.0034 B(  0-C ,  6-C ) :   0.9040 B(  0-C ,  9-H ) :   0.9121
B(  0-C , 10-H ) :   0.9106 B(  1-C ,  2-C ) :   0.9000 B(  1-C , 11-H ) :   0.9107
B(  1-C , 12-H ) :   0.9186 B(  2-C ,  3-O ) :   1.0701 B(  2-C ,  6-C ) :   0.7480
B(  2-C ,  8-C ) :   0.9718 B(  3-O ,  4-C ) :   0.8712 B(  4-C ,  5-C ) :   0.8884
B(  4-C ,  8-C ) :   0.8462 B(  4-C , 13-H ) :   0.9140 B(  5-C ,  6-C ) :   0.9769
B(  5-C , 14-H ) :   0.9190 B(  5-C , 15-H ) :   0.9148 B(  6-C ,  7-N ) :   1.0117
B(  7-N ,  8-C ) :   1.0144 B(  7-N , 16-H ) :   0.8704 B(  8-C , 17-H ) :   0.8950

MP2 TOTAL ENERGY:     -401.167758784 Eh
FINAL SINGLE POINT ENERGY      -401.167758784296

DIPOLE MOMENT
-------------
                                X             Y             Z
Electronic contribution:      2.11271      -1.85560       1.21131
Nuclear contribution   :     -2.60449       1.54190      -1.37206
                        -----------------------------------------
Total Dipole Moment    :     -0.49178      -0.31370      -0.16076
                        -----------------------------------------
Magnitude (a.u.)       :      0.60506
Magnitude (Debye)      :      1.53794

                             ****ORCA TERMINATED NORMALLY****
TOTAL RUN TIME: 0 days 0 hours 19 minutes 56 seconds 664 msec
