                         Program Version 3.0.3 - RELEASE   -
|  1> ! RI-MP2 RIJK def2-TZVP def2-TZVP/C def2-TZVP/JK TIGHTSCF
|  2> % maxcore 2000
|  3> % mp2 density relaxed end
|  4> *xyz 0 1
|  5>  O       -0.0043953386    -0.0253979933    -0.0225716629
|  6>  C       -0.0150514759     1.1606603138     0.0959776271
|  7>  C       -1.1020719453     2.2370274604     0.2362158533
|  8>  N       -0.0271831412     3.1961509829     0.5983709005
|  9>  C        1.0528127350     2.2608135830     0.1918654582
| 10>  C       -0.0544292432     4.4924257380    -0.0314250742
| 11>  C       -1.0894067048     5.4902365980     0.5328409429
| 12>  O       -0.0559577406     6.4278076486     0.8936929868
| 13>  C        0.9814646340     5.5126037750     0.4894636190
| 14>  H       -1.5875656022     2.4394025579    -0.7333762919
| 15>  H       -1.8742060318     2.0832992808     0.9964215219
| 16>  H        1.8587504227     2.1245050041     0.9196141746
| 17>  H        1.4934401267     2.4733873688    -0.7967809895
| 18>  H       -0.0767699104     4.4211439146    -1.1338896503
| 19>  H       -1.7990567630     5.9171597709    -0.1850831795
| 20>  H       -1.6324586308     5.1138675255     1.4087278477
| 21>  H        1.5687287758     5.1484604197     1.3416754271
| 22>  H        1.6510639537     5.9544090614    -0.2573489608
| 23> *
| 24>
| 25>                          ****END OF INPUT****

CARTESIAN COORDINATES (ANGSTROEM)
---------------------------------
  O     -0.004395   -0.025398   -0.022572
  C     -0.015051    1.160660    0.095978
  C     -1.102072    2.237027    0.236216
  N     -0.027183    3.196151    0.598371
  C      1.052813    2.260814    0.191865
  C     -0.054429    4.492426   -0.031425
  C     -1.089407    5.490237    0.532841
  O     -0.055958    6.427808    0.893693
  C      0.981465    5.512604    0.489464
  H     -1.587566    2.439403   -0.733376
  H     -1.874206    2.083299    0.996422
  H      1.858750    2.124505    0.919614
  H      1.493440    2.473387   -0.796781
  H     -0.076770    4.421144   -1.133890
  H     -1.799057    5.917160   -0.185083
  H     -1.632459    5.113868    1.408728
  H      1.568729    5.148460    1.341675
  H      1.651064    5.954409   -0.257349

 Total Charge           Charge          ....    0
 Multiplicity           Mult            ....    1
 Number of Electrons    NEL             ....   68
 Basis Dimension        Dim             ....  333

ORBITAL ENERGIES
----------------

  NO   OCC          E(Eh)            E(eV)
   0   2.0000     -20.569563      -559.7263
   1   2.0000     -20.555606      -559.3465
   2   2.0000     -15.576927      -423.8697
   3   2.0000     -11.349205      -308.8276
   4   2.0000     -11.286474      -307.1206
   5   2.0000     -11.286458      -307.1201
   6   2.0000     -11.281525      -306.9859
   7   2.0000     -11.281499      -306.9852
   8   2.0000     -11.276674      -306.8539
   9   2.0000      -1.414359       -38.4867
  10   2.0000      -1.387155       -37.7464
  11   2.0000      -1.275253       -34.7014
  12   2.0000      -1.054384       -28.6913
  13   2.0000      -0.964927       -26.2570
  14   2.0000      -0.940319       -25.5874
  15   2.0000      -0.915911       -24.9232
  16   2.0000      -0.775012       -21.0892
  17   2.0000      -0.750821       -20.4309
  18   2.0000      -0.710690       -19.3389
  19   2.0000      -0.697492       -18.9797
  20   2.0000      -0.670581       -18.2474
  21   2.0000      -0.657259       -17.8849
  22   2.0000      -0.621218       -16.9042
  23   2.0000      -0.608617       -16.5613
  24   2.0000      -0.587704       -15.9922
  25   2.0000      -0.571600       -15.5540
  26   2.0000      -0.566502       -15.4153
  27   2.0000      -0.555669       -15.1205
  28   2.0000      -0.529465       -14.4075
  29   2.0000      -0.473977       -12.8976
  30   2.0000      -0.465621       -12.6702
  31   2.0000      -0.425403       -11.5758
  32   2.0000      -0.415817       -11.3150
  33   2.0000      -0.389391       -10.5959
  34   0.0000       0.118461         3.2235
  35   0.0000       0.124884         3.3983
  36   0.0000       0.145946         3.9714
  37   0.0000       0.161310         4.3895
  38   0.0000       0.171301         4.6613

MULLIKEN ATOMIC CHARGES
-----------------------
   0 O :   -0.236368
   1 C :    0.152599
   2 C :   -0.179936
   3 N :   -0.153332
   4 C :   -0.179952
   5 C :   -0.090458
   6 C :    0.000804
   7 O :   -0.323589
   8 C :    0.000779
   9 H :    0.121446
  10 H :    0.142781
  11 H :    0.142787
  12 H :    0.121453
  13 H :    0.091131
  14 H :    0.099200
  15 H :    0.095724
  16 H :    0.095724
  17 H :    0.099208
Sum of atomic charges:   -0.0000000

LOEWDIN ATOMIC CHARGES
----------------------
   0 O :    0.175948
   1 C :   -0.310023
   2 C :   -0.219261
   3 N :    0.105172
   4 C :   -0.219256
   5 C :   -0.292213
   6 C :   -0.250475
   7 O :    0.112400
   8 C :   -0.250488
   9 H :    0.136376
  10 H :    0.134333
  11 H :    0.134333
  12 H :    0.136379
  13 H :    0.129792
  14 H :    0.116598
  15 H :    0.121891
  16 H :    0.121893
  17 H :    0.116600

  Mayer bond orders larger than 0.1
B(  0-O ,  1-C ) :   2.0588 B(  1-C ,  2-C ) :   0.9129 B(  1-C ,  4-C ) :   0.9129
B(  2-C ,  3-N ) :   0.9208 B(  2-C ,  9-H ) :   0.8962 B(  2-C , 10-H ) :   0.9011
B(  3-N ,  4-C ) :   0.9207 B(  3-N ,  5-C ) :   0.9333 B(  4-C , 11-H ) :   0.9011
B(  4-C , 12-H ) :   0.8962 B(  5-C ,  6-C ) :   0.9616 B(  5-C ,  8-C ) :   0.9616
B(  5-C , 13-H ) :   0.9163 B(  6-C ,  7-O ) :   0.9651 B(  6-C , 14-H ) :   0.9148
B(  6-C , 15-H ) :   0.8991 B(  7-O ,  8-C ) :   0.9651 B(  8-C , 16-H ) :   0.8991
B(  8-C , 17-H ) :   0.9148

MP2 TOTAL ENERGY:     -438.310539472 Eh
FINAL SINGLE POINT ENERGY      -438.310539472423

DIPOLE MOMENT
-------------
                                X             Y             Z
Electronic contribution:      0.06290      -4.19053       0.80848
Nuclear contribution   :     -0.07640       4.42452      -1.32691
                        -----------------------------------------
Total Dipole Moment    :     -0.01350       0.23399      -0.51843
                        -----------------------------------------
Magnitude (a.u.)       :      0.56895
Magnitude (Debye)      :      1.44614

                             ****ORCA TERMINATED NORMALLY****
TOTAL RUN TIME: 0 days 0 hours 16 minutes 3 seconds 889 msec
