                         Program Version 3.0.3 - RELEASE   -
|  1> ! RI-MP2 RIJK def2-TZVP def2-TZVP/C def2-TZVP/JK TIGHTSCF
|  2> % maxcore 2000
|  3> % mp2 density relaxed end
|  4> *xyz 0 1
|  5>  C       -0.0977521893     1.6216539134     0.0285073363
|  6>  C       -0.0787295775     0.0907766777     0.0350366946
|  7>  C        0.7206896858    -0.4979517249     1.2025183909
|  8>  C        0.7468657104    -2.0315749852     1.2106692916
|  9>  C        1.5259256906    -2.6035848242     2.3918394352
| 10>  C        0.8063752846    -2.5781596412     3.7593321813
| 11>  O        0.7024733959    -4.0144569664     3.7892429953
| 12>  C        1.5263016062    -4.1465203921     2.6052384834
| 13>  C        0.9180117586    -5.0796184634     1.5768526732
| 14>  H        0.9163606350     2.0300690666    -0.0454042371
| 15>  H       -0.6753491860     2.0110945750    -0.8156470976
| 16>  H       -0.5451063793     2.0158904826     0.9477979887
| 17>  H       -1.1083244316    -0.2888330593     0.0746919361
| 18>  H        0.3415871839    -0.2753595484    -0.9110995497
| 19>  H        1.7512369805    -0.1175129339     1.1664720472
| 20>  H        0.2982009163    -0.1333421078     2.1493374779
| 21>  H       -0.2837348291    -2.4092120275     1.2288585717
| 22>  H        1.1887359484    -2.3903005856     0.2713190342
| 23>  H        2.5302783135    -2.1695334865     2.4112600882
| 24>  H        1.4021375304    -2.1916246003     4.5970119666
| 25>  H       -0.1801018161    -2.0965911482     3.7768545585
| 26>  H        2.5252149637    -4.5160651029     2.8827926762
| 27>  H       -0.0746338773    -4.7458497535     1.2645353003
| 28>  H        1.5599513725    -5.1523977041     0.6921290329
| 29>  H        0.8190820199    -6.0819670699     2.0056997041
| 30> *
| 31>
| 32>                          ****END OF INPUT****

CARTESIAN COORDINATES (ANGSTROEM)
---------------------------------
  C     -0.097752    1.621654    0.028507
  C     -0.078730    0.090777    0.035037
  C      0.720690   -0.497952    1.202518
  C      0.746866   -2.031575    1.210669
  C      1.525926   -2.603585    2.391839
  C      0.806375   -2.578160    3.759332
  O      0.702473   -4.014457    3.789243
  C      1.526302   -4.146520    2.605238
  C      0.918012   -5.079618    1.576853
  H      0.916361    2.030069   -0.045404
  H     -0.675349    2.011095   -0.815647
  H     -0.545106    2.015890    0.947798
  H     -1.108324   -0.288833    0.074692
  H      0.341587   -0.275360   -0.911100
  H      1.751237   -0.117513    1.166472
  H      0.298201   -0.133342    2.149337
  H     -0.283735   -2.409212    1.228859
  H      1.188736   -2.390301    0.271319
  H      2.530278   -2.169533    2.411260
  H      1.402138   -2.191625    4.597012
  H     -0.180102   -2.096591    3.776855
  H      2.525215   -4.516065    2.882793
  H     -0.074634   -4.745850    1.264535
  H      1.559951   -5.152398    0.692129
  H      0.819082   -6.081967    2.005700

 Total Charge           Charge          ....    0
 Multiplicity           Mult            ....    1
 Number of Electrons    NEL             ....   72
 Basis Dimension        Dim             ....  375

ORBITAL ENERGIES
----------------

  NO   OCC          E(Eh)            E(eV)
   0   2.0000     -20.538663      -558.8854
   1   2.0000     -11.277484      -306.8759
   2   2.0000     -11.270662      -306.6903
   3   2.0000     -11.229351      -305.5662
   4   2.0000     -11.223081      -305.3956
   5   2.0000     -11.221665      -305.3570
   6   2.0000     -11.220994      -305.3388
   7   2.0000     -11.214076      -305.1505
   8   2.0000     -11.213466      -305.1339
   9   2.0000      -1.370073       -37.2816
  10   2.0000      -1.088946       -29.6317
  11   2.0000      -1.037900       -28.2427
  12   2.0000      -1.003186       -27.2981
  13   2.0000      -0.950555       -25.8659
  14   2.0000      -0.874595       -23.7989
  15   2.0000      -0.852933       -23.2095
  16   2.0000      -0.795436       -21.6449
  17   2.0000      -0.726358       -19.7652
  18   2.0000      -0.687857       -18.7175
  19   2.0000      -0.644507       -17.5379
  20   2.0000      -0.637133       -17.3373
  21   2.0000      -0.614908       -16.7325
  22   2.0000      -0.588466       -16.0130
  23   2.0000      -0.577539       -15.7156
  24   2.0000      -0.564644       -15.3647
  25   2.0000      -0.548554       -14.9269
  26   2.0000      -0.529211       -14.4006
  27   2.0000      -0.523404       -14.2426
  28   2.0000      -0.508809       -13.8454
  29   2.0000      -0.500154       -13.6099
  30   2.0000      -0.483212       -13.1489
  31   2.0000      -0.469551       -12.7771
  32   2.0000      -0.467467       -12.7204
  33   2.0000      -0.438248       -11.9253
  34   2.0000      -0.429576       -11.6894
  35   2.0000      -0.402346       -10.9484
  36   0.0000       0.131700         3.5837
  37   0.0000       0.144887         3.9426
  38   0.0000       0.154370         4.2006
  39   0.0000       0.164238         4.4691
  40   0.0000       0.175982         4.7887

MULLIKEN ATOMIC CHARGES
-----------------------
   0 C :   -0.384678
   1 C :   -0.178413
   2 C :   -0.237192
   3 C :   -0.306214
   4 C :   -0.032796
   5 C :   -0.040993
   6 O :   -0.329896
   7 C :    0.089255
   8 C :   -0.383801
   9 H :    0.121637
  10 H :    0.133893
  11 H :    0.122244
  12 H :    0.106423
  13 H :    0.104729
  14 H :    0.107560
  15 H :    0.109358
  16 H :    0.125093
  17 H :    0.114237
  18 H :    0.109687
  19 H :    0.091978
  20 H :    0.092251
  21 H :    0.073671
  22 H :    0.124090
  23 H :    0.123907
  24 H :    0.143968
Sum of atomic charges:    0.0000000

LOEWDIN ATOMIC CHARGES
----------------------
   0 C :   -0.321893
   1 C :   -0.297403
   2 C :   -0.269161
   3 C :   -0.252744
   4 C :   -0.222689
   5 C :   -0.257972
   6 O :    0.128880
   7 C :   -0.286532
   8 C :   -0.297932
   9 H :    0.119947
  10 H :    0.120448
  11 H :    0.120092
  12 H :    0.134600
  13 H :    0.134331
  14 H :    0.136850
  15 H :    0.137211
  16 H :    0.141924
  17 H :    0.140750
  18 H :    0.145159
  19 H :    0.115117
  20 H :    0.116800
  21 H :    0.133084
  22 H :    0.123986
  23 H :    0.127057
  24 H :    0.130089

  Mayer bond orders larger than 0.1
B(  0-C ,  1-C ) :   0.9230 B(  0-C ,  9-H ) :   0.9395 B(  0-C , 10-H ) :   0.9435
B(  0-C , 11-H ) :   0.9394 B(  1-C ,  2-C ) :   0.9333 B(  1-C , 12-H ) :   0.9338
B(  1-C , 13-H ) :   0.9341 B(  2-C ,  3-C ) :   0.9279 B(  2-C , 14-H ) :   0.9289
B(  2-C , 15-H ) :   0.9317 B(  3-C ,  4-C ) :   0.9079 B(  3-C , 16-H ) :   0.9374
B(  3-C , 17-H ) :   0.9240 B(  4-C ,  5-C ) :   0.9475 B(  4-C ,  7-C ) :   0.9390
B(  4-C , 18-H ) :   0.9235 B(  5-C ,  6-O ) :   0.9564 B(  5-C , 19-H ) :   0.9145
B(  5-C , 20-H ) :   0.9056 B(  6-O ,  7-C ) :   0.9690 B(  7-C ,  8-C ) :   0.9042
B(  7-C , 21-H ) :   0.9268 B(  8-C , 22-H ) :   0.9352 B(  8-C , 23-H ) :   0.9304
B(  8-C , 24-H ) :   0.9334

MP2 TOTAL ENERGY:     -388.803788367 Eh
FINAL SINGLE POINT ENERGY      -388.803788367233

DIPOLE MOMENT
-------------
                                X             Y             Z
Electronic contribution:      1.56215      -6.69135       6.72403
Nuclear contribution   :     -1.26520       7.15709      -7.28735
                        -----------------------------------------
Total Dipole Moment    :      0.29695       0.46574      -0.56332
                        -----------------------------------------
Magnitude (a.u.)       :      0.78894
Magnitude (Debye)      :      2.00531

                             ****ORCA TERMINATED NORMALLY****
TOTAL RUN TIME: 0 days 0 hours 18 minutes 23 seconds 793 msec
