                         Program Version 3.0.3 - RELEASE   -
|  1> ! RI-MP2 RIJK def2-TZVP def2-TZVP/C def2-TZVP/JK TIGHTSCF
|  2> % maxcore 2000
|  3> % mp2 density relaxed end
|  4> *xyz 0 1
|  5>  C       -0.2082673043     1.5281765256     0.0039343956
|  6>  C       -0.0386553836     0.0177722723    -0.0523186228
|  7>  C        1.0995981438    -0.5779468345    -0.9886585217
|  8>  O        1.9488665021     0.3157252889    -1.6538204267
|  9>  C        1.6837517972    -1.2697426348     0.2503697867
| 10>  O        2.0139929940    -0.1906130233     1.1481544146
| 11>  C        0.6555469334    -0.6846942995     1.1303360412
| 12>  C        0.0658415623    -1.1525732648     2.4206184134
| 13>  H        0.7095182367     2.0125309719     0.3483356286
| 14>  H       -0.4493503746     1.9282591641    -0.9853886990
| 15>  H       -1.0147709225     1.8104978928     0.6889485691
| 16>  H       -0.9903508800    -0.4740940408    -0.2823392233
| 17>  H        0.7025240284    -1.2666188503    -1.7380834869
| 18>  H        2.4301786635     0.7882532380    -0.9624403142
| 19>  H        2.2715802539    -2.1774154966     0.3379424806
| 20>  H       -0.2381187134    -0.3024182325     3.0414032839
| 21>  H       -0.8213765242    -1.7672293533     2.2371168714
| 22>  H        0.7929962171    -1.7425582933     2.9847210293
| 23> *
| 24>
| 25>                          ****END OF INPUT****

CARTESIAN COORDINATES (ANGSTROEM)
---------------------------------
  C     -0.208267    1.528177    0.003934
  C     -0.038655    0.017772   -0.052319
  C      1.099598   -0.577947   -0.988659
  O      1.948867    0.315725   -1.653820
  C      1.683752   -1.269743    0.250370
  O      2.013993   -0.190613    1.148154
  C      0.655547   -0.684694    1.130336
  C      0.065842   -1.152573    2.420618
  H      0.709518    2.012531    0.348336
  H     -0.449350    1.928259   -0.985389
  H     -1.014771    1.810498    0.688949
  H     -0.990351   -0.474094   -0.282339
  H      0.702524   -1.266619   -1.738083
  H      2.430179    0.788253   -0.962440
  H      2.271580   -2.177415    0.337942
  H     -0.238119   -0.302418    3.041403
  H     -0.821377   -1.767229    2.237117
  H      0.792996   -1.742558    2.984721

 Total Charge           Charge          ....    0
 Multiplicity           Mult            ....    1
 Number of Electrons    NEL             ....   62
 Basis Dimension        Dim             ....  308

ORBITAL ENERGIES
----------------

  NO   OCC          E(Eh)            E(eV)
   0   2.0000     -20.570939      -559.7637
   1   2.0000     -20.554621      -559.3197
   2   2.0000     -11.295581      -307.3684
   3   2.0000     -11.288224      -307.1682
   4   2.0000     -11.283675      -307.0444
   5   2.0000     -11.238784      -305.8229
   6   2.0000     -11.233688      -305.6842
   7   2.0000     -11.215413      -305.1869
   8   2.0000      -1.423212       -38.7276
   9   2.0000      -1.360271       -37.0149
  10   2.0000      -1.089244       -29.6398
  11   2.0000      -1.005523       -27.3617
  12   2.0000      -0.975982       -26.5578
  13   2.0000      -0.852021       -23.1847
  14   2.0000      -0.839057       -22.8319
  15   2.0000      -0.745508       -20.2863
  16   2.0000      -0.720743       -19.6124
  17   2.0000      -0.649070       -17.6621
  18   2.0000      -0.634377       -17.2623
  19   2.0000      -0.615198       -16.7404
  20   2.0000      -0.592050       -16.1105
  21   2.0000      -0.589049       -16.0288
  22   2.0000      -0.565022       -15.3750
  23   2.0000      -0.539969       -14.6933
  24   2.0000      -0.532644       -14.4940
  25   2.0000      -0.523251       -14.2384
  26   2.0000      -0.501318       -13.6415
  27   2.0000      -0.484456       -13.1827
  28   2.0000      -0.450709       -12.2644
  29   2.0000      -0.411229       -11.1901
  30   2.0000      -0.399510       -10.8712
  31   0.0000       0.131558         3.5799
  32   0.0000       0.154395         4.2013
  33   0.0000       0.166987         4.5440
  34   0.0000       0.176523         4.8034
  35   0.0000       0.192938         5.2501

MULLIKEN ATOMIC CHARGES
-----------------------
   0 C :   -0.429488
   1 C :   -0.042480
   2 C :    0.088090
   3 O :   -0.460782
   4 C :   -0.062202
   5 O :   -0.351029
   6 C :    0.166776
   7 C :   -0.420460
   8 H :    0.130443
   9 H :    0.145473
  10 H :    0.130828
  11 H :    0.101908
  12 H :    0.111509
  13 H :    0.329806
  14 H :    0.134633
  15 H :    0.143901
  16 H :    0.136492
  17 H :    0.146584
Sum of atomic charges:   -0.0000000

LOEWDIN ATOMIC CHARGES
----------------------
   0 C :   -0.298205
   1 C :   -0.202352
   2 C :   -0.291119
   3 O :   -0.003599
   4 C :   -0.212987
   5 O :    0.169529
   6 C :   -0.282243
   7 C :   -0.269827
   8 H :    0.125830
   9 H :    0.130100
  10 H :    0.124663
  11 H :    0.152024
  12 H :    0.140609
  13 H :    0.183027
  14 H :    0.130178
  15 H :    0.134146
  16 H :    0.133822
  17 H :    0.136406

  Mayer bond orders larger than 0.1
B(  0-C ,  1-C ) :   0.8844 B(  0-C ,  8-H ) :   0.9362 B(  0-C ,  9-H ) :   0.9335
B(  0-C , 10-H ) :   0.9373 B(  1-C ,  2-C ) :   0.9238 B(  1-C ,  6-C ) :   0.9177
B(  1-C , 11-H ) :   0.9051 B(  2-C ,  3-O ) :   0.9943 B(  2-C ,  4-C ) :   0.9101
B(  2-C , 12-H ) :   0.9243 B(  3-O , 13-H ) :   0.8272 B(  4-C ,  5-O ) :   0.8601
B(  4-C ,  6-C ) :   0.8797 B(  4-C , 14-H ) :   0.9325 B(  5-O ,  6-C ) :   0.8763
B(  6-C ,  7-C ) :   0.8718 B(  7-C , 15-H ) :   0.9353 B(  7-C , 16-H ) :   0.9388
B(  7-C , 17-H ) :   0.9369

MP2 TOTAL ENERGY:     -384.278696272 Eh
FINAL SINGLE POINT ENERGY      -384.278696272229

DIPOLE MOMENT
-------------
                                X             Y             Z
Electronic contribution:      4.84659      -1.43779      -2.30545
Nuclear contribution   :     -5.49417       0.93692       2.77044
                        -----------------------------------------
Total Dipole Moment    :     -0.64757      -0.50088       0.46498
                        -----------------------------------------
Magnitude (a.u.)       :      0.94151
Magnitude (Debye)      :      2.39313

                             ****ORCA TERMINATED NORMALLY****
TOTAL RUN TIME: 0 days 0 hours 12 minutes 19 seconds 924 msec
