                         Program Version 3.0.3 - RELEASE   -
|  1> ! RI-MP2 RIJK def2-TZVP def2-TZVP/C def2-TZVP/JK TIGHTSCF
|  2> % maxcore 2000
|  3> % mp2 density relaxed end
|  4> *xyz 0 1
|  5>  O        0.0326581382     0.5516510014    -1.0240771051
|  6>  C        0.0569620284     1.2812086508    -0.0555019305
|  7>  N        1.1501827229     1.5208713581     0.7181329986
|  8>  C        2.4508403476     0.9443236971     0.4400977340
|  9>  C        3.4915379782     2.0122788919     0.1415530597
| 10>  O        3.5883468454     2.8415636352     1.2928703323
| 11>  C        4.4821405548     3.9130269256     1.1215887695
| 12>  C        4.4861247224     4.7322700067     2.3371193649
| 13>  N        4.5034727232     5.3940403226     3.2827288730
| 14>  H       -0.8308327376     1.8345142037     0.3078964065
| 15>  H        1.0796243488     2.1791127165     1.4777468226
| 16>  H        2.7891248393     0.3418363664     1.2915122339
| 17>  H        2.3300921572     0.2870880004    -0.4236704993
| 18>  H        4.4643531734     1.5456391781    -0.0794487332
| 19>  H        3.1885251858     2.6096897238    -0.7320427164
| 20>  H        5.5079937949     3.5585124526     0.9308516923
| 21>  H        4.1944998773     4.5493760691     0.2688815072
| 22> *
| 23>
| 24>                          ****END OF INPUT****

CARTESIAN COORDINATES (ANGSTROEM)
---------------------------------
  O      0.032658    0.551651   -1.024077
  C      0.056962    1.281209   -0.055502
  N      1.150183    1.520871    0.718133
  C      2.450840    0.944324    0.440098
  C      3.491538    2.012279    0.141553
  O      3.588347    2.841564    1.292870
  C      4.482141    3.913027    1.121589
  C      4.486125    4.732270    2.337119
  N      4.503473    5.394040    3.282729
  H     -0.830833    1.834514    0.307896
  H      1.079624    2.179113    1.477747
  H      2.789125    0.341836    1.291512
  H      2.330092    0.287088   -0.423670
  H      4.464353    1.545639   -0.079449
  H      3.188525    2.609690   -0.732043
  H      5.507994    3.558512    0.930852
  H      4.194500    4.549376    0.268882

 Total Charge           Charge          ....    0
 Multiplicity           Mult            ....    1
 Number of Electrons    NEL             ....   68
 Basis Dimension        Dim             ....  327

ORBITAL ENERGIES
----------------

  NO   OCC          E(Eh)            E(eV)
   0   2.0000     -20.605214      -560.6964
   1   2.0000     -20.528637      -558.6126
   2   2.0000     -15.596666      -424.4069
   3   2.0000     -15.587397      -424.1546
   4   2.0000     -11.355886      -309.0094
   5   2.0000     -11.353567      -308.9463
   6   2.0000     -11.311142      -307.7918
   7   2.0000     -11.286973      -307.1342
   8   2.0000     -11.282270      -307.0062
   9   2.0000      -1.428833       -38.8805
  10   2.0000      -1.389732       -37.8165
  11   2.0000      -1.245857       -33.9015
  12   2.0000      -1.232163       -33.5289
  13   2.0000      -1.067461       -29.0471
  14   2.0000      -0.995105       -27.0782
  15   2.0000      -0.891468       -24.2581
  16   2.0000      -0.813584       -22.1387
  17   2.0000      -0.761506       -20.7216
  18   2.0000      -0.733095       -19.9485
  19   2.0000      -0.720573       -19.6078
  20   2.0000      -0.708414       -19.2769
  21   2.0000      -0.659720       -17.9519
  22   2.0000      -0.635951       -17.3051
  23   2.0000      -0.611465       -16.6388
  24   2.0000      -0.583128       -15.8677
  25   2.0000      -0.576553       -15.6888
  26   2.0000      -0.556073       -15.1315
  27   2.0000      -0.552476       -15.0336
  28   2.0000      -0.527604       -14.3568
  29   2.0000      -0.489648       -13.3240
  30   2.0000      -0.483732       -13.1630
  31   2.0000      -0.462968       -12.5980
  32   2.0000      -0.438888       -11.9428
  33   2.0000      -0.405240       -11.0271
  34   0.0000       0.110664         3.0113
  35   0.0000       0.137127         3.7314
  36   0.0000       0.144284         3.9262
  37   0.0000       0.153829         4.1859
  38   0.0000       0.159456         4.3390

MULLIKEN ATOMIC CHARGES
-----------------------
   0 O :   -0.370243
   1 C :    0.195390
   2 N :   -0.331907
   3 C :   -0.092696
   4 C :   -0.094219
   5 O :   -0.292879
   6 C :    0.021194
   7 C :   -0.148729
   8 N :   -0.051722
   9 H :    0.085134
  10 H :    0.254002
  11 H :    0.137435
  12 H :    0.168183
  13 H :    0.114950
  14 H :    0.120255
  15 H :    0.142747
  16 H :    0.143107
Sum of atomic charges:    0.0000000

LOEWDIN ATOMIC CHARGES
----------------------
   0 O :    0.052203
   1 C :   -0.435935
   2 N :    0.085236
   3 C :   -0.276141
   4 C :   -0.316104
   5 O :    0.165491
   6 C :   -0.312236
   7 C :   -0.179545
   8 N :    0.076052
   9 H :    0.111390
  10 H :    0.188140
  11 H :    0.139560
  12 H :    0.154687
  13 H :    0.126489
  14 H :    0.127324
  15 H :    0.146757
  16 H :    0.146632

  Mayer bond orders larger than 0.1
B(  0-O ,  1-C ) :   1.8820 B(  1-C ,  2-N ) :   1.1590 B(  1-C ,  9-H ) :   0.9291
B(  2-N ,  3-C ) :   0.8237 B(  2-N , 10-H ) :   0.8656 B(  3-C ,  4-C ) :   0.9600
B(  3-C , 11-H ) :   0.9310 B(  3-C , 12-H ) :   0.9149 B(  4-C ,  5-O ) :   0.8943
B(  4-C , 13-H ) :   0.9258 B(  4-C , 14-H ) :   0.9213 B(  5-O ,  6-C ) :   0.9746
B(  6-C ,  7-C ) :   0.9351 B(  6-C , 15-H ) :   0.9066 B(  6-C , 16-H ) :   0.9086
B(  7-C ,  8-N ) :   2.8434

MP2 TOTAL ENERGY:     -454.427102002 Eh
FINAL SINGLE POINT ENERGY      -454.427102002408

DIPOLE MOMENT
-------------
                                X             Y             Z
Electronic contribution:     -0.62954       3.02612       3.22045
Nuclear contribution   :      1.39117      -3.06914      -3.67325
                        -----------------------------------------
Total Dipole Moment    :      0.76163      -0.04302      -0.45280
                        -----------------------------------------
Magnitude (a.u.)       :      0.88711
Magnitude (Debye)      :      2.25484

                             ****ORCA TERMINATED NORMALLY****
TOTAL RUN TIME: 0 days 0 hours 13 minutes 26 seconds 747 msec
