                         Program Version 3.0.3 - RELEASE   -
|  1> ! RI-MP2 RIJK def2-TZVP def2-TZVP/C def2-TZVP/JK TIGHTSCF
|  2> % maxcore 2000
|  3> % mp2 density relaxed end
|  4> *xyz 0 1
|  5>  C       -0.3242737335     1.4561776785    -0.2219973029
|  6>  N       -0.1672243654     0.0414576625     0.0580033166
|  7>  C       -1.2973591445    -0.7268088426     0.6129990191
|  8>  C       -0.2810721266    -1.5607473125     1.4277719796
|  9>  C        0.7301839438    -0.4180557679     1.1163498011
| 10>  C        2.2502102823    -0.6780727850     0.9040785818
| 11>  C        2.5714789351    -0.0561674199     2.2948211121
| 12>  C        1.1212565680     0.4653877751     2.3276141914
| 13>  O        0.5511761477     1.3149597135     2.9529702022
| 14>  H        0.6329665034     1.8740635405    -0.5528932314
| 15>  H       -1.0392605312     1.5812847662    -1.0421096207
| 16>  H       -0.6747413460     2.0390672606     0.6439095540
| 17>  H       -1.9544786769    -0.1288103787     1.2620389055
| 18>  H       -1.9095403192    -1.2445483588    -0.1335112118
| 19>  H       -0.5148019897    -1.7431205902     2.4769779190
| 20>  H        0.0012588834    -2.4964862284     0.9411638740
| 21>  H        2.5308758728    -1.7222012268     0.7555320937
| 22>  H        2.6465211714    -0.0832695237     0.0772480998
| 23>  H        2.7589410033    -0.7942216998     3.0810238912
| 24>  H        3.3482615420     0.7102347275     2.3462957554
| 25> *
| 26>
| 27>                          ****END OF INPUT****

CARTESIAN COORDINATES (ANGSTROEM)
---------------------------------
  C     -0.324274    1.456178   -0.221997
  N     -0.167224    0.041458    0.058003
  C     -1.297359   -0.726809    0.612999
  C     -0.281072   -1.560747    1.427772
  C      0.730184   -0.418056    1.116350
  C      2.250210   -0.678073    0.904079
  C      2.571479   -0.056167    2.294821
  C      1.121257    0.465388    2.327614
  O      0.551176    1.314960    2.952970
  H      0.632967    1.874064   -0.552893
  H     -1.039261    1.581285   -1.042110
  H     -0.674741    2.039067    0.643910
  H     -1.954479   -0.128810    1.262039
  H     -1.909540   -1.244548   -0.133511
  H     -0.514802   -1.743121    2.476978
  H      0.001259   -2.496486    0.941164
  H      2.530876   -1.722201    0.755532
  H      2.646521   -0.083270    0.077248
  H      2.758941   -0.794222    3.081024
  H      3.348262    0.710235    2.346296

 Total Charge           Charge          ....    0
 Multiplicity           Mult            ....    1
 Number of Electrons    NEL             ....   68
 Basis Dimension        Dim             ....  345

ORBITAL ENERGIES
----------------

  NO   OCC          E(Eh)            E(eV)
   0   2.0000     -20.553318      -559.2842
   1   2.0000     -15.551885      -423.1883
   2   2.0000     -11.327539      -308.2380
   3   2.0000     -11.273359      -306.7637
   4   2.0000     -11.255723      -306.2838
   5   2.0000     -11.241192      -305.8884
   6   2.0000     -11.240143      -305.8598
   7   2.0000     -11.238278      -305.8091
   8   2.0000     -11.235052      -305.7213
   9   2.0000      -1.394622       -37.9496
  10   2.0000      -1.259112       -34.2622
  11   2.0000      -1.117112       -30.3982
  12   2.0000      -1.025198       -27.8971
  13   2.0000      -0.914631       -24.8884
  14   2.0000      -0.884512       -24.0688
  15   2.0000      -0.864790       -23.5321
  16   2.0000      -0.804539       -21.8926
  17   2.0000      -0.694573       -18.9003
  18   2.0000      -0.671089       -18.2613
  19   2.0000      -0.664058       -18.0699
  20   2.0000      -0.653599       -17.7853
  21   2.0000      -0.617570       -16.8049
  22   2.0000      -0.602096       -16.3839
  23   2.0000      -0.580389       -15.7932
  24   2.0000      -0.562711       -15.3122
  25   2.0000      -0.538634       -14.6570
  26   2.0000      -0.521971       -14.2035
  27   2.0000      -0.516829       -14.0636
  28   2.0000      -0.501750       -13.6533
  29   2.0000      -0.486067       -13.2266
  30   2.0000      -0.469416       -12.7735
  31   2.0000      -0.452475       -12.3125
  32   2.0000      -0.411573       -11.1995
  33   2.0000      -0.345015        -9.3883
  34   0.0000       0.124213         3.3800
  35   0.0000       0.135868         3.6972
  36   0.0000       0.155532         4.2322
  37   0.0000       0.157575         4.2878
  38   0.0000       0.167699         4.5633

MULLIKEN ATOMIC CHARGES
-----------------------
   0 C :   -0.348505
   1 N :   -0.131209
   2 C :   -0.160471
   3 C :   -0.230987
   4 C :    0.125538
   5 C :   -0.251469
   6 C :   -0.203659
   7 C :    0.052074
   8 O :   -0.252410
   9 H :    0.129297
  10 H :    0.139621
  11 H :    0.141891
  12 H :    0.103444
  13 H :    0.111831
  14 H :    0.134161
  15 H :    0.120319
  16 H :    0.122843
  17 H :    0.126191
  18 H :    0.138280
  19 H :    0.133219
Sum of atomic charges:   -0.0000000

LOEWDIN ATOMIC CHARGES
----------------------
   0 C :   -0.329568
   1 N :    0.112418
   2 C :   -0.242477
   3 C :   -0.184303
   4 C :   -0.244172
   5 C :   -0.195388
   6 C :   -0.211288
   7 C :   -0.282278
   8 O :    0.161267
   9 H :    0.118623
  10 H :    0.119306
  11 H :    0.110993
  12 H :    0.124119
  13 H :    0.117875
  14 H :    0.132606
  15 H :    0.137321
  16 H :    0.130383
  17 H :    0.139462
  18 H :    0.146423
  19 H :    0.138680

  Mayer bond orders larger than 0.1
B(  0-C ,  1-N ) :   0.9011 B(  0-C ,  9-H ) :   0.9365 B(  0-C , 10-H ) :   0.9329
B(  0-C , 11-H ) :   0.9290 B(  1-N ,  2-C ) :   0.9550 B(  1-N ,  4-C ) :   0.9973
B(  2-C ,  3-C ) :   0.9679 B(  2-C , 12-H ) :   0.9100 B(  2-C , 13-H ) :   0.9155
B(  3-C ,  4-C ) :   0.8846 B(  3-C , 14-H ) :   0.9196 B(  3-C , 15-H ) :   0.9177
B(  4-C ,  5-C ) :   0.8985 B(  4-C ,  6-C ) :  -0.1141 B(  4-C ,  7-C ) :   0.7992
B(  5-C ,  6-C ) :   0.9530 B(  5-C , 16-H ) :   0.9222 B(  5-C , 17-H ) :   0.9165
B(  6-C ,  7-C ) :   0.9097 B(  6-C , 18-H ) :   0.8946 B(  6-C , 19-H ) :   0.9084
B(  7-C ,  8-O ) :   2.0445

MP2 TOTAL ENERGY:     -402.431765356 Eh
FINAL SINGLE POINT ENERGY      -402.431765355765

DIPOLE MOMENT
-------------
                                X             Y             Z
Electronic contribution:      0.52231       1.37050       3.56726
Nuclear contribution   :     -0.28034      -1.97642      -3.89603
                        -----------------------------------------
Total Dipole Moment    :      0.24197      -0.60592      -0.32877
                        -----------------------------------------
Magnitude (a.u.)       :      0.73060
Magnitude (Debye)      :      1.85704

                             ****ORCA TERMINATED NORMALLY****
TOTAL RUN TIME: 0 days 0 hours 21 minutes 9 seconds 91 msec
