                         Program Version 3.0.3 - RELEASE   -
|  1> ! RI-MP2 RIJK def2-TZVP def2-TZVP/C def2-TZVP/JK TIGHTSCF
|  2> % maxcore 2000
|  3> % mp2 density relaxed end
|  4> *xyz 0 1
|  5>  O        0.1761513339     1.4752684810    -0.1324349915
|  6>  C        0.0708293099     0.0833421586     0.1158285658
|  7>  C       -1.3735685758    -0.4414357230     0.0687590317
|  8>  N       -2.1645644412    -0.2257245024     1.2880979815
|  9>  C       -2.5169841902     1.1851747363     1.5334032646
| 10>  C       -3.5025738351     0.2887464266     0.8792092399
| 11>  C       -3.6106294200     0.3637452981    -0.6299949963
| 12>  C       -2.1704689746     0.1586212024    -1.1020749348
| 13>  O       -1.7142178700     0.4552674685    -2.1789081256
| 14>  H       -0.0279648050     1.6008798044    -1.0667605669
| 15>  H        0.6755567359    -0.4906740499    -0.5991459895
| 16>  H        0.4747569580    -0.0920748170     1.1168186404
| 17>  H       -1.3299481635    -1.5291783322    -0.0944106242
| 18>  H       -2.6344673940     1.4358169890     2.5832660048
| 19>  H       -2.0224361907     1.9472214117     0.9376306607
| 20>  H       -4.3442384974    -0.0981884480     1.4447283079
| 21>  H       -4.2309185379    -0.4470209973    -1.0330006884
| 22>  H       -4.0104553322     1.3041805431    -1.0177135102
| 23> *
| 24>
| 25>                          ****END OF INPUT****

CARTESIAN COORDINATES (ANGSTROEM)
---------------------------------
  O      0.176151    1.475268   -0.132435
  C      0.070829    0.083342    0.115829
  C     -1.373569   -0.441436    0.068759
  N     -2.164564   -0.225725    1.288098
  C     -2.516984    1.185175    1.533403
  C     -3.502574    0.288746    0.879209
  C     -3.610629    0.363745   -0.629995
  C     -2.170469    0.158621   -1.102075
  O     -1.714218    0.455267   -2.178908
  H     -0.027965    1.600880   -1.066761
  H      0.675557   -0.490674   -0.599146
  H      0.474757   -0.092075    1.116819
  H     -1.329948   -1.529178   -0.094411
  H     -2.634467    1.435817    2.583266
  H     -2.022436    1.947221    0.937631
  H     -4.344238   -0.098188    1.444728
  H     -4.230919   -0.447021   -1.033001
  H     -4.010455    1.304181   -1.017714

 Total Charge           Charge          ....    0
 Multiplicity           Mult            ....    1
 Number of Electrons    NEL             ....   68
 Basis Dimension        Dim             ....  333

ORBITAL ENERGIES
----------------

  NO   OCC          E(Eh)            E(eV)
   0   2.0000     -20.565256      -559.6091
   1   2.0000     -20.558007      -559.4118
   2   2.0000     -15.573620      -423.7798
   3   2.0000     -11.346216      -308.7462
   4   2.0000     -11.285425      -307.0920
   5   2.0000     -11.275524      -306.8226
   6   2.0000     -11.275238      -306.8148
   7   2.0000     -11.262442      -306.4666
   8   2.0000     -11.253173      -306.2144
   9   2.0000      -1.410831       -38.3907
  10   2.0000      -1.364401       -37.1272
  11   2.0000      -1.294798       -35.2333
  12   2.0000      -1.053357       -28.6633
  13   2.0000      -1.040259       -28.3069
  14   2.0000      -0.913062       -24.8457
  15   2.0000      -0.851251       -23.1637
  16   2.0000      -0.812967       -22.1220
  17   2.0000      -0.753120       -20.4934
  18   2.0000      -0.706407       -19.2223
  19   2.0000      -0.690762       -18.7966
  20   2.0000      -0.662485       -18.0271
  21   2.0000      -0.644796       -17.5458
  22   2.0000      -0.618836       -16.8394
  23   2.0000      -0.614683       -16.7264
  24   2.0000      -0.596701       -16.2370
  25   2.0000      -0.579196       -15.7607
  26   2.0000      -0.533531       -14.5181
  27   2.0000      -0.520388       -14.1605
  28   2.0000      -0.507911       -13.8210
  29   2.0000      -0.502385       -13.6706
  30   2.0000      -0.474106       -12.9011
  31   2.0000      -0.433077       -11.7846
  32   2.0000      -0.428588       -11.6625
  33   2.0000      -0.379473       -10.3260
  34   0.0000       0.114721         3.1217
  35   0.0000       0.137860         3.7514
  36   0.0000       0.154666         4.2087
  37   0.0000       0.173312         4.7161
  38   0.0000       0.181619         4.9421

MULLIKEN ATOMIC CHARGES
-----------------------
   0 O :   -0.486406
   1 C :   -0.063176
   2 C :    0.025001
   3 N :   -0.227378
   4 C :   -0.170168
   5 C :   -0.096333
   6 C :   -0.175359
   7 C :    0.065934
   8 O :   -0.286150
   9 H :    0.335003
  10 H :    0.122026
  11 H :    0.132583
  12 H :    0.125267
  13 H :    0.133434
  14 H :    0.147694
  15 H :    0.131122
  16 H :    0.145429
  17 H :    0.141477
Sum of atomic charges:    0.0000000

LOEWDIN ATOMIC CHARGES
----------------------
   0 O :   -0.041280
   1 C :   -0.315832
   2 C :   -0.268288
   3 N :    0.125040
   4 C :   -0.231861
   5 C :   -0.238863
   6 C :   -0.210723
   7 C :   -0.291680
   8 O :    0.148738
   9 H :    0.176776
  10 H :    0.126438
  11 H :    0.138411
  12 H :    0.167145
  13 H :    0.129374
  14 H :    0.133788
  15 H :    0.139567
  16 H :    0.158795
  17 H :    0.154456

  Mayer bond orders larger than 0.1
B(  0-O ,  1-C ) :   0.9399 B(  0-O ,  9-H ) :   0.8307 B(  1-C ,  2-C ) :   0.8968
B(  1-C , 10-H ) :   0.9335 B(  1-C , 11-H ) :   0.9354 B(  2-C ,  3-N ) :   0.9520
B(  2-C ,  7-C ) :   0.8712 B(  2-C , 12-H ) :   0.8820 B(  3-N ,  4-C ) :   0.8672
B(  3-N ,  5-C ) :   0.8835 B(  4-C ,  5-C ) :   0.9312 B(  4-C , 13-H ) :   0.9287
B(  4-C , 14-H ) :   0.9041 B(  5-C ,  6-C ) :   0.9298 B(  5-C , 15-H ) :   0.9163
B(  6-C ,  7-C ) :   0.9183 B(  6-C , 16-H ) :   0.9004 B(  6-C , 17-H ) :   0.9025
B(  7-C ,  8-O ) :   2.0022

MP2 TOTAL ENERGY:     -438.359775436 Eh
FINAL SINGLE POINT ENERGY      -438.359775436334

DIPOLE MOMENT
-------------
                                X             Y             Z
Electronic contribution:      0.40656      -0.30393      -2.46484
Nuclear contribution   :     -1.07474       0.02871       2.52109
                        -----------------------------------------
Total Dipole Moment    :     -0.66817      -0.27522       0.05625
                        -----------------------------------------
Magnitude (a.u.)       :      0.72482
Magnitude (Debye)      :      1.84234

                             ****ORCA TERMINATED NORMALLY****
TOTAL RUN TIME: 0 days 0 hours 30 minutes 36 seconds 919 msec
