                         Program Version 3.0.3 - RELEASE   -
|  1> ! RI-MP2 RIJK def2-TZVP def2-TZVP/C def2-TZVP/JK TIGHTSCF
|  2> % maxcore 2000
|  3> % mp2 density relaxed end
|  4> *xyz 0 1
|  5>  C        0.1979524228     1.5367001010    -0.0905458987
|  6>  C        0.0534669764     0.0221940295    -0.0197943348
|  7>  C       -1.3915567714    -0.4190743200     0.2641023071
|  8>  C        0.6783010685    -0.8306155025    -1.1709878246
|  9>  O        1.8737451513    -0.2567605102    -1.7358597349
| 10>  C        2.7262170339    -1.0758982257    -0.9055148529
| 11>  C        1.5126023763    -1.6732891976    -0.1559927996
| 12>  C        1.0020761289    -0.7327190790     0.9479330880
| 13>  O        1.2343335987    -0.6286432285     2.1176917361
| 14>  H        1.1934014934     1.8149461819    -0.4433395482
| 15>  H       -0.5391198167     1.9675757448    -0.7769841142
| 16>  H        0.0396085847     1.9770853055     0.8988151514
| 17>  H       -2.0622414297    -0.0336919421    -0.5111142801
| 18>  H       -1.4919094741    -1.5101508619     0.2855310427
| 19>  H       -1.7224835531    -0.0351999126     1.2333393419
| 20>  H        0.0045935105    -1.2368293855    -1.9290104521
| 21>  H        3.2743470792    -1.8122854690    -1.5049014967
| 22>  H        3.4370072678    -0.4885015712    -0.3139329700
| 23>  H        1.4692992524    -2.7498856069    -0.0007735704
| 24> *
| 25>
| 26>                          ****END OF INPUT****

CARTESIAN COORDINATES (ANGSTROEM)
---------------------------------
  C      0.197952    1.536700   -0.090546
  C      0.053467    0.022194   -0.019794
  C     -1.391557   -0.419074    0.264102
  C      0.678301   -0.830616   -1.170988
  O      1.873745   -0.256761   -1.735860
  C      2.726217   -1.075898   -0.905515
  C      1.512602   -1.673289   -0.155993
  C      1.002076   -0.732719    0.947933
  O      1.234334   -0.628643    2.117692
  H      1.193401    1.814946   -0.443340
  H     -0.539120    1.967576   -0.776984
  H      0.039609    1.977085    0.898815
  H     -2.062241   -0.033692   -0.511114
  H     -1.491909   -1.510151    0.285531
  H     -1.722484   -0.035200    1.233339
  H      0.004594   -1.236829   -1.929010
  H      3.274347   -1.812285   -1.504901
  H      3.437007   -0.488502   -0.313933
  H      1.469299   -2.749886   -0.000774

 Total Charge           Charge          ....    0
 Multiplicity           Mult            ....    1
 Number of Electrons    NEL             ....   68
 Basis Dimension        Dim             ....  339

ORBITAL ENERGIES
----------------

  NO   OCC          E(Eh)            E(eV)
   0   2.0000     -20.564034      -559.5758
   1   2.0000     -20.558023      -559.4122
   2   2.0000     -11.333587      -308.4026
   3   2.0000     -11.299967      -307.4877
   4   2.0000     -11.299266      -307.4687
   5   2.0000     -11.254053      -306.2384
   6   2.0000     -11.253138      -306.2135
   7   2.0000     -11.236132      -305.7507
   8   2.0000     -11.221661      -305.3569
   9   2.0000      -1.405501       -38.2456
  10   2.0000      -1.392545       -37.8931
  11   2.0000      -1.137498       -30.9529
  12   2.0000      -1.035533       -28.1783
  13   2.0000      -0.948337       -25.8056
  14   2.0000      -0.946543       -25.7567
  15   2.0000      -0.843708       -22.9585
  16   2.0000      -0.807755       -21.9801
  17   2.0000      -0.705034       -19.1849
  18   2.0000      -0.691567       -18.8185
  19   2.0000      -0.685255       -18.6467
  20   2.0000      -0.649854       -17.6834
  21   2.0000      -0.625212       -17.0129
  22   2.0000      -0.598940       -16.2980
  23   2.0000      -0.596142       -16.2218
  24   2.0000      -0.570907       -15.5352
  25   2.0000      -0.554446       -15.0872
  26   2.0000      -0.551688       -15.0122
  27   2.0000      -0.532606       -14.4930
  28   2.0000      -0.512567       -13.9476
  29   2.0000      -0.498956       -13.5773
  30   2.0000      -0.472377       -12.8540
  31   2.0000      -0.453866       -12.3503
  32   2.0000      -0.417170       -11.3518
  33   2.0000      -0.390976       -10.6390
  34   0.0000       0.120113         3.2685
  35   0.0000       0.132109         3.5949
  36   0.0000       0.154267         4.1978
  37   0.0000       0.170496         4.6394
  38   0.0000       0.181734         4.9452

MULLIKEN ATOMIC CHARGES
-----------------------
   0 C :   -0.406334
   1 C :    0.110247
   2 C :   -0.440244
   3 C :    0.098138
   4 O :   -0.348549
   5 C :   -0.055516
   6 C :   -0.138703
   7 C :    0.060334
   8 O :   -0.245822
   9 H :    0.152191
  10 H :    0.129729
  11 H :    0.146169
  12 H :    0.142499
  13 H :    0.136943
  14 H :    0.153460
  15 H :    0.123671
  16 H :    0.113040
  17 H :    0.120158
  18 H :    0.148590
Sum of atomic charges:   -0.0000000

LOEWDIN ATOMIC CHARGES
----------------------
   0 C :   -0.262449
   1 C :   -0.260409
   2 C :   -0.254232
   3 C :   -0.194109
   4 O :    0.142695
   5 C :   -0.240245
   6 C :   -0.157084
   7 C :   -0.260339
   8 O :    0.172113
   9 H :    0.132927
  10 H :    0.128817
  11 H :    0.133728
  12 H :    0.129961
  13 H :    0.130795
  14 H :    0.134914
  15 H :    0.131298
  16 H :    0.123515
  17 H :    0.123602
  18 H :    0.144502

  Mayer bond orders larger than 0.1
B(  0-C ,  1-C ) :   0.8937 B(  0-C ,  9-H ) :   0.9265 B(  0-C , 10-H ) :   0.9351
B(  0-C , 11-H ) :   0.9292 B(  1-C ,  2-C ) :   0.8855 B(  1-C ,  3-C ) :   0.8830
B(  1-C ,  7-C ) :   0.8081 B(  2-C , 12-H ) :   0.9381 B(  2-C , 13-H ) :   0.9199
B(  2-C , 14-H ) :   0.9365 B(  3-C ,  4-O ) :   0.9121 B(  3-C ,  6-C ) :   0.9119
B(  3-C , 15-H ) :   0.9321 B(  4-O ,  5-C ) :   0.9265 B(  5-C ,  6-C ) :   0.9377
B(  5-C , 16-H ) :   0.9188 B(  5-C , 17-H ) :   0.9132 B(  6-C ,  7-C ) :   0.8511
B(  6-C , 18-H ) :   0.8968 B(  7-C ,  8-O ) :   2.0636

MP2 TOTAL ENERGY:     -422.302230004 Eh
FINAL SINGLE POINT ENERGY      -422.302230004476

DIPOLE MOMENT
-------------
                                X             Y             Z
Electronic contribution:      4.47736      -2.52965       1.54552
Nuclear contribution   :     -4.83701       2.06830      -2.07961
                        -----------------------------------------
Total Dipole Moment    :     -0.35965      -0.46135      -0.53409
                        -----------------------------------------
Magnitude (a.u.)       :      0.79211
Magnitude (Debye)      :      2.01339

                             ****ORCA TERMINATED NORMALLY****
TOTAL RUN TIME: 0 days 0 hours 22 minutes 33 seconds 243 msec
