                         Program Version 3.0.3 - RELEASE   -
|  1> ! RI-MP2 RIJK def2-TZVP def2-TZVP/C def2-TZVP/JK TIGHTSCF
|  2> % maxcore 2000
|  3> % mp2 density relaxed end
|  4> *xyz 0 1
|  5>  O       -0.0876733850     0.2260548065    -0.7938499807
|  6>  C        0.0378480611     1.1606280211    -0.0472107271
|  7>  C        1.2976550070     1.9499718718     0.1068544366
|  8>  O        2.2869010316     1.8064063321    -0.9191724992
|  9>  C        2.6097806686     1.2919487154     0.3636232733
| 10>  C        3.4228003177     2.2258097634     1.2478281154
| 11>  N        2.6217353730     3.4437001953     1.5022721953
| 12>  C        2.3115369408     4.2820786623     0.3374940545
| 13>  C        1.3189989884     3.2839087713     0.8141435091
| 14>  H       -0.7907279622     1.4983648257     0.6147880708
| 15>  H        2.7211583987     0.2105825999     0.4189360066
| 16>  H        3.6162235717     1.7353791644     2.2084459351
| 17>  H        4.3884527350     2.4796744658     0.7985295950
| 18>  H        2.1709178191     5.3335421194     0.5724280504
| 19>  H        2.8011408458     4.0730234284    -0.6078891159
| 20>  H        0.4266350786     3.5773646770     1.3603096608
| 21> *
| 22>
| 23>                          ****END OF INPUT****

CARTESIAN COORDINATES (ANGSTROEM)
---------------------------------
  O     -0.087673    0.226055   -0.793850
  C      0.037848    1.160628   -0.047211
  C      1.297655    1.949972    0.106854
  O      2.286901    1.806406   -0.919172
  C      2.609781    1.291949    0.363623
  C      3.422800    2.225810    1.247828
  N      2.621735    3.443700    1.502272
  C      2.311537    4.282079    0.337494
  C      1.318999    3.283909    0.814144
  H     -0.790728    1.498365    0.614788
  H      2.721158    0.210583    0.418936
  H      3.616224    1.735379    2.208446
  H      4.388453    2.479674    0.798530
  H      2.170918    5.333542    0.572428
  H      2.801141    4.073023   -0.607889
  H      0.426635    3.577365    1.360310

 Total Charge           Charge          ....    0
 Multiplicity           Mult            ....    1
 Number of Electrons    NEL             ....   66
 Basis Dimension        Dim             ....  321

ORBITAL ENERGIES
----------------

  NO   OCC          E(Eh)            E(eV)
   0   2.0000     -20.594860      -560.4146
   1   2.0000     -20.570872      -559.7619
   2   2.0000     -15.577217      -423.8776
   3   2.0000     -11.349437      -308.8339
   4   2.0000     -11.315836      -307.9196
   5   2.0000     -11.313547      -307.8573
   6   2.0000     -11.282622      -307.0158
   7   2.0000     -11.275062      -306.8100
   8   2.0000     -11.268897      -306.6423
   9   2.0000      -1.451158       -39.4880
  10   2.0000      -1.405414       -38.2432
  11   2.0000      -1.289155       -35.0797
  12   2.0000      -1.042061       -28.3559
  13   2.0000      -1.017478       -27.6870
  14   2.0000      -0.891044       -24.2465
  15   2.0000      -0.858336       -23.3565
  16   2.0000      -0.827183       -22.5088
  17   2.0000      -0.789088       -21.4722
  18   2.0000      -0.742242       -20.1974
  19   2.0000      -0.669560       -18.2197
  20   2.0000      -0.665719       -18.1151
  21   2.0000      -0.640509       -17.4291
  22   2.0000      -0.632186       -17.2026
  23   2.0000      -0.608982       -16.5713
  24   2.0000      -0.570989       -15.5374
  25   2.0000      -0.552456       -15.0331
  26   2.0000      -0.539387       -14.6775
  27   2.0000      -0.521429       -14.1888
  28   2.0000      -0.494239       -13.4489
  29   2.0000      -0.464172       -12.6308
  30   2.0000      -0.440050       -11.9744
  31   2.0000      -0.431988       -11.7550
  32   2.0000      -0.382668       -10.4129
  33   0.0000       0.096284         2.6200
  34   0.0000       0.147358         4.0098
  35   0.0000       0.152436         4.1480
  36   0.0000       0.175423         4.7735
  37   0.0000       0.182441         4.9645

MULLIKEN ATOMIC CHARGES
-----------------------
   0 O :   -0.244878
   1 C :    0.013683
   2 C :    0.205781
   3 O :   -0.295702
   4 C :   -0.026854
   5 C :   -0.103146
   6 N :   -0.227307
   7 C :   -0.174965
   8 C :   -0.082010
   9 H :    0.090391
  10 H :    0.143338
  11 H :    0.135247
  12 H :    0.130474
  13 H :    0.133092
  14 H :    0.153363
  15 H :    0.149494
Sum of atomic charges:    0.0000000

LOEWDIN ATOMIC CHARGES
----------------------
   0 O :    0.157200
   1 C :   -0.260720
   2 C :   -0.283259
   3 O :    0.225003
   4 C :   -0.221030
   5 C :   -0.251085
   6 N :    0.113579
   7 C :   -0.229009
   8 C :   -0.206670
   9 H :    0.118932
  10 H :    0.143424
  11 H :    0.143200
  12 H :    0.142220
  13 H :    0.127861
  14 H :    0.134724
  15 H :    0.145631

  Mayer bond orders larger than 0.1
B(  0-O ,  1-C ) :   2.0470 B(  1-C ,  2-C ) :   0.7853 B(  1-C ,  9-H ) :   0.9814
B(  2-C ,  3-O ) :   0.8765 B(  2-C ,  4-C ) :   0.8841 B(  2-C ,  8-C ) :   0.9448
B(  2-C ,  9-H ) :  -0.1033 B(  3-O ,  4-C ) :   0.9157 B(  4-C ,  5-C ) :   0.9364
B(  4-C , 10-H ) :   0.9166 B(  5-C ,  6-N ) :   0.9431 B(  5-C , 11-H ) :   0.9166
B(  5-C , 12-H ) :   0.9155 B(  6-N ,  7-C ) :   0.8694 B(  6-N ,  8-C ) :   0.9312
B(  7-C ,  8-C ) :   0.9452 B(  7-C , 13-H ) :   0.9276 B(  7-C , 14-H ) :   0.8984
B(  8-C , 15-H ) :   0.8918

MP2 TOTAL ENERGY:     -437.117722546 Eh
FINAL SINGLE POINT ENERGY      -437.117722546440

DIPOLE MOMENT
-------------
                                X             Y             Z
Electronic contribution:     -2.62749      -3.09194      -2.56854
Nuclear contribution   :      2.85250       3.52559       3.27827
                        -----------------------------------------
Total Dipole Moment    :      0.22501       0.43365       0.70973
                        -----------------------------------------
Magnitude (a.u.)       :      0.86163
Magnitude (Debye)      :      2.19008

                             ****ORCA TERMINATED NORMALLY****
TOTAL RUN TIME: 0 days 0 hours 17 minutes 14 seconds 378 msec
