                         Program Version 3.0.3 - RELEASE   -
|  1> ! RI-MP2 RIJK def2-TZVP def2-TZVP/C def2-TZVP/JK TIGHTSCF
|  2> % maxcore 2000
|  3> % mp2 density relaxed end
|  4> *xyz 0 1
|  5>  O        0.2335293636     0.8873849551     0.9735655242
|  6>  C       -0.0617874724     0.1638317843    -0.2164980415
|  7>  C       -1.4081623498    -0.3841268664    -0.1422864586
|  8>  C       -2.5223780374    -0.8449489748    -0.1079721002
|  9>  C       -3.8195664689    -1.4031543623    -0.0538864178
| 10>  C       -4.9881364506    -0.8177626084    -0.4608288410
| 11>  O       -6.0365224545    -1.6463728037    -0.2581075129
| 12>  C       -5.5421722417    -2.7917530657     0.2908194855
| 13>  C       -4.1993986148    -2.7067601623     0.4406781264
| 14>  H        1.1283487390     1.2314081806     0.8838096676
| 15>  H        0.0121217745     0.8126297083    -1.1048232512
| 16>  H        0.6525791268    -0.6623124374    -0.3670396994
| 17>  H       -5.2114630848     0.1432415059    -0.8925777104
| 18>  H       -6.2698556051    -3.5547452218     0.5110225392
| 19>  H       -3.5381348339    -3.4543842615     0.8475179201
| 20> *
| 21>
| 22>                          ****END OF INPUT****

CARTESIAN COORDINATES (ANGSTROEM)
---------------------------------
  O      0.233529    0.887385    0.973566
  C     -0.061787    0.163832   -0.216498
  C     -1.408162   -0.384127   -0.142286
  C     -2.522378   -0.844949   -0.107972
  C     -3.819566   -1.403154   -0.053886
  C     -4.988136   -0.817763   -0.460829
  O     -6.036522   -1.646373   -0.258108
  C     -5.542172   -2.791753    0.290819
  C     -4.199399   -2.706760    0.440678
  H      1.128349    1.231408    0.883810
  H      0.012122    0.812630   -1.104823
  H      0.652579   -0.662312   -0.367040
  H     -5.211463    0.143242   -0.892578
  H     -6.269856   -3.554745    0.511023
  H     -3.538135   -3.454384    0.847518

 Total Charge           Charge          ....    0
 Multiplicity           Mult            ....    1
 Number of Electrons    NEL             ....   64
 Basis Dimension        Dim             ....  315

ORBITAL ENERGIES
----------------

  NO   OCC          E(Eh)            E(eV)
   0   2.0000     -20.631839      -561.4209
   1   2.0000     -20.567331      -559.6655
   2   2.0000     -11.309320      -307.7422
   3   2.0000     -11.301046      -307.5171
   4   2.0000     -11.293225      -307.3043
   5   2.0000     -11.255642      -306.2816
   6   2.0000     -11.237819      -305.7966
   7   2.0000     -11.234031      -305.6935
   8   2.0000     -11.227953      -305.5281
   9   2.0000      -1.469606       -39.9900
  10   2.0000      -1.370869       -37.3032
  11   2.0000      -1.113715       -30.3057
  12   2.0000      -1.047090       -28.4928
  13   2.0000      -1.015609       -27.6361
  14   2.0000      -0.944450       -25.6998
  15   2.0000      -0.834072       -22.6963
  16   2.0000      -0.797652       -21.7052
  17   2.0000      -0.758672       -20.6445
  18   2.0000      -0.713573       -19.4173
  19   2.0000      -0.657947       -17.9036
  20   2.0000      -0.647806       -17.6277
  21   2.0000      -0.644878       -17.5480
  22   2.0000      -0.628993       -17.1158
  23   2.0000      -0.603886       -16.4326
  24   2.0000      -0.578470       -15.7410
  25   2.0000      -0.559335       -15.2203
  26   2.0000      -0.536822       -14.6077
  27   2.0000      -0.472912       -12.8686
  28   2.0000      -0.460905       -12.5419
  29   2.0000      -0.378642       -10.3034
  30   2.0000      -0.369710       -10.0603
  31   2.0000      -0.313825        -8.5396
  32   0.0000       0.110481         3.0063
  33   0.0000       0.135248         3.6803
  34   0.0000       0.164282         4.4704
  35   0.0000       0.171121         4.6564
  36   0.0000       0.178332         4.8527

MULLIKEN ATOMIC CHARGES
-----------------------
   0 O :   -0.442456
   1 C :   -0.180615
   2 C :    0.010430
   3 C :    0.146566
   4 C :   -0.042982
   5 C :   -0.054168
   6 O :   -0.205469
   7 C :    0.016732
   8 C :   -0.275049
   9 H :    0.315845
  10 H :    0.127409
  11 H :    0.127262
  12 H :    0.156046
  13 H :    0.153246
  14 H :    0.147202
Sum of atomic charges:    0.0000000

LOEWDIN ATOMIC CHARGES
----------------------
   0 O :   -0.042569
   1 C :   -0.338354
   2 C :   -0.052143
   3 C :   -0.028620
   4 C :   -0.181654
   5 C :   -0.193264
   6 O :    0.346842
   7 C :   -0.234091
   8 C :   -0.141313
   9 H :    0.173921
  10 H :    0.134341
  11 H :    0.134287
  12 H :    0.138780
  13 H :    0.134489
  14 H :    0.149349

  Mayer bond orders larger than 0.1
B(  0-O ,  1-C ) :   1.1185 B(  0-O ,  9-H ) :   0.8467 B(  1-C ,  2-C ) :   0.9213
B(  1-C , 10-H ) :   0.9470 B(  1-C , 11-H ) :   0.9470 B(  2-C ,  3-C ) :   2.6328
B(  2-C ,  4-C ) :  -0.1631 B(  3-C ,  4-C ) :   1.0362 B(  4-C ,  5-C ) :   1.4935
B(  4-C ,  8-C ) :   1.1400 B(  5-C ,  6-O ) :   1.0744 B(  5-C , 12-H ) :   0.9227
B(  6-O ,  7-C ) :   1.0305 B(  7-C ,  8-C ) :   1.5796 B(  7-C , 13-H ) :   0.9334
B(  8-C , 14-H ) :   0.9194

MP2 TOTAL ENERGY:     -419.892741494 Eh
FINAL SINGLE POINT ENERGY      -419.892741493956

DIPOLE MOMENT
-------------
                                X             Y             Z
Electronic contribution:     -4.43245      -0.72312       0.05301
Nuclear contribution   :      4.97034       0.55145      -0.48952
                        -----------------------------------------
Total Dipole Moment    :      0.53790      -0.17167      -0.43651
                        -----------------------------------------
Magnitude (a.u.)       :      0.71368
Magnitude (Debye)      :      1.81404

                             ****ORCA TERMINATED NORMALLY****
TOTAL RUN TIME: 0 days 0 hours 12 minutes 32 seconds 78 msec
