                         Program Version 3.0.3 - RELEASE   -
|  1> ! RI-MP2 RIJK def2-TZVP def2-TZVP/C def2-TZVP/JK TIGHTSCF
|  2> % maxcore 2000
|  3> % mp2 density relaxed end
|  4> *xyz 0 1
|  5>  O       -0.1582470108    -0.0758981070    -1.6944253584
|  6>  C       -0.3475953709    -0.6540668442    -0.4203199838
|  7>  C       -1.6234187760    -0.1610563153     0.2402547190
|  8>  O       -2.6936742915    -0.5535162003    -0.6458557978
|  9>  C       -3.9133921326    -0.0630227616    -0.3794233852
| 10>  O       -4.1839020810     0.6137735011     0.5763946628
| 11>  C       -4.9351580758    -0.5137503102    -1.4252519045
| 12>  C       -4.4377783491    -0.5605115971    -2.7927104605
| 13>  C       -4.0422944259    -0.5888515728    -3.9265944771
| 14>  H       -0.9526601128    -0.2684560188    -2.2064140005
| 15>  H       -0.3665143202    -1.7542620298    -0.4709387221
| 16>  H        0.5093018837    -0.3637564054     0.1962973486
| 17>  H       -1.7790480876    -0.6097831214     1.2268225841
| 18>  H       -1.6293690526     0.9273467453     0.3416965751
| 19>  H       -5.2848983672    -1.5093142143    -1.1192698592
| 20>  H       -5.7923680025     0.1591218856    -1.3358750758
| 21>  H       -3.6973753771    -0.6136364939    -4.9307882046
| 22> *
| 23>
| 24>                          ****END OF INPUT****

CARTESIAN COORDINATES (ANGSTROEM)
---------------------------------
  O     -0.158247   -0.075898   -1.694425
  C     -0.347595   -0.654067   -0.420320
  C     -1.623419   -0.161056    0.240255
  O     -2.693674   -0.553516   -0.645856
  C     -3.913392   -0.063023   -0.379423
  O     -4.183902    0.613774    0.576395
  C     -4.935158   -0.513750   -1.425252
  C     -4.437778   -0.560512   -2.792710
  C     -4.042294   -0.588852   -3.926594
  H     -0.952660   -0.268456   -2.206414
  H     -0.366514   -1.754262   -0.470939
  H      0.509302   -0.363756    0.196297
  H     -1.779048   -0.609783    1.226823
  H     -1.629369    0.927347    0.341697
  H     -5.284898   -1.509314   -1.119270
  H     -5.792368    0.159122   -1.335875
  H     -3.697375   -0.613636   -4.930788

 Total Charge           Charge          ....    0
 Multiplicity           Mult            ....    1
 Number of Electrons    NEL             ....   68
 Basis Dimension        Dim             ....  327

ORBITAL ENERGIES
----------------

  NO   OCC          E(Eh)            E(eV)
   0   2.0000     -20.616415      -561.0012
   1   2.0000     -20.559084      -559.4411
   2   2.0000     -20.558182      -559.4166
   3   2.0000     -11.398436      -310.1672
   4   2.0000     -11.297937      -307.4325
   5   2.0000     -11.286734      -307.1277
   6   2.0000     -11.285393      -307.0912
   7   2.0000     -11.253316      -306.2183
   8   2.0000     -11.239708      -305.8480
   9   2.0000      -1.477433       -40.2030
  10   2.0000      -1.381510       -37.5928
  11   2.0000      -1.361906       -37.0594
  12   2.0000      -1.100807       -29.9545
  13   2.0000      -1.034389       -28.1472
  14   2.0000      -0.992873       -27.0174
  15   2.0000      -0.876237       -23.8436
  16   2.0000      -0.799303       -21.7501
  17   2.0000      -0.754622       -20.5343
  18   2.0000      -0.715400       -19.4670
  19   2.0000      -0.705050       -19.1854
  20   2.0000      -0.696461       -18.9517
  21   2.0000      -0.677299       -18.4303
  22   2.0000      -0.640657       -17.4332
  23   2.0000      -0.631518       -17.1845
  24   2.0000      -0.606700       -16.5092
  25   2.0000      -0.592914       -16.1340
  26   2.0000      -0.550577       -14.9820
  27   2.0000      -0.543955       -14.8018
  28   2.0000      -0.506227       -13.7751
  29   2.0000      -0.478051       -13.0084
  30   2.0000      -0.476901       -12.9771
  31   2.0000      -0.454149       -12.3580
  32   2.0000      -0.405357       -11.0303
  33   2.0000      -0.402708       -10.9583
  34   0.0000       0.127103         3.4586
  35   0.0000       0.143457         3.9037
  36   0.0000       0.152683         4.1547
  37   0.0000       0.159298         4.3347
  38   0.0000       0.164916         4.4876

MULLIKEN ATOMIC CHARGES
-----------------------
   0 O :   -0.481794
   1 C :    0.000305
   2 C :   -0.107063
   3 O :   -0.257350
   4 C :    0.307786
   5 O :   -0.312334
   6 C :   -0.319200
   7 C :   -0.018949
   8 C :   -0.167870
   9 H :    0.333100
  10 H :    0.105517
  11 H :    0.117584
  12 H :    0.124880
  13 H :    0.139587
  14 H :    0.166957
  15 H :    0.173112
  16 H :    0.195731
Sum of atomic charges:    0.0000000

LOEWDIN ATOMIC CHARGES
----------------------
   0 O :   -0.042341
   1 C :   -0.355325
   2 C :   -0.282276
   3 O :    0.255861
   4 C :   -0.472685
   5 O :    0.134718
   6 C :   -0.208411
   7 C :   -0.111276
   8 C :   -0.096825
   9 H :    0.179340
  10 H :    0.120963
  11 H :    0.134094
  12 H :    0.132637
  13 H :    0.134872
  14 H :    0.175481
  15 H :    0.172117
  16 H :    0.129054

  Mayer bond orders larger than 0.1
B(  0-O ,  1-C ) :   0.9358 B(  0-O ,  9-H ) :   0.8340 B(  1-C ,  2-C ) :   0.9437
B(  1-C , 10-H ) :   0.9305 B(  1-C , 11-H ) :   0.9255 B(  2-C ,  3-O ) :   0.8138
B(  2-C , 12-H ) :   0.9244 B(  2-C , 13-H ) :   0.9289 B(  3-O ,  4-C ) :   1.1189
B(  4-C ,  5-O ) :   1.9599 B(  4-C ,  6-C ) :   0.9346 B(  6-C ,  7-C ) :   1.0063
B(  6-C , 14-H ) :   0.9125 B(  6-C , 15-H ) :   0.9281 B(  7-C ,  8-C ) :   2.6413
B(  8-C , 16-H ) :   0.9086

MP2 TOTAL ENERGY:     -458.212897492 Eh
FINAL SINGLE POINT ENERGY      -458.212897492127

DIPOLE MOMENT
-------------
                                X             Y             Z
Electronic contribution:     -3.66211       1.07132      -0.57219
Nuclear contribution   :      3.49728      -1.73083       0.50443
                        -----------------------------------------
Total Dipole Moment    :     -0.16482      -0.65952      -0.06776
                        -----------------------------------------
Magnitude (a.u.)       :      0.68317
Magnitude (Debye)      :      1.73648

                             ****ORCA TERMINATED NORMALLY****
TOTAL RUN TIME: 0 days 0 hours 13 minutes 41 seconds 756 msec
