                         Program Version 3.0.3 - RELEASE   -
|  1> ! RI-MP2 RIJK def2-TZVP def2-TZVP/C def2-TZVP/JK TIGHTSCF
|  2> % maxcore 2000
|  3> % mp2 density relaxed end
|  4> *xyz 0 1
|  5>  C        0.0407901577    -1.1915451397     0.1489045949
|  6>  C        0.0035913558     0.0069312106     0.0870111587
|  7>  C       -0.0141040496     1.4636210018    -0.0295735055
|  8>  O       -0.7369451184     1.9814073528     1.0934178256
|  9>  C       -0.7413539003     3.3792508109     1.1876911551
| 10>  C        0.0647465528     3.9737000329     2.3094740497
| 11>  C        0.5339597809     4.1050960378     0.8654350166
| 12>  C        1.6367390701     3.2681677693     0.3341017693
| 13>  C        1.3931764333     2.0381067761    -0.1104815222
| 14>  H        0.0648340324    -2.2514358140     0.2121099221
| 15>  H       -0.5547959219     1.7248507252    -0.9567922756
| 16>  H       -1.6949410029     3.8324452965     0.9231220184
| 17>  H       -0.3095371940     4.8611075205     2.8082675597
| 18>  H        0.5909002767     3.2673585496     2.9408378922
| 19>  H        0.4442629900     5.0952122988     0.4268231236
| 20>  H        2.6387158810     3.6873250102     0.3003311426
| 21>  H        2.1645092064     1.4036408107    -0.5319790953
| 22> *
| 23>
| 24>                          ****END OF INPUT****

CARTESIAN COORDINATES (ANGSTROEM)
---------------------------------
  C      0.040790   -1.191545    0.148905
  C      0.003591    0.006931    0.087011
  C     -0.014104    1.463621   -0.029574
  O     -0.736945    1.981407    1.093418
  C     -0.741354    3.379251    1.187691
  C      0.064747    3.973700    2.309474
  C      0.533960    4.105096    0.865435
  C      1.636739    3.268168    0.334102
  C      1.393176    2.038107   -0.110482
  H      0.064834   -2.251436    0.212110
  H     -0.554796    1.724851   -0.956792
  H     -1.694941    3.832445    0.923122
  H     -0.309537    4.861108    2.808268
  H      0.590900    3.267359    2.940838
  H      0.444263    5.095212    0.426823
  H      2.638716    3.687325    0.300331
  H      2.164509    1.403641   -0.531979

 Total Charge           Charge          ....    0
 Multiplicity           Mult            ....    1
 Number of Electrons    NEL             ....   64
 Basis Dimension        Dim             ....  327

ORBITAL ENERGIES
----------------

  NO   OCC          E(Eh)            E(eV)
   0   2.0000     -20.566867      -559.6529
   1   2.0000     -11.317894      -307.9756
   2   2.0000     -11.286756      -307.1282
   3   2.0000     -11.243740      -305.9577
   4   2.0000     -11.241249      -305.8899
   5   2.0000     -11.237609      -305.7909
   6   2.0000     -11.234619      -305.7095
   7   2.0000     -11.232201      -305.6437
   8   2.0000     -11.227186      -305.5073
   9   2.0000      -1.391669       -37.8692
  10   2.0000      -1.148939       -31.2642
  11   2.0000      -1.092645       -29.7324
  12   2.0000      -1.028433       -27.9851
  13   2.0000      -0.938962       -25.5505
  14   2.0000      -0.861243       -23.4356
  15   2.0000      -0.822188       -22.3729
  16   2.0000      -0.742473       -20.2037
  17   2.0000      -0.717363       -19.5204
  18   2.0000      -0.703729       -19.1494
  19   2.0000      -0.672377       -18.2963
  20   2.0000      -0.671042       -18.2600
  21   2.0000      -0.624283       -16.9876
  22   2.0000      -0.590099       -16.0574
  23   2.0000      -0.567225       -15.4350
  24   2.0000      -0.538615       -14.6564
  25   2.0000      -0.526008       -14.3134
  26   2.0000      -0.484159       -13.1746
  27   2.0000      -0.431348       -11.7376
  28   2.0000      -0.411915       -11.2088
  29   2.0000      -0.396887       -10.7998
  30   2.0000      -0.388044       -10.5592
  31   2.0000      -0.352620        -9.5953
  32   0.0000       0.131985         3.5915
  33   0.0000       0.147055         4.0016
  34   0.0000       0.163935         4.4609
  35   0.0000       0.167803         4.5661
  36   0.0000       0.174590         4.7508

MULLIKEN ATOMIC CHARGES
-----------------------
   0 C :   -0.083589
   1 C :   -0.037659
   2 C :   -0.006164
   3 O :   -0.280413
   4 C :    0.021509
   5 C :   -0.282209
   6 C :   -0.055245
   7 C :   -0.164335
   8 C :   -0.212424
   9 H :    0.194182
  10 H :    0.110726
  11 H :    0.115431
  12 H :    0.131053
  13 H :    0.146968
  14 H :    0.131773
  15 H :    0.132152
  16 H :    0.138245
Sum of atomic charges:   -0.0000000

LOEWDIN ATOMIC CHARGES
----------------------
   0 C :   -0.081040
   1 C :   -0.075565
   2 C :   -0.277051
   3 O :    0.220793
   4 C :   -0.277164
   5 C :   -0.190861
   6 C :   -0.199080
   7 C :   -0.144152
   8 C :   -0.128849
   9 H :    0.128286
  10 H :    0.163227
  11 H :    0.134263
  12 H :    0.132905
  13 H :    0.142541
  14 H :    0.154455
  15 H :    0.147346
  16 H :    0.149947

  Mayer bond orders larger than 0.1
B(  0-C ,  1-C ) :   2.5943 B(  0-C ,  2-C ) :  -0.1214 B(  0-C ,  9-H ) :   0.8923
B(  1-C ,  2-C ) :   1.1411 B(  2-C ,  3-O ) :   1.0124 B(  2-C ,  8-C ) :   0.9369
B(  2-C , 10-H ) :   0.9078 B(  3-O ,  4-C ) :   0.9821 B(  4-C ,  5-C ) :   0.8756
B(  4-C ,  6-C ) :   0.8877 B(  4-C , 11-H ) :   0.9475 B(  5-C ,  6-C ) :   0.8754
B(  5-C , 12-H ) :   0.9238 B(  5-C , 13-H ) :   0.9176 B(  6-C ,  7-C ) :   0.9219
B(  6-C , 14-H ) :   0.9187 B(  7-C ,  8-C ) :   1.7870 B(  7-C , 15-H ) :   0.9274
B(  8-C , 16-H ) :   0.9213

MP2 TOTAL ENERGY:     -383.937689491 Eh
FINAL SINGLE POINT ENERGY      -383.937689491443

DIPOLE MOMENT
-------------
                                X             Y             Z
Electronic contribution:     -1.19030      -3.67085      -0.97185
Nuclear contribution   :      1.46000       4.15243       0.67629
                        -----------------------------------------
Total Dipole Moment    :      0.26970       0.48158      -0.29556
                        -----------------------------------------
Magnitude (a.u.)       :      0.62611
Magnitude (Debye)      :      1.59145

                             ****ORCA TERMINATED NORMALLY****
TOTAL RUN TIME: 0 days 0 hours 17 minutes 3 seconds 745 msec
