                         Program Version 3.0.3 - RELEASE   -
|  1> ! RI-MP2 RIJK def2-TZVP def2-TZVP/C def2-TZVP/JK TIGHTSCF
|  2> % maxcore 2000
|  3> % mp2 density relaxed end
|  4> *xyz 0 1
|  5>  C        0.0355940356     1.5511610598     0.1295687250
|  6>  C       -0.0447278492     0.0662756004    -0.0929068610
|  7>  C        0.3880633039    -0.5667106242    -1.4371277829
|  8>  C       -0.7590018493    -1.6185649936    -1.2939475959
|  9>  O       -0.3515371745    -2.9030013816    -0.8488601222
| 10>  C       -0.3571120666    -2.9670006349     0.5779751840
| 11>  C       -0.6495521895    -1.5620095377     1.0860842953
| 12>  O        0.5062999382    -0.6902696148     1.0235606704
| 13>  C       -1.3239951062    -0.8268086273    -0.0818061527
| 14>  H        1.0839925927     1.8664812024     0.1800047439
| 15>  H       -0.4442953037     2.0963620941    -0.6893927382
| 16>  H       -0.4475191235     1.8320173949     1.0702185078
| 17>  H        0.2127674125     0.1057340982    -2.2831126787
| 18>  H        1.4049890818    -0.9617192278    -1.4806251782
| 19>  H       -1.3946129155    -1.7450886165    -2.1727983067
| 20>  H       -1.1327204982    -3.6716309411     0.9123674251
| 21>  H        0.6163671870    -3.3210783951     0.9361733613
| 22>  H       -1.1142784805    -1.5417040217     2.0767402418
| 23>  H       -2.3577970949    -0.4929092232    -0.0399106482
| 24> *
| 25>
| 26>                          ****END OF INPUT****

CARTESIAN COORDINATES (ANGSTROEM)
---------------------------------
  C      0.035594    1.551161    0.129569
  C     -0.044728    0.066276   -0.092907
  C      0.388063   -0.566711   -1.437128
  C     -0.759002   -1.618565   -1.293948
  O     -0.351537   -2.903001   -0.848860
  C     -0.357112   -2.967001    0.577975
  C     -0.649552   -1.562010    1.086084
  O      0.506300   -0.690270    1.023561
  C     -1.323995   -0.826809   -0.081806
  H      1.083993    1.866481    0.180005
  H     -0.444295    2.096362   -0.689393
  H     -0.447519    1.832017    1.070219
  H      0.212767    0.105734   -2.283113
  H      1.404989   -0.961719   -1.480625
  H     -1.394613   -1.745089   -2.172798
  H     -1.132720   -3.671631    0.912367
  H      0.616367   -3.321078    0.936173
  H     -1.114278   -1.541704    2.076740
  H     -2.357797   -0.492909   -0.039911

 Total Charge           Charge          ....    0
 Multiplicity           Mult            ....    1
 Number of Electrons    NEL             ....   68
 Basis Dimension        Dim             ....  339

ORBITAL ENERGIES
----------------

  NO   OCC          E(Eh)            E(eV)
   0   2.0000     -20.550833      -559.2166
   1   2.0000     -20.547855      -559.1356
   2   2.0000     -11.291180      -307.2486
   3   2.0000     -11.286613      -307.1244
   4   2.0000     -11.283242      -307.0326
   5   2.0000     -11.272738      -306.7468
   6   2.0000     -11.234076      -305.6947
   7   2.0000     -11.221089      -305.3413
   8   2.0000     -11.220867      -305.3353
   9   2.0000      -1.398364       -38.0514
  10   2.0000      -1.358199       -36.9585
  11   2.0000      -1.105886       -30.0927
  12   2.0000      -1.024623       -27.8814
  13   2.0000      -0.985736       -26.8232
  14   2.0000      -0.916655       -24.9434
  15   2.0000      -0.847062       -23.0497
  16   2.0000      -0.785243       -21.3676
  17   2.0000      -0.721178       -19.6243
  18   2.0000      -0.702500       -19.1160
  19   2.0000      -0.669410       -18.2156
  20   2.0000      -0.632433       -17.2094
  21   2.0000      -0.630479       -17.1562
  22   2.0000      -0.596959       -16.2441
  23   2.0000      -0.591989       -16.1088
  24   2.0000      -0.577915       -15.7259
  25   2.0000      -0.543025       -14.7764
  26   2.0000      -0.535168       -14.5627
  27   2.0000      -0.527631       -14.3576
  28   2.0000      -0.497373       -13.5342
  29   2.0000      -0.479289       -13.0421
  30   2.0000      -0.437471       -11.9042
  31   2.0000      -0.426508       -11.6059
  32   2.0000      -0.405172       -11.0253
  33   2.0000      -0.399441       -10.8693
  34   0.0000       0.137024         3.7286
  35   0.0000       0.153921         4.1884
  36   0.0000       0.168404         4.5825
  37   0.0000       0.180939         4.9236
  38   0.0000       0.189092         5.1455

MULLIKEN ATOMIC CHARGES
-----------------------
   0 C :   -0.401843
   1 C :    0.132473
   2 C :   -0.203630
   3 C :    0.040959
   4 O :   -0.323835
   5 C :   -0.018764
   6 C :   -0.013771
   7 O :   -0.326671
   8 C :   -0.071646
   9 H :    0.141920
  10 H :    0.126026
  11 H :    0.134091
  12 H :    0.110173
  13 H :    0.112176
  14 H :    0.108528
  15 H :    0.095743
  16 H :    0.109408
  17 H :    0.109763
  18 H :    0.138898
Sum of atomic charges:    0.0000000

LOEWDIN ATOMIC CHARGES
----------------------
   0 C :   -0.274499
   1 C :   -0.298824
   2 C :   -0.179078
   3 C :   -0.256889
   4 O :    0.165210
   5 C :   -0.280429
   6 C :   -0.256556
   7 O :    0.177069
   8 C :   -0.129698
   9 H :    0.135029
  10 H :    0.129649
  11 H :    0.130024
  12 H :    0.138898
  13 H :    0.136604
  14 H :    0.132619
  15 H :    0.125028
  16 H :    0.131586
  17 H :    0.137094
  18 H :    0.137165

  Mayer bond orders larger than 0.1
B(  0-C ,  1-C ) :   0.8936 B(  0-C ,  9-H ) :   0.9370 B(  0-C , 10-H ) :   0.9323
B(  0-C , 11-H ) :   0.9350 B(  1-C ,  2-C ) :   0.9680 B(  1-C ,  7-O ) :   0.9150
B(  1-C ,  8-C ) :   0.8995 B(  2-C ,  3-C ) :   0.9389 B(  2-C , 12-H ) :   0.9046
B(  2-C , 13-H ) :   0.8852 B(  3-C ,  4-O ) :   0.9566 B(  3-C ,  8-C ) :   0.9559
B(  3-C , 14-H ) :   0.9370 B(  4-O ,  5-C ) :   0.9453 B(  5-C ,  6-C ) :   0.9615
B(  5-C , 15-H ) :   0.9206 B(  5-C , 16-H ) :   0.9037 B(  6-C ,  7-O ) :   0.9442
B(  6-C ,  8-C ) :   0.9179 B(  6-C , 17-H ) :   0.9120 B(  8-C , 18-H ) :   0.8945

MP2 TOTAL ENERGY:     -422.298728513 Eh
FINAL SINGLE POINT ENERGY      -422.298728513354

DIPOLE MOMENT
-------------
                                X             Y             Z
Electronic contribution:      0.14834      -4.01235       0.50012
Nuclear contribution   :     -0.83702       4.50921      -0.49552
                        -----------------------------------------
Total Dipole Moment    :     -0.68869       0.49685       0.00460
                        -----------------------------------------
Magnitude (a.u.)       :      0.84922
Magnitude (Debye)      :      2.15855

                             ****ORCA TERMINATED NORMALLY****
TOTAL RUN TIME: 0 days 0 hours 18 minutes 5 seconds 756 msec
