                         Program Version 3.0.3 - RELEASE   -
|  1> ! RI-MP2 RIJK def2-TZVP def2-TZVP/C def2-TZVP/JK TIGHTSCF
|  2> % maxcore 2000
|  3> % mp2 density relaxed end
|  4> *xyz 0 1
|  5>  C        0.2071142447     1.5497225554     0.0770226289
|  6>  C        0.0227875535     0.0429848711    -0.0047729231
|  7>  C        0.6366006735    -0.5783175007    -1.2936037090
|  8>  N        1.1274356291    -1.9573988643    -1.0993721442
|  9>  C        0.2405101389    -2.6171050630    -0.0660746539
| 10>  C        1.0416392464    -1.8650546779     1.0216771567
| 11>  C        2.1812775066    -1.8934418184    -0.0154991488
| 12>  O        0.5852725400    -0.5310829877     1.1858107622
| 13>  H        1.2715032520     1.8049203140     0.0800654080
| 14>  H       -0.2666388033     2.0403356774    -0.7797044166
| 15>  H       -0.2432270585     1.9432846686     0.9926033017
| 16>  H       -1.0555353144    -0.1760334632    -0.0009391422
| 17>  H       -0.1228864930    -0.5759849689    -2.0844297556
| 18>  H        1.4794135663     0.0242503224    -1.6515907346
| 19>  H       -0.8322095276    -2.4360299382    -0.1645769540
| 20>  H        0.4273400898    -3.6943056811    -0.0556291108
| 21>  H        1.1732493366    -2.2840172010     2.0231312837
| 22>  H        2.7678658147    -2.8173890323    -0.0123783201
| 23>  H        2.8434284747    -1.0244363823    -0.0536941283
| 24> *
| 25>
| 26>                          ****END OF INPUT****

CARTESIAN COORDINATES (ANGSTROEM)
---------------------------------
  C      0.207114    1.549723    0.077023
  C      0.022788    0.042985   -0.004773
  C      0.636601   -0.578318   -1.293604
  N      1.127436   -1.957399   -1.099372
  C      0.240510   -2.617105   -0.066075
  C      1.041639   -1.865055    1.021677
  C      2.181278   -1.893442   -0.015499
  O      0.585273   -0.531083    1.185811
  H      1.271503    1.804920    0.080065
  H     -0.266639    2.040336   -0.779704
  H     -0.243227    1.943285    0.992603
  H     -1.055535   -0.176033   -0.000939
  H     -0.122886   -0.575985   -2.084430
  H      1.479414    0.024250   -1.651591
  H     -0.832210   -2.436030   -0.164577
  H      0.427340   -3.694306   -0.055629
  H      1.173249   -2.284017    2.023131
  H      2.767866   -2.817389   -0.012378
  H      2.843428   -1.024436   -0.053694

 Total Charge           Charge          ....    0
 Multiplicity           Mult            ....    1
 Number of Electrons    NEL             ....   62
 Basis Dimension        Dim             ....  314

ORBITAL ENERGIES
----------------

  NO   OCC          E(Eh)            E(eV)
   0   2.0000     -20.551458      -559.2336
   1   2.0000     -15.553610      -423.2353
   2   2.0000     -11.282962      -307.0250
   3   2.0000     -11.279522      -306.9314
   4   2.0000     -11.253115      -306.2128
   5   2.0000     -11.250111      -306.1311
   6   2.0000     -11.248500      -306.0873
   7   2.0000     -11.216026      -305.2036
   8   2.0000      -1.379676       -37.5429
   9   2.0000      -1.236564       -33.6486
  10   2.0000      -1.064531       -28.9674
  11   2.0000      -0.966117       -26.2894
  12   2.0000      -0.921749       -25.0821
  13   2.0000      -0.880417       -23.9574
  14   2.0000      -0.834160       -22.6986
  15   2.0000      -0.735868       -20.0240
  16   2.0000      -0.690436       -18.7877
  17   2.0000      -0.666830       -18.1454
  18   2.0000      -0.623739       -16.9728
  19   2.0000      -0.613757       -16.7012
  20   2.0000      -0.601283       -16.3617
  21   2.0000      -0.575337       -15.6557
  22   2.0000      -0.540274       -14.7016
  23   2.0000      -0.531705       -14.4684
  24   2.0000      -0.522621       -14.2213
  25   2.0000      -0.504067       -13.7164
  26   2.0000      -0.486008       -13.2249
  27   2.0000      -0.477031       -12.9807
  28   2.0000      -0.470264       -12.7965
  29   2.0000      -0.404178       -10.9982
  30   2.0000      -0.351629        -9.5683
  31   0.0000       0.138056         3.7567
  32   0.0000       0.161210         4.3868
  33   0.0000       0.161887         4.4052
  34   0.0000       0.176713         4.8086
  35   0.0000       0.192758         5.2452

MULLIKEN ATOMIC CHARGES
-----------------------
   0 C :   -0.393802
   1 C :    0.053187
   2 C :   -0.179697
   3 N :   -0.172558
   4 C :   -0.216122
   5 C :    0.102640
   6 C :   -0.207345
   7 O :   -0.311487
   8 H :    0.123754
   9 H :    0.126926
  10 H :    0.141402
  11 H :    0.080112
  12 H :    0.130109
  13 H :    0.119709
  14 H :    0.126863
  15 H :    0.127957
  16 H :    0.113370
  17 H :    0.119001
  18 H :    0.115981
Sum of atomic charges:   -0.0000000

LOEWDIN ATOMIC CHARGES
----------------------
   0 C :   -0.294859
   1 C :   -0.339561
   2 C :   -0.275561
   3 N :    0.070290
   4 C :   -0.234539
   5 C :   -0.306423
   6 C :   -0.233449
   7 O :    0.185155
   8 H :    0.124291
   9 H :    0.127485
  10 H :    0.127439
  11 H :    0.134268
  12 H :    0.135426
  13 H :    0.135122
  14 H :    0.126499
  15 H :    0.134557
  16 H :    0.128283
  17 H :    0.130824
  18 H :    0.124752

  Mayer bond orders larger than 0.1
B(  0-C ,  1-C ) :   0.9166 B(  0-C ,  8-H ) :   0.9344 B(  0-C ,  9-H ) :   0.9346
B(  0-C , 10-H ) :   0.9376 B(  1-C ,  2-C ) :   0.9060 B(  1-C ,  7-O ) :   0.9332
B(  1-C , 11-H ) :   0.9320 B(  2-C ,  3-N ) :   0.9501 B(  2-C , 12-H ) :   0.9268
B(  2-C , 13-H ) :   0.9323 B(  3-N ,  4-C ) :   0.9048 B(  3-N ,  6-C ) :   0.9008
B(  4-C ,  5-C ) :   0.9100 B(  4-C , 14-H ) :   0.9256 B(  4-C , 15-H ) :   0.9208
B(  5-C ,  6-C ) :   0.9201 B(  5-C ,  7-O ) :   0.9279 B(  5-C , 16-H ) :   0.9262
B(  6-C , 17-H ) :   0.9148 B(  6-C , 18-H ) :   0.9268

MP2 TOTAL ENERGY:     -364.407492013 Eh
FINAL SINGLE POINT ENERGY      -364.407492012849

DIPOLE MOMENT
-------------
                                X             Y             Z
Electronic contribution:      0.58593      -3.03560       1.48624
Nuclear contribution   :     -0.73933       3.05938      -1.45067
                        -----------------------------------------
Total Dipole Moment    :     -0.15340       0.02378       0.03556
                        -----------------------------------------
Magnitude (a.u.)       :      0.15925
Magnitude (Debye)      :      0.40479

                             ****ORCA TERMINATED NORMALLY****
TOTAL RUN TIME: 0 days 0 hours 13 minutes 30 seconds 729 msec
