                         Program Version 3.0.3 - RELEASE   -
|  1> ! RI-MP2 RIJK def2-TZVP def2-TZVP/C def2-TZVP/JK TIGHTSCF
|  2> % maxcore 2000
|  3> % mp2 density relaxed end
|  4> *xyz 0 1
|  5>  C       -0.1437888748     1.4155226128    -0.0725580391
|  6>  C        0.1013915106    -0.0764527210    -0.0435364914
|  7>  C        1.5264354868    -0.6254967819    -0.0539756463
|  8>  C        0.6841091802    -0.7172594432     1.1764535740
|  9>  O        0.9891508613     0.0437458808     2.3515768156
| 10>  C        0.5397326277    -1.0322137160     3.2112963460
| 11>  C        0.2268208762    -1.9007351292     1.9964013874
| 12>  C       -0.9223255055    -2.8312536334     1.7676939281
| 13>  C        0.4969951260    -3.3577578218     1.7892744572
| 14>  H        0.5703988741     1.9378800363     0.5697691142
| 15>  H       -0.0495949208     1.8144924594    -1.0882915092
| 16>  H       -1.1483032617     1.6557417382     0.2922368432
| 17>  H       -0.6326906732    -0.6754991818    -0.5794722935
| 18>  H        1.7405785435    -1.5298448275    -0.6156370056
| 19>  H        2.3373344115     0.0964433566    -0.0318815597
| 20>  H        1.3439759336    -1.3898350899     3.8658540717
| 21>  H       -0.3222204676    -0.7320758759     3.8203077408
| 22>  H       -1.5691010872    -3.0603925235     2.6089119209
| 23>  H       -1.4359678034    -2.7826076461     0.8125689510
| 24>  H        0.9444181911    -3.6636620783     0.8486965381
| 25>  H        0.8149085315    -3.9454110245     2.6449049366
| 26> *
| 27>
| 28>                          ****END OF INPUT****

CARTESIAN COORDINATES (ANGSTROEM)
---------------------------------
  C     -0.143789    1.415523   -0.072558
  C      0.101392   -0.076453   -0.043536
  C      1.526435   -0.625497   -0.053976
  C      0.684109   -0.717259    1.176454
  O      0.989151    0.043746    2.351577
  C      0.539733   -1.032214    3.211296
  C      0.226821   -1.900735    1.996401
  C     -0.922326   -2.831254    1.767694
  C      0.496995   -3.357758    1.789274
  H      0.570399    1.937880    0.569769
  H     -0.049595    1.814492   -1.088292
  H     -1.148303    1.655742    0.292237
  H     -0.632691   -0.675499   -0.579472
  H      1.740579   -1.529845   -0.615637
  H      2.337334    0.096443   -0.031882
  H      1.343976   -1.389835    3.865854
  H     -0.322220   -0.732076    3.820308
  H     -1.569101   -3.060393    2.608912
  H     -1.435968   -2.782608    0.812569
  H      0.944418   -3.663662    0.848697
  H      0.814909   -3.945411    2.644905

 Total Charge           Charge          ....    0
 Multiplicity           Mult            ....    1
 Number of Electrons    NEL             ....   68
 Basis Dimension        Dim             ....  351

ORBITAL ENERGIES
----------------

  NO   OCC          E(Eh)            E(eV)
   0   2.0000     -20.548406      -559.1505
   1   2.0000     -11.283852      -307.0492
   2   2.0000     -11.278790      -306.9115
   3   2.0000     -11.243655      -305.9554
   4   2.0000     -11.232588      -305.6543
   5   2.0000     -11.231933      -305.6364
   6   2.0000     -11.227448      -305.5144
   7   2.0000     -11.218590      -305.2733
   8   2.0000     -11.211166      -305.0713
   9   2.0000      -1.381514       -37.5929
  10   2.0000      -1.150395       -31.3038
  11   2.0000      -1.128584       -30.7103
  12   2.0000      -0.958390       -26.0791
  13   2.0000      -0.937733       -25.5170
  14   2.0000      -0.854516       -23.2526
  15   2.0000      -0.833615       -22.6838
  16   2.0000      -0.789226       -21.4759
  17   2.0000      -0.706660       -19.2292
  18   2.0000      -0.687089       -18.6967
  19   2.0000      -0.664712       -18.0877
  20   2.0000      -0.643633       -17.5141
  21   2.0000      -0.614449       -16.7200
  22   2.0000      -0.585841       -15.9415
  23   2.0000      -0.557848       -15.1798
  24   2.0000      -0.544770       -14.8240
  25   2.0000      -0.526899       -14.3376
  26   2.0000      -0.524841       -14.2817
  27   2.0000      -0.498210       -13.5570
  28   2.0000      -0.493841       -13.4381
  29   2.0000      -0.485757       -13.2181
  30   2.0000      -0.444712       -12.1012
  31   2.0000      -0.415408       -11.3038
  32   2.0000      -0.396187       -10.7808
  33   2.0000      -0.353826        -9.6281
  34   0.0000       0.142450         3.8763
  35   0.0000       0.153550         4.1783
  36   0.0000       0.163422         4.4469
  37   0.0000       0.166031         4.5179
  38   0.0000       0.184873         5.0307

MULLIKEN ATOMIC CHARGES
-----------------------
   0 C :   -0.424143
   1 C :   -0.085627
   2 C :   -0.301555
   3 C :    0.193850
   4 O :   -0.324561
   5 C :   -0.002222
   6 C :   -0.006907
   7 C :   -0.263635
   8 C :   -0.267701
   9 H :    0.146904
  10 H :    0.132178
  11 H :    0.129052
  12 H :    0.109639
  13 H :    0.125749
  14 H :    0.129603
  15 H :    0.097687
  16 H :    0.095937
  17 H :    0.130448
  18 H :    0.127724
  19 H :    0.127108
  20 H :    0.130473
Sum of atomic charges:   -0.0000000

LOEWDIN ATOMIC CHARGES
----------------------
   0 C :   -0.291799
   1 C :   -0.212796
   2 C :   -0.187066
   3 C :   -0.250799
   4 O :    0.172404
   5 C :   -0.210386
   6 C :   -0.200799
   7 C :   -0.202036
   8 C :   -0.200624
   9 H :    0.132178
  10 H :    0.124040
  11 H :    0.126094
  12 H :    0.147083
  13 H :    0.132891
  14 H :    0.141773
  15 H :    0.120647
  16 H :    0.120286
  17 H :    0.134633
  18 H :    0.134606
  19 H :    0.135089
  20 H :    0.134582

  Mayer bond orders larger than 0.1
B(  0-C ,  1-C ) :   0.8861 B(  0-C ,  9-H ) :   0.9332 B(  0-C , 10-H ) :   0.9404
B(  0-C , 11-H ) :   0.9400 B(  1-C ,  2-C ) :   0.9056 B(  1-C ,  3-C ) :   0.8332
B(  1-C , 12-H ) :   0.9161 B(  2-C ,  3-C ) :   0.8584 B(  2-C , 13-H ) :   0.9157
B(  2-C , 14-H ) :   0.9102 B(  3-C ,  4-O ) :   0.9916 B(  3-C ,  6-C ) :   0.9435
B(  4-O ,  5-C ) :   0.9447 B(  5-C ,  6-C ) :   0.9643 B(  5-C , 15-H ) :   0.9088
B(  5-C , 16-H ) :   0.9123 B(  6-C ,  7-C ) :   0.8327 B(  6-C ,  8-C ) :   0.8313
B(  7-C ,  8-C ) :   0.9308 B(  7-C , 17-H ) :   0.9221 B(  7-C , 18-H ) :   0.9224
B(  8-C , 19-H ) :   0.9224 B(  8-C , 20-H ) :   0.9223

MP2 TOTAL ENERGY:     -386.352782193 Eh
FINAL SINGLE POINT ENERGY      -386.352782192685

DIPOLE MOMENT
-------------
                                X             Y             Z
Electronic contribution:      1.66732      -0.09649       2.83484
Nuclear contribution   :     -1.96191      -0.50576      -2.90200
                        -----------------------------------------
Total Dipole Moment    :     -0.29459      -0.60225      -0.06716
                        -----------------------------------------
Magnitude (a.u.)       :      0.67379
Magnitude (Debye)      :      1.71265

                             ****ORCA TERMINATED NORMALLY****
TOTAL RUN TIME: 0 days 0 hours 17 minutes 43 seconds 884 msec
