                         Program Version 3.0.3 - RELEASE   -
|  1> ! RI-MP2 RIJK def2-TZVP def2-TZVP/C def2-TZVP/JK TIGHTSCF
|  2> % maxcore 2000
|  3> % mp2 density relaxed end
|  4> *xyz 0 1
|  5>  C        0.0731877512     1.5125212201    -0.0249293755
|  6>  C        0.0092119645    -0.0058767454     0.1663953736
|  7>  C       -1.3989475242    -0.5653454069    -0.0057659367
|  8>  C       -2.0546593542    -0.5593977647    -1.4388209834
|  9>  C       -2.2381691352    -2.0699266286    -1.3291929422
| 10>  N       -0.8874097834    -2.6599497366    -1.1234146126
| 11>  C       -1.5677217591    -2.0952071727     0.0339544224
| 12>  C       -3.3821836662    -2.8944369513    -1.7160050452
| 13>  O       -4.3552330825    -2.4939649720    -2.3104644533
| 14>  H        1.0954732334     1.8831461812     0.0967115936
| 15>  H       -0.2677974912     1.8022546776    -1.0246652756
| 16>  H       -0.5587734872     2.0334626361     0.7032300597
| 17>  H        0.6736130492    -0.5052380656    -0.5469263364
| 18>  H        0.3752313061    -0.2659741284     1.1685928166
| 19>  H       -2.0837775442    -0.1034364181     0.7126916174
| 20>  H       -3.0034267248    -0.0239984611    -1.4824620639
| 21>  H       -1.4109651931    -0.2413987863    -2.2618766623
| 22>  H       -0.9836732782    -3.6759780170    -1.0880958439
| 23>  H       -1.8167654768    -2.7124100270     0.8902635437
| 24>  H       -3.2954511842    -3.9594582932    -1.3875032261
| 25> *
| 26>
| 27>                          ****END OF INPUT****

CARTESIAN COORDINATES (ANGSTROEM)
---------------------------------
  C      0.073188    1.512521   -0.024929
  C      0.009212   -0.005877    0.166395
  C     -1.398948   -0.565345   -0.005766
  C     -2.054659   -0.559398   -1.438821
  C     -2.238169   -2.069927   -1.329193
  N     -0.887410   -2.659950   -1.123415
  C     -1.567722   -2.095207    0.033954
  C     -3.382184   -2.894437   -1.716005
  O     -4.355233   -2.493965   -2.310464
  H      1.095473    1.883146    0.096712
  H     -0.267797    1.802255   -1.024665
  H     -0.558773    2.033463    0.703230
  H      0.673613   -0.505238   -0.546926
  H      0.375231   -0.265974    1.168593
  H     -2.083778   -0.103436    0.712692
  H     -3.003427   -0.023998   -1.482462
  H     -1.410965   -0.241399   -2.261877
  H     -0.983673   -3.675978   -1.088096
  H     -1.816765   -2.712410    0.890264
  H     -3.295451   -3.959458   -1.387503

 Total Charge           Charge          ....    0
 Multiplicity           Mult            ....    1
 Number of Electrons    NEL             ....   68
 Basis Dimension        Dim             ....  345

ORBITAL ENERGIES
----------------

  NO   OCC          E(Eh)            E(eV)
   0   2.0000     -20.556431      -559.3689
   1   2.0000     -15.587790      -424.1653
   2   2.0000     -11.339356      -308.5596
   3   2.0000     -11.284961      -307.0794
   4   2.0000     -11.278640      -306.9074
   5   2.0000     -11.245078      -305.9941
   6   2.0000     -11.234675      -305.7111
   7   2.0000     -11.222088      -305.3685
   8   2.0000     -11.216459      -305.2154
   9   2.0000      -1.395304       -37.9681
  10   2.0000      -1.305679       -35.5293
  11   2.0000      -1.087973       -29.6053
  12   2.0000      -1.017794       -27.6956
  13   2.0000      -0.953093       -25.9350
  14   2.0000      -0.893742       -24.3200
  15   2.0000      -0.859396       -23.3854
  16   2.0000      -0.788521       -21.4567
  17   2.0000      -0.743501       -20.2317
  18   2.0000      -0.720751       -19.6126
  19   2.0000      -0.661243       -17.9933
  20   2.0000      -0.629541       -17.1307
  21   2.0000      -0.617965       -16.8157
  22   2.0000      -0.602002       -16.3813
  23   2.0000      -0.573482       -15.6052
  24   2.0000      -0.561470       -15.2784
  25   2.0000      -0.539129       -14.6705
  26   2.0000      -0.528816       -14.3898
  27   2.0000      -0.513925       -13.9846
  28   2.0000      -0.492730       -13.4079
  29   2.0000      -0.482040       -13.1170
  30   2.0000      -0.459214       -12.4959
  31   2.0000      -0.450684       -12.2637
  32   2.0000      -0.423896       -11.5348
  33   2.0000      -0.368556       -10.0289
  34   0.0000       0.115868         3.1529
  35   0.0000       0.127822         3.4782
  36   0.0000       0.142575         3.8797
  37   0.0000       0.166429         4.5288
  38   0.0000       0.169683         4.6173

MULLIKEN ATOMIC CHARGES
-----------------------
   0 C :   -0.391898
   1 C :   -0.261706
   2 C :    0.013550
   3 C :   -0.248055
   4 C :    0.129333
   5 N :   -0.362543
   6 C :   -0.102721
   7 C :    0.069616
   8 O :   -0.273047
   9 H :    0.136307
  10 H :    0.129652
  11 H :    0.121267
  12 H :    0.136488
  13 H :    0.109633
  14 H :    0.105184
  15 H :    0.143253
  16 H :    0.121165
  17 H :    0.220372
  18 H :    0.150252
  19 H :    0.053897
Sum of atomic charges:    0.0000000

LOEWDIN ATOMIC CHARGES
----------------------
   0 C :   -0.315872
   1 C :   -0.275443
   2 C :   -0.204621
   3 C :   -0.158361
   4 C :   -0.254268
   5 N :    0.051425
   6 C :   -0.181610
   7 C :   -0.295482
   8 O :    0.127864
   9 H :    0.122019
  10 H :    0.121709
  11 H :    0.120277
  12 H :    0.143597
  13 H :    0.138139
  14 H :    0.154286
  15 H :    0.144067
  16 H :    0.138852
  17 H :    0.176101
  18 H :    0.133525
  19 H :    0.113795

  Mayer bond orders larger than 0.1
B(  0-C ,  1-C ) :   0.9176 B(  0-C ,  9-H ) :   0.9416 B(  0-C , 10-H ) :   0.9408
B(  0-C , 11-H ) :   0.9366 B(  1-C ,  2-C ) :   0.8906 B(  1-C , 12-H ) :   0.9357
B(  1-C , 13-H ) :   0.9323 B(  2-C ,  3-C ) :   0.9932 B(  2-C ,  6-C ) :   0.8933
B(  2-C , 14-H ) :   0.9167 B(  3-C ,  4-C ) :   0.9230 B(  3-C , 15-H ) :   0.9228
B(  3-C , 16-H ) :   0.9017 B(  4-C ,  5-N ) :   0.8853 B(  4-C ,  6-C ) :   0.7673
B(  4-C ,  7-C ) :   0.9215 B(  5-N ,  6-C ) :   0.9900 B(  5-N , 17-H ) :   0.8635
B(  6-C , 18-H ) :   0.9055 B(  7-C ,  8-O ) :   1.9951 B(  7-C , 19-H ) :   0.9424

MP2 TOTAL ENERGY:     -402.425992175 Eh
FINAL SINGLE POINT ENERGY      -402.425992174836

DIPOLE MOMENT
-------------
                                X             Y             Z
Electronic contribution:     -6.94274      -8.20564      -4.04110
Nuclear contribution   :      7.55055       8.01618       4.98624
                        -----------------------------------------
Total Dipole Moment    :      0.60781      -0.18946       0.94513
                        -----------------------------------------
Magnitude (a.u.)       :      1.13956
Magnitude (Debye)      :      2.89654

                             ****ORCA TERMINATED NORMALLY****
TOTAL RUN TIME: 0 days 0 hours 29 minutes 10 seconds 447 msec
