                         Program Version 3.0.3 - RELEASE   -
|  1> ! RI-MP2 RIJK def2-TZVP def2-TZVP/C def2-TZVP/JK TIGHTSCF
|  2> % maxcore 2000
|  3> % mp2 density relaxed end
|  4> *xyz 0 1
|  5>  C       -0.3864845895     1.3361677308    -0.1989135144
|  6>  C        0.4485509377     0.0740693135    -0.1968065025
|  7>  C        1.9089932745     0.1076279491     0.1040229752
|  8>  N        0.9763939361    -0.5345610957     1.0257650760
|  9>  C        0.7397288060     0.0979613290     2.3182257895
| 10>  C        1.5920892020    -0.5617338556     3.3908862271
| 11>  C        1.3336499958    -2.0285001234     3.6403630169
| 12>  C        2.8935349602     0.0338882100     3.7292419079
| 13>  O        1.7534727342     0.2459828216     4.5665386558
| 14>  H        0.0198443456     2.1085686861     0.4584234477
| 15>  H       -0.4280441958     1.7512659579    -1.2114462898
| 16>  H       -1.4160810456     1.1301137676     0.1142800851
| 17>  H        0.1051763250    -0.6738927754    -0.9111129362
| 18>  H        2.6077691101    -0.5474676462    -0.4100161859
| 19>  H        2.3254479610     1.0719568975     0.3963780194
| 20>  H        0.9452150853     1.1791242110     2.3353370220
| 21>  H       -0.3183722527    -0.0383251596     2.5766076005
| 22>  H        1.4619846871    -2.5934853537     2.7136208125
| 23>  H        2.0109977983    -2.4203180106     4.4029960665
| 24>  H        0.3048207576    -2.1785050038     3.9867222062
| 25>  H        3.6763267621    -0.5918287396     4.1562633115
| 26>  H        3.2490934649     0.9136471895     3.1932727189
| 27> *
| 28>
| 29>                          ****END OF INPUT****

CARTESIAN COORDINATES (ANGSTROEM)
---------------------------------
  C     -0.386485    1.336168   -0.198914
  C      0.448551    0.074069   -0.196807
  C      1.908993    0.107628    0.104023
  N      0.976394   -0.534561    1.025765
  C      0.739729    0.097961    2.318226
  C      1.592089   -0.561734    3.390886
  C      1.333650   -2.028500    3.640363
  C      2.893535    0.033888    3.729242
  O      1.753473    0.245983    4.566539
  H      0.019844    2.108569    0.458423
  H     -0.428044    1.751266   -1.211446
  H     -1.416081    1.130114    0.114280
  H      0.105176   -0.673893   -0.911113
  H      2.607769   -0.547468   -0.410016
  H      2.325448    1.071957    0.396378
  H      0.945215    1.179124    2.335337
  H     -0.318372   -0.038325    2.576608
  H      1.461985   -2.593485    2.713621
  H      2.010998   -2.420318    4.402996
  H      0.304821   -2.178505    3.986722
  H      3.676327   -0.591829    4.156263
  H      3.249093    0.913647    3.193273

 Total Charge           Charge          ....    0
 Multiplicity           Mult            ....    1
 Number of Electrons    NEL             ....   70
 Basis Dimension        Dim             ....  357

ORBITAL ENERGIES
----------------

  NO   OCC          E(Eh)            E(eV)
   0   2.0000     -20.558700      -559.4307
   1   2.0000     -15.558801      -423.3765
   2   2.0000     -11.285397      -307.0913
   3   2.0000     -11.275047      -306.8096
   4   2.0000     -11.263511      -306.4957
   5   2.0000     -11.255518      -306.2782
   6   2.0000     -11.253904      -306.2343
   7   2.0000     -11.227044      -305.5034
   8   2.0000     -11.213115      -305.1244
   9   2.0000      -1.403801       -38.1994
  10   2.0000      -1.274749       -34.6877
  11   2.0000      -1.049663       -28.5628
  12   2.0000      -0.991692       -26.9853
  13   2.0000      -0.959668       -26.1139
  14   2.0000      -0.903341       -24.5812
  15   2.0000      -0.847405       -23.0591
  16   2.0000      -0.799758       -21.7625
  17   2.0000      -0.753911       -20.5150
  18   2.0000      -0.683202       -18.5909
  19   2.0000      -0.675494       -18.3811
  20   2.0000      -0.641454       -17.4549
  21   2.0000      -0.631326       -17.1792
  22   2.0000      -0.593336       -16.1455
  23   2.0000      -0.580362       -15.7924
  24   2.0000      -0.570511       -15.5244
  25   2.0000      -0.551401       -15.0044
  26   2.0000      -0.540843       -14.7171
  27   2.0000      -0.516860       -14.0645
  28   2.0000      -0.515741       -14.0340
  29   2.0000      -0.504417       -13.7259
  30   2.0000      -0.458632       -12.4800
  31   2.0000      -0.456317       -12.4170
  32   2.0000      -0.432022       -11.7559
  33   2.0000      -0.419087       -11.4039
  34   2.0000      -0.369925       -10.0662
  35   0.0000       0.136037         3.7017
  36   0.0000       0.155270         4.2251
  37   0.0000       0.161770         4.4020
  38   0.0000       0.171665         4.6712
  39   0.0000       0.191480         5.2104

MULLIKEN ATOMIC CHARGES
-----------------------
   0 C :   -0.392515
   1 C :   -0.022088
   2 C :   -0.201012
   3 N :   -0.225412
   4 C :   -0.151706
   5 C :    0.196902
   6 C :   -0.420047
   7 C :   -0.081325
   8 O :   -0.338948
   9 H :    0.128131
  10 H :    0.142154
  11 H :    0.134956
  12 H :    0.116059
  13 H :    0.128445
  14 H :    0.112750
  15 H :    0.116046
  16 H :    0.125188
  17 H :    0.150170
  18 H :    0.132752
  19 H :    0.128165
  20 H :    0.114424
  21 H :    0.106912
Sum of atomic charges:    0.0000000

LOEWDIN ATOMIC CHARGES
----------------------
   0 C :   -0.300824
   1 C :   -0.280938
   2 C :   -0.249401
   3 N :    0.115317
   4 C :   -0.253621
   5 C :   -0.349410
   6 C :   -0.267500
   7 C :   -0.249878
   8 O :    0.159774
   9 H :    0.124893
  10 H :    0.130885
  11 H :    0.127035
  12 H :    0.140789
  13 H :    0.122902
  14 H :    0.122857
  15 H :    0.132390
  16 H :    0.141959
  17 H :    0.134806
  18 H :    0.129347
  19 H :    0.130206
  20 H :    0.120341
  21 H :    0.118071

  Mayer bond orders larger than 0.1
B(  0-C ,  1-C ) :   0.9115 B(  0-C ,  9-H ) :   0.9346 B(  0-C , 10-H ) :   0.9314
B(  0-C , 11-H ) :   0.9379 B(  1-C ,  2-C ) :   0.9416 B(  1-C ,  3-N ) :   0.9006
B(  1-C , 12-H ) :   0.9235 B(  2-C ,  3-N ) :   0.8800 B(  2-C , 13-H ) :   0.9226
B(  2-C , 14-H ) :   0.9182 B(  3-N ,  4-C ) :   0.8780 B(  4-C ,  5-C ) :   0.8861
B(  4-C , 15-H ) :   0.9279 B(  4-C , 16-H ) :   0.9199 B(  5-C ,  6-C ) :   0.9168
B(  5-C ,  7-C ) :   0.9796 B(  5-C ,  8-O ) :   0.8954 B(  6-C , 17-H ) :   0.9304
B(  6-C , 18-H ) :   0.9349 B(  6-C , 19-H ) :   0.9347 B(  7-C ,  8-O ) :   0.8983
B(  7-C , 20-H ) :   0.9088 B(  7-C , 21-H ) :   0.9096

MP2 TOTAL ENERGY:     -403.605073760 Eh
FINAL SINGLE POINT ENERGY      -403.605073760467

DIPOLE MOMENT
-------------
                                X             Y             Z
Electronic contribution:      1.73251      -0.53024       3.93285
Nuclear contribution   :     -1.58112       0.67886      -4.73395
                        -----------------------------------------
Total Dipole Moment    :      0.15139       0.14861      -0.80110
                        -----------------------------------------
Magnitude (a.u.)       :      0.82871
Magnitude (Debye)      :      2.10642

                             ****ORCA TERMINATED NORMALLY****
TOTAL RUN TIME: 0 days 0 hours 18 minutes 45 seconds 292 msec
