                         Program Version 3.0.3 - RELEASE   -
|  1> ! RI-MP2 RIJK def2-TZVP def2-TZVP/C def2-TZVP/JK TIGHTSCF
|  2> % maxcore 2000
|  3> % mp2 density relaxed end
|  4> *xyz 0 1
|  5>  C        0.1019551318     1.4063473211    -0.0199401645
|  6>  N        0.1121728667    -0.0493299953    -0.0465804312
|  7>  C        0.5515317171    -0.6661886143     0.9517974064
|  8>  C        0.7377185308    -2.1352211450     1.2774932519
|  9>  O        2.1574845065    -2.4601749846     1.1522795216
| 10>  C        2.4676914577    -1.8492787379     2.4255290629
| 11>  C        2.5486597212    -0.3126836809     2.3111111201
| 12>  N        1.0314849173    -0.2201275576     2.2678305487
| 13>  C        0.9663097955    -1.6731387692     2.7390076654
| 14>  H        0.8654762797     1.7825188088    -0.7110190912
| 15>  H       -0.8648100106     1.7595797058    -0.3925101463
| 16>  H        0.2856912918     1.8282550788     0.9757358147
| 17>  H        0.0919926356    -2.9186073708     0.8805236362
| 18>  H        3.2195491900    -2.4131164445     2.9802890262
| 19>  H        2.9163833987     0.1640194661     3.2254071714
| 20>  H        3.0628992164     0.0992133073     1.4394721145
| 21>  H        0.3997820341    -1.9279058380     3.6303868130
| 22> *
| 23>
| 24>                          ****END OF INPUT****

CARTESIAN COORDINATES (ANGSTROEM)
---------------------------------
  C      0.101955    1.406347   -0.019940
  N      0.112173   -0.049330   -0.046580
  C      0.551532   -0.666189    0.951797
  C      0.737719   -2.135221    1.277493
  O      2.157485   -2.460175    1.152280
  C      2.467691   -1.849279    2.425529
  C      2.548660   -0.312684    2.311111
  N      1.031485   -0.220128    2.267831
  C      0.966310   -1.673139    2.739008
  H      0.865476    1.782519   -0.711019
  H     -0.864810    1.759580   -0.392510
  H      0.285691    1.828255    0.975736
  H      0.091993   -2.918607    0.880524
  H      3.219549   -2.413116    2.980289
  H      2.916383    0.164019    3.225407
  H      3.062899    0.099213    1.439472
  H      0.399782   -1.927906    3.630387

 Total Charge           Charge          ....    0
 Multiplicity           Mult            ....    1
 Number of Electrons    NEL             ....   66
 Basis Dimension        Dim             ....  327

ORBITAL ENERGIES
----------------

  NO   OCC          E(Eh)            E(eV)
   0   2.0000     -20.570749      -559.7585
   1   2.0000     -15.574839      -423.8129
   2   2.0000     -15.553476      -423.2316
   3   2.0000     -11.305509      -307.6385
   4   2.0000     -11.304659      -307.6154
   5   2.0000     -11.304200      -307.6029
   6   2.0000     -11.282897      -307.0232
   7   2.0000     -11.276315      -306.8441
   8   2.0000     -11.242743      -305.9306
   9   2.0000      -1.414746       -38.4972
  10   2.0000      -1.276707       -34.7410
  11   2.0000      -1.206827       -32.8394
  12   2.0000      -1.034141       -28.1404
  13   2.0000      -0.960359       -26.1327
  14   2.0000      -0.934854       -25.4387
  15   2.0000      -0.874254       -23.7897
  16   2.0000      -0.798177       -21.7195
  17   2.0000      -0.726389       -19.7660
  18   2.0000      -0.702149       -19.1064
  19   2.0000      -0.670233       -18.2380
  20   2.0000      -0.656741       -17.8708
  21   2.0000      -0.613871       -16.7043
  22   2.0000      -0.602437       -16.3932
  23   2.0000      -0.591522       -16.0961
  24   2.0000      -0.568389       -15.4667
  25   2.0000      -0.539981       -14.6936
  26   2.0000      -0.521683       -14.1957
  27   2.0000      -0.512505       -13.9460
  28   2.0000      -0.456249       -12.4152
  29   2.0000      -0.442614       -12.0441
  30   2.0000      -0.429948       -11.6995
  31   2.0000      -0.402553       -10.9540
  32   2.0000      -0.365547        -9.9470
  33   0.0000       0.132955         3.6179
  34   0.0000       0.146281         3.9805
  35   0.0000       0.159162         4.3310
  36   0.0000       0.169466         4.6114
  37   0.0000       0.188355         5.1254

MULLIKEN ATOMIC CHARGES
-----------------------
   0 C :   -0.270733
   1 N :   -0.192137
   2 C :    0.027950
   3 C :    0.046780
   4 O :   -0.308946
   5 C :    0.007343
   6 C :   -0.133556
   7 N :   -0.214926
   8 C :   -0.030374
   9 H :    0.138371
  10 H :    0.140250
  11 H :    0.132033
  12 H :    0.124537
  13 H :    0.124031
  14 H :    0.129845
  15 H :    0.128860
  16 H :    0.150673
Sum of atomic charges:   -0.0000000

LOEWDIN ATOMIC CHARGES
----------------------
   0 C :   -0.324990
   1 N :    0.106611
   2 C :   -0.293210
   3 C :   -0.187171
   4 O :    0.165647
   5 C :   -0.247143
   6 C :   -0.213969
   7 N :    0.128876
   8 C :   -0.144753
   9 H :    0.121115
  10 H :    0.119182
  11 H :    0.111820
  12 H :    0.133677
  13 H :    0.128045
  14 H :    0.134365
  15 H :    0.130187
  16 H :    0.131713

  Mayer bond orders larger than 0.1
B(  0-C ,  1-N ) :   0.8453 B(  0-C ,  9-H ) :   0.9271 B(  0-C , 10-H ) :   0.9365
B(  0-C , 11-H ) :   0.9230 B(  1-N ,  2-C ) :   2.0074 B(  2-C ,  3-C ) :   0.8707
B(  2-C ,  7-N ) :   0.9353 B(  3-C ,  4-O ) :   0.9211 B(  3-C ,  8-C ) :   0.9639
B(  3-C , 12-H ) :   0.9224 B(  4-O ,  5-C ) :   0.9778 B(  5-C ,  6-C ) :   0.9273
B(  5-C ,  8-C ) :   0.9561 B(  5-C , 13-H ) :   0.9210 B(  6-C ,  7-N ) :   0.8745
B(  6-C , 14-H ) :   0.9071 B(  6-C , 15-H ) :   0.9180 B(  7-N ,  8-C ) :   0.9594
B(  8-C , 16-H ) :   0.8925

MP2 TOTAL ENERGY:     -417.211631771 Eh
FINAL SINGLE POINT ENERGY      -417.211631770797

DIPOLE MOMENT
-------------
                                X             Y             Z
Electronic contribution:     -0.04159      -4.87540       0.40759
Nuclear contribution   :      0.34941       4.96382       0.51548
                        -----------------------------------------
Total Dipole Moment    :      0.30782       0.08842       0.92307
                        -----------------------------------------
Magnitude (a.u.)       :      0.97705
Magnitude (Debye)      :      2.48345

                             ****ORCA TERMINATED NORMALLY****
TOTAL RUN TIME: 0 days 0 hours 18 minutes 14 seconds 534 msec
