                         Program Version 3.0.3 - RELEASE   -
|  1> ! RI-MP2 RIJK def2-TZVP def2-TZVP/C def2-TZVP/JK TIGHTSCF
|  2> % maxcore 2000
|  3> % mp2 density relaxed end
|  4> *xyz 0 1
|  5>  C        0.0022676279     1.6319054363    -0.1922796990
|  6>  C       -0.0397645500     0.1363159686     0.1590890585
|  7>  C       -1.4251222124    -0.4310653420     0.1562840868
|  8>  C       -2.1429469875    -0.9660793486     1.1955151988
|  9>  O       -1.9034044920    -1.1850367381     2.5128458330
| 10>  N       -3.3625753606    -1.3352138436     0.6879733762
| 11>  C       -3.3440782030    -1.0092968567    -0.6449134446
| 12>  N       -2.2049239741    -0.4701700700    -0.9903656282
| 13>  H        1.0323358274     2.0006394876    -0.2313982199
| 14>  H       -0.4628878486     1.7984926434    -1.1673679967
| 15>  H       -0.5475031475     2.2250927372     0.5456510575
| 16>  H        0.5816680077    -0.4172179326    -0.5563836593
| 17>  H        0.4236607532    -0.0246449552     1.1432669313
| 18>  H       -1.0086265183    -0.8890188092     2.7084544927
| 19>  H       -4.1071303520    -1.7616292678     1.2134017900
| 20>  H       -4.1880245401    -1.1954384894    -1.2914321768
| 21> *
| 22>
| 23>                          ****END OF INPUT****

CARTESIAN COORDINATES (ANGSTROEM)
---------------------------------
  C      0.002268    1.631905   -0.192280
  C     -0.039765    0.136316    0.159089
  C     -1.425122   -0.431065    0.156284
  C     -2.142947   -0.966079    1.195515
  O     -1.903404   -1.185037    2.512846
  N     -3.362575   -1.335214    0.687973
  C     -3.344078   -1.009297   -0.644913
  N     -2.204924   -0.470170   -0.990366
  H      1.032336    2.000639   -0.231398
  H     -0.462888    1.798493   -1.167368
  H     -0.547503    2.225093    0.545651
  H      0.581668   -0.417218   -0.556384
  H      0.423661   -0.024645    1.143267
  H     -1.008627   -0.889019    2.708454
  H     -4.107130   -1.761629    1.213402
  H     -4.188025   -1.195438   -1.291432

 Total Charge           Charge          ....    0
 Multiplicity           Mult            ....    1
 Number of Electrons    NEL             ....   60
 Basis Dimension        Dim             ....  296

ORBITAL ENERGIES
----------------

  NO   OCC          E(Eh)            E(eV)
   0   2.0000     -20.604434      -560.6752
   1   2.0000     -15.613470      -424.8641
   2   2.0000     -15.540650      -422.8826
   3   2.0000     -11.319672      -308.0239
   4   2.0000     -11.289357      -307.1990
   5   2.0000     -11.233900      -305.6900
   6   2.0000     -11.227992      -305.5292
   7   2.0000     -11.207550      -304.9729
   8   2.0000      -1.427092       -38.8332
   9   2.0000      -1.327879       -36.1334
  10   2.0000      -1.165509       -31.7151
  11   2.0000      -1.048836       -28.5403
  12   2.0000      -0.975489       -26.5444
  13   2.0000      -0.865517       -23.5519
  14   2.0000      -0.829775       -22.5793
  15   2.0000      -0.798952       -21.7406
  16   2.0000      -0.738839       -20.1048
  17   2.0000      -0.685104       -18.6426
  18   2.0000      -0.638169       -17.3655
  19   2.0000      -0.629436       -17.1278
  20   2.0000      -0.604492       -16.4491
  21   2.0000      -0.586873       -15.9696
  22   2.0000      -0.564765       -15.3680
  23   2.0000      -0.548962       -14.9380
  24   2.0000      -0.516722       -14.0607
  25   2.0000      -0.494549       -13.4574
  26   2.0000      -0.487289       -13.2598
  27   2.0000      -0.429295       -11.6817
  28   2.0000      -0.392163       -10.6713
  29   2.0000      -0.294332        -8.0092
  30   0.0000       0.122294         3.3278
  31   0.0000       0.139614         3.7991
  32   0.0000       0.164556         4.4778
  33   0.0000       0.176252         4.7961
  34   0.0000       0.191518         5.2115

MULLIKEN ATOMIC CHARGES
-----------------------
   0 C :   -0.373029
   1 C :   -0.206898
   2 C :    0.050103
   3 C :    0.180897
   4 O :   -0.430610
   5 N :   -0.273919
   6 C :    0.035565
   7 N :   -0.313953
   8 H :    0.124920
   9 H :    0.147164
  10 H :    0.115949
  11 H :    0.127392
  12 H :    0.072235
  13 H :    0.342324
  14 H :    0.253576
  15 H :    0.148285
Sum of atomic charges:    0.0000000

LOEWDIN ATOMIC CHARGES
----------------------
   0 C :   -0.310217
   1 C :   -0.264189
   2 C :   -0.272708
   3 C :   -0.349685
   4 O :    0.060754
   5 N :    0.186324
   6 C :   -0.323819
   7 N :    0.107350
   8 H :    0.117445
   9 H :    0.128334
  10 H :    0.119284
  11 H :    0.146813
  12 H :    0.131311
  13 H :    0.198989
  14 H :    0.195614
  15 H :    0.128400

  Mayer bond orders larger than 0.1
B(  0-C ,  1-C ) :   0.9277 B(  0-C ,  8-H ) :   0.9374 B(  0-C ,  9-H ) :   0.9362
B(  0-C , 10-H ) :   0.9353 B(  1-C ,  2-C ) :   0.9063 B(  1-C , 11-H ) :   0.9338
B(  1-C , 12-H ) :   0.9429 B(  2-C ,  3-C ) :   1.4461 B(  2-C ,  7-N ) :   1.1957
B(  3-C ,  4-O ) :   1.1218 B(  3-C ,  5-N ) :   1.1532 B(  4-O , 13-H ) :   0.8255
B(  5-N ,  6-C ) :   1.1189 B(  5-N , 14-H ) :   0.8613 B(  6-C ,  7-N ) :   1.5920
B(  6-C , 15-H ) :   0.9279

MP2 TOTAL ENERGY:     -379.327145226 Eh
FINAL SINGLE POINT ENERGY      -379.327145225797

DIPOLE MOMENT
-------------
                                X             Y             Z
Electronic contribution:     -5.86141      -5.29701       1.79968
Nuclear contribution   :      5.62602       4.97060      -0.86571
                        -----------------------------------------
Total Dipole Moment    :     -0.23539      -0.32642       0.93397
                        -----------------------------------------
Magnitude (a.u.)       :      1.01698
Magnitude (Debye)      :      2.58497

                             ****ORCA TERMINATED NORMALLY****
TOTAL RUN TIME: 0 days 0 hours 10 minutes 29 seconds 676 msec
