                         Program Version 3.0.3 - RELEASE   -
|  1> ! RI-MP2 RIJK def2-TZVP def2-TZVP/C def2-TZVP/JK TIGHTSCF
|  2> % maxcore 2000
|  3> % mp2 density relaxed end
|  4> *xyz 0 1
|  5>  C        0.0738134893     1.5931296435    -0.0470694968
|  6>  C       -0.0162274255     0.0702301304     0.0727529317
|  7>  N        0.6706936966    -0.6107349800    -1.0773858534
|  8>  C        1.5567031888    -1.7298874253    -0.6432680538
|  9>  C        1.5707217716    -1.4820671621     0.8201160275
| 10>  C        0.7306259940    -0.5200106826     1.2269556595
| 11>  N        0.8283473779    -0.3622661561     2.6011075606
| 12>  C        1.7218554213    -1.2422869005     2.9309118045
| 13>  O        2.2366794365    -1.9778481926     1.8942151604
| 14>  H        1.1197014292     1.9065424692    -0.1028356668
| 15>  H       -0.4368732471     1.9378288704    -0.9513913297
| 16>  H       -0.3939546076     2.0726220774     0.8190006284
| 17>  H       -1.0804627301    -0.2131663177     0.1156727022
| 18>  H       -0.0029495263    -0.9318527531    -1.7590832179
| 19>  H        1.1529133500    -2.7219598006    -0.9002256992
| 20>  H        2.5461984126    -1.6530532651    -1.1143884707
| 21>  H        2.1100010188    -1.4700776451     3.9110070735
| 22> *
| 23>
| 24>                          ****END OF INPUT****

CARTESIAN COORDINATES (ANGSTROEM)
---------------------------------
  C      0.073813    1.593130   -0.047069
  C     -0.016227    0.070230    0.072753
  N      0.670694   -0.610735   -1.077386
  C      1.556703   -1.729887   -0.643268
  C      1.570722   -1.482067    0.820116
  C      0.730626   -0.520011    1.226956
  N      0.828347   -0.362266    2.601108
  C      1.721855   -1.242287    2.930912
  O      2.236679   -1.977848    1.894215
  H      1.119701    1.906542   -0.102836
  H     -0.436873    1.937829   -0.951391
  H     -0.393955    2.072622    0.819001
  H     -1.080463   -0.213166    0.115673
  H     -0.002950   -0.931853   -1.759083
  H      1.152913   -2.721960   -0.900226
  H      2.546198   -1.653053   -1.114388
  H      2.110001   -1.470078    3.911007

 Total Charge           Charge          ....    0
 Multiplicity           Mult            ....    1
 Number of Electrons    NEL             ....   66
 Basis Dimension        Dim             ....  327

ORBITAL ENERGIES
----------------

  NO   OCC          E(Eh)            E(eV)
   0   2.0000     -20.641935      -561.6956
   1   2.0000     -15.572198      -423.7410
   2   2.0000     -15.552031      -423.1923
   3   2.0000     -11.336944      -308.4939
   4   2.0000     -11.280924      -306.9696
   5   2.0000     -11.276180      -306.8405
   6   2.0000     -11.271962      -306.7257
   7   2.0000     -11.245745      -306.0123
   8   2.0000     -11.210539      -305.0543
   9   2.0000      -1.485098       -40.4116
  10   2.0000      -1.245447       -33.8903
  11   2.0000      -1.217486       -33.1295
  12   2.0000      -1.035551       -28.1788
  13   2.0000      -1.025472       -27.9045
  14   2.0000      -0.916649       -24.9433
  15   2.0000      -0.866491       -23.5784
  16   2.0000      -0.803442       -21.8628
  17   2.0000      -0.777794       -21.1649
  18   2.0000      -0.708956       -19.2917
  19   2.0000      -0.680742       -18.5239
  20   2.0000      -0.655008       -17.8237
  21   2.0000      -0.621220       -16.9043
  22   2.0000      -0.605265       -16.4701
  23   2.0000      -0.593399       -16.1472
  24   2.0000      -0.562668       -15.3110
  25   2.0000      -0.553318       -15.0566
  26   2.0000      -0.529122       -14.3982
  27   2.0000      -0.506596       -13.7852
  28   2.0000      -0.497198       -13.5295
  29   2.0000      -0.455231       -12.3875
  30   2.0000      -0.452188       -12.3047
  31   2.0000      -0.384133       -10.4528
  32   2.0000      -0.322919        -8.7871
  33   0.0000       0.131337         3.5739
  34   0.0000       0.138259         3.7622
  35   0.0000       0.161359         4.3908
  36   0.0000       0.171881         4.6771
  37   0.0000       0.177598         4.8327

MULLIKEN ATOMIC CHARGES
-----------------------
   0 C :   -0.362210
   1 C :   -0.003656
   2 N :   -0.353450
   3 C :   -0.100481
   4 C :    0.087915
   5 C :    0.034994
   6 N :   -0.277768
   7 C :    0.098564
   8 O :   -0.218645
   9 H :    0.121665
  10 H :    0.123767
  11 H :    0.128784
  12 H :    0.104806
  13 H :    0.211401
  14 H :    0.123512
  15 H :    0.124445
  16 H :    0.156358
Sum of atomic charges:    0.0000000

LOEWDIN ATOMIC CHARGES
----------------------
   0 C :   -0.288090
   1 C :   -0.266804
   2 N :    0.013510
   3 C :   -0.245268
   4 C :   -0.240538
   5 C :   -0.215876
   6 N :    0.125044
   7 C :   -0.304906
   8 O :    0.344658
   9 H :    0.125598
  10 H :    0.121467
  11 H :    0.126981
  12 H :    0.144427
  13 H :    0.162740
  14 H :    0.130695
  15 H :    0.134529
  16 H :    0.131832

  Mayer bond orders larger than 0.1
B(  0-C ,  1-C ) :   0.8918 B(  0-C ,  9-H ) :   0.9365 B(  0-C , 10-H ) :   0.9368
B(  0-C , 11-H ) :   0.9298 B(  1-C ,  2-N ) :   0.9315 B(  1-C ,  5-C ) :   0.9117
B(  1-C , 12-H ) :   0.9325 B(  2-N ,  3-C ) :   0.9570 B(  2-N , 13-H ) :   0.8816
B(  3-C ,  4-C ) :   0.9550 B(  3-C , 14-H ) :   0.9140 B(  3-C , 15-H ) :   0.9116
B(  4-C ,  5-C ) :   1.5223 B(  4-C ,  8-O ) :   1.0485 B(  5-C ,  6-N ) :   1.2088
B(  6-N ,  7-C ) :   1.6446 B(  7-C ,  8-O ) :   1.0645 B(  7-C , 16-H ) :   0.9292

MP2 TOTAL ENERGY:     -417.314605478 Eh
FINAL SINGLE POINT ENERGY      -417.314605478435

DIPOLE MOMENT
-------------
                                X             Y             Z
Electronic contribution:      3.02870      -4.79021       5.81870
Nuclear contribution   :     -3.11324       4.18322      -6.25853
                        -----------------------------------------
Total Dipole Moment    :     -0.08454      -0.60699      -0.43982
                        -----------------------------------------
Magnitude (a.u.)       :      0.75434
Magnitude (Debye)      :      1.91738

                             ****ORCA TERMINATED NORMALLY****
TOTAL RUN TIME: 0 days 0 hours 17 minutes 24 seconds 354 msec
