                         Program Version 3.0.3 - RELEASE   -
|  1> ! RI-MP2 RIJK def2-TZVP def2-TZVP/C def2-TZVP/JK TIGHTSCF
|  2> % maxcore 2000
|  3> % mp2 density relaxed end
|  4> *xyz 0 1
|  5>  O       -0.0161138039    -0.0185012676     0.3605258064
|  6>  C        0.0244225903     1.1625075212     0.0935166603
|  7>  C       -1.2634393943     1.9804145807     0.0141622107
|  8>  C       -1.2716198910     3.3161797712    -0.7616654437
|  9>  C       -0.6665134241     3.2216277971    -2.1412873209
| 10>  C        0.6054134408     2.9031003793    -2.3900878642
| 11>  C        1.6376429184     2.6006016130    -1.3677710184
| 12>  O        1.5365626358     3.1950100011    -0.0710785140
| 13>  C        1.3737715924     1.7819626752    -0.1472267746
| 14>  H       -2.0136106785     1.2907354165    -0.3863108761
| 15>  H       -1.5601461374     2.1734721917     1.0541647699
| 16>  H       -2.3116819596     3.6468641660    -0.8392368589
| 17>  H       -0.7383487760     4.0724018728    -0.1822281187
| 18>  H       -1.3181102326     3.4207113847    -2.9877999188
| 19>  H        0.9549902813     2.8476306070    -3.4171405322
| 20>  H        2.6601795936     2.5544308242    -1.7413223550
| 21>  H        2.1905222849     1.1856815060     0.2570748181
| 22> *
| 23>
| 24>                          ****END OF INPUT****

CARTESIAN COORDINATES (ANGSTROEM)
---------------------------------
  O     -0.016114   -0.018501    0.360526
  C      0.024423    1.162508    0.093517
  C     -1.263439    1.980415    0.014162
  C     -1.271620    3.316180   -0.761665
  C     -0.666513    3.221628   -2.141287
  C      0.605413    2.903100   -2.390088
  C      1.637643    2.600602   -1.367771
  O      1.536563    3.195010   -0.071079
  C      1.373772    1.781963   -0.147227
  H     -2.013611    1.290735   -0.386311
  H     -1.560146    2.173472    1.054165
  H     -2.311682    3.646864   -0.839237
  H     -0.738349    4.072402   -0.182228
  H     -1.318110    3.420711   -2.987800
  H      0.954990    2.847631   -3.417141
  H      2.660180    2.554431   -1.741322
  H      2.190522    1.185682    0.257075

 Total Charge           Charge          ....    0
 Multiplicity           Mult            ....    1
 Number of Electrons    NEL             ....   66
 Basis Dimension        Dim             ....  327

ORBITAL ENERGIES
----------------

  NO   OCC          E(Eh)            E(eV)
   0   2.0000     -20.592352      -560.3464
   1   2.0000     -20.551707      -559.2404
   2   2.0000     -11.340336      -308.5862
   3   2.0000     -11.313936      -307.8678
   4   2.0000     -11.304486      -307.6107
   5   2.0000     -11.250741      -306.1482
   6   2.0000     -11.247233      -306.0528
   7   2.0000     -11.245376      -306.0022
   8   2.0000     -11.242166      -305.9149
   9   2.0000      -1.438488       -39.1433
  10   2.0000      -1.394629       -37.9498
  11   2.0000      -1.111691       -30.2506
  12   2.0000      -1.040899       -28.3243
  13   2.0000      -0.983596       -26.7650
  14   2.0000      -0.916071       -24.9276
  15   2.0000      -0.884102       -24.0576
  16   2.0000      -0.774758       -21.0822
  17   2.0000      -0.742477       -20.2038
  18   2.0000      -0.715865       -19.4797
  19   2.0000      -0.650181       -17.6923
  20   2.0000      -0.646131       -17.5821
  21   2.0000      -0.635691       -17.2980
  22   2.0000      -0.630456       -17.1556
  23   2.0000      -0.595650       -16.2084
  24   2.0000      -0.562919       -15.3178
  25   2.0000      -0.544977       -14.8296
  26   2.0000      -0.535888       -14.5823
  27   2.0000      -0.520770       -14.1709
  28   2.0000      -0.499466       -13.5912
  29   2.0000      -0.472703       -12.8629
  30   2.0000      -0.462334       -12.5808
  31   2.0000      -0.416700       -11.3390
  32   2.0000      -0.360866        -9.8197
  33   0.0000       0.106684         2.9030
  34   0.0000       0.126811         3.4507
  35   0.0000       0.139010         3.7827
  36   0.0000       0.160283         4.3615
  37   0.0000       0.170909         4.6507

MULLIKEN ATOMIC CHARGES
-----------------------
   0 O :   -0.277275
   1 C :    0.176674
   2 C :   -0.241432
   3 C :   -0.163794
   4 C :   -0.141852
   5 C :   -0.244732
   6 C :    0.132431
   7 O :   -0.320508
   8 C :   -0.021538
   9 H :    0.143248
  10 H :    0.144877
  11 H :    0.129400
  12 H :    0.144087
  13 H :    0.130810
  14 H :    0.127458
  15 H :    0.141013
  16 H :    0.141134
Sum of atomic charges:    0.0000000

LOEWDIN ATOMIC CHARGES
----------------------
   0 O :    0.160369
   1 C :   -0.306920
   2 C :   -0.219715
   3 C :   -0.251685
   4 C :   -0.148842
   5 C :   -0.164964
   6 C :   -0.238208
   7 O :    0.191534
   8 C :   -0.227289
   9 H :    0.155602
  10 H :    0.160166
  11 H :    0.143251
  12 H :    0.153168
  13 H :    0.146181
  14 H :    0.151253
  15 H :    0.146617
  16 H :    0.149482

  Mayer bond orders larger than 0.1
B(  0-O ,  1-C ) :   1.9626 B(  1-C ,  2-C ) :   0.9190 B(  1-C ,  8-C ) :   0.8987
B(  2-C ,  3-C ) :   0.8967 B(  2-C ,  9-H ) :   0.9264 B(  2-C , 10-H ) :   0.8985
B(  3-C ,  4-C ) :   0.9307 B(  3-C , 11-H ) :   0.9252 B(  3-C , 12-H ) :   0.9173
B(  4-C ,  5-C ) :   1.7961 B(  4-C , 13-H ) :   0.9266 B(  5-C ,  6-C ) :   0.9456
B(  5-C , 14-H ) :   0.9243 B(  6-C ,  7-O ) :   0.8808 B(  6-C ,  8-C ) :   0.9052
B(  6-C , 15-H ) :   0.9174 B(  7-O ,  8-C ) :   0.8952 B(  8-C , 16-H ) :   0.9283

MP2 TOTAL ENERGY:     -421.111370572 Eh
FINAL SINGLE POINT ENERGY      -421.111370572308

DIPOLE MOMENT
-------------
                                X             Y             Z
Electronic contribution:      3.51436      -2.57177       2.00244
Nuclear contribution   :     -3.64801       3.17817      -2.62082
                        -----------------------------------------
Total Dipole Moment    :     -0.13365       0.60640      -0.61838
                        -----------------------------------------
Magnitude (a.u.)       :      0.87634
Magnitude (Debye)      :      2.22749

                             ****ORCA TERMINATED NORMALLY****
TOTAL RUN TIME: 0 days 0 hours 17 minutes 52 seconds 995 msec
