                         Program Version 3.0.3 - RELEASE   -
|  1> ! RI-MP2 RIJK def2-TZVP def2-TZVP/C def2-TZVP/JK TIGHTSCF
|  2> % maxcore 2000
|  3> % mp2 density relaxed end
|  4> *xyz 0 1
|  5>  O        0.0402276002     0.0640899092     0.4186888498
|  6>  C        0.0176358965     1.2340135744     0.0989065990
|  7>  C       -1.3000620056     1.9670414119    -0.1476932499
|  8>  O       -1.2064980913     3.0517212457    -1.0443710819
|  9>  C       -0.1761624788     3.9652051752    -0.6957432319
| 10>  C        1.1928000511     3.3059281783    -0.8586074944
| 11>  C        1.2731206791     2.0546488153    -0.0037334676
| 12>  C        2.1258943141     1.9903863922     1.2344278927
| 13>  N        2.5364874858     1.3113056150     0.0118766586
| 14>  H       -2.0277051457     1.2597666007    -0.5520067636
| 15>  H       -1.6683729918     2.2997864837     0.8411519813
| 16>  H       -0.2851339792     4.8195153814    -1.3685019464
| 17>  H       -0.3171019433     4.3244537121     0.3378265894
| 18>  H        1.3287178194     3.0340090910    -1.9115211165
| 19>  H        1.9962688061     4.0015393611    -0.5953097201
| 20>  H        2.7088795818     2.8683066396     1.5012752619
| 21>  H        1.7655858039     1.3928442186     2.0671352992
| 22>  H        2.3020925876     0.3208909647     0.0956341503
| 23> *
| 24>
| 25>                          ****END OF INPUT****

CARTESIAN COORDINATES (ANGSTROEM)
---------------------------------
  O      0.040228    0.064090    0.418689
  C      0.017636    1.234014    0.098907
  C     -1.300062    1.967041   -0.147693
  O     -1.206498    3.051721   -1.044371
  C     -0.176162    3.965205   -0.695743
  C      1.192800    3.305928   -0.858607
  C      1.273121    2.054649   -0.003733
  C      2.125894    1.990386    1.234428
  N      2.536487    1.311306    0.011877
  H     -2.027705    1.259767   -0.552007
  H     -1.668373    2.299786    0.841152
  H     -0.285134    4.819515   -1.368502
  H     -0.317102    4.324454    0.337827
  H      1.328718    3.034009   -1.911521
  H      1.996269    4.001539   -0.595310
  H      2.708880    2.868307    1.501275
  H      1.765586    1.392844    2.067135
  H      2.302093    0.320891    0.095634

 Total Charge           Charge          ....    0
 Multiplicity           Mult            ....    1
 Number of Electrons    NEL             ....   68
 Basis Dimension        Dim             ....  333

ORBITAL ENERGIES
----------------

  NO   OCC          E(Eh)            E(eV)
   0   2.0000     -20.576585      -559.9173
   1   2.0000     -20.559126      -559.4422
   2   2.0000     -15.571622      -423.7254
   3   2.0000     -11.344129      -308.6894
   4   2.0000     -11.299789      -307.4829
   5   2.0000     -11.293032      -307.2990
   6   2.0000     -11.282650      -307.0165
   7   2.0000     -11.276125      -306.8390
   8   2.0000     -11.242400      -305.9213
   9   2.0000      -1.410736       -38.3881
  10   2.0000      -1.393394       -37.9162
  11   2.0000      -1.281419       -34.8692
  12   2.0000      -1.058635       -28.8069
  13   2.0000      -1.018519       -27.7153
  14   2.0000      -0.897751       -24.4290
  15   2.0000      -0.875295       -23.8180
  16   2.0000      -0.864815       -23.5328
  17   2.0000      -0.745894       -20.2968
  18   2.0000      -0.717965       -19.5368
  19   2.0000      -0.691764       -18.8239
  20   2.0000      -0.661519       -18.0008
  21   2.0000      -0.658167       -17.9096
  22   2.0000      -0.628190       -17.0939
  23   2.0000      -0.601387       -16.3646
  24   2.0000      -0.590731       -16.0746
  25   2.0000      -0.575138       -15.6503
  26   2.0000      -0.545678       -14.8487
  27   2.0000      -0.520761       -14.1706
  28   2.0000      -0.510641       -13.8953
  29   2.0000      -0.491262       -13.3679
  30   2.0000      -0.480006       -13.0616
  31   2.0000      -0.455240       -12.3877
  32   2.0000      -0.406750       -11.0682
  33   2.0000      -0.400452       -10.8969
  34   0.0000       0.115072         3.1313
  35   0.0000       0.136256         3.7077
  36   0.0000       0.155380         4.2281
  37   0.0000       0.166953         4.5430
  38   0.0000       0.173133         4.7112

MULLIKEN ATOMIC CHARGES
-----------------------
   0 O :   -0.312215
   1 C :    0.137343
   2 C :   -0.050458
   3 O :   -0.301497
   4 C :   -0.091800
   5 C :   -0.188543
   6 C :    0.088454
   7 C :   -0.189484
   8 N :   -0.357139
   9 H :    0.151525
  10 H :    0.115983
  11 H :    0.136718
  12 H :    0.103468
  13 H :    0.124220
  14 H :    0.124975
  15 H :    0.125615
  16 H :    0.143250
  17 H :    0.239585
Sum of atomic charges:    0.0000000

LOEWDIN ATOMIC CHARGES
----------------------
   0 O :    0.146900
   1 C :   -0.295407
   2 C :   -0.282350
   3 O :    0.159465
   4 C :   -0.305929
   5 C :   -0.220584
   6 C :   -0.283788
   7 C :   -0.225025
   8 N :    0.032653
   9 H :    0.145295
  10 H :    0.137786
  11 H :    0.133248
  12 H :    0.123384
  13 H :    0.150487
  14 H :    0.148255
  15 H :    0.128051
  16 H :    0.129536
  17 H :    0.178023

  Mayer bond orders larger than 0.1
B(  0-O ,  1-C ) :   1.8936 B(  1-C ,  2-C ) :   0.8874 B(  1-C ,  6-C ) :   0.9595
B(  2-C ,  3-O ) :   0.9504 B(  2-C ,  9-H ) :   0.9159 B(  2-C , 10-H ) :   0.9255
B(  3-O ,  4-C ) :   0.9071 B(  4-C ,  5-C ) :   0.9386 B(  4-C , 11-H ) :   0.9258
B(  4-C , 12-H ) :   0.9327 B(  5-C ,  6-C ) :   0.8792 B(  5-C , 13-H ) :   0.9141
B(  5-C , 14-H ) :   0.9207 B(  6-C ,  7-C ) :   0.8936 B(  6-C ,  8-N ) :   0.9165
B(  7-C ,  8-N ) :   0.9546 B(  7-C , 15-H ) :   0.9166 B(  7-C , 16-H ) :   0.9055
B(  8-N , 17-H ) :   0.8595

MP2 TOTAL ENERGY:     -438.359223355 Eh
FINAL SINGLE POINT ENERGY      -438.359223354697

DIPOLE MOMENT
-------------
                                X             Y             Z
Electronic contribution:     -1.47335      -4.19616      -0.81932
Nuclear contribution   :      1.41652       5.05898       1.30762
                        -----------------------------------------
Total Dipole Moment    :     -0.05683       0.86281       0.48831
                        -----------------------------------------
Magnitude (a.u.)       :      0.99303
Magnitude (Debye)      :      2.52409

                             ****ORCA TERMINATED NORMALLY****
TOTAL RUN TIME: 0 days 0 hours 16 minutes 27 seconds 674 msec
