                         Program Version 3.0.3 - RELEASE   -
|  1> ! RI-MP2 RIJK def2-TZVP def2-TZVP/C def2-TZVP/JK TIGHTSCF
|  2> % maxcore 2000
|  3> % mp2 density relaxed end
|  4> *xyz 0 1
|  5>  C        0.0032614335     1.4835229776     0.0348803722
|  6>  N       -0.0269902202     0.0284776933    -0.0243495562
|  7>  C       -1.1854652461    -0.6791125330    -0.1237899224
|  8>  C       -1.2020605836    -2.0364697398    -0.1130229254
|  9>  C        0.0432159031    -2.7713776876     0.0151272427
| 10>  O        0.1586648207    -3.9913211735     0.0369966953
| 11>  C        1.2033085123    -1.8662981503     0.1180939428
| 12>  N        1.1734301959    -0.5683710937     0.1036411724
| 13>  H        0.8363088351     1.8450725744    -0.5692931439
| 14>  H       -0.9328988481     1.8807943995    -0.3600318787
| 15>  H        0.1363542365     1.8298455220     1.0650050009
| 16>  H       -2.0840792328    -0.0793180401    -0.2158062171
| 17>  H       -2.1360682858    -2.5767209811    -0.2029478425
| 18>  H        2.1881142096    -2.3147786877     0.2150657600
| 19> *
| 20>
| 21>                          ****END OF INPUT****

CARTESIAN COORDINATES (ANGSTROEM)
---------------------------------
  C      0.003261    1.483523    0.034880
  N     -0.026990    0.028478   -0.024350
  C     -1.185465   -0.679113   -0.123790
  C     -1.202061   -2.036470   -0.113023
  C      0.043216   -2.771378    0.015127
  O      0.158665   -3.991321    0.036997
  C      1.203309   -1.866298    0.118094
  N      1.173430   -0.568371    0.103641
  H      0.836309    1.845073   -0.569293
  H     -0.932899    1.880794   -0.360032
  H      0.136354    1.829846    1.065005
  H     -2.084079   -0.079318   -0.215806
  H     -2.136068   -2.576721   -0.202948
  H      2.188114   -2.314779    0.215066

 Total Charge           Charge          ....    0
 Multiplicity           Mult            ....    1
 Number of Electrons    NEL             ....   58
 Basis Dimension        Dim             ....  284

ORBITAL ENERGIES
----------------

  NO   OCC          E(Eh)            E(eV)
   0   2.0000     -20.513802      -558.2089
   1   2.0000     -15.663521      -426.2261
   2   2.0000     -15.640340      -425.5953
   3   2.0000     -11.323846      -308.1375
   4   2.0000     -11.318944      -308.0041
   5   2.0000     -11.292552      -307.2860
   6   2.0000     -11.282980      -307.0255
   7   2.0000     -11.240626      -305.8730
   8   2.0000      -1.396527       -38.0014
   9   2.0000      -1.355505       -36.8852
  10   2.0000      -1.173323       -31.9277
  11   2.0000      -1.096770       -29.8446
  12   2.0000      -0.977289       -26.5934
  13   2.0000      -0.908095       -24.7105
  14   2.0000      -0.867796       -23.6139
  15   2.0000      -0.738184       -20.0870
  16   2.0000      -0.725396       -19.7390
  17   2.0000      -0.676274       -18.4024
  18   2.0000      -0.673634       -18.3305
  19   2.0000      -0.620487       -16.8843
  20   2.0000      -0.608611       -16.5611
  21   2.0000      -0.586649       -15.9635
  22   2.0000      -0.574209       -15.6250
  23   2.0000      -0.573500       -15.6057
  24   2.0000      -0.514156       -13.9909
  25   2.0000      -0.498731       -13.5712
  26   2.0000      -0.428807       -11.6684
  27   2.0000      -0.402084       -10.9413
  28   2.0000      -0.329050        -8.9539
  29   0.0000       0.092032         2.5043
  30   0.0000       0.107633         2.9289
  31   0.0000       0.125810         3.4235
  32   0.0000       0.155894         4.2421
  33   0.0000       0.177874         4.8402

MULLIKEN ATOMIC CHARGES
-----------------------
   0 C :   -0.291745
   1 N :    0.105498
   2 C :   -0.053809
   3 C :   -0.223692
   4 C :    0.206821
   5 O :   -0.365991
   6 C :   -0.088891
   7 N :   -0.202105
   8 H :    0.167132
   9 H :    0.143570
  10 H :    0.154171
  11 H :    0.150945
  12 H :    0.147031
  13 H :    0.151066
Sum of atomic charges:    0.0000000

LOEWDIN ATOMIC CHARGES
----------------------
   0 C :   -0.269026
   1 N :    0.158380
   2 C :   -0.188056
   3 C :   -0.127637
   4 C :   -0.397368
   5 O :    0.081633
   6 C :   -0.182585
   7 N :    0.088825
   8 H :    0.130357
   9 H :    0.125777
  10 H :    0.124712
  11 H :    0.150313
  12 H :    0.156116
  13 H :    0.148559

  Mayer bond orders larger than 0.1
B(  0-C ,  1-N ) :   0.8711 B(  0-C ,  8-H ) :   0.9287 B(  0-C ,  9-H ) :   0.9282
B(  0-C , 10-H ) :   0.9263 B(  1-N ,  2-C ) :   1.1873 B(  1-N ,  7-N ) :   0.9499
B(  2-C ,  3-C ) :   1.4897 B(  2-C , 11-H ) :   0.8986 B(  3-C ,  4-C ) :   1.1043
B(  3-C , 12-H ) :   0.9181 B(  4-C ,  5-O ) :   1.8314 B(  4-C ,  6-C ) :   1.0211
B(  6-C ,  7-N ) :   1.6022 B(  6-C , 13-H ) :   0.9098

MP2 TOTAL ENERGY:     -378.096505299 Eh
FINAL SINGLE POINT ENERGY      -378.096505299408

DIPOLE MOMENT
-------------
                                X             Y             Z
Electronic contribution:      1.25337      -5.49472       0.02745
Nuclear contribution   :     -2.01055       7.74461      -0.10435
                        -----------------------------------------
Total Dipole Moment    :     -0.75718       2.24990      -0.07690
                        -----------------------------------------
Magnitude (a.u.)       :      2.37514
Magnitude (Debye)      :      6.03711

                             ****ORCA TERMINATED NORMALLY****
TOTAL RUN TIME: 0 days 0 hours 10 minutes 26 seconds 97 msec
