                         Program Version 3.0.3 - RELEASE   -
|  1> ! RI-MP2 RIJK def2-TZVP def2-TZVP/C def2-TZVP/JK TIGHTSCF
|  2> % maxcore 2000
|  3> % mp2 density relaxed end
|  4> *xyz 0 1
|  5>  C       -0.1402284446     1.5769534276    -0.0333837552
|  6>  C        0.0335015824     0.0687300900    -0.0114008096
|  7>  C        1.2041066629    -0.6443982975    -0.7399569648
|  8>  O        1.3723267221    -0.5841232673    -2.1076715785
|  9>  C        2.1764011786    -0.1578039103     0.3801835776
| 10>  C        0.8818990901    -0.6560527282     1.1062800185
| 11>  C        0.9156046861    -1.8940231670     0.1499347094
| 12>  C        0.6282563538    -0.6566166006     2.5138438657
| 13>  C        0.4057382343    -0.6434174359     3.6963738537
| 14>  H        0.7911807620     2.1280087031     0.1151770847
| 15>  H       -0.5588846657     1.8893530397    -0.9956990220
| 16>  H       -0.8394520785     1.8878278248     0.7498766766
| 17>  H       -0.9322773172    -0.4217527259    -0.1766984327
| 18>  H        2.1617223138    -1.0822098091    -2.3456208199
| 19>  H        3.0702355346    -0.7643594123     0.5500792385
| 20>  H        2.4043718815     0.9060195312     0.4390647673
| 21>  H       -0.0357921361    -2.4068304139    -0.0098930684
| 22>  H        1.7402277461    -2.5936764804     0.3097607598
| 23>  H        0.2121069437    -0.6358796780     4.7401816291
| 24> *
| 25>
| 26>                          ****END OF INPUT****

CARTESIAN COORDINATES (ANGSTROEM)
---------------------------------
  C     -0.140228    1.576953   -0.033384
  C      0.033502    0.068730   -0.011401
  C      1.204107   -0.644398   -0.739957
  O      1.372327   -0.584123   -2.107672
  C      2.176401   -0.157804    0.380184
  C      0.881899   -0.656053    1.106280
  C      0.915605   -1.894023    0.149935
  C      0.628256   -0.656617    2.513844
  C      0.405738   -0.643417    3.696374
  H      0.791181    2.128009    0.115177
  H     -0.558885    1.889353   -0.995699
  H     -0.839452    1.887828    0.749877
  H     -0.932277   -0.421753   -0.176698
  H      2.161722   -1.082210   -2.345621
  H      3.070236   -0.764359    0.550079
  H      2.404372    0.906020    0.439065
  H     -0.035792   -2.406830   -0.009893
  H      1.740228   -2.593676    0.309761
  H      0.212107   -0.635880    4.740182

 Total Charge           Charge          ....    0
 Multiplicity           Mult            ....    1
 Number of Electrons    NEL             ....   66
 Basis Dimension        Dim             ....  339

ORBITAL ENERGIES
----------------

  NO   OCC          E(Eh)            E(eV)
   0   2.0000     -20.571054      -559.7668
   1   2.0000     -11.304696      -307.6164
   2   2.0000     -11.271746      -306.7198
   3   2.0000     -11.243116      -305.9407
   4   2.0000     -11.237947      -305.8001
   5   2.0000     -11.237388      -305.7849
   6   2.0000     -11.234041      -305.6938
   7   2.0000     -11.223266      -305.4006
   8   2.0000     -11.214187      -305.1536
   9   2.0000      -1.384366       -37.6705
  10   2.0000      -1.216816       -33.1112
  11   2.0000      -1.033277       -28.1169
  12   2.0000      -1.000382       -27.2218
  13   2.0000      -0.921627       -25.0787
  14   2.0000      -0.883095       -24.0302
  15   2.0000      -0.859766       -23.3954
  16   2.0000      -0.766227       -20.8501
  17   2.0000      -0.719089       -19.5674
  18   2.0000      -0.699145       -19.0247
  19   2.0000      -0.650880       -17.7113
  20   2.0000      -0.625139       -17.0109
  21   2.0000      -0.613586       -16.6965
  22   2.0000      -0.576490       -15.6871
  23   2.0000      -0.569022       -15.4839
  24   2.0000      -0.535984       -14.5849
  25   2.0000      -0.507871       -13.8199
  26   2.0000      -0.501461       -13.6455
  27   2.0000      -0.479257       -13.0413
  28   2.0000      -0.474610       -12.9148
  29   2.0000      -0.443977       -12.0812
  30   2.0000      -0.425265       -11.5721
  31   2.0000      -0.372192       -10.1279
  32   2.0000      -0.370767       -10.0891
  33   0.0000       0.132708         3.6112
  34   0.0000       0.143012         3.8915
  35   0.0000       0.161382         4.3914
  36   0.0000       0.163774         4.4565
  37   0.0000       0.166713         4.5365

MULLIKEN ATOMIC CHARGES
-----------------------
   0 C :   -0.421970
   1 C :    0.012823
   2 C :    0.119904
   3 O :   -0.451190
   4 C :   -0.192436
   5 C :   -0.336313
   6 C :   -0.150114
   7 C :    0.068774
   8 C :   -0.135443
   9 H :    0.121994
  10 H :    0.143839
  11 H :    0.140151
  12 H :    0.096283
  13 H :    0.325080
  14 H :    0.113727
  15 H :    0.122067
  16 H :    0.116729
  17 H :    0.117285
  18 H :    0.188810
Sum of atomic charges:    0.0000000

LOEWDIN ATOMIC CHARGES
----------------------
   0 C :   -0.287382
   1 C :   -0.150404
   2 C :   -0.330633
   3 O :    0.029451
   4 C :   -0.144252
   5 C :   -0.183677
   6 C :   -0.144775
   7 C :   -0.072831
   8 C :   -0.088850
   9 H :    0.123914
  10 H :    0.131532
  11 H :    0.130156
  12 H :    0.152250
  13 H :    0.185567
  14 H :    0.130872
  15 H :    0.129154
  16 H :    0.132961
  17 H :    0.130310
  18 H :    0.126637

  Mayer bond orders larger than 0.1
B(  0-C ,  1-C ) :   0.9166 B(  0-C ,  9-H ) :   0.9303 B(  0-C , 10-H ) :   0.9368
B(  0-C , 11-H ) :   0.9361 B(  1-C ,  2-C ) :   0.9052 B(  1-C ,  5-C ) :   0.8277
B(  1-C , 12-H ) :   0.9220 B(  2-C ,  3-O ) :   1.0283 B(  2-C ,  4-C ) :   0.8751
B(  2-C ,  6-C ) :   0.8844 B(  3-O , 13-H ) :   0.8342 B(  4-C ,  5-C ) :   0.8971
B(  4-C , 14-H ) :   0.9189 B(  4-C , 15-H ) :   0.9233 B(  5-C ,  6-C ) :   0.8940
B(  5-C ,  7-C ) :   1.1876 B(  5-C ,  8-C ) :  -0.1703 B(  6-C , 16-H ) :   0.9235
B(  6-C , 17-H ) :   0.9196 B(  7-C ,  8-C ) :   2.6659 B(  8-C , 18-H ) :   0.8689

MP2 TOTAL ENERGY:     -385.135709744 Eh
FINAL SINGLE POINT ENERGY      -385.135709744181

DIPOLE MOMENT
-------------
                                X             Y             Z
Electronic contribution:      0.80369      -2.76615       1.06966
Nuclear contribution   :     -0.41199       2.54668      -1.05579
                        -----------------------------------------
Total Dipole Moment    :      0.39170      -0.21947       0.01387
                        -----------------------------------------
Magnitude (a.u.)       :      0.44921
Magnitude (Debye)      :      1.14180

                             ****ORCA TERMINATED NORMALLY****
TOTAL RUN TIME: 0 days 0 hours 18 minutes 10 seconds 339 msec
