                         Program Version 3.0.3 - RELEASE   -
|  1> ! RI-MP2 RIJK def2-TZVP def2-TZVP/C def2-TZVP/JK TIGHTSCF
|  2> % maxcore 2000
|  3> % mp2 density relaxed end
|  4> *xyz 0 1
|  5>  O       -0.0089040361     1.4473624049    -0.2251515289
|  6>  C        0.0489670438     0.0422835213    -0.0236774773
|  7>  C       -1.3722037861    -0.5016924968    -0.0645432145
|  8>  C       -1.4325179970    -2.0262193842     0.1356208530
|  9>  C       -2.8271395755    -2.5807271473     0.0753998638
| 10>  C       -3.5554714411    -3.0841100886     1.1307418213
| 11>  N       -4.7870629586    -3.4682787160     0.6602485976
| 12>  C       -4.8637601986    -3.2207867104    -0.6860129644
| 13>  C       -3.6664834436    -2.6711940425    -1.0774338066
| 14>  H        0.8888056281     1.7908239900    -0.2005998351
| 15>  H        0.6566530554    -0.4465728668    -0.8036889131
| 16>  H        0.5137234204    -0.2014589215     0.9465787789
| 17>  H       -1.9670197119    -0.0022724427     0.7085649657
| 18>  H       -1.8232831985    -0.2321074038    -1.0263353799
| 19>  H       -0.8067658593    -2.5095704980    -0.6274825218
| 20>  H       -0.9826237857    -2.2823329938     1.1032174898
| 21>  H       -3.2953476143    -3.1999867308     2.1712394683
| 22>  H       -5.5171128398    -3.8757280569     1.2166143970
| 23>  H       -5.7541217120    -3.4586178195    -1.2456766796
| 24>  H       -3.4106404298    -2.3667114768    -2.0815060544
| 25> *
| 26>
| 27>                          ****END OF INPUT****

CARTESIAN COORDINATES (ANGSTROEM)
---------------------------------
  O     -0.008904    1.447362   -0.225152
  C      0.048967    0.042284   -0.023677
  C     -1.372204   -0.501692   -0.064543
  C     -1.432518   -2.026219    0.135621
  C     -2.827140   -2.580727    0.075400
  C     -3.555471   -3.084110    1.130742
  N     -4.787063   -3.468279    0.660249
  C     -4.863760   -3.220787   -0.686013
  C     -3.666483   -2.671194   -1.077434
  H      0.888806    1.790824   -0.200600
  H      0.656653   -0.446573   -0.803689
  H      0.513723   -0.201459    0.946579
  H     -1.967020   -0.002272    0.708565
  H     -1.823283   -0.232107   -1.026335
  H     -0.806766   -2.509570   -0.627483
  H     -0.982624   -2.282333    1.103217
  H     -3.295348   -3.199987    2.171239
  H     -5.517113   -3.875728    1.216614
  H     -5.754122   -3.458618   -1.245677
  H     -3.410640   -2.366711   -2.081506

 Total Charge           Charge          ....    0
 Multiplicity           Mult            ....    1
 Number of Electrons    NEL             ....   68
 Basis Dimension        Dim             ....  345

ORBITAL ENERGIES
----------------

  NO   OCC          E(Eh)            E(eV)
   0   2.0000     -20.549101      -559.1695
   1   2.0000     -15.598454      -424.4555
   2   2.0000     -11.268417      -306.6292
   3   2.0000     -11.248886      -306.0978
   4   2.0000     -11.242869      -305.9340
   5   2.0000     -11.220927      -305.3369
   6   2.0000     -11.210523      -305.0538
   7   2.0000     -11.209765      -305.0332
   8   2.0000     -11.202336      -304.8311
   9   2.0000      -1.352598       -36.8061
  10   2.0000      -1.285277       -34.9742
  11   2.0000      -1.077362       -29.3165
  12   2.0000      -1.020708       -27.7749
  13   2.0000      -0.976587       -26.5743
  14   2.0000      -0.907479       -24.6938
  15   2.0000      -0.805130       -21.9087
  16   2.0000      -0.784994       -21.3608
  17   2.0000      -0.740732       -20.1563
  18   2.0000      -0.722857       -19.6700
  19   2.0000      -0.682104       -18.5610
  20   2.0000      -0.649444       -17.6723
  21   2.0000      -0.597875       -16.2690
  22   2.0000      -0.582416       -15.8483
  23   2.0000      -0.578359       -15.7380
  24   2.0000      -0.563437       -15.3319
  25   2.0000      -0.562502       -15.3064
  26   2.0000      -0.529589       -14.4108
  27   2.0000      -0.512895       -13.9566
  28   2.0000      -0.501010       -13.6332
  29   2.0000      -0.470352       -12.7989
  30   2.0000      -0.467372       -12.7178
  31   2.0000      -0.436936       -11.8896
  32   2.0000      -0.334749        -9.1090
  33   2.0000      -0.292628        -7.9628
  34   0.0000       0.134592         3.6624
  35   0.0000       0.139166         3.7869
  36   0.0000       0.155250         4.2246
  37   0.0000       0.170430         4.6376
  38   0.0000       0.178305         4.8519

MULLIKEN ATOMIC CHARGES
-----------------------
   0 O :   -0.466517
   1 C :   -0.062330
   2 C :   -0.153006
   3 C :   -0.320567
   4 C :    0.154224
   5 C :   -0.161035
   6 N :   -0.253750
   7 C :   -0.055316
   8 C :   -0.282277
   9 H :    0.313334
  10 H :    0.088325
  11 H :    0.087990
  12 H :    0.113639
  13 H :    0.111832
  14 H :    0.121782
  15 H :    0.116311
  16 H :    0.139231
  17 H :    0.241543
  18 H :    0.143444
  19 H :    0.123145
Sum of atomic charges:   -0.0000000

LOEWDIN ATOMIC CHARGES
----------------------
   0 O :   -0.054241
   1 C :   -0.354981
   2 C :   -0.262706
   3 C :   -0.229441
   4 C :   -0.193320
   5 C :   -0.219381
   6 N :    0.176143
   7 C :   -0.242514
   8 C :   -0.176666
   9 H :    0.170370
  10 H :    0.112814
  11 H :    0.112611
  12 H :    0.140662
  13 H :    0.140511
  14 H :    0.143953
  15 H :    0.143401
  16 H :    0.132705
  17 H :    0.189363
  18 H :    0.130923
  19 H :    0.139794

  Mayer bond orders larger than 0.1
B(  0-O ,  1-C ) :   1.0206 B(  0-O ,  9-H ) :   0.8505 B(  1-C ,  2-C ) :   0.9317
B(  1-C , 10-H ) :   0.9312 B(  1-C , 11-H ) :   0.9319 B(  2-C ,  3-C ) :   0.9141
B(  2-C , 12-H ) :   0.9244 B(  2-C , 13-H ) :   0.9270 B(  3-C ,  4-C ) :   0.8737
B(  3-C , 14-H ) :   0.9283 B(  3-C , 15-H ) :   0.9414 B(  4-C ,  5-C ) :   1.4635
B(  4-C ,  8-C ) :   1.2386 B(  5-C ,  6-N ) :   1.1532 B(  5-C , 16-H ) :   0.9069
B(  6-N ,  7-C ) :   1.1222 B(  6-N , 17-H ) :   0.8788 B(  7-C ,  8-C ) :   1.5027
B(  7-C , 18-H ) :   0.9184 B(  8-C , 19-H ) :   0.9342

MP2 TOTAL ENERGY:     -402.488869453 Eh
FINAL SINGLE POINT ENERGY      -402.488869453023

DIPOLE MOMENT
-------------
                                X             Y             Z
Electronic contribution:     -4.70259      -2.29676       0.31394
Nuclear contribution   :      4.67691       1.68646       0.17742
                        -----------------------------------------
Total Dipole Moment    :     -0.02568      -0.61030       0.49136
                        -----------------------------------------
Magnitude (a.u.)       :      0.78394
Magnitude (Debye)      :      1.99261

                             ****ORCA TERMINATED NORMALLY****
TOTAL RUN TIME: 0 days 0 hours 15 minutes 29 seconds 181 msec
