                         Program Version 3.0.3 - RELEASE   -
|  1> ! RI-MP2 RIJK def2-TZVP def2-TZVP/C def2-TZVP/JK TIGHTSCF
|  2> % maxcore 2000
|  3> % mp2 density relaxed end
|  4> *xyz 0 1
|  5>  C       -0.1649802321     1.5107189652     0.0471598107
|  6>  C        0.1012610432     0.0027832541     0.1184426583
|  7>  C        0.7386922222    -0.5367100640    -1.1595375304
|  8>  C        0.8862874244    -2.0558847565    -1.3631572835
|  9>  N       -0.4803783290    -2.5999854910    -1.3620971277
| 10>  C        0.0928539309    -2.0498266363    -2.6442192782
| 11>  C        0.1602555522    -2.8557992584    -3.9020042668
| 12>  C       -0.0736627929    -0.5485207541    -2.4934961051
| 13>  O       -0.5008832777     0.3111224983    -3.2099381256
| 14>  H        0.7673022038     2.0737891197    -0.0744248364
| 15>  H       -0.8099163372     1.7561054227    -0.8014274145
| 16>  H       -0.6512773231     1.8653894400     0.9609464963
| 17>  H        0.7626061214    -0.2189451494     0.9663252757
| 18>  H       -0.8315371126    -0.5401331913     0.2986383290
| 19>  H        1.6859656916    -0.0216360826    -1.3702237014
| 20>  H        1.7455098482    -2.6700564774    -1.1238035876
| 21>  H       -0.4129888322    -3.6150928244    -1.4504215276
| 22>  H        0.5603513533    -3.8570182564    -3.7086753674
| 23>  H       -0.8335491676    -2.9679035880    -4.3483001599
| 24>  H        0.8031966231    -2.3684362803    -4.6414735078
| 25> *
| 26>
| 27>                          ****END OF INPUT****

CARTESIAN COORDINATES (ANGSTROEM)
---------------------------------
  C     -0.164980    1.510719    0.047160
  C      0.101261    0.002783    0.118443
  C      0.738692   -0.536710   -1.159538
  C      0.886287   -2.055885   -1.363157
  N     -0.480378   -2.599985   -1.362097
  C      0.092854   -2.049827   -2.644219
  C      0.160256   -2.855799   -3.902004
  C     -0.073663   -0.548521   -2.493496
  O     -0.500883    0.311122   -3.209938
  H      0.767302    2.073789   -0.074425
  H     -0.809916    1.756105   -0.801427
  H     -0.651277    1.865389    0.960946
  H      0.762606   -0.218945    0.966325
  H     -0.831537   -0.540133    0.298638
  H      1.685966   -0.021636   -1.370224
  H      1.745510   -2.670056   -1.123804
  H     -0.412989   -3.615093   -1.450422
  H      0.560351   -3.857018   -3.708675
  H     -0.833549   -2.967904   -4.348300
  H      0.803197   -2.368436   -4.641474

 Total Charge           Charge          ....    0
 Multiplicity           Mult            ....    1
 Number of Electrons    NEL             ....   68
 Basis Dimension        Dim             ....  345

ORBITAL ENERGIES
----------------

  NO   OCC          E(Eh)            E(eV)
   0   2.0000     -20.550325      -559.2028
   1   2.0000     -15.581011      -423.9809
   2   2.0000     -11.331780      -308.3534
   3   2.0000     -11.281729      -306.9914
   4   2.0000     -11.280357      -306.9541
   5   2.0000     -11.247617      -306.0632
   6   2.0000     -11.241127      -305.8866
   7   2.0000     -11.223715      -305.4128
   8   2.0000     -11.209052      -305.0138
   9   2.0000      -1.394542       -37.9474
  10   2.0000      -1.296719       -35.2855
  11   2.0000      -1.079403       -29.3720
  12   2.0000      -1.017732       -27.6939
  13   2.0000      -0.995882       -27.0993
  14   2.0000      -0.882904       -24.0250
  15   2.0000      -0.841200       -22.8902
  16   2.0000      -0.798477       -21.7277
  17   2.0000      -0.703718       -19.1491
  18   2.0000      -0.697090       -18.9688
  19   2.0000      -0.652379       -17.7521
  20   2.0000      -0.627642       -17.0790
  21   2.0000      -0.612383       -16.6638
  22   2.0000      -0.589913       -16.0523
  23   2.0000      -0.571704       -15.5569
  24   2.0000      -0.567014       -15.4292
  25   2.0000      -0.555678       -15.1208
  26   2.0000      -0.530549       -14.4370
  27   2.0000      -0.506244       -13.7756
  28   2.0000      -0.505003       -13.7418
  29   2.0000      -0.483618       -13.1599
  30   2.0000      -0.482674       -13.1342
  31   2.0000      -0.465115       -12.6564
  32   2.0000      -0.393410       -10.7052
  33   2.0000      -0.371003       -10.0955
  34   0.0000       0.122560         3.3350
  35   0.0000       0.139566         3.7978
  36   0.0000       0.153844         4.1863
  37   0.0000       0.163750         4.4559
  38   0.0000       0.169566         4.6141

MULLIKEN ATOMIC CHARGES
-----------------------
   0 C :   -0.399014
   1 C :   -0.235984
   2 C :    0.031638
   3 C :   -0.136397
   4 N :   -0.375352
   5 C :    0.135978
   6 C :   -0.393064
   7 C :    0.067958
   8 O :   -0.257003
   9 H :    0.116686
  10 H :    0.149654
  11 H :    0.131171
  12 H :    0.108853
  13 H :    0.140178
  14 H :    0.115759
  15 H :    0.149811
  16 H :    0.216589
  17 H :    0.130023
  18 H :    0.155558
  19 H :    0.146960
Sum of atomic charges:   -0.0000000

LOEWDIN ATOMIC CHARGES
----------------------
   0 C :   -0.313851
   1 C :   -0.269730
   2 C :   -0.183046
   3 C :   -0.192115
   4 N :    0.030848
   5 C :   -0.236924
   6 C :   -0.274091
   7 C :   -0.252930
   8 O :    0.164160
   9 H :    0.119775
  10 H :    0.127252
  11 H :    0.120556
  12 H :    0.136848
  13 H :    0.144946
  14 H :    0.164658
  15 H :    0.133167
  16 H :    0.174193
  17 H :    0.131065
  18 H :    0.137310
  19 H :    0.137910

  Mayer bond orders larger than 0.1
B(  0-C ,  1-C ) :   0.9164 B(  0-C ,  9-H ) :   0.9367 B(  0-C , 10-H ) :   0.9367
B(  0-C , 11-H ) :   0.9398 B(  1-C ,  2-C ) :   0.8801 B(  1-C , 12-H ) :   0.9351
B(  1-C , 13-H ) :   0.9322 B(  2-C ,  3-C ) :   0.8898 B(  2-C ,  5-C ) :  -0.1167
B(  2-C ,  7-C ) :   0.8902 B(  2-C , 14-H ) :   0.8953 B(  3-C ,  4-N ) :   1.0462
B(  3-C ,  5-C ) :   0.8617 B(  3-C , 15-H ) :   0.9061 B(  4-N ,  5-C ) :   0.8008
B(  4-N , 16-H ) :   0.8667 B(  5-C ,  6-C ) :   0.8955 B(  5-C ,  7-C ) :   0.8866
B(  6-C , 17-H ) :   0.9311 B(  6-C , 18-H ) :   0.9396 B(  6-C , 19-H ) :   0.9248
B(  7-C ,  8-O ) :   2.0393

MP2 TOTAL ENERGY:     -402.433785244 Eh
FINAL SINGLE POINT ENERGY      -402.433785244191

DIPOLE MOMENT
-------------
                                X             Y             Z
Electronic contribution:     -0.98337      -1.13525      -3.77341
Nuclear contribution   :      1.86212       0.03874       3.99770
                        -----------------------------------------
Total Dipole Moment    :      0.87875      -1.09652       0.22429
                        -----------------------------------------
Magnitude (a.u.)       :      1.42297
Magnitude (Debye)      :      3.61690

                             ****ORCA TERMINATED NORMALLY****
TOTAL RUN TIME: 0 days 0 hours 29 minutes 22 seconds 87 msec
