                         Program Version 3.0.3 - RELEASE   -
|  1> ! RI-MP2 RIJK def2-TZVP def2-TZVP/C def2-TZVP/JK TIGHTSCF
|  2> % maxcore 2000
|  3> % mp2 density relaxed end
|  4> *xyz 0 1
|  5>  O        0.0593193497    -0.0038742047     0.0709026047
|  6>  C       -0.0259581910     1.1909752478    -0.0397025991
|  7>  C       -1.3100302802     1.9936062454    -0.2816944819
|  8>  C       -0.8596868043     3.3482564116    -0.8716520405
|  9>  C        0.6368471850     3.4695999455    -0.5703586957
| 10>  C        1.0726185732     3.3664553590     0.8718804436
| 11>  C        0.1441878809     3.4743442756     1.9638701662
| 12>  N       -0.6049946878     3.5851958666     2.8385880240
| 13>  C        1.1420779805     2.1430559210    -0.0537989589
| 14>  H       -1.9738269930     1.4299392612    -0.9401011102
| 15>  H       -1.8282805631     2.1088874041     0.6757659746
| 16>  H       -0.9939931016     3.3543820473    -1.9572317579
| 17>  H       -1.4244867573     4.1934288216    -0.4686119364
| 18>  H        1.2495625718     4.0867227566    -1.2169339295
| 19>  H        2.0458283058     3.7887839601     1.1011839891
| 20>  H        2.1254994516     1.7391999914    -0.2571808322
| 21> *
| 22>
| 23>                          ****END OF INPUT****

CARTESIAN COORDINATES (ANGSTROEM)
---------------------------------
  O      0.059319   -0.003874    0.070903
  C     -0.025958    1.190975   -0.039703
  C     -1.310030    1.993606   -0.281694
  C     -0.859687    3.348256   -0.871652
  C      0.636847    3.469600   -0.570359
  C      1.072619    3.366455    0.871880
  C      0.144188    3.474344    1.963870
  N     -0.604995    3.585196    2.838588
  C      1.142078    2.143056   -0.053799
  H     -1.973827    1.429939   -0.940101
  H     -1.828281    2.108887    0.675766
  H     -0.993993    3.354382   -1.957232
  H     -1.424487    4.193429   -0.468612
  H      1.249563    4.086723   -1.216934
  H      2.045828    3.788784    1.101184
  H      2.125499    1.739200   -0.257181

 Total Charge           Charge          ....    0
 Multiplicity           Mult            ....    1
 Number of Electrons    NEL             ....   64
 Basis Dimension        Dim             ....  321

ORBITAL ENERGIES
----------------

  NO   OCC          E(Eh)            E(eV)
   0   2.0000     -20.558433      -559.4234
   1   2.0000     -15.581066      -423.9824
   2   2.0000     -11.346713      -308.7598
   3   2.0000     -11.307993      -307.7061
   4   2.0000     -11.287249      -307.1417
   5   2.0000     -11.286641      -307.1251
   6   2.0000     -11.279947      -306.9430
   7   2.0000     -11.260311      -306.4086
   8   2.0000     -11.249565      -306.1162
   9   2.0000      -1.403471       -38.1904
  10   2.0000      -1.243113       -33.8268
  11   2.0000      -1.209798       -32.9203
  12   2.0000      -1.067778       -29.0557
  13   2.0000      -0.961742       -26.1703
  14   2.0000      -0.939532       -25.5660
  15   2.0000      -0.831619       -22.6295
  16   2.0000      -0.776602       -21.1324
  17   2.0000      -0.726777       -19.7766
  18   2.0000      -0.679914       -18.5014
  19   2.0000      -0.664434       -18.0802
  20   2.0000      -0.637110       -17.3366
  21   2.0000      -0.611671       -16.6444
  22   2.0000      -0.590286       -16.0625
  23   2.0000      -0.569441       -15.4953
  24   2.0000      -0.564543       -15.3620
  25   2.0000      -0.526484       -14.3264
  26   2.0000      -0.521053       -14.1786
  27   2.0000      -0.510106       -13.8807
  28   2.0000      -0.494767       -13.4633
  29   2.0000      -0.448518       -12.2048
  30   2.0000      -0.432245       -11.7620
  31   2.0000      -0.414368       -11.2755
  32   0.0000       0.109447         2.9782
  33   0.0000       0.124479         3.3872
  34   0.0000       0.145722         3.9653
  35   0.0000       0.149601         4.0709
  36   0.0000       0.156669         4.2632

MULLIKEN ATOMIC CHARGES
-----------------------
   0 O :   -0.255511
   1 C :    0.109128
   2 C :   -0.220111
   3 C :   -0.259564
   4 C :   -0.067448
   5 C :   -0.046021
   6 C :   -0.191629
   7 N :   -0.054117
   8 C :   -0.087907
   9 H :    0.147315
  10 H :    0.171883
  11 H :    0.136965
  12 H :    0.142703
  13 H :    0.149417
  14 H :    0.167025
  15 H :    0.157872
Sum of atomic charges:    0.0000000

LOEWDIN ATOMIC CHARGES
----------------------
   0 O :    0.166842
   1 C :   -0.300232
   2 C :   -0.210379
   3 C :   -0.217101
   4 C :   -0.147476
   5 C :   -0.164013
   6 C :   -0.173356
   7 N :    0.069687
   8 C :   -0.116988
   9 H :    0.150883
  10 H :    0.160824
  11 H :    0.146345
  12 H :    0.145443
  13 H :    0.152360
  14 H :    0.179139
  15 H :    0.158024

  Mayer bond orders larger than 0.1
B(  0-O ,  1-C ) :   2.0353 B(  1-C ,  2-C ) :   0.9027 B(  1-C ,  8-C ) :   0.9304
B(  2-C ,  3-C ) :   0.9264 B(  2-C ,  8-C ) :  -0.1201 B(  2-C ,  9-H ) :   0.9093
B(  2-C , 10-H ) :   0.9006 B(  3-C ,  4-C ) :   0.9368 B(  3-C , 11-H ) :   0.9267
B(  3-C , 12-H ) :   0.9223 B(  4-C ,  5-C ) :   0.8516 B(  4-C ,  8-C ) :   0.8106
B(  4-C , 13-H ) :   0.9154 B(  5-C ,  6-C ) :   0.9798 B(  5-C ,  8-C ) :   0.8065
B(  5-C , 14-H ) :   0.9056 B(  6-C ,  7-N ) :   2.8186 B(  8-C , 15-H ) :   0.9134

MP2 TOTAL ENERGY:     -400.088653287 Eh
FINAL SINGLE POINT ENERGY      -400.088653286821

DIPOLE MOMENT
-------------
                                X             Y             Z
Electronic contribution:      1.52968      -2.22711       4.14731
Nuclear contribution   :     -0.82222       3.17794      -5.57826
                        -----------------------------------------
Total Dipole Moment    :      0.70746       0.95084      -1.43096
                        -----------------------------------------
Magnitude (a.u.)       :      1.85802
Magnitude (Debye)      :      4.72270

                             ****ORCA TERMINATED NORMALLY****
TOTAL RUN TIME: 0 days 0 hours 17 minutes 58 seconds 634 msec
