                         Program Version 3.0.3 - RELEASE   -
|  1> ! RI-MP2 RIJK def2-TZVP def2-TZVP/C def2-TZVP/JK TIGHTSCF
|  2> % maxcore 2000
|  3> % mp2 density relaxed end
|  4> *xyz 0 1
|  5>  C       -0.0708484959     1.5331028609     0.0275776431
|  6>  C        0.0494696661     0.0105627861    -0.0102964674
|  7>  C        0.8634013238    -0.5255048120    -1.2273007494
|  8>  N        1.9269105948    -1.2945608333    -0.5660673573
|  9>  C        1.7406342939    -1.1729508974     0.8096835587
| 10>  N        0.7443286460    -0.4868874703     1.1995889299
| 11>  C        2.9149834265    -1.9524947096    -1.2692549438
| 12>  C        3.9542318991    -2.6954403948    -0.4480979529
| 13>  O        2.9279863729    -1.9243924315    -2.4841651167
| 14>  H        0.9204134916     1.9982553486     0.0329995130
| 15>  H       -0.6180970205     1.9000148182    -0.8468301633
| 16>  H       -0.6009903594     1.8497793690     0.9292990390
| 17>  H       -0.9587973385    -0.4200201703    -0.0076358263
| 18>  H        0.2872702546    -1.1729467227    -1.8923477264
| 19>  H        1.3009581366     0.2719784442    -1.8355648128
| 20>  H        2.4366663398    -1.6584732521     1.4842076742
| 21>  H        3.4931117919    -3.4661551178     0.1776583009
| 22>  H        4.6519343389    -3.1654702931    -1.1401610179
| 23>  H        4.5043093179    -2.0150251321     0.2098577154
| 24> *
| 25>
| 26>                          ****END OF INPUT****

CARTESIAN COORDINATES (ANGSTROEM)
---------------------------------
  C     -0.070848    1.533103    0.027578
  C      0.049470    0.010563   -0.010296
  C      0.863401   -0.525505   -1.227301
  N      1.926911   -1.294561   -0.566067
  C      1.740634   -1.172951    0.809684
  N      0.744329   -0.486887    1.199589
  C      2.914983   -1.952495   -1.269255
  C      3.954232   -2.695440   -0.448098
  O      2.927986   -1.924392   -2.484165
  H      0.920413    1.998255    0.033000
  H     -0.618097    1.900015   -0.846830
  H     -0.600990    1.849779    0.929299
  H     -0.958797   -0.420020   -0.007636
  H      0.287270   -1.172947   -1.892348
  H      1.300958    0.271978   -1.835565
  H      2.436666   -1.658473    1.484208
  H      3.493112   -3.466155    0.177658
  H      4.651934   -3.165470   -1.140161
  H      4.504309   -2.015025    0.209858

 Total Charge           Charge          ....    0
 Multiplicity           Mult            ....    1
 Number of Electrons    NEL             ....   68
 Basis Dimension        Dim             ....  339

ORBITAL ENERGIES
----------------

  NO   OCC          E(Eh)            E(eV)
   0   2.0000     -20.534301      -558.7667
   1   2.0000     -15.608066      -424.7171
   2   2.0000     -15.554053      -423.2473
   3   2.0000     -11.367360      -309.3216
   4   2.0000     -11.322848      -308.1104
   5   2.0000     -11.271023      -306.7001
   6   2.0000     -11.268746      -306.6382
   7   2.0000     -11.250762      -306.1488
   8   2.0000     -11.220466      -305.3244
   9   2.0000      -1.401702       -38.1423
  10   2.0000      -1.318240       -35.8711
  11   2.0000      -1.188172       -32.3318
  12   2.0000      -1.055331       -28.7170
  13   2.0000      -1.020817       -27.7778
  14   2.0000      -0.939626       -25.5685
  15   2.0000      -0.872671       -23.7466
  16   2.0000      -0.813428       -22.1345
  17   2.0000      -0.768440       -20.9103
  18   2.0000      -0.701347       -19.0846
  19   2.0000      -0.676171       -18.3996
  20   2.0000      -0.640425       -17.4269
  21   2.0000      -0.620644       -16.8886
  22   2.0000      -0.618789       -16.8381
  23   2.0000      -0.591525       -16.0962
  24   2.0000      -0.573019       -15.5926
  25   2.0000      -0.567803       -15.4507
  26   2.0000      -0.540524       -14.7084
  27   2.0000      -0.533908       -14.5284
  28   2.0000      -0.515997       -14.0410
  29   2.0000      -0.502007       -13.6603
  30   2.0000      -0.482033       -13.1168
  31   2.0000      -0.449818       -12.2402
  32   2.0000      -0.424896       -11.5620
  33   2.0000      -0.357531        -9.7289
  34   0.0000       0.120935         3.2908
  35   0.0000       0.125791         3.4229
  36   0.0000       0.145672         3.9639
  37   0.0000       0.169307         4.6071
  38   0.0000       0.179553         4.8859

MULLIKEN ATOMIC CHARGES
-----------------------
   0 C :   -0.408034
   1 C :    0.092602
   2 C :   -0.204343
   3 N :   -0.090670
   4 C :   -0.020063
   5 N :   -0.254908
   6 C :    0.250930
   7 C :   -0.444329
   8 O :   -0.343168
   9 H :    0.126469
  10 H :    0.129795
  11 H :    0.143767
  12 H :    0.106888
  13 H :    0.142454
  14 H :    0.142660
  15 H :    0.156428
  16 H :    0.152949
  17 H :    0.168047
  18 H :    0.152524
Sum of atomic charges:   -0.0000000

LOEWDIN ATOMIC CHARGES
----------------------
   0 C :   -0.293620
   1 C :   -0.288056
   2 C :   -0.194631
   3 N :    0.210139
   4 C :   -0.276980
   5 N :    0.095748
   6 C :   -0.436840
   7 C :   -0.275413
   8 O :    0.105382
   9 H :    0.124986
  10 H :    0.125056
  11 H :    0.128821
  12 H :    0.147394
  13 H :    0.137151
  14 H :    0.139338
  15 H :    0.140731
  16 H :    0.135321
  17 H :    0.140205
  18 H :    0.135268

  Mayer bond orders larger than 0.1
B(  0-C ,  1-C ) :   0.9150 B(  0-C ,  9-H ) :   0.9296 B(  0-C , 10-H ) :   0.9359
B(  0-C , 11-H ) :   0.9370 B(  1-C ,  2-C ) :   0.8914 B(  1-C ,  5-N ) :   0.8774
B(  1-C , 12-H ) :   0.9253 B(  2-C ,  3-N ) :   0.8464 B(  2-C , 13-H ) :   0.9298
B(  2-C , 14-H ) :   0.9340 B(  3-N ,  4-C ) :   1.0395 B(  3-N ,  6-C ) :   1.0852
B(  4-C ,  5-N ) :   1.8700 B(  4-C , 15-H ) :   0.9120 B(  6-C ,  7-C ) :   0.9103
B(  6-C ,  8-O ) :   1.9340 B(  7-C , 16-H ) :   0.9190 B(  7-C , 17-H ) :   0.9353
B(  7-C , 18-H ) :   0.9182

MP2 TOTAL ENERGY:     -418.550285137 Eh
FINAL SINGLE POINT ENERGY      -418.550285136627

DIPOLE MOMENT
-------------
                                X             Y             Z
Electronic contribution:      1.44501      -3.38769      -1.26970
Nuclear contribution   :     -1.38597       3.34702       1.67262
                        -----------------------------------------
Total Dipole Moment    :      0.05904      -0.04067       0.40292
                        -----------------------------------------
Magnitude (a.u.)       :      0.40925
Magnitude (Debye)      :      1.04022

                             ****ORCA TERMINATED NORMALLY****
TOTAL RUN TIME: 0 days 0 hours 16 minutes 19 seconds 499 msec
