                         Program Version 3.0.3 - RELEASE   -
|  1> ! RI-MP2 RIJK def2-TZVP def2-TZVP/C def2-TZVP/JK TIGHTSCF
|  2> % maxcore 2000
|  3> % mp2 density relaxed end
|  4> *xyz 0 1
|  5>  C       -0.0394096346     1.4837344446     0.0405939796
|  6>  C        0.0607684902    -0.0111369302    -0.0265952755
|  7>  C        0.0246321719    -0.8962759080    -1.2636886486
|  8>  N       -0.2827828292    -2.0886179874    -0.3821810498
|  9>  C        1.0148645532    -2.2172006483     0.3877629842
| 10>  C        0.7208737309    -0.8911328715     1.0736040636
| 11>  C        1.3340194835    -0.3469271358     2.3294159559
| 12>  C       -0.7269179321    -1.0735155034     0.6963359934
| 13>  H        0.8747514015     1.9619857880    -0.3309392432
| 14>  H       -0.8744173174     1.8462406374    -0.5699053257
| 15>  H       -0.2038884961     1.8385952597     1.0627086255
| 16>  H       -0.8394941542    -0.6814296932    -1.9004269194
| 17>  H        0.9201920188    -1.0077824021    -1.8878106217
| 18>  H        0.9464705300    -3.0638063267     1.0783443658
| 19>  H        1.9091330229    -2.3272612977    -0.2384459185
| 20>  H        2.3715764387    -0.0332680551     2.1634382211
| 21>  H        0.7858350512     0.5196961957     2.7117103489
| 22>  H        1.3398757214    -1.1053877473     3.1206532057
| 23>  H       -1.6613659307    -1.0936159288     1.2409169688
| 24> *
| 25>
| 26>                          ****END OF INPUT****

CARTESIAN COORDINATES (ANGSTROEM)
---------------------------------
  C     -0.039410    1.483734    0.040594
  C      0.060768   -0.011137   -0.026595
  C      0.024632   -0.896276   -1.263689
  N     -0.282783   -2.088618   -0.382181
  C      1.014865   -2.217201    0.387763
  C      0.720874   -0.891133    1.073604
  C      1.334019   -0.346927    2.329416
  C     -0.726918   -1.073516    0.696336
  H      0.874751    1.961986   -0.330939
  H     -0.874417    1.846241   -0.569905
  H     -0.203888    1.838595    1.062709
  H     -0.839494   -0.681430   -1.900427
  H      0.920192   -1.007782   -1.887811
  H      0.946471   -3.063806    1.078344
  H      1.909133   -2.327261   -0.238446
  H      2.371576   -0.033268    2.163438
  H      0.785835    0.519696    2.711710
  H      1.339876   -1.105388    3.120653
  H     -1.661366   -1.093616    1.240917

 Total Charge           Charge          ....    0
 Multiplicity           Mult            ....    1
 Number of Electrons    NEL             ....   60
 Basis Dimension        Dim             ....  314

ORBITAL ENERGIES
----------------

  NO   OCC          E(Eh)            E(eV)
   0   2.0000     -15.550492      -423.1504
   1   2.0000     -11.251071      -306.1572
   2   2.0000     -11.246809      -306.0412
   3   2.0000     -11.246790      -306.0407
   4   2.0000     -11.240050      -305.8573
   5   2.0000     -11.239512      -305.8427
   6   2.0000     -11.225076      -305.4498
   7   2.0000     -11.225069      -305.4496
   8   2.0000      -1.294825       -35.2340
   9   2.0000      -1.060104       -28.8469
  10   2.0000      -1.017611       -27.6906
  11   2.0000      -0.938304       -25.5326
  12   2.0000      -0.934345       -25.4248
  13   2.0000      -0.866663       -23.5831
  14   2.0000      -0.741629       -20.1808
  15   2.0000      -0.704965       -19.1831
  16   2.0000      -0.648985       -17.6598
  17   2.0000      -0.624227       -16.9861
  18   2.0000      -0.606857       -16.5134
  19   2.0000      -0.604308       -16.4441
  20   2.0000      -0.570294       -15.5185
  21   2.0000      -0.560001       -15.2384
  22   2.0000      -0.548349       -14.9213
  23   2.0000      -0.527325       -14.3492
  24   2.0000      -0.516675       -14.0594
  25   2.0000      -0.462666       -12.5898
  26   2.0000      -0.461681       -12.5630
  27   2.0000      -0.415490       -11.3061
  28   2.0000      -0.365392        -9.9428
  29   2.0000      -0.349060        -9.4984
  30   0.0000       0.130401         3.5484
  31   0.0000       0.160480         4.3669
  32   0.0000       0.169323         4.6075
  33   0.0000       0.188076         5.1178
  34   0.0000       0.195909         5.3310

MULLIKEN ATOMIC CHARGES
-----------------------
   0 C :   -0.411387
   1 C :   -0.030383
   2 C :   -0.089784
   3 N :   -0.208782
   4 C :   -0.089835
   5 C :   -0.030294
   6 C :   -0.411355
   7 C :   -0.106237
   8 H :    0.137445
   9 H :    0.138402
  10 H :    0.128791
  11 H :    0.110025
  12 H :    0.102493
  13 H :    0.110049
  14 H :    0.102466
  15 H :    0.137445
  16 H :    0.128783
  17 H :    0.138386
  18 H :    0.143770
Sum of atomic charges:   -0.0000000

LOEWDIN ATOMIC CHARGES
----------------------
   0 C :   -0.273966
   1 C :   -0.209454
   2 C :   -0.211411
   3 N :    0.099487
   4 C :   -0.211435
   5 C :   -0.209446
   6 C :   -0.273971
   7 C :   -0.124919
   8 H :    0.130202
   9 H :    0.130148
  10 H :    0.128708
  11 H :    0.133216
  12 H :    0.119359
  13 H :    0.133226
  14 H :    0.119340
  15 H :    0.130202
  16 H :    0.128708
  17 H :    0.130144
  18 H :    0.131862

  Mayer bond orders larger than 0.1
B(  0-C ,  1-C ) :   0.8831 B(  0-C ,  8-H ) :   0.9394 B(  0-C ,  9-H ) :   0.9390
B(  0-C , 10-H ) :   0.9364 B(  1-C ,  2-C ) :   0.9790 B(  1-C ,  5-C ) :   0.7992
B(  1-C ,  7-C ) :   0.8814 B(  2-C ,  3-N ) :   0.9311 B(  2-C , 11-H ) :   0.9143
B(  2-C , 12-H ) :   0.9230 B(  3-N ,  4-C ) :   0.9311 B(  3-N ,  7-C ) :   0.9453
B(  4-C ,  5-C ) :   0.9790 B(  4-C , 13-H ) :   0.9144 B(  4-C , 14-H ) :   0.9230
B(  5-C ,  6-C ) :   0.8831 B(  5-C ,  7-C ) :   0.8814 B(  6-C , 15-H ) :   0.9394
B(  6-C , 16-H ) :   0.9364 B(  6-C , 17-H ) :   0.9390 B(  7-C , 18-H ) :   0.8956

MP2 TOTAL ENERGY:     -327.265395394 Eh
FINAL SINGLE POINT ENERGY      -327.265395394459

DIPOLE MOMENT
-------------
                                X             Y             Z
Electronic contribution:     -2.02447      -3.90074      -1.90561
Nuclear contribution   :      2.35286       4.59382       2.26302
                        -----------------------------------------
Total Dipole Moment    :      0.32839       0.69308       0.35741
                        -----------------------------------------
Magnitude (a.u.)       :      0.84613
Magnitude (Debye)      :      2.15069

                             ****ORCA TERMINATED NORMALLY****
TOTAL RUN TIME: 0 days 0 hours 13 minutes 54 seconds 77 msec
