                         Program Version 3.0.3 - RELEASE   -
|  1> ! RI-MP2 RIJK def2-TZVP def2-TZVP/C def2-TZVP/JK TIGHTSCF
|  2> % maxcore 2000
|  3> % mp2 density relaxed end
|  4> *xyz 0 1
|  5>  C        0.1949476441     1.5934500212    -0.2222495559
|  6>  C        0.1028378073     0.1433391830    -0.1261051793
|  7>  C        0.0195554339    -1.0565927047    -0.0460847896
|  8>  C       -0.0570032863    -2.5061035615     0.0369026180
|  9>  C        0.2523095760    -3.2434444489     1.3954134090
| 10>  C       -1.0814829790    -3.9903047642     1.2761826042
| 11>  C       -2.2501058149    -3.0426950717     1.2399600726
| 12>  C       -2.3981180408    -1.7806581611     2.0642438651
| 13>  C       -1.4261791480    -3.2203983132    -0.0079465711
| 14>  H        0.9599542820     1.9900474284     0.4548824651
| 15>  H        0.4583304709     1.9107785339    -1.2375718274
| 16>  H       -0.7555402835     2.0730467117     0.0375831826
| 17>  H        0.5856934307    -2.9373225960    -0.7378902529
| 18>  H        1.1263077141    -3.8921237702     1.3128276999
| 19>  H        0.3748933599    -2.6031646641     2.2727925288
| 20>  H       -1.2089303815    -5.0463977421     1.4826574445
| 21>  H       -3.1871203652    -3.5914059084     1.1480756729
| 22>  H       -1.4666097194    -1.2181321381     2.1444298850
| 23>  H       -3.1403105661    -1.1121248898     1.6147419712
| 24>  H       -2.7379618617    -2.0240468938     3.0775286338
| 25>  H       -1.8685928626    -3.5869389305    -0.9272672865
| 26> *
| 27>
| 28>                          ****END OF INPUT****

CARTESIAN COORDINATES (ANGSTROEM)
---------------------------------
  C      0.194948    1.593450   -0.222250
  C      0.102838    0.143339   -0.126105
  C      0.019555   -1.056593   -0.046085
  C     -0.057003   -2.506104    0.036903
  C      0.252310   -3.243444    1.395413
  C     -1.081483   -3.990305    1.276183
  C     -2.250106   -3.042695    1.239960
  C     -2.398118   -1.780658    2.064244
  C     -1.426179   -3.220398   -0.007947
  H      0.959954    1.990047    0.454882
  H      0.458330    1.910779   -1.237572
  H     -0.755540    2.073047    0.037583
  H      0.585693   -2.937323   -0.737890
  H      1.126308   -3.892124    1.312828
  H      0.374893   -2.603165    2.272793
  H     -1.208930   -5.046398    1.482657
  H     -3.187120   -3.591406    1.148076
  H     -1.466610   -1.218132    2.144430
  H     -3.140311   -1.112125    1.614742
  H     -2.737962   -2.024047    3.077529
  H     -1.868593   -3.586939   -0.927267

 Total Charge           Charge          ....    0
 Multiplicity           Mult            ....    1
 Number of Electrons    NEL             ....   66
 Basis Dimension        Dim             ....  351

ORBITAL ENERGIES
----------------

  NO   OCC          E(Eh)            E(eV)
   0   2.0000     -11.250282      -306.1357
   1   2.0000     -11.241528      -305.8975
   2   2.0000     -11.231165      -305.6155
   3   2.0000     -11.230376      -305.5941
   4   2.0000     -11.228014      -305.5298
   5   2.0000     -11.227417      -305.5135
   6   2.0000     -11.214591      -305.1645
   7   2.0000     -11.208761      -305.0059
   8   2.0000     -11.207263      -304.9651
   9   2.0000      -1.189798       -32.3761
  10   2.0000      -1.055859       -28.7314
  11   2.0000      -1.014556       -27.6075
  12   2.0000      -0.963091       -26.2070
  13   2.0000      -0.927124       -25.2283
  14   2.0000      -0.889979       -24.2176
  15   2.0000      -0.762118       -20.7383
  16   2.0000      -0.741535       -20.1782
  17   2.0000      -0.694131       -18.8883
  18   2.0000      -0.657069       -17.8798
  19   2.0000      -0.615175       -16.7398
  20   2.0000      -0.584771       -15.9124
  21   2.0000      -0.581445       -15.8219
  22   2.0000      -0.576889       -15.6979
  23   2.0000      -0.568175       -15.4608
  24   2.0000      -0.557552       -15.1717
  25   2.0000      -0.526720       -14.3328
  26   2.0000      -0.513166       -13.9640
  27   2.0000      -0.481266       -13.0959
  28   2.0000      -0.470524       -12.8036
  29   2.0000      -0.399424       -10.8689
  30   2.0000      -0.380086       -10.3427
  31   2.0000      -0.355269        -9.6674
  32   2.0000      -0.352550        -9.5934
  33   0.0000       0.134939         3.6719
  34   0.0000       0.148630         4.0444
  35   0.0000       0.163480         4.4485
  36   0.0000       0.167369         4.5543
  37   0.0000       0.178375         4.8538

MULLIKEN ATOMIC CHARGES
-----------------------
   0 C :   -0.490526
   1 C :    0.041553
   2 C :   -0.042768
   3 C :   -0.183415
   4 C :   -0.238083
   5 C :   -0.107797
   6 C :   -0.110534
   7 C :   -0.386946
   8 C :   -0.098648
   9 H :    0.160893
  10 H :    0.161308
  11 H :    0.160493
  12 H :    0.121958
  13 H :    0.122812
  14 H :    0.126295
  15 H :    0.128226
  16 H :    0.111370
  17 H :    0.140646
  18 H :    0.127318
  19 H :    0.128988
  20 H :    0.126856
Sum of atomic charges:   -0.0000000

LOEWDIN ATOMIC CHARGES
----------------------
   0 C :   -0.298128
   1 C :   -0.106074
   2 C :   -0.071413
   3 C :   -0.196617
   4 C :   -0.178182
   5 C :   -0.167907
   6 C :   -0.217731
   7 C :   -0.289174
   8 C :   -0.135670
   9 H :    0.139889
  10 H :    0.139993
  11 H :    0.139529
  12 H :    0.170087
  13 H :    0.134238
  14 H :    0.131136
  15 H :    0.132807
  16 H :    0.158415
  17 H :    0.129234
  18 H :    0.126764
  19 H :    0.124308
  20 H :    0.134493

  Mayer bond orders larger than 0.1
B(  0-C ,  1-C ) :   0.8527 B(  0-C ,  9-H ) :   0.9494 B(  0-C , 10-H ) :   0.9510
B(  0-C , 11-H ) :   0.9479 B(  1-C ,  2-C ) :   2.6406 B(  2-C ,  3-C ) :   1.1016
B(  3-C ,  4-C ) :   0.9366 B(  3-C ,  8-C ) :   0.8925 B(  3-C , 12-H ) :   0.9280
B(  4-C ,  5-C ) :   0.9332 B(  4-C , 13-H ) :   0.9284 B(  4-C , 14-H ) :   0.9261
B(  5-C ,  6-C ) :   0.8840 B(  5-C ,  8-C ) :   0.8285 B(  5-C , 15-H ) :   0.9247
B(  6-C ,  7-C ) :   0.9169 B(  6-C ,  8-C ) :   0.8865 B(  6-C , 16-H ) :   0.9309
B(  7-C , 17-H ) :   0.9326 B(  7-C , 18-H ) :   0.9364 B(  7-C , 19-H ) :   0.9347
B(  8-C , 20-H ) :   0.9235

MP2 TOTAL ENERGY:     -349.241879835 Eh
FINAL SINGLE POINT ENERGY      -349.241879834766

DIPOLE MOMENT
-------------
                                X             Y             Z
Electronic contribution:      1.66529      -2.31265      -2.66723
Nuclear contribution   :     -1.68941       2.33449       2.66828
                        -----------------------------------------
Total Dipole Moment    :     -0.02412       0.02183       0.00105
                        -----------------------------------------
Magnitude (a.u.)       :      0.03255
Magnitude (Debye)      :      0.08274

                             ****ORCA TERMINATED NORMALLY****
TOTAL RUN TIME: 0 days 0 hours 22 minutes 5 seconds 394 msec
