                         Program Version 3.0.3 - RELEASE   -
|  1> ! RI-MP2 RIJK def2-TZVP def2-TZVP/C def2-TZVP/JK TIGHTSCF
|  2> % maxcore 2000
|  3> % mp2 density relaxed end
|  4> *xyz 0 1
|  5>  O        0.0126584034     1.3085639173     0.3831110608
|  6>  C       -0.0205791664    -0.0897300328     0.1504437951
|  7>  C       -1.4823032696    -0.5670861606    -0.0236357350
|  8>  O       -2.2475318761    -0.0880172168     1.0610044741
|  9>  C       -1.9928500891     0.0294430678    -1.2926501510
| 10>  N       -2.3355774910     0.5374123887    -2.2731484171
| 11>  C       -1.5745761032    -2.0820606963    -0.0895768577
| 12>  C       -1.6029999121    -2.8865778548     1.1853326665
| 13>  C       -2.8373644492    -2.7885297816     0.3247406153
| 14>  H       -0.1674714231     1.7571447617    -0.4521357174
| 15>  H        0.5899151237    -0.3840193994    -0.7122819901
| 16>  H        0.3796859033    -0.5657154420     1.0491061009
| 17>  H       -1.8981983008     0.7942126052     1.2565597338
| 18>  H       -1.0308417380    -2.5005045452    -0.9310240600
| 19>  H       -1.0506475088    -3.8190940723     1.2050500108
| 20>  H       -1.6122290995    -2.3370146758     2.1186287635
| 21>  H       -3.6483752866    -2.1742444176     0.6961656829
| 22>  H       -3.1433438268    -3.6531291654    -0.2525466253
| 23> *
| 24>
| 25>                          ****END OF INPUT****

CARTESIAN COORDINATES (ANGSTROEM)
---------------------------------
  O      0.012658    1.308564    0.383111
  C     -0.020579   -0.089730    0.150444
  C     -1.482303   -0.567086   -0.023636
  O     -2.247532   -0.088017    1.061004
  C     -1.992850    0.029443   -1.292650
  N     -2.335577    0.537412   -2.273148
  C     -1.574576   -2.082061   -0.089577
  C     -1.603000   -2.886578    1.185333
  C     -2.837364   -2.788530    0.324741
  H     -0.167471    1.757145   -0.452136
  H      0.589915   -0.384019   -0.712282
  H      0.379686   -0.565715    1.049106
  H     -1.898198    0.794213    1.256560
  H     -1.030842   -2.500505   -0.931024
  H     -1.050648   -3.819094    1.205050
  H     -1.612229   -2.337015    2.118629
  H     -3.648375   -2.174244    0.696166
  H     -3.143344   -3.653129   -0.252547

 Total Charge           Charge          ....    0
 Multiplicity           Mult            ....    1
 Number of Electrons    NEL             ....   68
 Basis Dimension        Dim             ....  333

ORBITAL ENERGIES
----------------

  NO   OCC          E(Eh)            E(eV)
   0   2.0000     -20.592191      -560.3420
   1   2.0000     -20.586186      -560.1786
   2   2.0000     -15.581424      -423.9921
   3   2.0000     -11.349906      -308.8467
   4   2.0000     -11.310890      -307.7850
   5   2.0000     -11.277864      -306.8863
   6   2.0000     -11.257680      -306.3371
   7   2.0000     -11.240543      -305.8707
   8   2.0000     -11.238597      -305.8178
   9   2.0000      -1.417404       -38.5695
  10   2.0000      -1.383736       -37.6534
  11   2.0000      -1.226817       -33.3834
  12   2.0000      -1.163307       -31.6552
  13   2.0000      -1.049117       -28.5479
  14   2.0000      -0.918759       -25.0007
  15   2.0000      -0.837454       -22.7883
  16   2.0000      -0.820822       -22.3357
  17   2.0000      -0.766879       -20.8678
  18   2.0000      -0.725584       -19.7442
  19   2.0000      -0.705780       -19.2053
  20   2.0000      -0.668643       -18.1947
  21   2.0000      -0.660422       -17.9710
  22   2.0000      -0.622844       -16.9484
  23   2.0000      -0.579496       -15.7689
  24   2.0000      -0.566715       -15.4211
  25   2.0000      -0.557250       -15.1635
  26   2.0000      -0.537308       -14.6209
  27   2.0000      -0.530069       -14.4239
  28   2.0000      -0.512818       -13.9545
  29   2.0000      -0.495293       -13.4776
  30   2.0000      -0.475239       -12.9319
  31   2.0000      -0.468743       -12.7552
  32   2.0000      -0.435765       -11.8578
  33   2.0000      -0.427299       -11.6274
  34   0.0000       0.122954         3.3457
  35   0.0000       0.145154         3.9498
  36   0.0000       0.150367         4.0917
  37   0.0000       0.155057         4.2193
  38   0.0000       0.178408         4.8547

MULLIKEN ATOMIC CHARGES
-----------------------
   0 O :   -0.483012
   1 C :   -0.058471
   2 C :    0.281399
   3 O :   -0.460951
   4 C :   -0.278118
   5 N :   -0.042859
   6 C :   -0.109072
   7 C :   -0.253511
   8 C :   -0.268468
   9 H :    0.337035
  10 H :    0.128666
  11 H :    0.144236
  12 H :    0.342876
  13 H :    0.141031
  14 H :    0.138001
  15 H :    0.147092
  16 H :    0.155331
  17 H :    0.138796
Sum of atomic charges:   -0.0000000

LOEWDIN ATOMIC CHARGES
----------------------
   0 O :   -0.033767
   1 C :   -0.289902
   2 C :   -0.383669
   3 O :    0.049463
   4 C :   -0.152686
   5 N :    0.066614
   6 C :   -0.186810
   7 C :   -0.216039
   8 C :   -0.209411
   9 H :    0.185172
  10 H :    0.131448
  11 H :    0.142009
  12 H :    0.189369
  13 H :    0.158812
  14 H :    0.132527
  15 H :    0.139889
  16 H :    0.143231
  17 H :    0.133749

  Mayer bond orders larger than 0.1
B(  0-O ,  1-C ) :   0.9048 B(  0-O ,  9-H ) :   0.8330 B(  1-C ,  2-C ) :   0.9088
B(  1-C , 10-H ) :   0.9268 B(  1-C , 11-H ) :   0.9282 B(  2-C ,  3-O ) :   0.9694
B(  2-C ,  4-C ) :   0.8765 B(  2-C ,  6-C ) :   0.8761 B(  3-O , 12-H ) :   0.8078
B(  4-C ,  5-N ) :   2.8781 B(  6-C ,  7-C ) :   0.8909 B(  6-C ,  8-C ) :   0.8960
B(  6-C , 13-H ) :   0.9099 B(  7-C ,  8-C ) :   0.9174 B(  7-C , 14-H ) :   0.9289
B(  7-C , 15-H ) :   0.9172 B(  8-C , 16-H ) :   0.9162 B(  8-C , 17-H ) :   0.9289

MP2 TOTAL ENERGY:     -438.366065787 Eh
FINAL SINGLE POINT ENERGY      -438.366065787123

DIPOLE MOMENT
-------------
                                X             Y             Z
Electronic contribution:     -1.23236       5.67613      -3.36616
Nuclear contribution   :      2.05084      -6.28743       3.85166
                        -----------------------------------------
Total Dipole Moment    :      0.81848      -0.61130       0.48551
                        -----------------------------------------
Magnitude (a.u.)       :      1.13107
Magnitude (Debye)      :      2.87495

                             ****ORCA TERMINATED NORMALLY****
TOTAL RUN TIME: 0 days 0 hours 17 minutes 27 seconds 119 msec
