                         Program Version 3.0.3 - RELEASE   -
|  1> ! RI-MP2 RIJK def2-TZVP def2-TZVP/C def2-TZVP/JK TIGHTSCF
|  2> % maxcore 2000
|  3> % mp2 density relaxed end
|  4> *xyz 0 1
|  5>  C       -0.0714144773     0.8438951242    -2.0371245075
|  6>  C        0.0516492247    -0.3045013179    -1.0579456961
|  7>  C        1.3372002396    -0.6663874821    -0.3255129121
|  8>  C        1.6232033709    -2.1441486686    -0.1253203512
|  9>  C        2.5868245525     0.1745600884    -0.5112792990
| 10>  C        0.1700751161    -0.0747126425     0.4238946600
| 11>  C        0.0879013901     1.2401632444     1.1965807043
| 12>  O       -0.6879134041     0.6057905634     2.2364465027
| 13>  C       -0.6571885442    -0.6701191299     1.5598413970
| 14>  H        0.4985307666     1.7227788054    -1.7235855855
| 15>  H        0.2856594244     0.5571026257    -3.0323384991
| 16>  H       -1.1170746944     1.1554013809    -2.1383732889
| 17>  H       -0.5569435141    -1.1664174040    -1.3297727042
| 18>  H        2.1477054101    -2.5613003967    -0.9930880280
| 19>  H        2.2563883984    -2.3114047660     0.7543345164
| 20>  H        0.7035076572    -2.7211743613     0.0134888067
| 21>  H        2.3666174822     1.2395886046    -0.6153753838
| 22>  H        3.2585953788     0.0615033763     0.3477823903
| 23>  H        3.1403488328    -0.1388848223    -1.4041095768
| 24>  H        1.0363908475     1.6397730752     1.5803024577
| 25>  H       -0.4681546170     2.0536189164     0.7107782179
| 26>  H       -1.6648396886    -1.0163747889     1.2917802438
| 27>  H       -0.1650781222    -1.4427932645     2.1661254455
| 28> *
| 29>
| 30>                          ****END OF INPUT****

CARTESIAN COORDINATES (ANGSTROEM)
---------------------------------
  C     -0.071414    0.843895   -2.037125
  C      0.051649   -0.304501   -1.057946
  C      1.337200   -0.666387   -0.325513
  C      1.623203   -2.144149   -0.125320
  C      2.586825    0.174560   -0.511279
  C      0.170075   -0.074713    0.423895
  C      0.087901    1.240163    1.196581
  O     -0.687913    0.605791    2.236447
  C     -0.657189   -0.670119    1.559841
  H      0.498531    1.722779   -1.723586
  H      0.285659    0.557103   -3.032338
  H     -1.117075    1.155401   -2.138373
  H     -0.556944   -1.166417   -1.329773
  H      2.147705   -2.561300   -0.993088
  H      2.256388   -2.311405    0.754335
  H      0.703508   -2.721174    0.013489
  H      2.366617    1.239589   -0.615375
  H      3.258595    0.061503    0.347782
  H      3.140349   -0.138885   -1.404110
  H      1.036391    1.639773    1.580302
  H     -0.468155    2.053619    0.710778
  H     -1.664840   -1.016375    1.291780
  H     -0.165078   -1.442793    2.166125

 Total Charge           Charge          ....    0
 Multiplicity           Mult            ....    1
 Number of Electrons    NEL             ....   70
 Basis Dimension        Dim             ....  363

ORBITAL ENERGIES
----------------

  NO   OCC          E(Eh)            E(eV)
   0   2.0000     -20.542827      -558.9987
   1   2.0000     -11.274667      -306.7993
   2   2.0000     -11.273826      -306.7764
   3   2.0000     -11.239825      -305.8512
   4   2.0000     -11.232663      -305.6563
   5   2.0000     -11.231061      -305.6127
   6   2.0000     -11.221825      -305.3614
   7   2.0000     -11.220810      -305.3338
   8   2.0000     -11.220550      -305.3267
   9   2.0000      -1.371976       -37.3334
  10   2.0000      -1.164320       -31.6827
  11   2.0000      -1.005442       -27.3595
  12   2.0000      -0.971697       -26.4412
  13   2.0000      -0.946429       -25.7537
  14   2.0000      -0.924975       -25.1698
  15   2.0000      -0.891096       -24.2480
  16   2.0000      -0.748304       -20.3624
  17   2.0000      -0.715967       -19.4824
  18   2.0000      -0.666124       -18.1262
  19   2.0000      -0.658504       -17.9188
  20   2.0000      -0.630485       -17.1564
  21   2.0000      -0.606340       -16.4994
  22   2.0000      -0.575204       -15.6521
  23   2.0000      -0.571351       -15.5473
  24   2.0000      -0.561977       -15.2922
  25   2.0000      -0.550440       -14.9782
  26   2.0000      -0.540990       -14.7211
  27   2.0000      -0.535555       -14.5732
  28   2.0000      -0.524816       -14.2810
  29   2.0000      -0.503325       -13.6962
  30   2.0000      -0.480051       -13.0628
  31   2.0000      -0.452199       -12.3050
  32   2.0000      -0.434419       -11.8212
  33   2.0000      -0.381471       -10.3804
  34   2.0000      -0.376732       -10.2514
  35   0.0000       0.123448         3.3592
  36   0.0000       0.151786         4.1303
  37   0.0000       0.163511         4.4494
  38   0.0000       0.167341         4.5536
  39   0.0000       0.183701         4.9988

MULLIKEN ATOMIC CHARGES
-----------------------
   0 C :   -0.427927
   1 C :   -0.112790
   2 C :    0.135513
   3 C :   -0.426076
   4 C :   -0.421417
   5 C :   -0.094808
   6 C :   -0.023060
   7 O :   -0.329689
   8 C :   -0.001434
   9 H :    0.124203
  10 H :    0.137354
  11 H :    0.140805
  12 H :    0.115370
  13 H :    0.134009
  14 H :    0.134868
  15 H :    0.130649
  16 H :    0.127775
  17 H :    0.138024
  18 H :    0.134394
  19 H :    0.097770
  20 H :    0.098055
  21 H :    0.092336
  22 H :    0.096078
Sum of atomic charges:   -0.0000000

LOEWDIN ATOMIC CHARGES
----------------------
   0 C :   -0.289815
   1 C :   -0.181130
   2 C :   -0.245873
   3 C :   -0.263466
   4 C :   -0.262040
   5 C :   -0.188071
   6 C :   -0.229241
   7 O :    0.114238
   8 C :   -0.230565
   9 H :    0.124008
  10 H :    0.126961
  11 H :    0.127896
  12 H :    0.152980
  13 H :    0.127904
  14 H :    0.127171
  15 H :    0.128359
  16 H :    0.125891
  17 H :    0.129601
  18 H :    0.128996
  19 H :    0.119428
  20 H :    0.119161
  21 H :    0.118351
  22 H :    0.119257

  Mayer bond orders larger than 0.1
B(  0-C ,  1-C ) :   0.8863 B(  0-C ,  9-H ) :   0.9409 B(  0-C , 10-H ) :   0.9396
B(  0-C , 11-H ) :   0.9389 B(  1-C ,  2-C ) :   0.8946 B(  1-C ,  5-C ) :   0.8532
B(  1-C , 12-H ) :   0.9218 B(  2-C ,  3-C ) :   0.8879 B(  2-C ,  4-C ) :   0.8964
B(  2-C ,  5-C ) :   0.8101 B(  3-C , 13-H ) :   0.9391 B(  3-C , 14-H ) :   0.9398
B(  3-C , 15-H ) :   0.9323 B(  4-C , 16-H ) :   0.9360 B(  4-C , 17-H ) :   0.9372
B(  4-C , 18-H ) :   0.9365 B(  5-C ,  6-C ) :   0.9807 B(  5-C ,  8-C ) :   0.9709
B(  6-C ,  7-O ) :   0.9674 B(  6-C , 19-H ) :   0.9045 B(  6-C , 20-H ) :   0.9099
B(  7-O ,  8-C ) :   0.9680 B(  8-C , 21-H ) :   0.9084 B(  8-C , 22-H ) :   0.9060

MP2 TOTAL ENERGY:     -387.580610277 Eh
FINAL SINGLE POINT ENERGY      -387.580610277374

DIPOLE MOMENT
-------------
                                X             Y             Z
Electronic contribution:     -4.11888       1.17773       5.50192
Nuclear contribution   :      4.48455      -1.43691      -6.24029
                        -----------------------------------------
Total Dipole Moment    :      0.36567      -0.25918      -0.73837
                        -----------------------------------------
Magnitude (a.u.)       :      0.86375
Magnitude (Debye)      :      2.19549

                             ****ORCA TERMINATED NORMALLY****
TOTAL RUN TIME: 0 days 0 hours 20 minutes 22 seconds 404 msec
