                         Program Version 3.0.3 - RELEASE   -
|  1> ! RI-MP2 RIJK def2-TZVP def2-TZVP/C def2-TZVP/JK TIGHTSCF
|  2> % maxcore 2000
|  3> % mp2 density relaxed end
|  4> *xyz 0 1
|  5>  C        0.1447074603     1.6176879204     0.0219014315
|  6>  C        0.0064730132     0.0921913831     0.0126599967
|  7>  C        0.6151303312    -0.5507291214    -1.2397627688
|  8>  C        0.5999590911    -2.0912006719    -1.2639269496
|  9>  C       -0.8293396765    -2.6513622126    -1.3135788895
| 10>  C        1.4563026725    -2.5991266303    -2.4399440428
| 11>  C        1.6989878612    -4.1086394557    -2.4764760467
| 12>  C        2.5877669851    -4.5158727821    -3.6529906746
| 13>  O        2.3043843879    -4.4584949996    -1.2315238684
| 14>  H        1.1971358965     1.9207660434    -0.0155051252
| 15>  H       -0.3568803200     2.0658682981    -0.8433361604
| 16>  H       -0.2954882990     2.0545854966     0.9239469807
| 17>  H        0.4940851379    -0.3251046937     0.9038529857
| 18>  H       -1.0546076116    -0.1710293488     0.0952236687
| 19>  H        0.0959073128    -0.1690023078    -2.1318734091
| 20>  H        1.6559378224    -0.2104182056    -1.3305304956
| 21>  H        1.0747199625    -2.4495319671    -0.3420809550
| 22>  H       -1.3389224338    -2.3450889892    -2.2360777251
| 23>  H       -0.8354836337    -3.7444376169    -1.2749713202
| 24>  H       -1.4296967377    -2.2982622093    -0.4705117049
| 25>  H        0.9918402895    -2.3015335280    -3.3899853028
| 26>  H        2.4373559610    -2.1076165895    -2.4022929420
| 27>  H        0.7322866374    -4.6284761732    -2.5773309380
| 28>  H        2.7583665333    -5.5990569692    -3.6574836327
| 29>  H        2.1236653404    -4.2506232160    -4.6087238657
| 30>  H        3.5607076955    -4.0183547796    -3.5872578655
| 31>  H        2.4687732702    -5.4064587244    -1.2374131907
| 32> *
| 33>
| 34>                          ****END OF INPUT****

CARTESIAN COORDINATES (ANGSTROEM)
---------------------------------
  C      0.144707    1.617688    0.021901
  C      0.006473    0.092191    0.012660
  C      0.615130   -0.550729   -1.239763
  C      0.599959   -2.091201   -1.263927
  C     -0.829340   -2.651362   -1.313579
  C      1.456303   -2.599127   -2.439944
  C      1.698988   -4.108639   -2.476476
  C      2.587767   -4.515873   -3.652991
  O      2.304384   -4.458495   -1.231524
  H      1.197136    1.920766   -0.015505
  H     -0.356880    2.065868   -0.843336
  H     -0.295488    2.054585    0.923947
  H      0.494085   -0.325105    0.903853
  H     -1.054608   -0.171029    0.095224
  H      0.095907   -0.169002   -2.131873
  H      1.655938   -0.210418   -1.330530
  H      1.074720   -2.449532   -0.342081
  H     -1.338922   -2.345089   -2.236078
  H     -0.835484   -3.744438   -1.274971
  H     -1.429697   -2.298262   -0.470512
  H      0.991840   -2.301534   -3.389985
  H      2.437356   -2.107617   -2.402293
  H      0.732287   -4.628476   -2.577331
  H      2.758367   -5.599057   -3.657484
  H      2.123665   -4.250623   -4.608724
  H      3.560708   -4.018355   -3.587258
  H      2.468773   -5.406459   -1.237413

 Total Charge           Charge          ....    0
 Multiplicity           Mult            ....    1
 Number of Electrons    NEL             ....   74
 Basis Dimension        Dim             ....  387

ORBITAL ENERGIES
----------------

  NO   OCC          E(Eh)            E(eV)
   0   2.0000     -20.549777      -559.1879
   1   2.0000     -11.275898      -306.8328
   2   2.0000     -11.216462      -305.2155
   3   2.0000     -11.214694      -305.1673
   4   2.0000     -11.211513      -305.0808
   5   2.0000     -11.211393      -305.0775
   6   2.0000     -11.208460      -304.9977
   7   2.0000     -11.206824      -304.9532
   8   2.0000     -11.204181      -304.8813
   9   2.0000      -1.355914       -36.8963
  10   2.0000      -1.092442       -29.7269
  11   2.0000      -1.040748       -28.3202
  12   2.0000      -1.004364       -27.3301
  13   2.0000      -0.924484       -25.1565
  14   2.0000      -0.914403       -24.8822
  15   2.0000      -0.828023       -22.5316
  16   2.0000      -0.783691       -21.3253
  17   2.0000      -0.755342       -20.5539
  18   2.0000      -0.696847       -18.9622
  19   2.0000      -0.633343       -17.2341
  20   2.0000      -0.625664       -17.0252
  21   2.0000      -0.607077       -16.5194
  22   2.0000      -0.588222       -16.0063
  23   2.0000      -0.579828       -15.7779
  24   2.0000      -0.557908       -15.1814
  25   2.0000      -0.540319       -14.7028
  26   2.0000      -0.533685       -14.5223
  27   2.0000      -0.521556       -14.1923
  28   2.0000      -0.518139       -14.0993
  29   2.0000      -0.506065       -13.7707
  30   2.0000      -0.489649       -13.3240
  31   2.0000      -0.481897       -13.1131
  32   2.0000      -0.467825       -12.7302
  33   2.0000      -0.450889       -12.2693
  34   2.0000      -0.448228       -12.1969
  35   2.0000      -0.429431       -11.6854
  36   2.0000      -0.424835       -11.5604
  37   0.0000       0.129660         3.5282
  38   0.0000       0.145181         3.9506
  39   0.0000       0.165317         4.4985
  40   0.0000       0.166725         4.5368
  41   0.0000       0.177580         4.8322

MULLIKEN ATOMIC CHARGES
-----------------------
   0 C :   -0.385581
   1 C :   -0.193160
   2 C :   -0.236228
   3 C :    0.012310
   4 C :   -0.452190
   5 C :   -0.213464
   6 C :    0.069454
   7 C :   -0.408697
   8 O :   -0.469373
   9 H :    0.121617
  10 H :    0.120000
  11 H :    0.131532
  12 H :    0.106733
  13 H :    0.104643
  14 H :    0.100547
  15 H :    0.108520
  16 H :    0.105520
  17 H :    0.117511
  18 H :    0.136543
  19 H :    0.134886
  20 H :    0.108314
  21 H :    0.107741
  22 H :    0.080522
  23 H :    0.122623
  24 H :    0.124136
  25 H :    0.135846
  26 H :    0.309697
Sum of atomic charges:   -0.0000000

LOEWDIN ATOMIC CHARGES
----------------------
   0 C :   -0.322648
   1 C :   -0.295917
   2 C :   -0.251840
   3 C :   -0.280036
   4 C :   -0.294673
   5 C :   -0.230813
   6 C :   -0.377394
   7 C :   -0.306603
   8 O :   -0.024592
   9 H :    0.119438
  10 H :    0.119490
  11 H :    0.119303
  12 H :    0.135161
  13 H :    0.132271
  14 H :    0.136906
  15 H :    0.139446
  16 H :    0.157077
  17 H :    0.122052
  18 H :    0.121644
  19 H :    0.121463
  20 H :    0.143618
  21 H :    0.144868
  22 H :    0.130575
  23 H :    0.118300
  24 H :    0.125761
  25 H :    0.125484
  26 H :    0.171656

  Mayer bond orders larger than 0.1
B(  0-C ,  1-C ) :   0.9217 B(  0-C ,  9-H ) :   0.9415 B(  0-C , 10-H ) :   0.9388
B(  0-C , 11-H ) :   0.9439 B(  1-C ,  2-C ) :   0.9338 B(  1-C , 12-H ) :   0.9332
B(  1-C , 13-H ) :   0.9359 B(  2-C ,  3-C ) :   0.9220 B(  2-C , 14-H ) :   0.9200
B(  2-C , 15-H ) :   0.9328 B(  3-C ,  4-C ) :   0.8889 B(  3-C ,  5-C ) :   0.9327
B(  3-C , 16-H ) :   0.9254 B(  4-C , 17-H ) :   0.9303 B(  4-C , 18-H ) :   0.9430
B(  4-C , 19-H ) :   0.9433 B(  5-C ,  6-C ) :   0.9292 B(  5-C , 20-H ) :   0.9215
B(  5-C , 21-H ) :   0.9221 B(  6-C ,  7-C ) :   0.9171 B(  6-C ,  8-O ) :   0.9629
B(  6-C , 22-H ) :   0.9349 B(  7-C , 23-H ) :   0.9380 B(  7-C , 24-H ) :   0.9332
B(  7-C , 25-H ) :   0.9395 B(  8-O , 26-H ) :   0.8476

MP2 TOTAL ENERGY:     -390.033923887 Eh
FINAL SINGLE POINT ENERGY      -390.033923887410

DIPOLE MOMENT
-------------
                                X             Y             Z
Electronic contribution:      2.93674      -5.27603       0.57042
Nuclear contribution   :     -3.01153       4.83670      -0.95918
                        -----------------------------------------
Total Dipole Moment    :     -0.07479      -0.43933      -0.38876
                        -----------------------------------------
Magnitude (a.u.)       :      0.59139
Magnitude (Debye)      :      1.50318

                             ****ORCA TERMINATED NORMALLY****
TOTAL RUN TIME: 0 days 0 hours 19 minutes 51 seconds 646 msec
