                         Program Version 3.0.3 - RELEASE   -
|  1> ! RI-MP2 RIJK def2-TZVP def2-TZVP/C def2-TZVP/JK TIGHTSCF
|  2> % maxcore 2000
|  3> % mp2 density relaxed end
|  4> *xyz 0 1
|  5>  O        0.2232553450     1.4420909195    -0.1601321205
|  6>  C        0.0690812582     0.0649187398    -0.0730471792
|  7>  C       -1.3461561796    -0.6343739612     0.0053173052
|  8>  C       -0.6419643143    -1.7699739822     0.8114643987
|  9>  O        0.0594590469    -2.6898581999    -0.0148407932
| 10>  C        0.4773734372    -2.1324981036    -1.2631025262
| 11>  C        0.9037400693    -0.6550661387    -1.1538811366
| 12>  C        0.3120038338    -0.6372031285     1.2649720386
| 13>  O        0.7886529297    -0.2593766264     2.2980644648
| 14>  H        0.2817301571     1.7861283458     0.7402665367
| 15>  H       -2.0398768122    -0.0765352538     0.6387209577
| 16>  H       -1.8274307919    -0.8997061487    -0.9363171934
| 17>  H       -1.1976680820    -2.3351562126     1.5588977304
| 18>  H        1.3035666231    -2.7581629102    -1.6098791598
| 19>  H       -0.3351291802    -2.2317511170    -1.9953538655
| 20>  H        0.7444210065    -0.1473290686    -2.1116215768
| 21>  H        1.9644153432    -0.5553740935    -0.9032812409
| 22> *
| 23>
| 24>                          ****END OF INPUT****

CARTESIAN COORDINATES (ANGSTROEM)
---------------------------------
  O      0.223255    1.442091   -0.160132
  C      0.069081    0.064919   -0.073047
  C     -1.346156   -0.634374    0.005317
  C     -0.641964   -1.769974    0.811464
  O      0.059459   -2.689858   -0.014841
  C      0.477373   -2.132498   -1.263103
  C      0.903740   -0.655066   -1.153881
  C      0.312004   -0.637203    1.264972
  O      0.788653   -0.259377    2.298064
  H      0.281730    1.786128    0.740267
  H     -2.039877   -0.076535    0.638721
  H     -1.827431   -0.899706   -0.936317
  H     -1.197668   -2.335156    1.558898
  H      1.303567   -2.758163   -1.609879
  H     -0.335129   -2.231751   -1.995354
  H      0.744421   -0.147329   -2.111622
  H      1.964415   -0.555374   -0.903281

 Total Charge           Charge          ....    0
 Multiplicity           Mult            ....    1
 Number of Electrons    NEL             ....   68
 Basis Dimension        Dim             ....  327

ORBITAL ENERGIES
----------------

  NO   OCC          E(Eh)            E(eV)
   0   2.0000     -20.579687      -560.0018
   1   2.0000     -20.577226      -559.9348
   2   2.0000     -20.570522      -559.7524
   3   2.0000     -11.339508      -308.5637
   4   2.0000     -11.314926      -307.8948
   5   2.0000     -11.310614      -307.7774
   6   2.0000     -11.294342      -307.3347
   7   2.0000     -11.254012      -306.2372
   8   2.0000     -11.248153      -306.0778
   9   2.0000      -1.420283       -38.6479
  10   2.0000      -1.393411       -37.9167
  11   2.0000      -1.387688       -37.7609
  12   2.0000      -1.143361       -31.1124
  13   2.0000      -1.052515       -28.6404
  14   2.0000      -0.909117       -24.7383
  15   2.0000      -0.871754       -23.7216
  16   2.0000      -0.859446       -23.3867
  17   2.0000      -0.749170       -20.3859
  18   2.0000      -0.714053       -19.4304
  19   2.0000      -0.688919       -18.7464
  20   2.0000      -0.684192       -18.6178
  21   2.0000      -0.641502       -17.4562
  22   2.0000      -0.634470       -17.2648
  23   2.0000      -0.603398       -16.4193
  24   2.0000      -0.591035       -16.0829
  25   2.0000      -0.581296       -15.8179
  26   2.0000      -0.564181       -15.3521
  27   2.0000      -0.550795       -14.9879
  28   2.0000      -0.532677       -14.4949
  29   2.0000      -0.519523       -14.1369
  30   2.0000      -0.483364       -13.1530
  31   2.0000      -0.451393       -12.2830
  32   2.0000      -0.437592       -11.9075
  33   2.0000      -0.387665       -10.5489
  34   0.0000       0.125518         3.4155
  35   0.0000       0.132020         3.5924
  36   0.0000       0.152255         4.1431
  37   0.0000       0.163329         4.4444
  38   0.0000       0.175027         4.7627

MULLIKEN ATOMIC CHARGES
-----------------------
   0 O :   -0.452141
   1 C :    0.265038
   2 C :   -0.308071
   3 C :    0.127689
   4 O :   -0.314473
   5 C :   -0.068983
   6 C :   -0.267683
   7 C :    0.019188
   8 O :   -0.251799
   9 H :    0.335987
  10 H :    0.132007
  11 H :    0.144672
  12 H :    0.133860
  13 H :    0.133227
  14 H :    0.105949
  15 H :    0.138055
  16 H :    0.127477
Sum of atomic charges:   -0.0000000

LOEWDIN ATOMIC CHARGES
----------------------
   0 O :    0.038252
   1 C :   -0.346558
   2 C :   -0.172906
   3 C :   -0.245579
   4 O :    0.172308
   5 C :   -0.295059
   6 C :   -0.208985
   7 C :   -0.276476
   8 O :    0.165869
   9 H :    0.191684
  10 H :    0.146978
  11 H :    0.138682
  12 H :    0.139890
  13 H :    0.133300
  14 H :    0.121830
  15 H :    0.150970
  16 H :    0.145800

  Mayer bond orders larger than 0.1
B(  0-O ,  1-C ) :   1.0933 B(  0-O ,  9-H ) :   0.8249 B(  1-C ,  2-C ) :   0.8769
B(  1-C ,  6-C ) :   0.8633 B(  1-C ,  7-C ) :   0.8383 B(  2-C ,  3-C ) :   0.8827
B(  2-C , 10-H ) :   0.9088 B(  2-C , 11-H ) :   0.9098 B(  3-C ,  4-O ) :   0.8942
B(  3-C ,  7-C ) :   0.8231 B(  3-C , 12-H ) :   0.9155 B(  4-O ,  5-C ) :   0.9282
B(  5-C ,  6-C ) :   0.9358 B(  5-C , 13-H ) :   0.9214 B(  5-C , 14-H ) :   0.9363
B(  6-C , 15-H ) :   0.9164 B(  6-C , 16-H ) :   0.9225 B(  7-C ,  8-O ) :   2.0209

MP2 TOTAL ENERGY:     -458.222832947 Eh
FINAL SINGLE POINT ENERGY      -458.222832946911

DIPOLE MOMENT
-------------
                                X             Y             Z
Electronic contribution:      1.29435       0.85281       5.07357
Nuclear contribution   :     -1.80618      -0.86486      -5.73985
                        -----------------------------------------
Total Dipole Moment    :     -0.51182      -0.01205      -0.66628
                        -----------------------------------------
Magnitude (a.u.)       :      0.84026
Magnitude (Debye)      :      2.13577

                             ****ORCA TERMINATED NORMALLY****
TOTAL RUN TIME: 0 days 0 hours 19 minutes 13 seconds 509 msec
