                         Program Version 3.0.3 - RELEASE   -
|  1> ! RI-MP2 RIJK def2-TZVP def2-TZVP/C def2-TZVP/JK TIGHTSCF
|  2> % maxcore 2000
|  3> % mp2 density relaxed end
|  4> *xyz 0 1
|  5>  O       -0.0335554600     1.2034081678     0.7112095357
|  6>  C        0.0358001151     0.0405705912    -0.0873342353
|  7>  C       -1.3196677678    -0.6293209495    -0.1906572060
|  8>  C       -1.5655739417    -2.0969886597    -0.1802797822
|  9>  C       -0.4767494662    -3.0683100048     0.2471399458
| 10>  O       -0.1390124617    -2.6699770700     1.5845682202
| 11>  C       -0.9092245038    -1.6079836636     1.9727072240
| 12>  N       -0.7515438689    -0.9452220608     3.0368038647
| 13>  N       -1.9072709899    -1.3016256183     1.0103040072
| 14>  H       -0.2836700233     0.9228361205     1.6035077476
| 15>  H        0.3465177911     0.3634052862    -1.0868920203
| 16>  H        0.8004765271    -0.6600308194     0.2778582315
| 17>  H       -2.0642781215    -0.0165154497    -0.6927814365
| 18>  H       -2.4004866293    -2.5008216187    -0.7445109333
| 19>  H       -0.8564814808    -4.0945879765     0.2670471864
| 20>  H        0.4294835396    -3.0396308904    -0.3656535686
| 21>  H        0.0254686121    -1.3233451443     3.5774444191
| 22> *
| 23>
| 24>                          ****END OF INPUT****

CARTESIAN COORDINATES (ANGSTROEM)
---------------------------------
  O     -0.033555    1.203408    0.711210
  C      0.035800    0.040571   -0.087334
  C     -1.319668   -0.629321   -0.190657
  C     -1.565574   -2.096989   -0.180280
  C     -0.476749   -3.068310    0.247140
  O     -0.139012   -2.669977    1.584568
  C     -0.909225   -1.607984    1.972707
  N     -0.751544   -0.945222    3.036804
  N     -1.907271   -1.301626    1.010304
  H     -0.283670    0.922836    1.603508
  H      0.346518    0.363405   -1.086892
  H      0.800477   -0.660031    0.277858
  H     -2.064278   -0.016515   -0.692781
  H     -2.400487   -2.500822   -0.744511
  H     -0.856481   -4.094588    0.267047
  H      0.429484   -3.039631   -0.365654
  H      0.025469   -1.323345    3.577444

 Total Charge           Charge          ....    0
 Multiplicity           Mult            ....    1
 Number of Electrons    NEL             ....   68
 Basis Dimension        Dim             ....  327

ORBITAL ENERGIES
----------------

  NO   OCC          E(Eh)            E(eV)
   0   2.0000     -20.614641      -560.9529
   1   2.0000     -20.555449      -559.3422
   2   2.0000     -15.596013      -424.3891
   3   2.0000     -15.539771      -422.8587
   4   2.0000     -11.376732      -309.5766
   5   2.0000     -11.320786      -308.0542
   6   2.0000     -11.297737      -307.4270
   7   2.0000     -11.295106      -307.3555
   8   2.0000     -11.294176      -307.3302
   9   2.0000      -1.463355       -39.8199
  10   2.0000      -1.365137       -37.1473
  11   2.0000      -1.300449       -35.3870
  12   2.0000      -1.210042       -32.9269
  13   2.0000      -1.018759       -27.7218
  14   2.0000      -0.997124       -27.1331
  15   2.0000      -0.910911       -24.7871
  16   2.0000      -0.839942       -22.8560
  17   2.0000      -0.769720       -20.9451
  18   2.0000      -0.743012       -20.2184
  19   2.0000      -0.704497       -19.1703
  20   2.0000      -0.684897       -18.6370
  21   2.0000      -0.673269       -18.3206
  22   2.0000      -0.640073       -17.4173
  23   2.0000      -0.626036       -17.0353
  24   2.0000      -0.605120       -16.4661
  25   2.0000      -0.568654       -15.4739
  26   2.0000      -0.558789       -15.2054
  27   2.0000      -0.535108       -14.5610
  28   2.0000      -0.509357       -13.8603
  29   2.0000      -0.493687       -13.4339
  30   2.0000      -0.458677       -12.4812
  31   2.0000      -0.446081       -12.1385
  32   2.0000      -0.428709       -11.6658
  33   2.0000      -0.393710       -10.7134
  34   0.0000       0.132098         3.5946
  35   0.0000       0.146975         3.9994
  36   0.0000       0.155896         4.2421
  37   0.0000       0.160257         4.3608
  38   0.0000       0.177396         4.8272

MULLIKEN ATOMIC CHARGES
-----------------------
   0 O :   -0.469083
   1 C :   -0.025679
   2 C :   -0.078074
   3 C :   -0.097357
   4 C :   -0.053682
   5 O :   -0.256245
   6 C :    0.205058
   7 N :   -0.411401
   8 N :   -0.180948
   9 H :    0.338803
  10 H :    0.123731
  11 H :    0.124168
  12 H :    0.131090
  13 H :    0.148788
  14 H :    0.134060
  15 H :    0.131030
  16 H :    0.235742
Sum of atomic charges:    0.0000000

LOEWDIN ATOMIC CHARGES
----------------------
   0 O :   -0.032397
   1 C :   -0.334318
   2 C :   -0.211034
   3 C :   -0.218767
   4 C :   -0.255435
   5 O :    0.233709
   6 C :   -0.480350
   7 N :   -0.069686
   8 N :    0.182076
   9 H :    0.179825
  10 H :    0.137541
  11 H :    0.128336
  12 H :    0.153085
  13 H :    0.147802
  14 H :    0.134269
  15 H :    0.131950
  16 H :    0.173393

  Mayer bond orders larger than 0.1
B(  0-O ,  1-C ) :   0.9256 B(  0-O ,  9-H ) :   0.8199 B(  1-C ,  2-C ) :   0.9458
B(  1-C , 10-H ) :   0.9207 B(  1-C , 11-H ) :   0.9103 B(  2-C ,  3-C ) :   0.9422
B(  2-C ,  8-N ) :   0.8407 B(  2-C , 12-H ) :   0.9208 B(  3-C ,  4-C ) :   0.9506
B(  3-C ,  8-N ) :   0.8801 B(  3-C , 13-H ) :   0.9024 B(  4-C ,  5-O ) :   0.8877
B(  4-C , 14-H ) :   0.9254 B(  4-C , 15-H ) :   0.9184 B(  5-O ,  6-C ) :   1.0956
B(  6-C ,  7-N ) :   1.9540 B(  6-C ,  8-N ) :   1.0316 B(  7-N , 16-H ) :   0.8474

MP2 TOTAL ENERGY:     -454.394678909 Eh
FINAL SINGLE POINT ENERGY      -454.394678908561

DIPOLE MOMENT
-------------
                                X             Y             Z
Electronic contribution:     -1.48224      -0.62540       2.99975
Nuclear contribution   :      1.81681      -0.68570      -4.19916
                        -----------------------------------------
Total Dipole Moment    :      0.33457      -1.31110      -1.19941
                        -----------------------------------------
Magnitude (a.u.)       :      1.80818
Magnitude (Debye)      :      4.59602

                             ****ORCA TERMINATED NORMALLY****
TOTAL RUN TIME: 0 days 0 hours 26 minutes 53 seconds 951 msec
