                         Program Version 3.0.3 - RELEASE   -
|  1> ! RI-MP2 RIJK def2-TZVP def2-TZVP/C def2-TZVP/JK TIGHTSCF
|  2> % maxcore 2000
|  3> % mp2 density relaxed end
|  4> *xyz 0 1
|  5>  O       -0.0337565008    -0.0063275492    -0.3373191921
|  6>  C       -0.0076663426     1.1905916766    -0.1554795116
|  7>  C       -1.2327189913     2.0807530353     0.1199087923
|  8>  C       -0.6726487932     3.5061525682     0.2768306449
|  9>  C        0.8272360578     3.3551746546     0.0846559551
| 10>  C        1.1684599942     2.0735872608    -0.1516276952
| 11>  C        1.7655662883     4.4833164248     0.1531377066
| 12>  C        1.3847572771     5.8700475108    -0.3507092410
| 13>  C        1.5500996925     5.6434061189     1.1173143540
| 14>  H       -1.9412424042     1.9885502404    -0.7081903363
| 15>  H       -1.7469755329     1.7224063702     1.0162237328
| 16>  H       -1.0927279409     4.2001506063    -0.4605248643
| 17>  H       -0.8990291372     3.9346520221     1.2601537306
| 18>  H        2.1716290637     1.7025372811    -0.3219104412
| 19>  H        2.8017770342     4.2034489279    -0.0067609366
| 20>  H        2.1497094265     6.4223409179    -0.8842273450
| 21>  H        0.3820769921     6.0091523007    -0.7374996293
| 22>  H        0.6607025470     5.6273163727     1.7362168976
| 23>  H        2.4307834098     6.0370095299     1.6115869090
| 24> *
| 25>
| 26>                          ****END OF INPUT****

CARTESIAN COORDINATES (ANGSTROEM)
---------------------------------
  O     -0.033757   -0.006328   -0.337319
  C     -0.007666    1.190592   -0.155480
  C     -1.232719    2.080753    0.119909
  C     -0.672649    3.506153    0.276831
  C      0.827236    3.355175    0.084656
  C      1.168460    2.073587   -0.151628
  C      1.765566    4.483316    0.153138
  C      1.384757    5.870048   -0.350709
  C      1.550100    5.643406    1.117314
  H     -1.941242    1.988550   -0.708190
  H     -1.746976    1.722406    1.016224
  H     -1.092728    4.200151   -0.460525
  H     -0.899029    3.934652    1.260154
  H      2.171629    1.702537   -0.321910
  H      2.801777    4.203449   -0.006761
  H      2.149709    6.422341   -0.884227
  H      0.382077    6.009152   -0.737500
  H      0.660703    5.627316    1.736217
  H      2.430783    6.037010    1.611587

 Total Charge           Charge          ....    0
 Multiplicity           Mult            ....    1
 Number of Electrons    NEL             ....   66
 Basis Dimension        Dim             ....  339

ORBITAL ENERGIES
----------------

  NO   OCC          E(Eh)            E(eV)
   0   2.0000     -20.523569      -558.4747
   1   2.0000     -11.316900      -307.9485
   2   2.0000     -11.273676      -306.7723
   3   2.0000     -11.256626      -306.3084
   4   2.0000     -11.249991      -306.1278
   5   2.0000     -11.249307      -306.1092
   6   2.0000     -11.248288      -306.0815
   7   2.0000     -11.234540      -305.7074
   8   2.0000     -11.224421      -305.4320
   9   2.0000      -1.367267       -37.2052
  10   2.0000      -1.180072       -32.1114
  11   2.0000      -1.128989       -30.7214
  12   2.0000      -0.998460       -27.1695
  13   2.0000      -0.940411       -25.5899
  14   2.0000      -0.860268       -23.4091
  15   2.0000      -0.843634       -22.9564
  16   2.0000      -0.749282       -20.3890
  17   2.0000      -0.732588       -19.9347
  18   2.0000      -0.696451       -18.9514
  19   2.0000      -0.660394       -17.9702
  20   2.0000      -0.645922       -17.5764
  21   2.0000      -0.612501       -16.6670
  22   2.0000      -0.586355       -15.9555
  23   2.0000      -0.567944       -15.4545
  24   2.0000      -0.550222       -14.9723
  25   2.0000      -0.533052       -14.5051
  26   2.0000      -0.529450       -14.4071
  27   2.0000      -0.502143       -13.6640
  28   2.0000      -0.501014       -13.6333
  29   2.0000      -0.460413       -12.5285
  30   2.0000      -0.451904       -12.2969
  31   2.0000      -0.393964       -10.7203
  32   2.0000      -0.350674        -9.5423
  33   0.0000       0.104482         2.8431
  34   0.0000       0.130392         3.5481
  35   0.0000       0.145808         3.9676
  36   0.0000       0.156827         4.2675
  37   0.0000       0.156930         4.2703

MULLIKEN ATOMIC CHARGES
-----------------------
   0 O :   -0.299557
   1 C :    0.190684
   2 C :   -0.202884
   3 C :   -0.202297
   4 C :    0.041122
   5 C :   -0.298025
   6 C :   -0.051194
   7 C :   -0.261396
   8 C :   -0.261407
   9 H :    0.133698
  10 H :    0.133696
  11 H :    0.125699
  12 H :    0.125706
  13 H :    0.135820
  14 H :    0.131869
  15 H :    0.140852
  16 H :    0.138382
  17 H :    0.138379
  18 H :    0.140852
Sum of atomic charges:   -0.0000000

LOEWDIN ATOMIC CHARGES
----------------------
   0 O :    0.127197
   1 C :   -0.330502
   2 C :   -0.207827
   3 C :   -0.203521
   4 C :   -0.113001
   5 C :   -0.102329
   6 C :   -0.180272
   7 C :   -0.210725
   8 C :   -0.210734
   9 H :    0.149192
  10 H :    0.149194
  11 H :    0.144645
  12 H :    0.144640
  13 H :    0.147263
  14 H :    0.158000
  15 H :    0.135213
  16 H :    0.134178
  17 H :    0.134176
  18 H :    0.135213

  Mayer bond orders larger than 0.1
B(  0-O ,  1-C ) :   2.0029 B(  1-C ,  2-C ) :   0.9199 B(  1-C ,  5-C ) :   1.0201
B(  2-C ,  3-C ) :   0.9461 B(  2-C ,  9-H ) :   0.9093 B(  2-C , 10-H ) :   0.9093
B(  3-C ,  4-C ) :   0.8846 B(  3-C , 11-H ) :   0.9068 B(  3-C , 12-H ) :   0.9068
B(  4-C ,  5-C ) :   1.6056 B(  4-C ,  6-C ) :   0.9251 B(  5-C , 13-H ) :   0.9348
B(  6-C ,  7-C ) :   0.8313 B(  6-C ,  8-C ) :   0.8313 B(  6-C , 14-H ) :   0.9365
B(  7-C ,  8-C ) :   0.8944 B(  7-C , 15-H ) :   0.9303 B(  7-C , 16-H ) :   0.9356
B(  8-C , 17-H ) :   0.9356 B(  8-C , 18-H ) :   0.9303

MP2 TOTAL ENERGY:     -385.231929805 Eh
FINAL SINGLE POINT ENERGY      -385.231929805057

DIPOLE MOMENT
-------------
                                X             Y             Z
Electronic contribution:      0.30192      -8.20607      -1.30082
Nuclear contribution   :     -0.14620       9.96870       1.55538
                        -----------------------------------------
Total Dipole Moment    :      0.15572       1.76263       0.25456
                        -----------------------------------------
Magnitude (a.u.)       :      1.78771
Magnitude (Debye)      :      4.54401

                             ****ORCA TERMINATED NORMALLY****
TOTAL RUN TIME: 0 days 0 hours 18 minutes 14 seconds 936 msec
