                         Program Version 3.0.3 - RELEASE   -
|  1> ! RI-MP2 RIJK def2-TZVP def2-TZVP/C def2-TZVP/JK TIGHTSCF
|  2> % maxcore 2000
|  3> % mp2 density relaxed end
|  4> *xyz 0 1
|  5>  C        0.0189096820     1.5572793716    -0.0195716806
|  6>  C        0.0718077061     0.0506388092    -0.0020410723
|  7>  C        1.3076055708    -0.7821920199    -0.2542441019
|  8>  C        2.5576405459    -0.1420320760     0.3443044803
|  9>  N        1.8617265924    -0.0490905487     1.7092331824
| 10>  H        2.3432385503    -0.5738287554     2.4372675819
| 11>  H        1.6745201777     0.8974920273     2.0461095476
| 12>  C        0.6353173240    -0.7676596141     1.1043928810
| 13>  C       -1.2320515210    -0.7079942123    -0.5646948171
| 14>  O       -2.0578419148     0.0452398078    -1.0787498475
| 15>  O       -1.1777532646    -1.9377143101    -0.3783452931
| 16>  H        0.9529182380     2.0653377937     0.2697105804
| 17>  H       -0.2419882918     1.8801937131    -1.0290918656
| 18>  H       -0.7828168541     1.9110909176     0.6344324518
| 19>  H        1.3127362199    -1.6036528697    -0.9545229181
| 20>  H        3.4199765028    -0.8033541976     0.4420954996
| 21>  H        2.8747875664     0.8408070927    -0.0122002948
| 22>  H        0.1335739201    -1.5196779490     1.6941354758
| 23> *
| 24>
| 25>                          ****END OF INPUT****

CARTESIAN COORDINATES (ANGSTROEM)
---------------------------------
  C      0.018910    1.557279   -0.019572
  C      0.071808    0.050639   -0.002041
  C      1.307606   -0.782192   -0.254244
  C      2.557641   -0.142032    0.344304
  N      1.861727   -0.049091    1.709233
  H      2.343239   -0.573829    2.437268
  H      1.674520    0.897492    2.046110
  C      0.635317   -0.767660    1.104393
  C     -1.232052   -0.707994   -0.564695
  O     -2.057842    0.045240   -1.078750
  O     -1.177753   -1.937714   -0.378345
  H      0.952918    2.065338    0.269711
  H     -0.241988    1.880194   -1.029092
  H     -0.782817    1.911091    0.634432
  H      1.312736   -1.603653   -0.954523
  H      3.419977   -0.803354    0.442095
  H      2.874788    0.840807   -0.012200
  H      0.133574   -1.519678    1.694135

 Total Charge           Charge          ....    0
 Multiplicity           Mult            ....    1
 Number of Electrons    NEL             ....   68
 Basis Dimension        Dim             ....  333

ORBITAL ENERGIES
----------------

  NO   OCC          E(Eh)            E(eV)
   0   2.0000     -20.439161      -556.1778
   1   2.0000     -20.437858      -556.1424
   2   2.0000     -15.731077      -428.0644
   3   2.0000     -11.348250      -308.8016
   4   2.0000     -11.319313      -308.0142
   5   2.0000     -11.293178      -307.3030
   6   2.0000     -11.275043      -306.8095
   7   2.0000     -11.254539      -306.2516
   8   2.0000     -11.229138      -305.5604
   9   2.0000      -1.377082       -37.4723
  10   2.0000      -1.327252       -36.1164
  11   2.0000      -1.233700       -33.5707
  12   2.0000      -1.166479       -31.7415
  13   2.0000      -1.028211       -27.9790
  14   2.0000      -0.980932       -26.6925
  15   2.0000      -0.851902       -23.1814
  16   2.0000      -0.830520       -22.5996
  17   2.0000      -0.805627       -21.9222
  18   2.0000      -0.753711       -20.5095
  19   2.0000      -0.689679       -18.7671
  20   2.0000      -0.659332       -17.9413
  21   2.0000      -0.645038       -17.5524
  22   2.0000      -0.618182       -16.8216
  23   2.0000      -0.582409       -15.8482
  24   2.0000      -0.575638       -15.6639
  25   2.0000      -0.570818       -15.5327
  26   2.0000      -0.547214       -14.8905
  27   2.0000      -0.536281       -14.5929
  28   2.0000      -0.508445       -13.8355
  29   2.0000      -0.444740       -12.1020
  30   2.0000      -0.435427       -11.8486
  31   2.0000      -0.367262        -9.9937
  32   2.0000      -0.344671        -9.3790
  33   2.0000      -0.343218        -9.3394
  34   0.0000       0.057275         1.5585
  35   0.0000       0.102038         2.7766
  36   0.0000       0.115084         3.1316
  37   0.0000       0.168692         4.5904
  38   0.0000       0.172078         4.6825

MULLIKEN ATOMIC CHARGES
-----------------------
   0 C :   -0.412577
   1 C :   -0.029478
   2 C :   -0.116159
   3 C :   -0.201604
   4 N :   -0.204680
   5 H :    0.291606
   6 H :    0.294526
   7 C :   -0.090067
   8 C :    0.255927
   9 O :   -0.432408
  10 O :   -0.482368
  11 H :    0.067115
  12 H :    0.178558
  13 H :    0.155869
  14 H :    0.188216
  15 H :    0.171116
  16 H :    0.173232
  17 H :    0.193180
Sum of atomic charges:    0.0000000

LOEWDIN ATOMIC CHARGES
----------------------
   0 C :   -0.277144
   1 C :   -0.208193
   2 C :   -0.152965
   3 C :   -0.175003
   4 N :    0.227540
   5 H :    0.204111
   6 H :    0.203173
   7 C :   -0.139915
   8 C :   -0.636183
   9 O :    0.005277
  10 O :   -0.032425
  11 H :    0.103724
  12 H :    0.149530
  13 H :    0.138784
  14 H :    0.159891
  15 H :    0.140440
  16 H :    0.135613
  17 H :    0.153744

  Mayer bond orders larger than 0.1
B(  0-C ,  1-C ) :   0.9171 B(  0-C , 11-H ) :   0.9244 B(  0-C , 12-H ) :   0.9215
B(  0-C , 13-H ) :   0.9292 B(  1-C ,  2-C ) :   0.8667 B(  1-C ,  7-C ) :   0.8811
B(  1-C ,  8-C ) :   0.8200 B(  1-C , 10-O ) :  -0.1056 B(  2-C ,  3-C ) :   0.8783
B(  2-C ,  7-C ) :   0.8600 B(  2-C , 14-H ) :   0.9051 B(  3-C ,  4-N ) :   0.8577
B(  3-C , 15-H ) :   0.9269 B(  3-C , 16-H ) :   0.9218 B(  4-N ,  5-H ) :   0.8495
B(  4-N ,  6-H ) :   0.8396 B(  4-N ,  7-C ) :   0.7778 B(  7-C , 17-H ) :   0.8772
B(  8-C ,  9-O ) :   1.8191 B(  8-C , 10-O ) :   1.6946

MP2 TOTAL ENERGY:     -438.303993128 Eh
FINAL SINGLE POINT ENERGY      -438.303993128219

DIPOLE MOMENT
-------------
                                X             Y             Z
Electronic contribution:     -4.35971      -4.12025      -1.35356
Nuclear contribution   :      9.16370       5.36613       4.27340
                        -----------------------------------------
Total Dipole Moment    :      4.80399       1.24588       2.91983
                        -----------------------------------------
Magnitude (a.u.)       :      5.75812
Magnitude (Debye)      :     14.63598

                             ****ORCA TERMINATED NORMALLY****
TOTAL RUN TIME: 0 days 0 hours 18 minutes 35 seconds 67 msec
