                         Program Version 3.0.3 - RELEASE   -
|  1> ! RI-MP2 RIJK def2-TZVP def2-TZVP/C def2-TZVP/JK TIGHTSCF
|  2> % maxcore 2000
|  3> % mp2 density relaxed end
|  4> *xyz 0 1
|  5>  O        0.0614239004     1.4164684787     0.2323283055
|  6>  C        0.0316851781     0.0227053854    -0.0416039153
|  7>  C       -1.3592184875    -0.5332451702    -0.0457005313
|  8>  C       -2.0487763130    -1.0469396083     1.1930762379
|  9>  C       -1.8626645646    -1.9754920909     0.0242563808
| 10>  C       -2.9229936111    -1.6949576645    -1.0437524869
| 11>  C       -2.4182489391    -0.2019664886    -1.1273790622
| 12>  C       -3.3666009257     0.8608318512    -0.8503794095
| 13>  C       -4.1695688095     1.7211248668    -0.6000426649
| 14>  H       -0.4759640746     1.5675699463     1.0173286374
| 15>  H        0.4957169432    -0.0878050512    -1.0289492328
| 16>  H        0.6495106833    -0.5468330927     0.6732347428
| 17>  H       -1.3933203629    -1.2318463755     2.0391203800
| 18>  H       -3.0397432494    -0.6889269208     1.4605858136
| 19>  H       -1.2811827066    -2.8859036035     0.1069453436
| 20>  H       -2.7570492959    -2.2282706033    -1.9815445290
| 21>  H       -3.9632258513    -1.8287621918    -0.7353125171
| 22>  H       -1.9308024829    -0.0227809730    -2.0906248494
| 23>  H       -4.8700671309     2.4913156858    -0.3917209631
| 24> *
| 25>
| 26>                          ****END OF INPUT****

CARTESIAN COORDINATES (ANGSTROEM)
---------------------------------
  O      0.061424    1.416468    0.232328
  C      0.031685    0.022705   -0.041604
  C     -1.359218   -0.533245   -0.045701
  C     -2.048776   -1.046940    1.193076
  C     -1.862665   -1.975492    0.024256
  C     -2.922994   -1.694958   -1.043752
  C     -2.418249   -0.201966   -1.127379
  C     -3.366601    0.860832   -0.850379
  C     -4.169569    1.721125   -0.600043
  H     -0.475964    1.567570    1.017329
  H      0.495717   -0.087805   -1.028949
  H      0.649511   -0.546833    0.673235
  H     -1.393320   -1.231846    2.039120
  H     -3.039743   -0.688927    1.460586
  H     -1.281183   -2.885904    0.106945
  H     -2.757049   -2.228271   -1.981545
  H     -3.963226   -1.828762   -0.735313
  H     -1.930802   -0.022781   -2.090625
  H     -4.870067    2.491316   -0.391721

 Total Charge           Charge          ....    0
 Multiplicity           Mult            ....    1
 Number of Electrons    NEL             ....   66
 Basis Dimension        Dim             ....  339

ORBITAL ENERGIES
----------------

  NO   OCC          E(Eh)            E(eV)
   0   2.0000     -20.553265      -559.2828
   1   2.0000     -11.280385      -306.9549
   2   2.0000     -11.260573      -306.4158
   3   2.0000     -11.247974      -306.0729
   4   2.0000     -11.243688      -305.9563
   5   2.0000     -11.239473      -305.8416
   6   2.0000     -11.235355      -305.7296
   7   2.0000     -11.230312      -305.5923
   8   2.0000     -11.218378      -305.2676
   9   2.0000      -1.357953       -36.9518
  10   2.0000      -1.206436       -32.8288
  11   2.0000      -1.048626       -28.5346
  12   2.0000      -0.988666       -26.9030
  13   2.0000      -0.960487       -26.1362
  14   2.0000      -0.892465       -24.2852
  15   2.0000      -0.805916       -21.9301
  16   2.0000      -0.757922       -20.6241
  17   2.0000      -0.714573       -19.4445
  18   2.0000      -0.705107       -19.1869
  19   2.0000      -0.662475       -18.0269
  20   2.0000      -0.642611       -17.4863
  21   2.0000      -0.626494       -17.0478
  22   2.0000      -0.599929       -16.3249
  23   2.0000      -0.560970       -15.2648
  24   2.0000      -0.550802       -14.9881
  25   2.0000      -0.527876       -14.3642
  26   2.0000      -0.502397       -13.6709
  27   2.0000      -0.494670       -13.4607
  28   2.0000      -0.452796       -12.3212
  29   2.0000      -0.417897       -11.3716
  30   2.0000      -0.393516       -10.7081
  31   2.0000      -0.377903       -10.2833
  32   2.0000      -0.374954       -10.2030
  33   0.0000       0.134947         3.6721
  34   0.0000       0.144725         3.9382
  35   0.0000       0.161161         4.3854
  36   0.0000       0.164089         4.4651
  37   0.0000       0.170693         4.6448

MULLIKEN ATOMIC CHARGES
-----------------------
   0 O :   -0.461124
   1 C :   -0.003716
   2 C :   -0.036270
   3 C :   -0.298103
   4 C :   -0.129470
   5 C :   -0.210954
   6 C :   -0.104254
   7 C :   -0.067381
   8 C :   -0.182774
   9 H :    0.318685
  10 H :    0.106536
  11 H :    0.095275
  12 H :    0.134421
  13 H :    0.146910
  14 H :    0.134412
  15 H :    0.123801
  16 H :    0.125734
  17 H :    0.121122
  18 H :    0.187151
Sum of atomic charges:   -0.0000000

LOEWDIN ATOMIC CHARGES
----------------------
   0 O :   -0.042463
   1 C :   -0.312057
   2 C :   -0.193271
   3 C :   -0.184159
   4 C :   -0.160663
   5 C :   -0.169889
   6 C :   -0.164273
   7 C :   -0.089478
   8 C :   -0.103210
   9 H :    0.176685
  10 H :    0.133407
  11 H :    0.124068
  12 H :    0.142084
  13 H :    0.138786
  14 H :    0.136817
  15 H :    0.136166
  16 H :    0.134087
  17 H :    0.171418
  18 H :    0.125945

  Mayer bond orders larger than 0.1
B(  0-O ,  1-C ) :   0.9318 B(  0-O ,  9-H ) :   0.8421 B(  1-C ,  2-C ) :   0.9822
B(  1-C , 10-H ) :   0.9212 B(  1-C , 11-H ) :   0.9186 B(  2-C ,  3-C ) :   0.8949
B(  2-C ,  4-C ) :   0.7774 B(  2-C ,  6-C ) :   0.8382 B(  3-C ,  4-C ) :   0.8787
B(  3-C , 12-H ) :   0.9321 B(  3-C , 13-H ) :   0.9071 B(  4-C ,  5-C ) :   0.9491
B(  4-C , 14-H ) :   0.9168 B(  5-C ,  6-C ) :   0.9223 B(  5-C , 15-H ) :   0.9283
B(  5-C , 16-H ) :   0.9143 B(  6-C ,  7-C ) :   1.1771 B(  6-C , 17-H ) :   0.9217
B(  7-C ,  8-C ) :   2.5675 B(  8-C , 18-H ) :   0.9002

MP2 TOTAL ENERGY:     -385.140460428 Eh
FINAL SINGLE POINT ENERGY      -385.140460427539

DIPOLE MOMENT
-------------
                                X             Y             Z
Electronic contribution:     -0.86037       3.11030      -0.92080
Nuclear contribution   :      0.68300      -3.79215       1.21809
                        -----------------------------------------
Total Dipole Moment    :     -0.17737      -0.68185       0.29729
                        -----------------------------------------
Magnitude (a.u.)       :      0.76470
Magnitude (Debye)      :      1.94370

                             ****ORCA TERMINATED NORMALLY****
TOTAL RUN TIME: 0 days 0 hours 19 minutes 56 seconds 236 msec
