                         Program Version 3.0.3 - RELEASE   -
|  1> ! RI-MP2 RIJK def2-TZVP def2-TZVP/C def2-TZVP/JK TIGHTSCF
|  2> % maxcore 2000
|  3> % mp2 density relaxed end
|  4> *xyz 0 1
|  5>  O        0.0429823652     0.0195632756    -0.4309321961
|  6>  C        0.0240417517     1.1895539926    -0.1179190514
|  7>  N        1.0634364015     1.8585059612     0.4731865218
|  8>  C        2.5064032316     1.6142819523     0.2215017903
|  9>  C        2.6035401718     2.7223689123    -0.8983616133
| 10>  N        3.7032693044     3.4958519314    -0.2436856970
| 11>  C        2.8998517457     2.9703223811     0.9050468281
| 12>  C        1.5584902295     3.2245955175     0.1544123721
| 13>  H       -0.8798026067     1.8279515445    -0.2026391287
| 14>  H        2.9705045065     0.6320198999     0.2810457549
| 15>  H        2.4875319747     2.6173269626    -1.9776958437
| 16>  H        4.5883505100     2.9887381203    -0.3194358294
| 17>  H        3.1289277660     3.1610367436     1.9530236103
| 18>  H        0.9367618881     4.1173800852     0.1422355222
| 19> *
| 20>
| 21>                          ****END OF INPUT****

CARTESIAN COORDINATES (ANGSTROEM)
---------------------------------
  O      0.042982    0.019563   -0.430932
  C      0.024042    1.189554   -0.117919
  N      1.063436    1.858506    0.473187
  C      2.506403    1.614282    0.221502
  C      2.603540    2.722369   -0.898362
  N      3.703269    3.495852   -0.243686
  C      2.899852    2.970322    0.905047
  C      1.558490    3.224596    0.154412
  H     -0.879803    1.827952   -0.202639
  H      2.970505    0.632020    0.281046
  H      2.487532    2.617327   -1.977696
  H      4.588351    2.988738   -0.319436
  H      3.128928    3.161037    1.953024
  H      0.936762    4.117380    0.142236

 Total Charge           Charge          ....    0
 Multiplicity           Mult            ....    1
 Number of Electrons    NEL             ....   58
 Basis Dimension        Dim             ....  284

ORBITAL ENERGIES
----------------

  NO   OCC          E(Eh)            E(eV)
   0   2.0000     -20.532384      -558.7146
   1   2.0000     -15.590978      -424.2521
   2   2.0000     -15.571563      -423.7238
   3   2.0000     -11.350372      -308.8593
   4   2.0000     -11.306528      -307.6663
   5   2.0000     -11.300623      -307.5056
   6   2.0000     -11.299029      -307.4622
   7   2.0000     -11.298098      -307.4369
   8   2.0000      -1.393479       -37.9185
   9   2.0000      -1.350258       -36.7424
  10   2.0000      -1.219409       -33.1818
  11   2.0000      -1.027458       -27.9585
  12   2.0000      -0.916866       -24.9492
  13   2.0000      -0.904366       -24.6091
  14   2.0000      -0.823425       -22.4065
  15   2.0000      -0.737229       -20.0610
  16   2.0000      -0.729566       -19.8525
  17   2.0000      -0.706117       -19.2144
  18   2.0000      -0.648836       -17.6557
  19   2.0000      -0.635064       -17.2810
  20   2.0000      -0.607846       -16.5403
  21   2.0000      -0.542504       -14.7623
  22   2.0000      -0.532339       -14.4857
  23   2.0000      -0.507519       -13.8103
  24   2.0000      -0.494796       -13.4641
  25   2.0000      -0.460462       -12.5298
  26   2.0000      -0.437683       -11.9100
  27   2.0000      -0.404568       -11.0089
  28   2.0000      -0.380687       -10.3590
  29   0.0000       0.133044         3.6203
  30   0.0000       0.146984         3.9996
  31   0.0000       0.157460         4.2847
  32   0.0000       0.163615         4.4522
  33   0.0000       0.173221         4.7136

MULLIKEN ATOMIC CHARGES
-----------------------
   0 O :   -0.334770
   1 C :    0.127190
   2 N :   -0.112479
   3 C :   -0.089179
   4 C :   -0.040337
   5 N :   -0.355486
   6 C :   -0.016479
   7 C :   -0.073481
   8 H :    0.084011
   9 H :    0.157623
  10 H :    0.146448
  11 H :    0.208847
  12 H :    0.142331
  13 H :    0.155761
Sum of atomic charges:    0.0000000

LOEWDIN ATOMIC CHARGES
----------------------
   0 O :    0.076019
   1 C :   -0.416702
   2 N :    0.186165
   3 C :   -0.143028
   4 C :   -0.182862
   5 N :   -0.003232
   6 C :   -0.180260
   7 C :   -0.140847
   8 H :    0.111054
   9 H :    0.136375
  10 H :    0.130094
  11 H :    0.162247
  12 H :    0.129583
  13 H :    0.135394

  Mayer bond orders larger than 0.1
B(  0-O ,  1-C ) :   1.9294 B(  1-C ,  2-N ) :   1.0871 B(  1-C ,  8-H ) :   0.9361
B(  2-N ,  3-C ) :   0.8497 B(  2-N ,  7-C ) :   0.8761 B(  3-C ,  4-C ) :   0.8356
B(  3-C ,  6-C ) :   0.8529 B(  3-C ,  9-H ) :   0.9241 B(  4-C ,  5-N ) :   0.9257
B(  4-C ,  7-C ) :   0.8595 B(  4-C , 10-H ) :   0.9073 B(  5-N ,  6-C ) :   0.9265
B(  5-N , 11-H ) :   0.8757 B(  6-C ,  7-C ) :   0.8995 B(  6-C , 12-H ) :   0.9000
B(  7-C , 13-H ) :   0.8782

MP2 TOTAL ENERGY:     -377.980596238 Eh
FINAL SINGLE POINT ENERGY      -377.980596237930

DIPOLE MOMENT
-------------
                                X             Y             Z
Electronic contribution:     -1.71906      -1.75838       0.22450
Nuclear contribution   :      2.37544       2.53407      -0.08883
                        -----------------------------------------
Total Dipole Moment    :      0.65637       0.77568       0.13567
                        -----------------------------------------
Magnitude (a.u.)       :      1.02514
Magnitude (Debye)      :      2.60571

                             ****ORCA TERMINATED NORMALLY****
TOTAL RUN TIME: 0 days 0 hours 11 minutes 10 seconds 862 msec
