                         Program Version 3.0.3 - RELEASE   -
|  1> ! RI-MP2 RIJK def2-TZVP def2-TZVP/C def2-TZVP/JK TIGHTSCF
|  2> % maxcore 2000
|  3> % mp2 density relaxed end
|  4> *xyz 0 1
|  5>  C       -0.0565186531    -1.1180975654    -0.0147363230
|  6>  C       -0.0306983055     0.0861817062    -0.0186386997
|  7>  C       -0.0445936176     1.5113875733     0.0068838942
|  8>  C       -1.3768379201     2.3441463014     0.2355124221
|  9>  C       -0.5317221433     3.4681116843    -0.3718014220
| 10>  C        0.1599818955     4.2307606196     0.4980014982
| 11>  C        1.5701387340     3.6753606144     0.6635981138
| 12>  C        1.3624156863     2.2941923998     0.0166212823
| 13>  C        0.3947007469     2.4667119864    -1.0863545281
| 14>  H       -0.0723863319    -2.1795139610    -0.0180427517
| 15>  H       -2.1578158584     1.9064706346    -0.3952955296
| 16>  H       -1.7468101123     2.4924751319     1.2534154959
| 17>  H       -0.3224365859     4.7395070760     1.3279096586
| 18>  H        2.3956910922     4.2043933357     0.1650601086
| 19>  H        1.8107285888     3.6479390615     1.7329828882
| 20>  H        2.1957174414     1.6030838026    -0.0874260047
| 21>  H        0.4973354533     2.2799679387    -2.1471549731
| 22> *
| 23>
| 24>                          ****END OF INPUT****

CARTESIAN COORDINATES (ANGSTROEM)
---------------------------------
  C     -0.056519   -1.118098   -0.014736
  C     -0.030698    0.086182   -0.018639
  C     -0.044594    1.511388    0.006884
  C     -1.376838    2.344146    0.235512
  C     -0.531722    3.468112   -0.371801
  C      0.159982    4.230761    0.498001
  C      1.570139    3.675361    0.663598
  C      1.362416    2.294192    0.016621
  C      0.394701    2.466712   -1.086355
  H     -0.072386   -2.179514   -0.018043
  H     -2.157816    1.906471   -0.395296
  H     -1.746810    2.492475    1.253415
  H     -0.322437    4.739507    1.327910
  H      2.395691    4.204393    0.165060
  H      1.810729    3.647939    1.732983
  H      2.195717    1.603084   -0.087426
  H      0.497335    2.279968   -2.147155

 Total Charge           Charge          ....    0
 Multiplicity           Mult            ....    1
 Number of Electrons    NEL             ....   62
 Basis Dimension        Dim             ....  327

ORBITAL ENERGIES
----------------

  NO   OCC          E(Eh)            E(eV)
   0   2.0000     -11.273535      -306.7685
   1   2.0000     -11.259557      -306.3881
   2   2.0000     -11.259513      -306.3869
   3   2.0000     -11.246536      -306.0338
   4   2.0000     -11.240350      -305.8655
   5   2.0000     -11.239795      -305.8504
   6   2.0000     -11.238523      -305.8158
   7   2.0000     -11.234615      -305.7094
   8   2.0000     -11.221315      -305.3475
   9   2.0000      -1.234494       -33.5923
  10   2.0000      -1.061191       -28.8765
  11   2.0000      -1.018050       -27.7025
  12   2.0000      -1.007697       -27.4208
  13   2.0000      -0.902713       -24.5641
  14   2.0000      -0.841728       -22.9046
  15   2.0000      -0.785480       -21.3740
  16   2.0000      -0.724540       -19.7157
  17   2.0000      -0.714840       -19.4518
  18   2.0000      -0.672988       -18.3129
  19   2.0000      -0.648164       -17.6374
  20   2.0000      -0.597306       -16.2535
  21   2.0000      -0.586266       -15.9531
  22   2.0000      -0.556617       -15.1463
  23   2.0000      -0.513431       -13.9712
  24   2.0000      -0.501351       -13.6424
  25   2.0000      -0.486527       -13.2391
  26   2.0000      -0.455415       -12.3925
  27   2.0000      -0.432567       -11.7707
  28   2.0000      -0.379884       -10.3372
  29   2.0000      -0.349195        -9.5021
  30   2.0000      -0.317471        -8.6388
  31   0.0000       0.093475         2.5436
  32   0.0000       0.142161         3.8684
  33   0.0000       0.157786         4.2936
  34   0.0000       0.164065         4.4644
  35   0.0000       0.173545         4.7224

MULLIKEN ATOMIC CHARGES
-----------------------
   0 C :   -0.125925
   1 C :    0.000286
   2 C :   -0.172630
   3 C :   -0.192465
   4 C :    0.058926
   5 C :   -0.215695
   6 C :   -0.148193
   7 C :   -0.199729
   8 C :   -0.098826
   9 H :    0.190672
  10 H :    0.124122
  11 H :    0.118769
  12 H :    0.126387
  13 H :    0.125996
  14 H :    0.121770
  15 H :    0.133224
  16 H :    0.153310
Sum of atomic charges:    0.0000000

LOEWDIN ATOMIC CHARGES
----------------------
   0 C :   -0.091814
   1 C :   -0.083597
   2 C :   -0.135330
   3 C :   -0.126936
   4 C :   -0.127369
   5 C :   -0.111721
   6 C :   -0.217124
   7 C :   -0.122745
   8 C :   -0.101945
   9 H :    0.126644
  10 H :    0.141873
  11 H :    0.129637
  12 H :    0.137674
  13 H :    0.142641
  14 H :    0.143296
  15 H :    0.153371
  16 H :    0.143445

  Mayer bond orders larger than 0.1
B(  0-C ,  1-C ) :   2.6017 B(  0-C ,  2-C ) :  -0.1803 B(  0-C ,  9-H ) :   0.8748
B(  1-C ,  2-C ) :   1.2246 B(  2-C ,  3-C ) :   0.9017 B(  2-C ,  7-C ) :   0.8070
B(  2-C ,  8-C ) :   0.7950 B(  3-C ,  4-C ) :   0.9221 B(  3-C , 10-H ) :   0.9060
B(  3-C , 11-H ) :   0.9151 B(  4-C ,  5-C ) :   1.6811 B(  4-C ,  8-C ) :   0.8917
B(  5-C ,  6-C ) :   0.9561 B(  5-C , 12-H ) :   0.9317 B(  6-C ,  7-C ) :   0.9344
B(  6-C , 13-H ) :   0.8936 B(  6-C , 14-H ) :   0.9145 B(  7-C ,  8-C ) :   0.9047
B(  7-C , 15-H ) :   0.9232 B(  8-C , 16-H ) :   0.8918

MP2 TOTAL ENERGY:     -346.757738122 Eh
FINAL SINGLE POINT ENERGY      -346.757738121739

DIPOLE MOMENT
-------------
                                X             Y             Z
Electronic contribution:     -0.93003      -1.65907      -1.48104
Nuclear contribution   :      1.14712       1.60824       1.65398
                        -----------------------------------------
Total Dipole Moment    :      0.21708      -0.05083       0.17294
                        -----------------------------------------
Magnitude (a.u.)       :      0.28216
Magnitude (Debye)      :      0.71720

                             ****ORCA TERMINATED NORMALLY****
TOTAL RUN TIME: 0 days 0 hours 18 minutes 58 seconds 27 msec
