                         Program Version 3.0.3 - RELEASE   -
|  1> ! RI-MP2 RIJK def2-TZVP def2-TZVP/C def2-TZVP/JK TIGHTSCF
|  2> % maxcore 2000
|  3> % mp2 density relaxed end
|  4> *xyz 0 1
|  5>  C       -0.2877769075     1.5357315596    -0.0545645617
|  6>  C        0.1115382631     0.0513276219     0.0311072505
|  7>  C        0.8405577218    -0.4364904814    -1.1846787141
|  8>  C        2.1038779184    -0.8653733288    -1.2784679997
|  9>  C        2.4811804196    -1.3258568348    -2.6799494612
| 10>  O        2.8955455155    -2.6816696041    -2.7268406455
| 11>  C        1.1872065561    -1.0802448779    -3.4663507943
| 12>  O        0.1265626762    -1.9317626902    -3.0080610081
| 13>  C        0.1869228990    -0.5569590917    -2.5363754059
| 14>  H        0.5959479975     2.1718737332    -0.1630354132
| 15>  H       -0.9445026877     1.7278437523    -0.9094047183
| 16>  H       -0.8221939004     1.8447802093     0.8486520451
| 17>  H        0.7382135346    -0.1080893188     0.9151052848
| 18>  H       -0.7947991352    -0.5528499741     0.1745548771
| 19>  H        2.7936388449    -0.9768118223    -0.4486244805
| 20>  H        3.3135473388    -0.7462738035    -3.0953520561
| 21>  H        2.1069775764    -3.1971325056    -2.5108629595
| 22>  H        1.2012993470    -0.8777479039    -4.5330887942
| 23>  H       -0.6525018781     0.0614729807    -2.8388520452
| 24> *
| 25>
| 26>                          ****END OF INPUT****

CARTESIAN COORDINATES (ANGSTROEM)
---------------------------------
  C     -0.287777    1.535732   -0.054565
  C      0.111538    0.051328    0.031107
  C      0.840558   -0.436490   -1.184679
  C      2.103878   -0.865373   -1.278468
  C      2.481180   -1.325857   -2.679949
  O      2.895546   -2.681670   -2.726841
  C      1.187207   -1.080245   -3.466351
  O      0.126563   -1.931763   -3.008061
  C      0.186923   -0.556959   -2.536375
  H      0.595948    2.171874   -0.163035
  H     -0.944503    1.727844   -0.909405
  H     -0.822194    1.844780    0.848652
  H      0.738214   -0.108089    0.915105
  H     -0.794799   -0.552850    0.174555
  H      2.793639   -0.976812   -0.448624
  H      3.313547   -0.746274   -3.095352
  H      2.106978   -3.197133   -2.510863
  H      1.201299   -0.877748   -4.533089
  H     -0.652502    0.061473   -2.838852

 Total Charge           Charge          ....    0
 Multiplicity           Mult            ....    1
 Number of Electrons    NEL             ....   68
 Basis Dimension        Dim             ....  339

ORBITAL ENERGIES
----------------

  NO   OCC          E(Eh)            E(eV)
   0   2.0000     -20.574568      -559.8625
   1   2.0000     -20.554424      -559.3143
   2   2.0000     -11.295289      -307.3604
   3   2.0000     -11.291864      -307.2672
   4   2.0000     -11.287812      -307.1570
   5   2.0000     -11.246642      -306.0367
   6   2.0000     -11.239556      -305.8439
   7   2.0000     -11.230905      -305.6085
   8   2.0000     -11.227602      -305.5186
   9   2.0000      -1.418092       -38.5882
  10   2.0000      -1.358188       -36.9582
  11   2.0000      -1.121807       -30.5259
  12   2.0000      -1.040361       -28.3097
  13   2.0000      -0.954241       -25.9662
  14   2.0000      -0.921189       -25.0668
  15   2.0000      -0.860565       -23.4172
  16   2.0000      -0.808078       -21.9889
  17   2.0000      -0.753524       -20.5044
  18   2.0000      -0.716514       -19.4973
  19   2.0000      -0.670450       -18.2439
  20   2.0000      -0.628421       -17.1002
  21   2.0000      -0.617316       -16.7980
  22   2.0000      -0.608165       -16.5490
  23   2.0000      -0.587459       -15.9856
  24   2.0000      -0.566154       -15.4058
  25   2.0000      -0.555681       -15.1208
  26   2.0000      -0.537086       -14.6149
  27   2.0000      -0.525714       -14.3054
  28   2.0000      -0.506848       -13.7920
  29   2.0000      -0.488846       -13.3022
  30   2.0000      -0.469788       -12.7836
  31   2.0000      -0.458244       -12.4695
  32   2.0000      -0.421358       -11.4657
  33   2.0000      -0.354229        -9.6391
  34   0.0000       0.124453         3.3865
  35   0.0000       0.139296         3.7904
  36   0.0000       0.162017         4.4087
  37   0.0000       0.165789         4.5113
  38   0.0000       0.175478         4.7750

MULLIKEN ATOMIC CHARGES
-----------------------
   0 C :   -0.389725
   1 C :   -0.247073
   2 C :    0.063689
   3 C :   -0.259531
   4 C :    0.179008
   5 O :   -0.465206
   6 C :   -0.038037
   7 O :   -0.334321
   8 C :    0.010874
   9 H :    0.132764
  10 H :    0.122419
  11 H :    0.136110
  12 H :    0.126199
  13 H :    0.129338
  14 H :    0.134809
  15 H :    0.102797
  16 H :    0.326711
  17 H :    0.133864
  18 H :    0.135309
Sum of atomic charges:   -0.0000000

LOEWDIN ATOMIC CHARGES
----------------------
   0 C :   -0.307553
   1 C :   -0.250318
   2 C :   -0.146532
   3 C :   -0.101822
   4 C :   -0.305396
   5 O :   -0.015240
   6 C :   -0.231796
   7 O :    0.153718
   8 C :   -0.200405
   9 H :    0.123344
  10 H :    0.119583
  11 H :    0.122613
  12 H :    0.145539
  13 H :    0.147886
  14 H :    0.141800
  15 H :    0.147673
  16 H :    0.181439
  17 H :    0.135744
  18 H :    0.139723

  Mayer bond orders larger than 0.1
B(  0-C ,  1-C ) :   0.9129 B(  0-C ,  9-H ) :   0.9378 B(  0-C , 10-H ) :   0.9379
B(  0-C , 11-H ) :   0.9362 B(  1-C ,  2-C ) :   0.8920 B(  1-C , 12-H ) :   0.9502
B(  1-C , 13-H ) :   0.9268 B(  2-C ,  3-C ) :   1.6840 B(  2-C ,  8-C ) :   0.8884
B(  3-C ,  4-C ) :   0.9310 B(  3-C , 14-H ) :   0.9250 B(  4-C ,  5-O ) :   0.9415
B(  4-C ,  6-C ) :   0.9305 B(  4-C , 15-H ) :   0.9261 B(  5-O , 16-H ) :   0.8266
B(  6-C ,  7-O ) :   0.9071 B(  6-C ,  8-C ) :   0.9884 B(  6-C , 17-H ) :   0.9208
B(  7-O ,  8-C ) :   0.8839 B(  8-C , 18-H ) :   0.9226

MP2 TOTAL ENERGY:     -422.305490989 Eh
FINAL SINGLE POINT ENERGY      -422.305490989355

DIPOLE MOMENT
-------------
                                X             Y             Z
Electronic contribution:      2.62830      -6.34414      -5.59299
Nuclear contribution   :     -2.99417       7.27412       5.92837
                        -----------------------------------------
Total Dipole Moment    :     -0.36586       0.92998       0.33538
                        -----------------------------------------
Magnitude (a.u.)       :      1.05413
Magnitude (Debye)      :      2.67940

                             ****ORCA TERMINATED NORMALLY****
TOTAL RUN TIME: 0 days 0 hours 17 minutes 8 seconds 398 msec
