                         Program Version 3.0.3 - RELEASE   -
|  1> ! RI-MP2 RIJK def2-TZVP def2-TZVP/C def2-TZVP/JK TIGHTSCF
|  2> % maxcore 2000
|  3> % mp2 density relaxed end
|  4> *xyz 0 1
|  5>  O       -0.0775430966     1.3341869377    -0.1945600209
|  6>  N        0.0290038666    -0.0332384009    -0.0412287694
|  7>  C       -1.0930638594    -0.6338922193     0.0699730152
|  8>  C       -1.1445513276    -2.1423769788     0.2275523030
|  9>  C       -2.5735372801    -2.4158543790     0.6768634588
| 10>  N       -2.9210547875    -1.6673739734     1.8866433823
| 11>  C       -3.3891932249    -1.1747091744     0.5547993364
| 12>  C       -2.5003523558    -0.0676709323     0.0561689652
| 13>  O       -2.8567927623     1.0166071934    -0.3301227720
| 14>  H        0.8461121325     1.6080793272    -0.2369346803
| 15>  H       -0.9520675143    -2.6315378684    -0.7351350095
| 16>  H       -0.4055746961    -2.5079108825     0.9450338143
| 17>  H       -3.0154316199    -3.3911304563     0.5044648531
| 18>  H       -3.7136422109    -2.1060068467     2.3507395967
| 19>  H       -4.4474069636    -1.1572353463     0.3253899971
| 20> *
| 21>
| 22>                          ****END OF INPUT****

CARTESIAN COORDINATES (ANGSTROEM)
---------------------------------
  O     -0.077543    1.334187   -0.194560
  N      0.029004   -0.033238   -0.041229
  C     -1.093064   -0.633892    0.069973
  C     -1.144551   -2.142377    0.227552
  C     -2.573537   -2.415854    0.676863
  N     -2.921055   -1.667374    1.886643
  C     -3.389193   -1.174709    0.554799
  C     -2.500352   -0.067671    0.056169
  O     -2.856793    1.016607   -0.330123
  H      0.846112    1.608079   -0.236935
  H     -0.952068   -2.631538   -0.735135
  H     -0.405575   -2.507911    0.945034
  H     -3.015432   -3.391130    0.504465
  H     -3.713642   -2.106007    2.350740
  H     -4.447407   -1.157235    0.325390

 Total Charge           Charge          ....    0
 Multiplicity           Mult            ....    1
 Number of Electrons    NEL             ....   66
 Basis Dimension        Dim             ....  315

ORBITAL ENERGIES
----------------

  NO   OCC          E(Eh)            E(eV)
   0   2.0000     -20.603870      -560.6598
   1   2.0000     -20.560096      -559.4686
   2   2.0000     -15.642398      -425.6513
   3   2.0000     -15.590010      -424.2257
   4   2.0000     -11.344801      -308.7077
   5   2.0000     -11.291649      -307.2614
   6   2.0000     -11.287828      -307.1574
   7   2.0000     -11.284136      -307.0570
   8   2.0000     -11.253936      -306.2352
   9   2.0000      -1.441225       -39.2177
  10   2.0000      -1.399010       -38.0690
  11   2.0000      -1.300222       -35.3808
  12   2.0000      -1.175055       -31.9749
  13   2.0000      -1.038020       -28.2460
  14   2.0000      -0.964357       -26.2415
  15   2.0000      -0.875971       -23.8364
  16   2.0000      -0.810758       -22.0619
  17   2.0000      -0.742509       -20.2047
  18   2.0000      -0.736503       -20.0413
  19   2.0000      -0.703314       -19.1382
  20   2.0000      -0.668065       -18.1790
  21   2.0000      -0.642150       -17.4738
  22   2.0000      -0.621031       -16.8991
  23   2.0000      -0.591687       -16.1006
  24   2.0000      -0.585055       -15.9202
  25   2.0000      -0.560900       -15.2629
  26   2.0000      -0.547665       -14.9027
  27   2.0000      -0.508436       -13.8352
  28   2.0000      -0.498144       -13.5552
  29   2.0000      -0.482347       -13.1253
  30   2.0000      -0.423549       -11.5254
  31   2.0000      -0.396966       -10.8020
  32   2.0000      -0.388060       -10.5596
  33   0.0000       0.074767         2.0345
  34   0.0000       0.126799         3.4504
  35   0.0000       0.150148         4.0857
  36   0.0000       0.154926         4.2158
  37   0.0000       0.171378         4.6634

MULLIKEN ATOMIC CHARGES
-----------------------
   0 O :   -0.320570
   1 N :   -0.068589
   2 C :   -0.013099
   3 C :   -0.106566
   4 C :   -0.097911
   5 N :   -0.375485
   6 C :   -0.029811
   7 C :    0.135309
   8 O :   -0.240425
   9 H :    0.339643
  10 H :    0.129484
  11 H :    0.127329
  12 H :    0.142342
  13 H :    0.226967
  14 H :    0.151381
Sum of atomic charges:    0.0000000

LOEWDIN ATOMIC CHARGES
----------------------
   0 O :   -0.031435
   1 N :    0.043467
   2 C :   -0.235961
   3 C :   -0.193157
   4 C :   -0.243362
   5 N :    0.022417
   6 C :   -0.199179
   7 C :   -0.283292
   8 O :    0.184560
   9 H :    0.175870
  10 H :    0.151995
  11 H :    0.151374
  12 H :    0.138608
  13 H :    0.175244
  14 H :    0.142851

  Mayer bond orders larger than 0.1
B(  0-O ,  1-N ) :   0.8631 B(  0-O ,  9-H ) :   0.8406 B(  1-N ,  2-C ) :   1.8025
B(  2-C ,  3-C ) :   0.9379 B(  2-C ,  6-C ) :  -0.1040 B(  2-C ,  7-C ) :   0.9188
B(  3-C ,  4-C ) :   0.9402 B(  3-C , 10-H ) :   0.9162 B(  3-C , 11-H ) :   0.8836
B(  4-C ,  5-N ) :   0.9688 B(  4-C ,  6-C ) :   0.8715 B(  4-C , 12-H ) :   0.9203
B(  5-N ,  6-C ) :   0.8663 B(  5-N , 13-H ) :   0.8646 B(  6-C ,  7-C ) :   0.9325
B(  6-C , 14-H ) :   0.9133 B(  7-C ,  8-O ) :   2.0135

MP2 TOTAL ENERGY:     -453.150625272 Eh
FINAL SINGLE POINT ENERGY      -453.150625272094

DIPOLE MOMENT
-------------
                                X             Y             Z
Electronic contribution:      0.64918       4.86061      -1.14071
Nuclear contribution   :     -0.78538      -6.21455       1.17737
                        -----------------------------------------
Total Dipole Moment    :     -0.13621      -1.35394       0.03666
                        -----------------------------------------
Magnitude (a.u.)       :      1.36127
Magnitude (Debye)      :      3.46007

                             ****ORCA TERMINATED NORMALLY****
TOTAL RUN TIME: 0 days 0 hours 15 minutes 7 seconds 954 msec
