                         Program Version 3.0.3 - RELEASE   -
|  1> ! RI-MP2 RIJK def2-TZVP def2-TZVP/C def2-TZVP/JK TIGHTSCF
|  2> % maxcore 2000
|  3> % mp2 density relaxed end
|  4> *xyz 0 1
|  5>  C       -0.0713113020     1.4918002773    -0.0798161793
|  6>  C       -0.0080890460    -0.0254258689    -0.0304228696
|  7>  O        0.6708531713    -0.4865641979    -1.1806646122
|  8>  C        0.7771802155    -1.8912514071    -1.2398534009
|  9>  C        1.5203004049    -2.2625242253    -2.5176975129
| 10>  C        1.6550723846    -3.7699179038    -2.7157297023
| 11>  O        0.3795267404    -4.4245047253    -2.7978660130
| 12>  C        2.4786811737    -4.1425983227    -3.9510733248
| 13>  O        2.5220327557    -5.5411582758    -4.1250973995
| 14>  H        0.9361374943     1.9167778353    -0.1055715629
| 15>  H       -0.6057167471     1.8247669109    -0.9741524113
| 16>  H       -0.5906199437     1.8813901674     0.8008178351
| 17>  H        0.5159993499    -0.3614402467     0.8807043554
| 18>  H       -1.0238766308    -0.4548099345     0.0092347253
| 19>  H        1.3209400294    -2.2764255457    -0.3594333457
| 20>  H       -0.2192634335    -2.3606605509    -1.2299196284
| 21>  H        0.9943620579    -1.8209526858    -3.3755846768
| 22>  H        2.5169831310    -1.8060925879    -2.4975422240
| 23>  H        2.1304834521    -4.2258570772    -1.8385521043
| 24>  H       -0.1333449387    -3.9744856557    -3.4805812060
| 25>  H        2.0458403909    -3.6372249441    -4.8350664906
| 26>  H        3.5099176835    -3.7879416393    -3.8454968981
| 27>  H        1.6310825266    -5.8498005864    -3.9129202133
| 28> *
| 29>
| 30>                          ****END OF INPUT****

CARTESIAN COORDINATES (ANGSTROEM)
---------------------------------
  C     -0.071311    1.491800   -0.079816
  C     -0.008089   -0.025426   -0.030423
  O      0.670853   -0.486564   -1.180665
  C      0.777180   -1.891251   -1.239853
  C      1.520300   -2.262524   -2.517698
  C      1.655072   -3.769918   -2.715730
  O      0.379527   -4.424505   -2.797866
  C      2.478681   -4.142598   -3.951073
  O      2.522033   -5.541158   -4.125097
  H      0.936137    1.916778   -0.105572
  H     -0.605717    1.824767   -0.974152
  H     -0.590620    1.881390    0.800818
  H      0.515999   -0.361440    0.880704
  H     -1.023877   -0.454810    0.009235
  H      1.320940   -2.276426   -0.359433
  H     -0.219263   -2.360661   -1.229920
  H      0.994362   -1.820953   -3.375585
  H      2.516983   -1.806093   -2.497542
  H      2.130483   -4.225857   -1.838552
  H     -0.133345   -3.974486   -3.480581
  H      2.045840   -3.637225   -4.835066
  H      3.509918   -3.787942   -3.845497
  H      1.631083   -5.849801   -3.912920

 Total Charge           Charge          ....    0
 Multiplicity           Mult            ....    1
 Number of Electrons    NEL             ....   74
 Basis Dimension        Dim             ....  363

ORBITAL ENERGIES
----------------

  NO   OCC          E(Eh)            E(eV)
   0   2.0000     -20.571462      -559.7779
   1   2.0000     -20.556295      -559.3652
   2   2.0000     -20.549500      -559.1803
   3   2.0000     -11.288750      -307.1825
   4   2.0000     -11.278192      -306.8952
   5   2.0000     -11.277130      -306.8663
   6   2.0000     -11.276442      -306.8476
   7   2.0000     -11.232635      -305.6555
   8   2.0000     -11.216618      -305.2197
   9   2.0000      -1.384231       -37.6668
  10   2.0000      -1.378921       -37.5224
  11   2.0000      -1.349141       -36.7120
  12   2.0000      -1.071750       -29.1638
  13   2.0000      -1.019030       -27.7292
  14   2.0000      -0.959094       -26.0983
  15   2.0000      -0.861805       -23.4509
  16   2.0000      -0.833011       -22.6674
  17   2.0000      -0.823178       -22.3998
  18   2.0000      -0.705670       -19.2023
  19   2.0000      -0.686614       -18.6837
  20   2.0000      -0.679170       -18.4811
  21   2.0000      -0.658468       -17.9178
  22   2.0000      -0.641657       -17.4604
  23   2.0000      -0.618099       -16.8193
  24   2.0000      -0.604439       -16.4476
  25   2.0000      -0.600480       -16.3399
  26   2.0000      -0.572525       -15.5792
  27   2.0000      -0.539706       -14.6861
  28   2.0000      -0.535686       -14.5767
  29   2.0000      -0.520169       -14.1545
  30   2.0000      -0.507159       -13.8005
  31   2.0000      -0.492542       -13.4027
  32   2.0000      -0.490302       -13.3418
  33   2.0000      -0.478599       -13.0233
  34   2.0000      -0.463828       -12.6214
  35   2.0000      -0.431843       -11.7510
  36   2.0000      -0.422494       -11.4966
  37   0.0000       0.125086         3.4038
  38   0.0000       0.141413         3.8480
  39   0.0000       0.157182         4.2771
  40   0.0000       0.163153         4.4396
  41   0.0000       0.178722         4.8633

MULLIKEN ATOMIC CHARGES
-----------------------
   0 C :   -0.358811
   1 C :   -0.048472
   2 O :   -0.292260
   3 C :   -0.046669
   4 C :   -0.236605
   5 C :    0.005508
   6 O :   -0.492935
   7 C :    0.019584
   8 O :   -0.476887
   9 H :    0.128749
  10 H :    0.127625
  11 H :    0.122124
  12 H :    0.092077
  13 H :    0.090988
  14 H :    0.089838
  15 H :    0.100576
  16 H :    0.116668
  17 H :    0.122254
  18 H :    0.098935
  19 H :    0.319888
  20 H :    0.080431
  21 H :    0.109330
  22 H :    0.328066
Sum of atomic charges:    0.0000000

LOEWDIN ATOMIC CHARGES
----------------------
   0 C :   -0.317274
   1 C :   -0.355131
   2 O :    0.155382
   3 C :   -0.328277
   4 C :   -0.257017
   5 C :   -0.355752
   6 O :   -0.032359
   7 C :   -0.345000
   8 O :   -0.046933
   9 H :    0.123834
  10 H :    0.123482
  11 H :    0.124315
  12 H :    0.115944
  13 H :    0.115814
  14 H :    0.120226
  15 H :    0.120836
  16 H :    0.141493
  17 H :    0.149176
  18 H :    0.148365
  19 H :    0.176816
  20 H :    0.115367
  21 H :    0.130467
  22 H :    0.176226

  Mayer bond orders larger than 0.1
B(  0-C ,  1-C ) :   0.9515 B(  0-C ,  9-H ) :   0.9361 B(  0-C , 10-H ) :   0.9363
B(  0-C , 11-H ) :   0.9328 B(  1-C ,  2-O ) :   0.9202 B(  1-C , 12-H ) :   0.9263
B(  1-C , 13-H ) :   0.9254 B(  2-O ,  3-C ) :   0.9579 B(  3-C ,  4-C ) :   0.9462
B(  3-C , 14-H ) :   0.9234 B(  3-C , 15-H ) :   0.9256 B(  4-C ,  5-C ) :   0.9412
B(  4-C , 16-H ) :   0.9117 B(  4-C , 17-H ) :   0.9216 B(  5-C ,  6-O ) :   0.8615
B(  5-C ,  7-C ) :   0.9702 B(  5-C , 18-H ) :   0.9171 B(  6-O , 19-H ) :   0.8378
B(  7-C ,  8-O ) :   0.9458 B(  7-C , 20-H ) :   0.8993 B(  7-C , 21-H ) :   0.9291
B(  8-O , 22-H ) :   0.8238

MP2 TOTAL ENERGY:     -461.823647989 Eh
FINAL SINGLE POINT ENERGY      -461.823647988574

DIPOLE MOMENT
-------------
                                X             Y             Z
Electronic contribution:      1.57125      -7.16217      -3.98651
Nuclear contribution   :     -2.12102       7.85278       4.26132
                        -----------------------------------------
Total Dipole Moment    :     -0.54976       0.69061       0.27482
                        -----------------------------------------
Magnitude (a.u.)       :      0.92450
Magnitude (Debye)      :      2.34989

                             ****ORCA TERMINATED NORMALLY****
TOTAL RUN TIME: 0 days 0 hours 14 minutes 30 seconds 778 msec
