                         Program Version 3.0.3 - RELEASE   -
|  1> ! RI-MP2 RIJK def2-TZVP def2-TZVP/C def2-TZVP/JK TIGHTSCF
|  2> % maxcore 2000
|  3> % mp2 density relaxed end
|  4> *xyz 0 1
|  5>  C       -0.0579283441     1.5820385387     0.3038813605
|  6>  C        0.0487649527     0.0793904125     0.0975081421
|  7>  C        1.0114862460    -0.4693153299    -0.9941283867
|  8>  C        1.4044929786    -1.6149573378    -0.0339749828
|  9>  C        0.8030568191    -3.0389030147    -0.2083345290
| 10>  C        2.1201025718    -3.6252788773     0.3674065545
| 11>  C        2.8053849849    -2.2629942859     0.0732415886
| 12>  C        0.8304750958    -0.7715050619     1.1380815989
| 13>  H        0.9325162323     2.0286163004     0.4505814347
| 14>  H       -0.5186783472     2.0724213510    -0.5613068036
| 15>  H       -0.6647943720     1.8229311667     1.1842766796
| 16>  H       -0.9505604457    -0.3461877668    -0.0482368722
| 17>  H        0.5876840625    -0.7476014501    -1.9641267971
| 18>  H        1.8501939770     0.2164848435    -1.1646826312
| 19>  H       -0.1299881656    -3.2623944601     0.3175040600
| 20>  H        0.6750037282    -3.2931226904    -1.2659174942
| 21>  H        2.0453782175    -3.8203247994     1.4407956621
| 22>  H        2.5303500414    -4.5144860898    -0.1168071016
| 23>  H        3.3219047286    -2.2672605894    -0.8927689937
| 24>  H        3.4860653921    -1.8574730883     0.8278818996
| 25>  H        1.6140637730    -0.1783193397     1.6242568882
| 26>  H        0.2584011532    -1.2930893312     1.9115903736
| 27> *
| 28>
| 29>                          ****END OF INPUT****

CARTESIAN COORDINATES (ANGSTROEM)
---------------------------------
  C     -0.057928    1.582039    0.303881
  C      0.048765    0.079390    0.097508
  C      1.011486   -0.469315   -0.994128
  C      1.404493   -1.614957   -0.033975
  C      0.803057   -3.038903   -0.208335
  C      2.120103   -3.625279    0.367407
  C      2.805385   -2.262994    0.073242
  C      0.830475   -0.771505    1.138082
  H      0.932516    2.028616    0.450581
  H     -0.518678    2.072421   -0.561307
  H     -0.664794    1.822931    1.184277
  H     -0.950560   -0.346188   -0.048237
  H      0.587684   -0.747601   -1.964127
  H      1.850194    0.216485   -1.164683
  H     -0.129988   -3.262394    0.317504
  H      0.675004   -3.293123   -1.265917
  H      2.045378   -3.820325    1.440796
  H      2.530350   -4.514486   -0.116807
  H      3.321905   -2.267261   -0.892769
  H      3.486065   -1.857473    0.827882
  H      1.614064   -0.178319    1.624257
  H      0.258401   -1.293089    1.911590

 Total Charge           Charge          ....    0
 Multiplicity           Mult            ....    1
 Number of Electrons    NEL             ....   62
 Basis Dimension        Dim             ....  332

ORBITAL ENERGIES
----------------

  NO   OCC          E(Eh)            E(eV)
   0   2.0000     -11.224754      -305.4411
   1   2.0000     -11.221254      -305.3459
   2   2.0000     -11.214949      -305.1743
   3   2.0000     -11.213303      -305.1295
   4   2.0000     -11.211735      -305.0868
   5   2.0000     -11.211545      -305.0817
   6   2.0000     -11.209924      -305.0375
   7   2.0000     -11.208863      -305.0087
   8   2.0000      -1.151809       -31.3423
   9   2.0000      -1.076133       -29.2831
  10   2.0000      -0.961737       -26.1702
  11   2.0000      -0.893237       -24.3062
  12   2.0000      -0.892448       -24.2847
  13   2.0000      -0.840214       -22.8634
  14   2.0000      -0.762351       -20.7446
  15   2.0000      -0.703439       -19.1415
  16   2.0000      -0.646435       -17.5904
  17   2.0000      -0.633111       -17.2278
  18   2.0000      -0.623740       -16.9728
  19   2.0000      -0.565125       -15.3778
  20   2.0000      -0.560682       -15.2569
  21   2.0000      -0.547682       -14.9032
  22   2.0000      -0.519096       -14.1253
  23   2.0000      -0.514498       -14.0002
  24   2.0000      -0.495834       -13.4923
  25   2.0000      -0.483990       -13.1700
  26   2.0000      -0.452151       -12.3037
  27   2.0000      -0.435279       -11.8445
  28   2.0000      -0.417868       -11.3708
  29   2.0000      -0.416133       -11.3235
  30   2.0000      -0.391619       -10.6565
  31   0.0000       0.135461         3.6861
  32   0.0000       0.150083         4.0840
  33   0.0000       0.163336         4.4446
  34   0.0000       0.169214         4.6046
  35   0.0000       0.178652         4.8614

MULLIKEN ATOMIC CHARGES
-----------------------
   0 C :   -0.423753
   1 C :    0.007716
   2 C :   -0.265763
   3 C :    0.136871
   4 C :   -0.268557
   5 C :   -0.223724
   6 C :   -0.227948
   7 C :   -0.308460
   8 H :    0.118210
   9 H :    0.129254
  10 H :    0.128901
  11 H :    0.097017
  12 H :    0.112176
  13 H :    0.105356
  14 H :    0.112077
  15 H :    0.107502
  16 H :    0.112704
  17 H :    0.113450
  18 H :    0.109452
  19 H :    0.109112
  20 H :    0.103946
  21 H :    0.114463
Sum of atomic charges:    0.0000000

LOEWDIN ATOMIC CHARGES
----------------------
   0 C :   -0.305957
   1 C :   -0.253451
   2 C :   -0.188121
   3 C :   -0.230748
   4 C :   -0.202461
   5 C :   -0.241593
   6 C :   -0.209871
   7 C :   -0.180466
   8 H :    0.121394
   9 H :    0.123273
  10 H :    0.123167
  11 H :    0.148152
  12 H :    0.125035
  13 H :    0.137892
  14 H :    0.124527
  15 H :    0.134243
  16 H :    0.132176
  17 H :    0.120950
  18 H :    0.135466
  19 H :    0.124123
  20 H :    0.136678
  21 H :    0.125590

  Mayer bond orders larger than 0.1
B(  0-C ,  1-C ) :   0.8741 B(  0-C ,  8-H ) :   0.9401 B(  0-C ,  9-H ) :   0.9421
B(  0-C , 10-H ) :   0.9423 B(  1-C ,  2-C ) :   0.9567 B(  1-C ,  7-C ) :   0.9584
B(  1-C , 11-H ) :   0.9234 B(  2-C ,  3-C ) :   0.8962 B(  2-C , 12-H ) :   0.9209
B(  2-C , 13-H ) :   0.9119 B(  3-C ,  4-C ) :   0.9062 B(  3-C ,  6-C ) :   0.8822
B(  3-C ,  7-C ) :   0.9116 B(  4-C ,  5-C ) :   0.9570 B(  4-C , 14-H ) :   0.9243
B(  4-C , 15-H ) :   0.9220 B(  5-C ,  6-C ) :   0.9539 B(  5-C , 16-H ) :   0.9240
B(  5-C , 17-H ) :   0.9304 B(  6-C , 18-H ) :   0.9228 B(  6-C , 19-H ) :   0.9246
B(  7-C , 20-H ) :   0.9095 B(  7-C , 21-H ) :   0.9226

MP2 TOTAL ENERGY:     -312.474052532 Eh
FINAL SINGLE POINT ENERGY      -312.474052532355

DIPOLE MOMENT
-------------
                                X             Y             Z
Electronic contribution:      0.49552      -1.85002      -0.36997
Nuclear contribution   :     -0.53391       1.85928       0.36124
                        -----------------------------------------
Total Dipole Moment    :     -0.03839       0.00927      -0.00872
                        -----------------------------------------
Magnitude (a.u.)       :      0.04044
Magnitude (Debye)      :      0.10280

                             ****ORCA TERMINATED NORMALLY****
TOTAL RUN TIME: 0 days 0 hours 15 minutes 22 seconds 941 msec
