                         Program Version 3.0.3 - RELEASE   -
|  1> ! RI-MP2 RIJK def2-TZVP def2-TZVP/C def2-TZVP/JK TIGHTSCF
|  2> % maxcore 2000
|  3> % mp2 density relaxed end
|  4> *xyz 0 1
|  5>  N       -0.0716243803     1.2583322794     0.4440082890
|  6>  C       -0.0077248528     0.0822043848    -0.0048979642
|  7>  O        1.1742773700    -0.5647841580    -0.2172599013
|  8>  C        1.2511731698    -1.7008409975    -1.0794791764
|  9>  C        0.0334931591    -2.6127128671    -0.8970846897
| 10>  C       -1.1967024060    -1.7164933845    -1.0783911206
| 11>  O       -1.1539810836    -0.6118935584    -0.1800977008
| 12>  C        0.0439293881    -3.7178296167    -1.8422701017
| 13>  C        0.0526213834    -4.6105179049    -2.6465107405
| 14>  H        0.8696931983     1.6214626676     0.5795167538
| 15>  H        1.3129251134    -1.3700722768    -2.1244930106
| 16>  H        2.1815738180    -2.2095274252    -0.8214270260
| 17>  H        0.0331806160    -2.9956165794     0.1312475881
| 18>  H       -1.2481135244    -1.3585589048    -2.1152999914
| 19>  H       -2.1216750211    -2.2476380443    -0.8495514292
| 20>  H        0.0595725720    -5.4100293843    -3.3459569785
| 21> *
| 22>
| 23>                          ****END OF INPUT****

CARTESIAN COORDINATES (ANGSTROEM)
---------------------------------
  N     -0.071624    1.258332    0.444008
  C     -0.007725    0.082204   -0.004898
  O      1.174277   -0.564784   -0.217260
  C      1.251173   -1.700841   -1.079479
  C      0.033493   -2.612713   -0.897085
  C     -1.196702   -1.716493   -1.078391
  O     -1.153981   -0.611894   -0.180098
  C      0.043929   -3.717830   -1.842270
  C      0.052621   -4.610518   -2.646511
  H      0.869693    1.621463    0.579517
  H      1.312925   -1.370072   -2.124493
  H      2.181574   -2.209527   -0.821427
  H      0.033181   -2.995617    0.131248
  H     -1.248114   -1.358559   -2.115300
  H     -2.121675   -2.247638   -0.849551
  H      0.059573   -5.410029   -3.345957

 Total Charge           Charge          ....    0
 Multiplicity           Mult            ....    1
 Number of Electrons    NEL             ....   66
 Basis Dimension        Dim             ....  321

ORBITAL ENERGIES
----------------

  NO   OCC          E(Eh)            E(eV)
   0   2.0000     -20.610880      -560.8506
   1   2.0000     -20.605495      -560.7040
   2   2.0000     -15.523739      -422.4224
   3   2.0000     -11.394087      -310.0489
   4   2.0000     -11.319529      -308.0200
   5   2.0000     -11.316465      -307.9367
   6   2.0000     -11.287838      -307.1577
   7   2.0000     -11.258953      -306.3717
   8   2.0000     -11.250237      -306.1345
   9   2.0000      -1.480861       -40.2963
  10   2.0000      -1.396613       -38.0038
  11   2.0000      -1.201808       -32.7028
  12   2.0000      -1.124732       -30.6055
  13   2.0000      -1.028588       -27.9893
  14   2.0000      -0.969875       -26.3916
  15   2.0000      -0.910968       -24.7887
  16   2.0000      -0.792395       -21.5622
  17   2.0000      -0.758027       -20.6270
  18   2.0000      -0.741093       -20.1662
  19   2.0000      -0.712122       -19.3778
  20   2.0000      -0.691069       -18.8049
  21   2.0000      -0.658878       -17.9290
  22   2.0000      -0.654277       -17.8038
  23   2.0000      -0.623823       -16.9751
  24   2.0000      -0.604027       -16.4364
  25   2.0000      -0.577029       -15.7018
  26   2.0000      -0.527939       -14.3660
  27   2.0000      -0.503568       -13.7028
  28   2.0000      -0.496543       -13.5116
  29   2.0000      -0.443991       -12.0816
  30   2.0000      -0.414429       -11.2772
  31   2.0000      -0.409758       -11.1501
  32   2.0000      -0.390900       -10.6369
  33   0.0000       0.122830         3.3424
  34   0.0000       0.150261         4.0888
  35   0.0000       0.152132         4.1397
  36   0.0000       0.154844         4.2135
  37   0.0000       0.164693         4.4815

MULLIKEN ATOMIC CHARGES
-----------------------
   0 N :   -0.375460
   1 C :    0.264892
   2 O :   -0.268998
   3 C :   -0.046449
   4 C :   -0.204132
   5 C :   -0.046583
   6 O :   -0.231095
   7 C :   -0.067923
   8 C :   -0.119168
   9 H :    0.228955
  10 H :    0.121986
  11 H :    0.143256
  12 H :    0.131503
  13 H :    0.122007
  14 H :    0.146217
  15 H :    0.200991
Sum of atomic charges:   -0.0000000

LOEWDIN ATOMIC CHARGES
----------------------
   0 N :   -0.071294
   1 C :   -0.545439
   2 O :    0.233881
   3 C :   -0.247592
   4 C :   -0.254952
   5 C :   -0.246890
   6 O :    0.264703
   7 C :   -0.088124
   8 C :   -0.077032
   9 H :    0.171650
  10 H :    0.135534
  11 H :    0.140032
  12 H :    0.177268
  13 H :    0.135863
  14 H :    0.141637
  15 H :    0.130757

  Mayer bond orders larger than 0.1
B(  0-N ,  1-C ) :   2.0108 B(  0-N ,  9-H ) :   0.8502 B(  1-C ,  2-O ) :   1.0669
B(  1-C ,  6-O ) :   1.0814 B(  2-O ,  3-C ) :   0.8822 B(  3-C ,  4-C ) :   0.9252
B(  3-C , 10-H ) :   0.9259 B(  3-C , 11-H ) :   0.9221 B(  4-C ,  5-C ) :   0.9243
B(  4-C ,  7-C ) :   1.1344 B(  4-C , 12-H ) :   0.9034 B(  5-C ,  6-O ) :   0.8856
B(  5-C , 13-H ) :   0.9249 B(  5-C , 14-H ) :   0.9221 B(  7-C ,  8-C ) :   2.6051
B(  8-C , 15-H ) :   0.8845

MP2 TOTAL ENERGY:     -437.129745463 Eh
FINAL SINGLE POINT ENERGY      -437.129745463349

DIPOLE MOMENT
-------------
                                X             Y             Z
Electronic contribution:     -0.31059       1.84401       1.89259
Nuclear contribution   :      0.88579      -3.26275      -2.77521
                        -----------------------------------------
Total Dipole Moment    :      0.57519      -1.41875      -0.88263
                        -----------------------------------------
Magnitude (a.u.)       :      1.76712
Magnitude (Debye)      :      4.49166

                             ****ORCA TERMINATED NORMALLY****
TOTAL RUN TIME: 0 days 0 hours 15 minutes 19 seconds 158 msec
