                         Program Version 3.0.3 - RELEASE   -
|  1> ! RI-MP2 RIJK def2-TZVP def2-TZVP/C def2-TZVP/JK TIGHTSCF
|  2> % maxcore 2000
|  3> % mp2 density relaxed end
|  4> *xyz 0 1
|  5>  N       -0.1080797373     1.3464024563    -0.0752892369
|  6>  C       -0.1263619283    -0.0418604843    -0.0483928799
|  7>  C       -1.2176944219    -0.9003372733     0.0169937324
|  8>  C       -2.6487683276    -0.4769669381     0.0279832711
|  9>  O       -2.9281484809     0.5361493219    -0.9545624037
| 10>  C       -0.6275208258    -2.1931656603     0.0940272059
| 11>  N       -1.2994115762    -3.4081454457     0.2530130410
| 12>  N        0.6968249607    -2.1544656293     0.0715173122
| 13>  N        0.9814051312    -0.8112715811    -0.0128102464
| 14>  H        0.6570215073     1.7454823954    -0.6035441014
| 15>  H       -0.9990310591     1.7010927101    -0.4057202294
| 16>  H       -3.3108802558    -1.3451963644    -0.1078432439
| 17>  H       -2.9372746850    -0.0111597636     0.9780236643
| 18>  H       -2.6323783472     0.1841492223    -1.8018424826
| 19>  H       -2.1214096814    -3.4904010900    -0.3313953367
| 20>  H       -0.6756059289    -4.1885843918     0.0874396338
| 21>  H        1.9409322062    -0.5157989442     0.0065882303
| 22> *
| 23>
| 24>                          ****END OF INPUT****

CARTESIAN COORDINATES (ANGSTROEM)
---------------------------------
  N     -0.108080    1.346402   -0.075289
  C     -0.126362   -0.041860   -0.048393
  C     -1.217694   -0.900337    0.016994
  C     -2.648768   -0.476967    0.027983
  O     -2.928148    0.536149   -0.954562
  C     -0.627521   -2.193166    0.094027
  N     -1.299412   -3.408145    0.253013
  N      0.696825   -2.154466    0.071517
  N      0.981405   -0.811272   -0.012810
  H      0.657022    1.745482   -0.603544
  H     -0.999031    1.701093   -0.405720
  H     -3.310880   -1.345196   -0.107843
  H     -2.937275   -0.011160    0.978024
  H     -2.632378    0.184149   -1.801842
  H     -2.121410   -3.490401   -0.331395
  H     -0.675606   -4.188584    0.087440
  H      1.940932   -0.515799    0.006588

 Total Charge           Charge          ....    0
 Multiplicity           Mult            ....    1
 Number of Electrons    NEL             ....   68
 Basis Dimension        Dim             ....  327

ORBITAL ENERGIES
----------------

  NO   OCC          E(Eh)            E(eV)
   0   2.0000     -20.563467      -559.5604
   1   2.0000     -15.615454      -424.9181
   2   2.0000     -15.580803      -423.9752
   3   2.0000     -15.560144      -423.4131
   4   2.0000     -15.553273      -423.2261
   5   2.0000     -11.317228      -307.9574
   6   2.0000     -11.288847      -307.1851
   7   2.0000     -11.286262      -307.1148
   8   2.0000     -11.204579      -304.8921
   9   2.0000      -1.366398       -37.1816
  10   2.0000      -1.357260       -36.9329
  11   2.0000      -1.231968       -33.5236
  12   2.0000      -1.200803       -32.6755
  13   2.0000      -1.057500       -28.7760
  14   2.0000      -1.043638       -28.3988
  15   2.0000      -0.924516       -25.1574
  16   2.0000      -0.804480       -21.8910
  17   2.0000      -0.783542       -21.3213
  18   2.0000      -0.742113       -20.1939
  19   2.0000      -0.700074       -19.0500
  20   2.0000      -0.678850       -18.4725
  21   2.0000      -0.657543       -17.8927
  22   2.0000      -0.629650       -17.1336
  23   2.0000      -0.620113       -16.8741
  24   2.0000      -0.603757       -16.4291
  25   2.0000      -0.591288       -16.0898
  26   2.0000      -0.565906       -15.3991
  27   2.0000      -0.520491       -14.1633
  28   2.0000      -0.505701       -13.7608
  29   2.0000      -0.468106       -12.7378
  30   2.0000      -0.455922       -12.4063
  31   2.0000      -0.441846       -12.0232
  32   2.0000      -0.324563        -8.8318
  33   2.0000      -0.307971        -8.3803
  34   0.0000       0.117026         3.1844
  35   0.0000       0.131964         3.5909
  36   0.0000       0.154991         4.2175
  37   0.0000       0.173621         4.7245
  38   0.0000       0.184068         5.0087

MULLIKEN ATOMIC CHARGES
-----------------------
   0 N :   -0.507106
   1 C :    0.173074
   2 C :   -0.228267
   3 C :    0.024647
   4 O :   -0.490492
   5 C :    0.162014
   6 N :   -0.526307
   7 N :   -0.246497
   8 N :   -0.163987
   9 H :    0.242644
  10 H :    0.272968
  11 H :    0.101405
  12 H :    0.132193
  13 H :    0.316695
  14 H :    0.240790
  15 H :    0.248582
  16 H :    0.247645
Sum of atomic charges:   -0.0000000

LOEWDIN ATOMIC CHARGES
----------------------
   0 N :   -0.074572
   1 C :   -0.319195
   2 C :   -0.205898
   3 C :   -0.300139
   4 O :   -0.066102
   5 C :   -0.372196
   6 N :   -0.090169
   7 N :    0.005667
   8 N :    0.126979
   9 H :    0.166997
  10 H :    0.177719
  11 H :    0.123430
  12 H :    0.137389
  13 H :    0.172214
  14 H :    0.163691
  15 H :    0.171043
  16 H :    0.183143

  Mayer bond orders larger than 0.1
B(  0-N ,  1-C ) :   1.0656 B(  0-N ,  9-H ) :   0.8741 B(  0-N , 10-H ) :   0.8511
B(  1-C ,  2-C ) :   1.3684 B(  1-C ,  7-N ) :   0.1084 B(  1-C ,  8-N ) :   1.2489
B(  2-C ,  3-C ) :   0.9396 B(  2-C ,  5-C ) :   1.2310 B(  3-C ,  4-O ) :   0.8501
B(  3-C , 11-H ) :   0.9333 B(  3-C , 12-H ) :   0.9308 B(  4-O , 13-H ) :   0.8408
B(  5-C ,  6-N ) :   1.0216 B(  5-C ,  7-N ) :   1.6317 B(  6-N , 14-H ) :   0.8740
B(  6-N , 15-H ) :   0.8763 B(  7-N ,  8-N ) :   0.9796 B(  8-N , 16-H ) :   0.8736

MP2 TOTAL ENERGY:     -450.609631452 Eh
FINAL SINGLE POINT ENERGY      -450.609631451904

DIPOLE MOMENT
-------------
                                X             Y             Z
Electronic contribution:      3.35069      -0.59722       0.27900
Nuclear contribution   :     -3.09854       0.97111      -1.28725
                        -----------------------------------------
Total Dipole Moment    :      0.25215       0.37389      -1.00826
                        -----------------------------------------
Magnitude (a.u.)       :      1.10452
Magnitude (Debye)      :      2.80745

                             ****ORCA TERMINATED NORMALLY****
TOTAL RUN TIME: 0 days 0 hours 17 minutes 27 seconds 426 msec
