                         Program Version 3.0.3 - RELEASE   -
|  1> ! RI-MP2 RIJK def2-TZVP def2-TZVP/C def2-TZVP/JK TIGHTSCF
|  2> % maxcore 2000
|  3> % mp2 density relaxed end
|  4> *xyz 0 1
|  5>  C       -0.2293709028     1.4249093981    -0.0421947795
|  6>  N        0.0626545849     0.0001586984     0.0346201332
|  7>  C        1.4438845735    -0.4221710591    -0.1918219138
|  8>  C        0.8224389663    -0.5146958863     1.1627646041
|  9>  C        1.3292825749     0.3484317310     2.3256023888
| 10>  C        1.9985421737    -0.6677159276     3.2659747249
| 11>  C        1.2515124621    -1.9880657652     3.0349878173
| 12>  O        1.3285255167    -2.9669481733     3.7303951495
| 13>  C        0.3972872687    -1.8429940172     1.7728423051
| 14>  H        0.5892021928     2.0777999552     0.2985491083
| 15>  H       -0.4543201316     1.6806268160    -1.0822183031
| 16>  H       -1.1178758427     1.6466766321     0.5578454265
| 17>  H        1.5757675057    -1.3088700852    -0.8078843850
| 18>  H        2.1954488778     0.3527217985    -0.3442101616
| 19>  H        2.0049223039     1.1457870313     2.0114200489
| 20>  H        0.4770161965     0.8207311359     2.8311324268
| 21>  H        3.0448659920    -0.8377445632     2.9800346551
| 22>  H        1.9955138758    -0.3933951922     4.3233174195
| 23>  H       -0.6574001209    -1.8063920592     2.0777621429
| 24>  H        0.5077639527    -2.7066422382     1.1132011824
| 25> *
| 26>
| 27>                          ****END OF INPUT****

CARTESIAN COORDINATES (ANGSTROEM)
---------------------------------
  C     -0.229371    1.424909   -0.042195
  N      0.062655    0.000159    0.034620
  C      1.443885   -0.422171   -0.191822
  C      0.822439   -0.514696    1.162765
  C      1.329283    0.348432    2.325602
  C      1.998542   -0.667716    3.265975
  C      1.251512   -1.988066    3.034988
  O      1.328526   -2.966948    3.730395
  C      0.397287   -1.842994    1.772842
  H      0.589202    2.077800    0.298549
  H     -0.454320    1.680627   -1.082218
  H     -1.117876    1.646677    0.557845
  H      1.575768   -1.308870   -0.807884
  H      2.195449    0.352722   -0.344210
  H      2.004922    1.145787    2.011420
  H      0.477016    0.820731    2.831132
  H      3.044866   -0.837745    2.980035
  H      1.995514   -0.393395    4.323317
  H     -0.657400   -1.806392    2.077762
  H      0.507764   -2.706642    1.113201

 Total Charge           Charge          ....    0
 Multiplicity           Mult            ....    1
 Number of Electrons    NEL             ....   68
 Basis Dimension        Dim             ....  345

ORBITAL ENERGIES
----------------

  NO   OCC          E(Eh)            E(eV)
   0   2.0000     -20.543696      -559.0224
   1   2.0000     -15.565730      -423.5651
   2   2.0000     -11.329694      -308.2967
   3   2.0000     -11.276559      -306.8508
   4   2.0000     -11.259787      -306.3944
   5   2.0000     -11.254262      -306.2440
   6   2.0000     -11.244263      -305.9720
   7   2.0000     -11.241671      -305.9014
   8   2.0000     -11.235802      -305.7417
   9   2.0000      -1.388593       -37.7855
  10   2.0000      -1.285622       -34.9835
  11   2.0000      -1.113953       -30.3122
  12   2.0000      -1.005843       -27.3704
  13   2.0000      -0.975598       -26.5474
  14   2.0000      -0.912133       -24.8204
  15   2.0000      -0.839472       -22.8432
  16   2.0000      -0.758642       -20.6437
  17   2.0000      -0.742300       -20.1990
  18   2.0000      -0.677159       -18.4264
  19   2.0000      -0.663998       -18.0683
  20   2.0000      -0.647542       -17.6205
  21   2.0000      -0.625190       -17.0123
  22   2.0000      -0.599840       -16.3225
  23   2.0000      -0.591145       -16.0859
  24   2.0000      -0.580114       -15.7857
  25   2.0000      -0.562258       -15.2998
  26   2.0000      -0.541986       -14.7482
  27   2.0000      -0.530587       -14.4380
  28   2.0000      -0.507831       -13.8188
  29   2.0000      -0.480063       -13.0632
  30   2.0000      -0.459876       -12.5139
  31   2.0000      -0.449384       -12.2284
  32   2.0000      -0.398276       -10.8376
  33   2.0000      -0.373043       -10.1510
  34   0.0000       0.122024         3.3205
  35   0.0000       0.129729         3.5301
  36   0.0000       0.151778         4.1301
  37   0.0000       0.166613         4.5338
  38   0.0000       0.174188         4.7399

MULLIKEN ATOMIC CHARGES
-----------------------
   0 C :   -0.297991
   1 N :   -0.234908
   2 C :   -0.226776
   3 C :    0.081747
   4 C :   -0.226300
   5 C :   -0.195641
   6 C :    0.120457
   7 O :   -0.268912
   8 C :   -0.195020
   9 H :    0.108380
  10 H :    0.145540
  11 H :    0.137688
  12 H :    0.125371
  13 H :    0.116265
  14 H :    0.126926
  15 H :    0.122656
  16 H :    0.132152
  17 H :    0.146289
  18 H :    0.137506
  19 H :    0.144569
Sum of atomic charges:    0.0000000

LOEWDIN ATOMIC CHARGES
----------------------
   0 C :   -0.327542
   1 N :    0.109056
   2 C :   -0.223660
   3 C :   -0.283694
   4 C :   -0.215391
   5 C :   -0.219204
   6 C :   -0.307986
   7 O :    0.151364
   8 C :   -0.179005
   9 H :    0.105773
  10 H :    0.120332
  11 H :    0.118834
  12 H :    0.125897
  13 H :    0.124583
  14 H :    0.137422
  15 H :    0.145110
  16 H :    0.156636
  17 H :    0.146081
  18 H :    0.162053
  19 H :    0.153343

  Mayer bond orders larger than 0.1
B(  0-C ,  1-N ) :   0.8771 B(  0-C ,  9-H ) :   0.9262 B(  0-C , 10-H ) :   0.9377
B(  0-C , 11-H ) :   0.9393 B(  1-N ,  2-C ) :   0.9517 B(  1-N ,  3-C ) :   0.7880
B(  2-C ,  3-C ) :   0.9333 B(  2-C , 12-H ) :   0.9029 B(  2-C , 13-H ) :   0.9220
B(  3-C ,  4-C ) :   0.9079 B(  3-C ,  8-C ) :   0.8981 B(  4-C ,  5-C ) :   0.9446
B(  4-C , 14-H ) :   0.9185 B(  4-C , 15-H ) :   0.9201 B(  5-C ,  6-C ) :   0.9070
B(  5-C ,  8-C ) :  -0.1019 B(  5-C , 16-H ) :   0.9056 B(  5-C , 17-H ) :   0.9189
B(  6-C ,  7-O ) :   2.0327 B(  6-C ,  8-C ) :   0.8966 B(  8-C , 18-H ) :   0.9012
B(  8-C , 19-H ) :   0.9085

MP2 TOTAL ENERGY:     -402.454566179 Eh
FINAL SINGLE POINT ENERGY      -402.454566179019

DIPOLE MOMENT
-------------
                                X             Y             Z
Electronic contribution:      0.35136      -6.86803       3.76075
Nuclear contribution   :     -0.08072       8.08492      -4.22138
                        -----------------------------------------
Total Dipole Moment    :      0.27065       1.21690      -0.46063
                        -----------------------------------------
Magnitude (a.u.)       :      1.32901
Magnitude (Debye)      :      3.37808

                             ****ORCA TERMINATED NORMALLY****
TOTAL RUN TIME: 0 days 0 hours 18 minutes 26 seconds 893 msec
