                         Program Version 3.0.3 - RELEASE   -
|  1> ! RI-MP2 RIJK def2-TZVP def2-TZVP/C def2-TZVP/JK TIGHTSCF
|  2> % maxcore 2000
|  3> % mp2 density relaxed end
|  4> *xyz 0 1
|  5>  C       -0.2511390897     1.5229849163    -0.0085544507
|  6>  C        0.0330867934     0.0264745107    -0.0230871716
|  7>  C        0.8635015858    -0.4604538245    -1.2629723702
|  8>  O        1.5726756906     0.5728836613    -1.9404222002
|  9>  C        1.7908178403    -1.4847866854    -0.6580079345
| 10>  C        1.7771815894    -1.3816385019     0.6746910731
| 11>  N        0.8364598204    -0.4528871632     1.1270406799
| 12>  C        0.6129213110    -0.1929987794     2.4512346181
| 13>  O        1.2466303175    -0.6800039861     3.3638826742
| 14>  H        0.6753358447     2.0993019885     0.0379294931
| 15>  H       -0.7729334348     1.8039771893    -0.9268471009
| 16>  H       -0.8829290685     1.8050214964     0.8378785855
| 17>  H       -0.9123301516    -0.5309865760    -0.0234772512
| 18>  H        0.1853507769    -0.8655147867    -2.0192357420
| 19>  H        2.3774643859     0.7467246190    -1.4390105833
| 20>  H        2.4413819873    -2.1220437469    -1.2386828578
| 21>  H        2.3597022988    -1.9012715790     1.4214608333
| 22>  H       -0.2161140174     0.5204865777     2.6047264952
| 23> *
| 24>
| 25>                          ****END OF INPUT****

CARTESIAN COORDINATES (ANGSTROEM)
---------------------------------
  C     -0.251139    1.522985   -0.008554
  C      0.033087    0.026475   -0.023087
  C      0.863502   -0.460454   -1.262972
  O      1.572676    0.572884   -1.940422
  C      1.790818   -1.484787   -0.658008
  C      1.777182   -1.381639    0.674691
  N      0.836460   -0.452887    1.127041
  C      0.612921   -0.192999    2.451235
  O      1.246630   -0.680004    3.363883
  H      0.675336    2.099302    0.037929
  H     -0.772933    1.803977   -0.926847
  H     -0.882929    1.805021    0.837879
  H     -0.912330   -0.530987   -0.023477
  H      0.185351   -0.865515   -2.019236
  H      2.377464    0.746725   -1.439011
  H      2.441382   -2.122044   -1.238683
  H      2.359702   -1.901272    1.421461
  H     -0.216114    0.520487    2.604726

 Total Charge           Charge          ....    0
 Multiplicity           Mult            ....    1
 Number of Electrons    NEL             ....   68
 Basis Dimension        Dim             ....  333

ORBITAL ENERGIES
----------------

  NO   OCC          E(Eh)            E(eV)
   0   2.0000     -20.566362      -559.6392
   1   2.0000     -20.533722      -558.7510
   2   2.0000     -15.606862      -424.6843
   3   2.0000     -11.359272      -309.1015
   4   2.0000     -11.303029      -307.5711
   5   2.0000     -11.291228      -307.2499
   6   2.0000     -11.288468      -307.1748
   7   2.0000     -11.235906      -305.7446
   8   2.0000     -11.232883      -305.6623
   9   2.0000      -1.395854       -37.9831
  10   2.0000      -1.374508       -37.4023
  11   2.0000      -1.285358       -34.9764
  12   2.0000      -1.074211       -29.2308
  13   2.0000      -1.053803       -28.6754
  14   2.0000      -0.932657       -25.3789
  15   2.0000      -0.884389       -24.0655
  16   2.0000      -0.822467       -22.3805
  17   2.0000      -0.758936       -20.6517
  18   2.0000      -0.725485       -19.7415
  19   2.0000      -0.689281       -18.7563
  20   2.0000      -0.671446       -18.2710
  21   2.0000      -0.640560       -17.4305
  22   2.0000      -0.622640       -16.9429
  23   2.0000      -0.607889       -16.5415
  24   2.0000      -0.595069       -16.1926
  25   2.0000      -0.588820       -16.0226
  26   2.0000      -0.540104       -14.6970
  27   2.0000      -0.537338       -14.6217
  28   2.0000      -0.523555       -14.2467
  29   2.0000      -0.513237       -13.9659
  30   2.0000      -0.468538       -12.7496
  31   2.0000      -0.450575       -12.2608
  32   2.0000      -0.436588       -11.8802
  33   2.0000      -0.335138        -9.1196
  34   0.0000       0.115822         3.1517
  35   0.0000       0.125106         3.4043
  36   0.0000       0.151141         4.1127
  37   0.0000       0.159493         4.3400
  38   0.0000       0.176222         4.7953

MULLIKEN ATOMIC CHARGES
-----------------------
   0 C :   -0.359332
   1 C :   -0.071461
   2 C :    0.084019
   3 O :   -0.458502
   4 C :   -0.220242
   5 C :   -0.108993
   6 N :   -0.037805
   7 C :    0.151155
   8 O :   -0.350401
   9 H :    0.124012
  10 H :    0.145037
  11 H :    0.138590
  12 H :    0.115719
  13 H :    0.117017
  14 H :    0.320017
  15 H :    0.149320
  16 H :    0.172719
  17 H :    0.089131
Sum of atomic charges:   -0.0000000

LOEWDIN ATOMIC CHARGES
----------------------
   0 C :   -0.290385
   1 C :   -0.225112
   2 C :   -0.299916
   3 O :   -0.011854
   4 C :   -0.176699
   5 C :   -0.158669
   6 N :    0.212995
   7 C :   -0.395141
   8 O :    0.068956
   9 H :    0.127405
  10 H :    0.136300
  11 H :    0.122055
  12 H :    0.153295
  13 H :    0.146849
  14 H :    0.176868
  15 H :    0.143542
  16 H :    0.152082
  17 H :    0.117428

  Mayer bond orders larger than 0.1
B(  0-C ,  1-C ) :   0.9488 B(  0-C ,  9-H ) :   0.9219 B(  0-C , 10-H ) :   0.9294
B(  0-C , 11-H ) :   0.9361 B(  1-C ,  2-C ) :   0.9062 B(  1-C ,  6-N ) :   0.8545
B(  1-C , 12-H ) :   0.9140 B(  2-C ,  3-O ) :   0.9513 B(  2-C ,  4-C ) :   0.9548
B(  2-C , 13-H ) :   0.9481 B(  3-O , 14-H ) :   0.8371 B(  4-C ,  5-C ) :   1.6625
B(  4-C , 15-H ) :   0.9419 B(  5-C ,  6-N ) :   1.0066 B(  5-C , 16-H ) :   0.9228
B(  6-N ,  7-C ) :   1.0822 B(  7-C ,  8-O ) :   1.8969 B(  7-C , 17-H ) :   0.9317

MP2 TOTAL ENERGY:     -438.395943066 Eh
FINAL SINGLE POINT ENERGY      -438.395943065920

DIPOLE MOMENT
-------------
                                X             Y             Z
Electronic contribution:      2.64121      -3.31405       3.35252
Nuclear contribution   :     -3.03191       3.46642      -4.13305
                        -----------------------------------------
Total Dipole Moment    :     -0.39070       0.15237      -0.78053
                        -----------------------------------------
Magnitude (a.u.)       :      0.88605
Magnitude (Debye)      :      2.25216

                             ****ORCA TERMINATED NORMALLY****
TOTAL RUN TIME: 0 days 0 hours 17 minutes 41 seconds 851 msec
