                         Program Version 3.0.3 - RELEASE   -
|  1> ! RI-MP2 RIJK def2-TZVP def2-TZVP/C def2-TZVP/JK TIGHTSCF
|  2> % maxcore 2000
|  3> % mp2 density relaxed end
|  4> *xyz 0 1
|  5>  C       -0.3585209226     1.4649306744     0.0177184944
|  6>  C        0.1753495180     0.0512901149    -0.0623282902
|  7>  O        1.4406914088    -0.0320871093    -0.7622160864
|  8>  C        2.0249075249    -0.8465481294     0.2705451717
|  9>  C        0.8022890832    -0.6281633967     1.1829669333
| 10>  C        0.9137117571     0.0616775228     2.5717175598
| 11>  C        0.2053978927    -1.1992383268     3.1272546708
| 12>  O       -0.1562415120    -1.5944909660     4.2002031049
| 13>  N        0.1392778764    -1.7344110261     1.8590691143
| 14>  H        0.3689501785     2.1336004981     0.4868301579
| 15>  H       -0.5697312937     1.8419649538    -0.9876211132
| 16>  H       -1.2905123389     1.4928532807     0.5926238372
| 17>  H       -0.5691185388    -0.6087921507    -0.5350437697
| 18>  H        2.1625397640    -1.8898988462    -0.0465507331
| 19>  H        2.9844808805    -0.4492299606     0.6211378222
| 20>  H        1.9306797480     0.2070073793     2.9406001799
| 21>  H        0.3439991431     0.9842502597     2.6912358166
| 22>  H       -0.2268694290    -2.6116008219     1.5172181895
| 23> *
| 24>
| 25>                          ****END OF INPUT****

CARTESIAN COORDINATES (ANGSTROEM)
---------------------------------
  C     -0.358521    1.464931    0.017718
  C      0.175350    0.051290   -0.062328
  O      1.440691   -0.032087   -0.762216
  C      2.024908   -0.846548    0.270545
  C      0.802289   -0.628163    1.182967
  C      0.913712    0.061678    2.571718
  C      0.205398   -1.199238    3.127255
  O     -0.156242   -1.594491    4.200203
  N      0.139278   -1.734411    1.859069
  H      0.368950    2.133600    0.486830
  H     -0.569731    1.841965   -0.987621
  H     -1.290512    1.492853    0.592624
  H     -0.569119   -0.608792   -0.535044
  H      2.162540   -1.889899   -0.046551
  H      2.984481   -0.449230    0.621138
  H      1.930680    0.207007    2.940600
  H      0.343999    0.984250    2.691236
  H     -0.226869   -2.611601    1.517218

 Total Charge           Charge          ....    0
 Multiplicity           Mult            ....    1
 Number of Electrons    NEL             ....   68
 Basis Dimension        Dim             ....  333

ORBITAL ENERGIES
----------------

  NO   OCC          E(Eh)            E(eV)
   0   2.0000     -20.561085      -559.4956
   1   2.0000     -20.533260      -558.7384
   2   2.0000     -15.594222      -424.3403
   3   2.0000     -11.360109      -309.1243
   4   2.0000     -11.299750      -307.4818
   5   2.0000     -11.297879      -307.4309
   6   2.0000     -11.291712      -307.2631
   7   2.0000     -11.256781      -306.3126
   8   2.0000     -11.231627      -305.6281
   9   2.0000      -1.399487       -38.0820
  10   2.0000      -1.391616       -37.8678
  11   2.0000      -1.278062       -34.7778
  12   2.0000      -1.041554       -28.3421
  13   2.0000      -1.015715       -27.6390
  14   2.0000      -0.972106       -26.4524
  15   2.0000      -0.888652       -24.1815
  16   2.0000      -0.798411       -21.7259
  17   2.0000      -0.765943       -20.8424
  18   2.0000      -0.716466       -19.4960
  19   2.0000      -0.677123       -18.4255
  20   2.0000      -0.673149       -18.3173
  21   2.0000      -0.644342       -17.5334
  22   2.0000      -0.619295       -16.8519
  23   2.0000      -0.608010       -16.5448
  24   2.0000      -0.583576       -15.8799
  25   2.0000      -0.551518       -15.0076
  26   2.0000      -0.544558       -14.8182
  27   2.0000      -0.537693       -14.6314
  28   2.0000      -0.531443       -14.4613
  29   2.0000      -0.494415       -13.4537
  30   2.0000      -0.480813       -13.0836
  31   2.0000      -0.436896       -11.8885
  32   2.0000      -0.417237       -11.3536
  33   2.0000      -0.397492       -10.8163
  34   0.0000       0.121290         3.3005
  35   0.0000       0.142023         3.8646
  36   0.0000       0.153921         4.1884
  37   0.0000       0.160350         4.3634
  38   0.0000       0.181899         4.9497

MULLIKEN ATOMIC CHARGES
-----------------------
   0 C :   -0.417265
   1 C :    0.085035
   2 O :   -0.318882
   3 C :   -0.033389
   4 C :    0.125746
   5 C :   -0.242349
   6 C :    0.218665
   7 O :   -0.302196
   8 N :   -0.337726
   9 H :    0.134293
  10 H :    0.149517
  11 H :    0.137979
  12 H :    0.079806
  13 H :    0.096008
  14 H :    0.105952
  15 H :    0.138058
  16 H :    0.143997
  17 H :    0.236750
Sum of atomic charges:    0.0000000

LOEWDIN ATOMIC CHARGES
----------------------
   0 C :   -0.293969
   1 C :   -0.273231
   2 O :    0.138453
   3 C :   -0.237382
   4 C :   -0.247216
   5 C :   -0.159252
   6 C :   -0.430234
   7 O :    0.109294
   8 N :    0.159252
   9 H :    0.127464
  10 H :    0.132878
  11 H :    0.131355
  12 H :    0.137484
  13 H :    0.120328
  14 H :    0.121592
  15 H :    0.144277
  16 H :    0.145229
  17 H :    0.173678

  Mayer bond orders larger than 0.1
B(  0-C ,  1-C ) :   0.9052 B(  0-C ,  9-H ) :   0.9362 B(  0-C , 10-H ) :   0.9306
B(  0-C , 11-H ) :   0.9290 B(  1-C ,  2-O ) :   0.9858 B(  1-C ,  4-C ) :   0.9324
B(  1-C , 12-H ) :   0.9059 B(  2-O ,  3-C ) :   0.9692 B(  3-C ,  4-C ) :   0.9746
B(  3-C , 13-H ) :   0.8994 B(  3-C , 14-H ) :   0.9134 B(  4-C ,  5-C ) :   0.8757
B(  4-C ,  8-N ) :   0.8963 B(  5-C ,  6-C ) :   0.8899 B(  5-C , 15-H ) :   0.8992
B(  5-C , 16-H ) :   0.9028 B(  6-C ,  7-O ) :   2.0443 B(  6-C ,  8-N ) :   1.1407
B(  8-N , 17-H ) :   0.8541

MP2 TOTAL ENERGY:     -438.365362839 Eh
FINAL SINGLE POINT ENERGY      -438.365362838937

DIPOLE MOMENT
-------------
                                X             Y             Z
Electronic contribution:      0.09056      -5.03433       3.89259
Nuclear contribution   :     -0.02302       5.15796      -4.69568
                        -----------------------------------------
Total Dipole Moment    :      0.06754       0.12364      -0.80310
                        -----------------------------------------
Magnitude (a.u.)       :      0.81536
Magnitude (Debye)      :      2.07248

                             ****ORCA TERMINATED NORMALLY****
TOTAL RUN TIME: 0 days 0 hours 16 minutes 16 seconds 605 msec
