                         Program Version 3.0.3 - RELEASE   -
|  1> ! RI-MP2 RIJK def2-TZVP def2-TZVP/C def2-TZVP/JK TIGHTSCF
|  2> % maxcore 2000
|  3> % mp2 density relaxed end
|  4> *xyz 0 1
|  5>  C       -0.2672233502     1.5033611199    -0.0792450969
|  6>  C        0.1034137206     0.0398616464    -0.0118079870
|  7>  O        1.3686843920    -0.2409158523    -0.7281206347
|  8>  C        1.9330933683    -0.7830762791     0.3880192703
|  9>  O        3.0043197586    -1.3013284728     0.4962979418
| 10>  C        0.7147109343    -0.5662629079     1.2847312404
| 11>  C        0.9263320071     0.3384980996     2.4952248777
| 12>  C        0.1425890110    -1.9372220805     1.6989751192
| 13>  O        1.0244989574    -2.6255337452     2.5590750287
| 14>  H        0.5316269802     2.1402820828     0.3075478502
| 15>  H       -0.4643458389     1.7920893262    -1.1156179035
| 16>  H       -1.1751377757     1.6895812171     0.5035862232
| 17>  H       -0.6811290549    -0.5845162301    -0.4511542325
| 18>  H        1.4934131387     1.2401159817     2.2519957098
| 19>  H       -0.0377536062     0.6415694003     2.9178096987
| 20>  H        1.4720926847    -0.2153459475     3.2619548094
| 21>  H       -0.7926216085    -1.7998747923     2.2538145866
| 22>  H       -0.0891651785    -2.5275563770     0.7977421256
| 23>  H        1.8752417497    -2.6974638592     2.1061015530
| 24> *
| 25>
| 26>                          ****END OF INPUT****

CARTESIAN COORDINATES (ANGSTROEM)
---------------------------------
  C     -0.267223    1.503361   -0.079245
  C      0.103414    0.039862   -0.011808
  O      1.368684   -0.240916   -0.728121
  C      1.933093   -0.783076    0.388019
  O      3.004320   -1.301328    0.496298
  C      0.714711   -0.566263    1.284731
  C      0.926332    0.338498    2.495225
  C      0.142589   -1.937222    1.698975
  O      1.024499   -2.625534    2.559075
  H      0.531627    2.140282    0.307548
  H     -0.464346    1.792089   -1.115618
  H     -1.175138    1.689581    0.503586
  H     -0.681129   -0.584516   -0.451154
  H      1.493413    1.240116    2.251996
  H     -0.037754    0.641569    2.917810
  H      1.472093   -0.215346    3.261955
  H     -0.792622   -1.799875    2.253815
  H     -0.089165   -2.527556    0.797742
  H      1.875242   -2.697464    2.106102

 Total Charge           Charge          ....    0
 Multiplicity           Mult            ....    1
 Number of Electrons    NEL             ....   70
 Basis Dimension        Dim             ....  339

ORBITAL ENERGIES
----------------

  NO   OCC          E(Eh)            E(eV)
   0   2.0000     -20.606961      -560.7439
   1   2.0000     -20.565950      -559.6280
   2   2.0000     -20.559530      -559.4533
   3   2.0000     -11.386543      -309.8436
   4   2.0000     -11.320335      -308.0420
   5   2.0000     -11.300616      -307.5054
   6   2.0000     -11.273205      -306.7595
   7   2.0000     -11.244326      -305.9737
   8   2.0000     -11.240663      -305.8740
   9   2.0000      -1.470414       -40.0120
  10   2.0000      -1.385067       -37.6896
  11   2.0000      -1.374098       -37.3911
  12   2.0000      -1.110704       -30.2238
  13   2.0000      -1.032057       -28.0837
  14   2.0000      -0.954050       -25.9610
  15   2.0000      -0.904150       -24.6032
  16   2.0000      -0.857378       -23.3304
  17   2.0000      -0.732328       -19.9277
  18   2.0000      -0.720666       -19.6103
  19   2.0000      -0.698018       -18.9940
  20   2.0000      -0.691724       -18.8228
  21   2.0000      -0.665013       -18.0959
  22   2.0000      -0.620422       -16.8825
  23   2.0000      -0.614230       -16.7141
  24   2.0000      -0.602729       -16.4011
  25   2.0000      -0.575962       -15.6727
  26   2.0000      -0.572495       -15.5784
  27   2.0000      -0.555869       -15.1260
  28   2.0000      -0.550214       -14.9721
  29   2.0000      -0.535819       -14.5804
  30   2.0000      -0.523261       -14.2387
  31   2.0000      -0.481544       -13.1035
  32   2.0000      -0.467206       -12.7133
  33   2.0000      -0.454540       -12.3687
  34   2.0000      -0.434136       -11.8134
  35   0.0000       0.119765         3.2590
  36   0.0000       0.148454         4.0396
  37   0.0000       0.159403         4.3376
  38   0.0000       0.163121         4.4388
  39   0.0000       0.172222         4.6864

MULLIKEN ATOMIC CHARGES
-----------------------
   0 C :   -0.386826
   1 C :    0.019340
   2 O :   -0.230163
   3 C :    0.227055
   4 O :   -0.292131
   5 C :    0.016834
   6 C :   -0.414854
   7 C :   -0.023908
   8 O :   -0.467041
   9 H :    0.135792
  10 H :    0.153587
  11 H :    0.136764
  12 H :    0.114133
  13 H :    0.142012
  14 H :    0.135369
  15 H :    0.168392
  16 H :    0.117193
  17 H :    0.115658
  18 H :    0.332793
Sum of atomic charges:   -0.0000000

LOEWDIN ATOMIC CHARGES
----------------------
   0 C :   -0.286495
   1 C :   -0.221415
   2 O :    0.259105
   3 C :   -0.439787
   4 O :    0.139015
   5 C :   -0.254283
   6 C :   -0.255964
   7 C :   -0.299929
   8 O :   -0.027860
   9 H :    0.130518
  10 H :    0.134143
  11 H :    0.134257
  12 H :    0.143522
  13 H :    0.129364
  14 H :    0.131257
  15 H :    0.141047
  16 H :    0.134344
  17 H :    0.126396
  18 H :    0.182765

  Mayer bond orders larger than 0.1
B(  0-C ,  1-C ) :   0.9179 B(  0-C ,  9-H ) :   0.9333 B(  0-C , 10-H ) :   0.9310
B(  0-C , 11-H ) :   0.9276 B(  1-C ,  2-O ) :   0.8642 B(  1-C ,  5-C ) :   0.8819
B(  1-C , 12-H ) :   0.9150 B(  2-O ,  3-C ) :   1.1262 B(  3-C ,  4-O ) :   1.9890
B(  3-C ,  5-C ) :   0.8988 B(  5-C ,  6-C ) :   0.8971 B(  5-C ,  7-C ) :   0.9199
B(  6-C , 13-H ) :   0.9329 B(  6-C , 14-H ) :   0.9309 B(  6-C , 15-H ) :   0.9227
B(  7-C ,  8-O ) :   0.9400 B(  7-C , 16-H ) :   0.9302 B(  7-C , 17-H ) :   0.9055
B(  8-O , 18-H ) :   0.8250

MP2 TOTAL ENERGY:     -459.464689522 Eh
FINAL SINGLE POINT ENERGY      -459.464689521612

DIPOLE MOMENT
-------------
                                X             Y             Z
Electronic contribution:      6.09540      -4.89711      -3.38086
Nuclear contribution   :     -7.42087       5.71226       3.41628
                        -----------------------------------------
Total Dipole Moment    :     -1.32547       0.81516       0.03542
                        -----------------------------------------
Magnitude (a.u.)       :      1.55647
Magnitude (Debye)      :      3.95623

                             ****ORCA TERMINATED NORMALLY****
TOTAL RUN TIME: 0 days 0 hours 17 minutes 27 seconds 818 msec
