                         Program Version 3.0.3 - RELEASE   -
|  1> ! RI-MP2 RIJK def2-TZVP def2-TZVP/C def2-TZVP/JK TIGHTSCF
|  2> % maxcore 2000
|  3> % mp2 density relaxed end
|  4> *xyz 0 1
|  5>  C        0.0887440455     1.5152290013    -0.0055737017
|  6>  C        0.0911783308     0.0183334432     0.0099076345
|  7>  N        0.1260880349    -0.7149953265     1.0581192453
|  8>  O        0.1629443702     0.0367774582     2.2267178542
|  9>  C        0.0492324561    -0.7141072659    -1.3138584565
| 10>  N        0.0538951506    -2.0674823705    -1.2271238473
| 11>  O        0.0142782187    -0.1009480403    -2.3663308136
| 12>  H        0.9831335436     1.9010893467     0.4940386937
| 13>  H        0.0551702580     1.8671378803    -1.0355817356
| 14>  H       -0.7727423979     1.8988367963     0.5504216527
| 15>  H        0.1862313085    -0.6382003868     2.9145636852
| 16>  H        0.0834394536    -2.5175682550    -0.3285387928
| 17>  H        0.0268757176    -2.6052609911    -2.0758280479
| 18> *
| 19>
| 20>                          ****END OF INPUT****

CARTESIAN COORDINATES (ANGSTROEM)
---------------------------------
  C      0.088744    1.515229   -0.005574
  C      0.091178    0.018333    0.009908
  N      0.126088   -0.714995    1.058119
  O      0.162944    0.036777    2.226718
  C      0.049232   -0.714107   -1.313858
  N      0.053895   -2.067482   -1.227124
  O      0.014278   -0.100948   -2.366331
  H      0.983134    1.901089    0.494039
  H      0.055170    1.867138   -1.035582
  H     -0.772742    1.898837    0.550422
  H      0.186231   -0.638200    2.914564
  H      0.083439   -2.517568   -0.328539
  H      0.026876   -2.605261   -2.075828

 Total Charge           Charge          ....    0
 Multiplicity           Mult            ....    1
 Number of Electrons    NEL             ....   54
 Basis Dimension        Dim             ....  253

ORBITAL ENERGIES
----------------

  NO   OCC          E(Eh)            E(eV)
   0   2.0000     -20.617311      -561.0256
   1   2.0000     -20.528614      -558.6120
   2   2.0000     -15.645363      -425.7320
   3   2.0000     -15.583018      -424.0355
   4   2.0000     -11.363054      -309.2044
   5   2.0000     -11.297631      -307.4242
   6   2.0000     -11.229852      -305.5798
   7   2.0000      -1.449300       -39.4375
   8   2.0000      -1.391335       -37.8601
   9   2.0000      -1.225307       -33.3423
  10   2.0000      -1.174244       -31.9528
  11   2.0000      -0.992639       -27.0111
  12   2.0000      -0.884516       -24.0689
  13   2.0000      -0.769584       -20.9414
  14   2.0000      -0.729920       -19.8621
  15   2.0000      -0.703733       -19.1495
  16   2.0000      -0.696917       -18.9641
  17   2.0000      -0.635745       -17.2995
  18   2.0000      -0.621388       -16.9088
  19   2.0000      -0.596484       -16.2311
  20   2.0000      -0.578025       -15.7289
  21   2.0000      -0.558389       -15.1945
  22   2.0000      -0.543421       -14.7872
  23   2.0000      -0.475046       -12.9267
  24   2.0000      -0.434855       -11.8330
  25   2.0000      -0.419982       -11.4283
  26   2.0000      -0.403818       -10.9885
  27   0.0000       0.097924         2.6646
  28   0.0000       0.129658         3.5282
  29   0.0000       0.148677         4.0457
  30   0.0000       0.165460         4.5024
  31   0.0000       0.200354         5.4519

MULLIKEN ATOMIC CHARGES
-----------------------
   0 C :   -0.404336
   1 C :    0.111815
   2 N :   -0.135880
   3 O :   -0.355940
   4 C :    0.254091
   5 N :   -0.463331
   6 O :   -0.355759
   7 H :    0.148612
   8 H :    0.181447
   9 H :    0.148606
  10 H :    0.339389
  11 H :    0.273000
  12 H :    0.258286
Sum of atomic charges:    0.0000000

LOEWDIN ATOMIC CHARGES
----------------------
   0 C :   -0.275558
   1 C :   -0.265673
   2 N :    0.016837
   3 O :   -0.048642
   4 C :   -0.456591
   5 N :   -0.002502
   6 O :    0.088044
   7 H :    0.139745
   8 H :    0.142998
   9 H :    0.139750
  10 H :    0.174269
  11 H :    0.173224
  12 H :    0.174099

  Mayer bond orders larger than 0.1
B(  0-C ,  1-C ) :   0.9472 B(  0-C ,  7-H ) :   0.9181 B(  0-C ,  8-H ) :   0.9175
B(  0-C ,  9-H ) :   0.9181 B(  1-C ,  2-N ) :   1.6999 B(  1-C ,  4-C ) :   0.9220
B(  2-N ,  3-O ) :   0.8553 B(  3-O , 10-H ) :   0.8425 B(  4-C ,  5-N ) :   1.2055
B(  4-C ,  6-O ) :   1.9368 B(  5-N , 11-H ) :   0.8517 B(  5-N , 12-H ) :   0.8610

MP2 TOTAL ENERGY:     -377.177376953 Eh
FINAL SINGLE POINT ENERGY      -377.177376953351

DIPOLE MOMENT
-------------
                                X             Y             Z
Electronic contribution:     -0.01429      -2.40391      -0.53715
Nuclear contribution   :      0.04919       1.57565       1.58392
                        -----------------------------------------
Total Dipole Moment    :      0.03489      -0.82826       1.04677
                        -----------------------------------------
Magnitude (a.u.)       :      1.33528
Magnitude (Debye)      :      3.39400

                             ****ORCA TERMINATED NORMALLY****
TOTAL RUN TIME: 0 days 0 hours 6 minutes 11 seconds 396 msec
