                         Program Version 3.0.3 - RELEASE   -
|  1> ! RI-MP2 RIJK def2-TZVP def2-TZVP/C def2-TZVP/JK TIGHTSCF
|  2> % maxcore 2000
|  3> % mp2 density relaxed end
|  4> *xyz 0 1
|  5>  C        0.0408383179     1.5734002913     0.1468953466
|  6>  C        0.0646466642     0.0648699575    -0.0546877721
|  7>  C        0.6825071500    -0.7056260956     1.1103685062
|  8>  O        0.0149210183    -0.4659362460     2.3315747826
|  9>  O       -1.3054394610    -0.4398322129    -0.1310479525
| 10>  C       -1.9191399862    -0.3942207263    -1.3092177420
| 11>  O       -1.4668831303     0.0250545601    -2.3458030314
| 12>  C       -3.3429778063    -0.9620363032    -1.2397476062
| 13>  O       -3.8553031306    -1.3886051609    -0.2438151518
| 14>  H        1.0666324541     1.9532223361     0.1812574412
| 15>  H       -0.4767819801     2.0651384528    -0.6792747450
| 16>  H       -0.4495524904     1.8197445458     1.0909876655
| 17>  H        0.5672661098    -0.1938658557    -0.9913962734
| 18>  H        0.6999378882    -1.7772857124     0.8610803947
| 19>  H        1.7180592600    -0.3763268271     1.2447538214
| 20>  H       -0.8970554622    -0.7563288056     2.2143778321
| 21>  H       -3.8414552756    -0.9275761181    -2.2288146758
| 22> *
| 23>
| 24>                          ****END OF INPUT****

CARTESIAN COORDINATES (ANGSTROEM)
---------------------------------
  C      0.040838    1.573400    0.146895
  C      0.064647    0.064870   -0.054688
  C      0.682507   -0.705626    1.110369
  O      0.014921   -0.465936    2.331575
  O     -1.305439   -0.439832   -0.131048
  C     -1.919140   -0.394221   -1.309218
  O     -1.466883    0.025055   -2.345803
  C     -3.342978   -0.962036   -1.239748
  O     -3.855303   -1.388605   -0.243815
  H      1.066632    1.953222    0.181257
  H     -0.476782    2.065138   -0.679275
  H     -0.449552    1.819745    1.090988
  H      0.567266   -0.193866   -0.991396
  H      0.699938   -1.777286    0.861080
  H      1.718059   -0.376327    1.244754
  H     -0.897055   -0.756329    2.214378
  H     -3.841455   -0.927576   -2.228815

 Total Charge           Charge          ....    0
 Multiplicity           Mult            ....    1
 Number of Electrons    NEL             ....   70
 Basis Dimension        Dim             ....  327

ORBITAL ENERGIES
----------------

  NO   OCC          E(Eh)            E(eV)
   0   2.0000     -20.626395      -561.2727
   1   2.0000     -20.602712      -560.6283
   2   2.0000     -20.580325      -560.0191
   3   2.0000     -20.564380      -559.5852
   4   2.0000     -11.409880      -310.4786
   5   2.0000     -11.366766      -309.3054
   6   2.0000     -11.311321      -307.7967
   7   2.0000     -11.290980      -307.2432
   8   2.0000     -11.230208      -305.5895
   9   2.0000      -1.491534       -40.5867
  10   2.0000      -1.434069       -39.0230
  11   2.0000      -1.395784       -37.9812
  12   2.0000      -1.368971       -37.2516
  13   2.0000      -1.078871       -29.3576
  14   2.0000      -0.960541       -26.1376
  15   2.0000      -0.945260       -25.7218
  16   2.0000      -0.855365       -23.2757
  17   2.0000      -0.785074       -21.3629
  18   2.0000      -0.742544       -20.2057
  19   2.0000      -0.716163       -19.4878
  20   2.0000      -0.698904       -19.0181
  21   2.0000      -0.679633       -18.4938
  22   2.0000      -0.667948       -18.1758
  23   2.0000      -0.654312       -17.8047
  24   2.0000      -0.612963       -16.6796
  25   2.0000      -0.587913       -15.9979
  26   2.0000      -0.573948       -15.6179
  27   2.0000      -0.552304       -15.0290
  28   2.0000      -0.542334       -14.7577
  29   2.0000      -0.536457       -14.5977
  30   2.0000      -0.524392       -14.2694
  31   2.0000      -0.498038       -13.5523
  32   2.0000      -0.486605       -13.2412
  33   2.0000      -0.454362       -12.3638
  34   2.0000      -0.446534       -12.1508
  35   0.0000       0.056699         1.5429
  36   0.0000       0.133885         3.6432
  37   0.0000       0.161064         4.3828
  38   0.0000       0.168288         4.5793
  39   0.0000       0.174953         4.7607

MULLIKEN ATOMIC CHARGES
-----------------------
   0 C :   -0.412007
   1 C :    0.024290
   2 C :    0.011955
   3 O :   -0.477635
   4 O :   -0.244887
   5 C :    0.319796
   6 O :   -0.316361
   7 C :    0.079234
   8 O :   -0.221911
   9 H :    0.134148
  10 H :    0.155853
  11 H :    0.148754
  12 H :    0.118070
  13 H :    0.116097
  14 H :    0.114097
  15 H :    0.333278
  16 H :    0.117229
Sum of atomic charges:    0.0000000

LOEWDIN ATOMIC CHARGES
----------------------
   0 C :   -0.288272
   1 C :   -0.304480
   2 C :   -0.331126
   3 O :   -0.035971
   4 O :    0.288521
   5 C :   -0.501064
   6 O :    0.140029
   7 C :   -0.251934
   8 O :    0.173028
   9 H :    0.133315
  10 H :    0.130234
  11 H :    0.132140
  12 H :    0.150122
  13 H :    0.123806
  14 H :    0.136617
  15 H :    0.180861
  16 H :    0.124176

  Mayer bond orders larger than 0.1
B(  0-C ,  1-C ) :   0.9367 B(  0-C ,  9-H ) :   0.9291 B(  0-C , 10-H ) :   0.9338
B(  0-C , 11-H ) :   0.9256 B(  1-C ,  2-C ) :   0.9278 B(  1-C ,  4-O ) :   0.7636
B(  1-C , 12-H ) :   0.9278 B(  2-C ,  3-O ) :   0.9329 B(  2-C , 13-H ) :   0.9273
B(  2-C , 14-H ) :   0.9236 B(  3-O , 15-H ) :   0.8321 B(  4-O ,  5-C ) :   1.1678
B(  5-C ,  6-O ) :   1.8845 B(  5-C ,  7-C ) :   0.8272 B(  7-C ,  8-O ) :   2.0040
B(  7-C , 16-H ) :   0.9323

MP2 TOTAL ENERGY:     -495.363661189 Eh
FINAL SINGLE POINT ENERGY      -495.363661188579

DIPOLE MOMENT
-------------
                                X             Y             Z
Electronic contribution:     -7.22977      -3.86993      -3.16645
Nuclear contribution   :      7.61665       3.92735       2.76721
                        -----------------------------------------
Total Dipole Moment    :      0.38688       0.05742      -0.39924
                        -----------------------------------------
Magnitude (a.u.)       :      0.55889
Magnitude (Debye)      :      1.42059

                             ****ORCA TERMINATED NORMALLY****
TOTAL RUN TIME: 0 days 0 hours 13 minutes 57 seconds 142 msec
