                         Program Version 3.0.3 - RELEASE   -
|  1> ! RI-MP2 RIJK def2-TZVP def2-TZVP/C def2-TZVP/JK TIGHTSCF
|  2> % maxcore 2000
|  3> % mp2 density relaxed end
|  4> *xyz 0 1
|  5>  O       -0.7514208916     1.1667863538     0.7081405828
|  6>  C        0.1815481313     0.9008230419    -0.0085717610
|  7>  C        1.4159331660     1.7453190496    -0.1197153425
|  8>  C        1.8148100783     2.6768594892     1.0467930162
|  9>  C        2.0037020777     3.8582985775     0.0463646850
| 10>  C        1.5552373439     2.9492251819    -1.1270119959
| 11>  C        2.6680538838     2.0903077761    -1.7490866248
| 12>  O        2.5163369093     1.0584801199    -0.7434065346
| 13>  H        0.1866211783     0.0074303428    -0.6718025428
| 14>  H        0.9848122713     2.8210790823     1.7413573833
| 15>  H        2.6998075452     2.3421900916     1.5907135247
| 16>  H        1.3301080692     4.6972035511     0.2307160957
| 17>  H        3.0207778421     4.2478606002    -0.0481290006
| 18>  H        0.7510111772     3.2942675590    -1.7749140491
| 19>  H        2.4460153118     1.7004620183    -2.7500445206
| 20>  H        3.6746717261     2.5264489648    -1.7488685057
| 21> *
| 22>
| 23>                          ****END OF INPUT****

CARTESIAN COORDINATES (ANGSTROEM)
---------------------------------
  O     -0.751421    1.166786    0.708141
  C      0.181548    0.900823   -0.008572
  C      1.415933    1.745319   -0.119715
  C      1.814810    2.676859    1.046793
  C      2.003702    3.858299    0.046365
  C      1.555237    2.949225   -1.127012
  C      2.668054    2.090308   -1.749087
  O      2.516337    1.058480   -0.743407
  H      0.186621    0.007430   -0.671803
  H      0.984812    2.821079    1.741357
  H      2.699808    2.342190    1.590714
  H      1.330108    4.697204    0.230716
  H      3.020778    4.247861   -0.048129
  H      0.751011    3.294268   -1.774914
  H      2.446015    1.700462   -2.750045
  H      3.674672    2.526449   -1.748869

 Total Charge           Charge          ....    0
 Multiplicity           Mult            ....    1
 Number of Electrons    NEL             ....   60
 Basis Dimension        Dim             ....  296

ORBITAL ENERGIES
----------------

  NO   OCC          E(Eh)            E(eV)
   0   2.0000     -20.566142      -559.6332
   1   2.0000     -20.563202      -559.5532
   2   2.0000     -11.333671      -308.4049
   3   2.0000     -11.300630      -307.5058
   4   2.0000     -11.294259      -307.3324
   5   2.0000     -11.254143      -306.2408
   6   2.0000     -11.239524      -305.8430
   7   2.0000     -11.233948      -305.6913
   8   2.0000      -1.407115       -38.2895
   9   2.0000      -1.392676       -37.8966
  10   2.0000      -1.123316       -30.5670
  11   2.0000      -0.997120       -27.1330
  12   2.0000      -0.940904       -25.6033
  13   2.0000      -0.864916       -23.5356
  14   2.0000      -0.828671       -22.5493
  15   2.0000      -0.719043       -19.5661
  16   2.0000      -0.712421       -19.3860
  17   2.0000      -0.675973       -18.3942
  18   2.0000      -0.659820       -17.9546
  19   2.0000      -0.640898       -17.4397
  20   2.0000      -0.605121       -16.4662
  21   2.0000      -0.588344       -16.0096
  22   2.0000      -0.549145       -14.9430
  23   2.0000      -0.540171       -14.6988
  24   2.0000      -0.507199       -13.8016
  25   2.0000      -0.486310       -13.2332
  26   2.0000      -0.481310       -13.0971
  27   2.0000      -0.455536       -12.3958
  28   2.0000      -0.415968       -11.3191
  29   2.0000      -0.404330       -11.0024
  30   0.0000       0.106611         2.9010
  31   0.0000       0.142555         3.8791
  32   0.0000       0.162231         4.4145
  33   0.0000       0.167642         4.5618
  34   0.0000       0.173120         4.7108

MULLIKEN ATOMIC CHARGES
-----------------------
   0 O :   -0.269909
   1 C :    0.053506
   2 C :    0.262770
   3 C :   -0.250146
   4 C :   -0.233223
   5 C :   -0.147853
   6 C :   -0.024807
   7 O :   -0.333435
   8 H :    0.096166
   9 H :    0.142238
  10 H :    0.123503
  11 H :    0.126039
  12 H :    0.118094
  13 H :    0.131647
  14 H :    0.106988
  15 H :    0.098424
Sum of atomic charges:    0.0000000

LOEWDIN ATOMIC CHARGES
----------------------
   0 O :    0.140318
   1 C :   -0.257716
   2 C :   -0.284344
   3 C :   -0.185659
   4 C :   -0.214654
   5 C :   -0.159929
   6 C :   -0.242282
   7 O :    0.161119
   8 H :    0.118684
   9 H :    0.143618
  10 H :    0.136313
  11 H :    0.134369
  12 H :    0.130888
  13 H :    0.138740
  14 H :    0.120678
  15 H :    0.119857

  Mayer bond orders larger than 0.1
B(  0-O ,  1-C ) :   1.9750 B(  1-C ,  2-C ) :   0.8748 B(  1-C ,  8-H ) :   0.9402
B(  2-C ,  3-C ) :   0.9015 B(  2-C ,  5-C ) :   0.8837 B(  2-C ,  7-O ) :   0.9475
B(  3-C ,  4-C ) :   0.9745 B(  3-C ,  9-H ) :   0.9009 B(  3-C , 10-H ) :   0.9092
B(  4-C ,  5-C ) :   0.9376 B(  4-C , 11-H ) :   0.9198 B(  4-C , 12-H ) :   0.9186
B(  5-C ,  6-C ) :   0.9603 B(  5-C , 13-H ) :   0.9007 B(  6-C ,  7-O ) :   0.9278
B(  6-C , 14-H ) :   0.9218 B(  6-C , 15-H ) :   0.9006

MP2 TOTAL ENERGY:     -383.069555590 Eh
FINAL SINGLE POINT ENERGY      -383.069555589570

DIPOLE MOMENT
-------------
                                X             Y             Z
Electronic contribution:     -2.95975      -4.29998       0.75277
Nuclear contribution   :      3.48661       4.99592      -1.40643
                        -----------------------------------------
Total Dipole Moment    :      0.52686       0.69594      -0.65366
                        -----------------------------------------
Magnitude (a.u.)       :      1.09050
Magnitude (Debye)      :      2.77183

                             ****ORCA TERMINATED NORMALLY****
TOTAL RUN TIME: 0 days 0 hours 11 minutes 43 seconds 847 msec
