                         Program Version 3.0.3 - RELEASE   -
|  1> ! RI-MP2 RIJK def2-TZVP def2-TZVP/C def2-TZVP/JK TIGHTSCF
|  2> % maxcore 2000
|  3> % mp2 density relaxed end
|  4> *xyz 0 1
|  5>  C       -0.0142464534     1.3841174330     0.0574236855
|  6>  O        0.0940919998    -0.0289354533     0.0169859023
|  7>  C        0.7313639199    -0.5287512775    -1.0972067912
|  8>  C        1.7003588922    -1.6538500655    -0.9572209875
|  9>  C        2.1538096011    -0.3520570612    -1.6049719996
| 10>  C        1.6154450600    -0.1162947256    -3.0423657022
| 11>  C        0.7364755553    -1.1652372591    -3.6353965153
| 12>  O        1.0173978760    -2.5366050845    -3.6086247894
| 13>  C        0.1660306289    -0.3083575161    -2.5338075779
| 14>  H        0.9723779858     1.8619195813    -0.0129761976
| 15>  H       -0.6496238584     1.7746143830    -0.7490902965
| 16>  H       -0.4706553987     1.6377310395     1.0168092881
| 17>  H        2.0611872737    -1.7418065060     0.0641964538
| 18>  H        1.6277021275    -2.5783119654    -1.5103130261
| 19>  H        2.9764537515     0.2233784379    -1.2023130494
| 20>  H        2.0023315007     0.6932408947    -3.6503717671
| 21>  H        0.3442970746    -0.8385174059    -4.6035761586
| 22>  H        0.1752048411    -3.0050856393    -3.5961519300
| 23>  H       -0.6951380278     0.3251130998    -2.7113895614
| 24> *
| 25>
| 26>                          ****END OF INPUT****

CARTESIAN COORDINATES (ANGSTROEM)
---------------------------------
  C     -0.014246    1.384117    0.057424
  O      0.094092   -0.028935    0.016986
  C      0.731364   -0.528751   -1.097207
  C      1.700359   -1.653850   -0.957221
  C      2.153810   -0.352057   -1.604972
  C      1.615445   -0.116295   -3.042366
  C      0.736476   -1.165237   -3.635397
  O      1.017398   -2.536605   -3.608625
  C      0.166031   -0.308358   -2.533808
  H      0.972378    1.861920   -0.012976
  H     -0.649624    1.774614   -0.749090
  H     -0.470655    1.637731    1.016809
  H      2.061187   -1.741807    0.064196
  H      1.627702   -2.578312   -1.510313
  H      2.976454    0.223378   -1.202313
  H      2.002332    0.693241   -3.650372
  H      0.344297   -0.838517   -4.603576
  H      0.175205   -3.005086   -3.596152
  H     -0.695138    0.325113   -2.711390

 Total Charge           Charge          ....    0
 Multiplicity           Mult            ....    1
 Number of Electrons    NEL             ....   68
 Basis Dimension        Dim             ....  339

ORBITAL ENERGIES
----------------

  NO   OCC          E(Eh)            E(eV)
   0   2.0000     -20.564399      -559.5858
   1   2.0000     -20.563581      -559.5635
   2   2.0000     -11.295339      -307.3618
   3   2.0000     -11.288797      -307.1838
   4   2.0000     -11.272781      -306.7480
   5   2.0000     -11.240128      -305.8594
   6   2.0000     -11.236952      -305.7730
   7   2.0000     -11.230869      -305.6075
   8   2.0000     -11.218211      -305.2630
   9   2.0000      -1.387690       -37.7610
  10   2.0000      -1.373041       -37.3623
  11   2.0000      -1.201582       -32.6967
  12   2.0000      -1.071198       -29.1488
  13   2.0000      -0.941347       -25.6154
  14   2.0000      -0.863748       -23.5038
  15   2.0000      -0.859576       -23.3903
  16   2.0000      -0.766548       -20.8588
  17   2.0000      -0.731674       -19.9099
  18   2.0000      -0.722371       -19.6567
  19   2.0000      -0.688826       -18.7439
  20   2.0000      -0.647037       -17.6068
  21   2.0000      -0.634899       -17.2765
  22   2.0000      -0.624246       -16.9866
  23   2.0000      -0.602669       -16.3995
  24   2.0000      -0.571802       -15.5595
  25   2.0000      -0.560745       -15.2586
  26   2.0000      -0.530763       -14.4428
  27   2.0000      -0.501261       -13.6400
  28   2.0000      -0.484981       -13.1970
  29   2.0000      -0.461888       -12.5686
  30   2.0000      -0.439687       -11.9645
  31   2.0000      -0.420392       -11.4395
  32   2.0000      -0.398187       -10.8352
  33   2.0000      -0.319643        -8.6979
  34   0.0000       0.136930         3.7261
  35   0.0000       0.147041         4.0012
  36   0.0000       0.166001         4.5171
  37   0.0000       0.170668         4.6441
  38   0.0000       0.188801         5.1375

MULLIKEN ATOMIC CHARGES
-----------------------
   0 C :   -0.211634
   1 O :   -0.303206
   2 C :    0.204418
   3 C :   -0.208919
   4 C :   -0.220882
   5 C :   -0.095435
   6 C :    0.027050
   7 O :   -0.466554
   8 C :   -0.216631
   9 H :    0.118298
  10 H :    0.114357
  11 H :    0.141898
  12 H :    0.120714
  13 H :    0.153741
  14 H :    0.147034
  15 H :    0.137174
  16 H :    0.100772
  17 H :    0.323101
  18 H :    0.134704
Sum of atomic charges:    0.0000000

LOEWDIN ATOMIC CHARGES
----------------------
   0 C :   -0.335668
   1 O :    0.200966
   2 C :   -0.304039
   3 C :   -0.173273
   4 C :   -0.152446
   5 C :   -0.136036
   6 C :   -0.304604
   7 O :   -0.003931
   8 C :   -0.134069
   9 H :    0.104715
  10 H :    0.102490
  11 H :    0.113692
  12 H :    0.146566
  13 H :    0.132221
  14 H :    0.139539
  15 H :    0.138730
  16 H :    0.145501
  17 H :    0.181082
  18 H :    0.138564

  Mayer bond orders larger than 0.1
B(  0-C ,  1-O ) :   0.8884 B(  0-C ,  9-H ) :   0.9334 B(  0-C , 10-H ) :   0.9333
B(  0-C , 11-H ) :   0.9404 B(  1-O ,  2-C ) :   1.0210 B(  2-C ,  3-C ) :   0.9146
B(  2-C ,  4-C ) :   0.9127 B(  2-C ,  8-C ) :   0.8438 B(  3-C ,  4-C ) :   0.8820
B(  3-C , 12-H ) :   0.9218 B(  3-C , 13-H ) :   0.9041 B(  4-C ,  5-C ) :   0.8680
B(  4-C , 14-H ) :   0.9128 B(  5-C ,  6-C ) :   0.8757 B(  5-C ,  8-C ) :   0.8595
B(  5-C , 15-H ) :   0.9204 B(  6-C ,  7-O ) :   1.0451 B(  6-C ,  8-C ) :   0.8949
B(  6-C , 16-H ) :   0.9586 B(  7-O , 17-H ) :   0.8388 B(  8-C , 18-H ) :   0.9183

MP2 TOTAL ENERGY:     -422.214937299 Eh
FINAL SINGLE POINT ENERGY      -422.214937298710

DIPOLE MOMENT
-------------
                                X             Y             Z
Electronic contribution:      0.04883      -3.42418      -1.32945
Nuclear contribution   :     -0.46159       4.05773       1.08315
                        -----------------------------------------
Total Dipole Moment    :     -0.41277       0.63355      -0.24630
                        -----------------------------------------
Magnitude (a.u.)       :      0.79525
Magnitude (Debye)      :      2.02136

                             ****ORCA TERMINATED NORMALLY****
TOTAL RUN TIME: 0 days 0 hours 18 minutes 11 seconds 190 msec
