                         Program Version 3.0.3 - RELEASE   -
|  1> ! RI-MP2 RIJK def2-TZVP def2-TZVP/C def2-TZVP/JK TIGHTSCF
|  2> % maxcore 2000
|  3> % mp2 density relaxed end
|  4> *xyz 0 1
|  5>  C       -0.7842914396     1.4424389044     0.1107423968
|  6>  C       -0.0903677184     0.0860281972     0.0061356722
|  7>  C       -1.0847007226    -0.9669047837    -0.5005549989
|  8>  C        1.2481656938     0.0480460948    -0.7994211604
|  9>  C        1.8384942684    -0.8901225388     0.2805716649
| 10>  O        3.1938285402    -0.7955919621     0.6509533064
| 11>  C        0.7153068421    -0.4240347310     1.2605387509
| 12>  C        1.1899536831     0.6595129476     2.2268936062
| 13>  O        0.0259999004    -1.4396514425     1.9679958782
| 14>  H       -0.1046045689     2.2354395062     0.4349052315
| 15>  H       -1.1906941009     1.7362569376    -0.8637361554
| 16>  H       -1.6212856597     1.4055601242     0.8173458361
| 17>  H       -1.4883865720    -0.6578966482    -1.4713792830
| 18>  H       -0.6244865484    -1.9502565195    -0.6225287270
| 19>  H       -1.9184030305    -1.0832600587     0.1974169772
| 20>  H        1.2081973652    -0.3247131665    -1.8256684208
| 21>  H        1.7514566790     1.0220145129    -0.8021645863
| 22>  H        1.6757598748    -1.9410419941     0.0282415202
| 23>  H        3.4129269145     0.1356856213     0.7572015817
| 24>  H        1.6847519732     1.4944171574     1.7195864317
| 25>  H        0.3470250448     1.0622484525     2.7945061264
| 26>  H        1.9133514311     0.2336877812     2.9322549480
| 27>  H        0.6038799904    -1.7587396121     2.6697479935
| 28> *
| 29>
| 30>                          ****END OF INPUT****

CARTESIAN COORDINATES (ANGSTROEM)
---------------------------------
  C     -0.784291    1.442439    0.110742
  C     -0.090368    0.086028    0.006136
  C     -1.084701   -0.966905   -0.500555
  C      1.248166    0.048046   -0.799421
  C      1.838494   -0.890123    0.280572
  O      3.193829   -0.795592    0.650953
  C      0.715307   -0.424035    1.260539
  C      1.189954    0.659513    2.226894
  O      0.026000   -1.439651    1.967996
  H     -0.104605    2.235440    0.434905
  H     -1.190694    1.736257   -0.863736
  H     -1.621286    1.405560    0.817346
  H     -1.488387   -0.657897   -1.471379
  H     -0.624487   -1.950257   -0.622529
  H     -1.918403   -1.083260    0.197417
  H      1.208197   -0.324713   -1.825668
  H      1.751457    1.022015   -0.802165
  H      1.675760   -1.941042    0.028242
  H      3.412927    0.135686    0.757202
  H      1.684752    1.494417    1.719586
  H      0.347025    1.062248    2.794506
  H      1.913351    0.233688    2.932255
  H      0.603880   -1.758740    2.669748

 Total Charge           Charge          ....    0
 Multiplicity           Mult            ....    1
 Number of Electrons    NEL             ....   72
 Basis Dimension        Dim             ....  363

ORBITAL ENERGIES
----------------

  NO   OCC          E(Eh)            E(eV)
   0   2.0000     -20.559415      -559.4501
   1   2.0000     -20.554145      -559.3067
   2   2.0000     -11.282394      -307.0095
   3   2.0000     -11.274424      -306.7927
   4   2.0000     -11.236954      -305.7731
   5   2.0000     -11.224219      -305.4265
   6   2.0000     -11.221559      -305.3541
   7   2.0000     -11.213944      -305.1469
   8   2.0000     -11.207366      -304.9679
   9   2.0000      -1.372106       -37.3369
  10   2.0000      -1.357773       -36.9469
  11   2.0000      -1.135474       -30.8978
  12   2.0000      -1.005021       -27.3480
  13   2.0000      -0.980390       -26.6778
  14   2.0000      -0.926452       -25.2100
  15   2.0000      -0.863201       -23.4889
  16   2.0000      -0.827684       -22.5224
  17   2.0000      -0.717507       -19.5244
  18   2.0000      -0.705585       -19.1999
  19   2.0000      -0.663838       -18.0639
  20   2.0000      -0.647713       -17.6252
  21   2.0000      -0.612712       -16.6727
  22   2.0000      -0.609947       -16.5975
  23   2.0000      -0.577709       -15.7203
  24   2.0000      -0.561327       -15.2745
  25   2.0000      -0.556044       -15.1307
  26   2.0000      -0.550160       -14.9706
  27   2.0000      -0.538250       -14.6465
  28   2.0000      -0.534051       -14.5323
  29   2.0000      -0.524134       -14.2624
  30   2.0000      -0.507031       -13.7970
  31   2.0000      -0.491448       -13.3730
  32   2.0000      -0.460224       -12.5233
  33   2.0000      -0.427595       -11.6355
  34   2.0000      -0.425114       -11.5679
  35   2.0000      -0.392607       -10.6834
  36   0.0000       0.122700         3.3388
  37   0.0000       0.150184         4.0867
  38   0.0000       0.154364         4.2005
  39   0.0000       0.170526         4.6403
  40   0.0000       0.184490         5.0202

MULLIKEN ATOMIC CHARGES
-----------------------
   0 C :   -0.411864
   1 C :    0.109358
   2 C :   -0.416169
   3 C :   -0.250237
   4 C :   -0.058389
   5 O :   -0.447921
   6 C :    0.275053
   7 C :   -0.539910
   8 O :   -0.458545
   9 H :    0.122660
  10 H :    0.134480
  11 H :    0.138877
  12 H :    0.127034
  13 H :    0.131172
  14 H :    0.138746
  15 H :    0.124105
  16 H :    0.108994
  17 H :    0.111812
  18 H :    0.316538
  19 H :    0.123251
  20 H :    0.155212
  21 H :    0.151494
  22 H :    0.314248
Sum of atomic charges:    0.0000000

LOEWDIN ATOMIC CHARGES
----------------------
   0 C :   -0.273718
   1 C :   -0.259796
   2 C :   -0.264782
   3 C :   -0.188768
   4 C :   -0.301399
   5 O :   -0.012414
   6 C :   -0.336259
   7 C :   -0.286343
   8 O :    0.013800
   9 H :    0.121930
  10 H :    0.128248
  11 H :    0.129310
  12 H :    0.124737
  13 H :    0.127748
  14 H :    0.129858
  15 H :    0.130771
  16 H :    0.135023
  17 H :    0.147359
  18 H :    0.172332
  19 H :    0.124475
  20 H :    0.132243
  21 H :    0.127941
  22 H :    0.177707

  Mayer bond orders larger than 0.1
B(  0-C ,  1-C ) :   0.8814 B(  0-C ,  9-H ) :   0.9299 B(  0-C , 10-H ) :   0.9394
B(  0-C , 11-H ) :   0.9422 B(  1-C ,  2-C ) :   0.9285 B(  1-C ,  3-C ) :   0.9127
B(  1-C ,  6-C ) :   0.8613 B(  2-C , 12-H ) :   0.9377 B(  2-C , 13-H ) :   0.9246
B(  2-C , 14-H ) :   0.9361 B(  3-C ,  4-C ) :   0.9481 B(  3-C , 15-H ) :   0.9180
B(  3-C , 16-H ) :   0.9081 B(  4-C ,  5-O ) :   1.0045 B(  4-C ,  6-C ) :   0.8591
B(  4-C , 17-H ) :   0.9326 B(  5-O , 18-H ) :   0.8378 B(  6-C ,  7-C ) :   0.8809
B(  6-C ,  8-O ) :   0.9849 B(  7-C , 19-H ) :   0.9348 B(  7-C , 20-H ) :   0.9401
B(  7-C , 21-H ) :   0.9266 B(  8-O , 22-H ) :   0.8405

MP2 TOTAL ENERGY:     -424.731414496 Eh
FINAL SINGLE POINT ENERGY      -424.731414495986

DIPOLE MOMENT
-------------
                                X             Y             Z
Electronic contribution:      4.20651      -4.33534       1.80340
Nuclear contribution   :     -4.11998       4.98360      -1.67965
                        -----------------------------------------
Total Dipole Moment    :      0.08652       0.64826       0.12375
                        -----------------------------------------
Magnitude (a.u.)       :      0.66561
Magnitude (Debye)      :      1.69184

                             ****ORCA TERMINATED NORMALLY****
TOTAL RUN TIME: 0 days 0 hours 21 minutes 29 seconds 989 msec
