                         Program Version 3.0.3 - RELEASE   -
|  1> ! RI-MP2 RIJK def2-TZVP def2-TZVP/C def2-TZVP/JK TIGHTSCF
|  2> % maxcore 2000
|  3> % mp2 density relaxed end
|  4> *xyz 0 1
|  5>  C       -0.0466636297     1.4259770890     0.0153701104
|  6>  N       -0.0008839244    -0.0198153147     0.0674133319
|  7>  N       -0.0155583876    -0.7426954560    -1.0486108742
|  8>  N        0.0304738960    -2.0118416821    -0.7165625769
|  9>  C        0.0798756831    -2.1108419558     0.6340527678
| 10>  N        0.1965658083    -3.3264131227     1.2748189580
| 11>  C        0.0580267915    -0.8286623689     1.1780227469
| 12>  C        0.0820605270    -0.3720321975     2.5021230843
| 13>  C        0.0947866052     0.0046734886     3.6481561600
| 14>  H        0.8473119321     1.8538680742     0.4769934233
| 15>  H       -0.0921609252     1.7073597044    -1.0361805666
| 16>  H       -0.9302741293     1.7998257676     0.5396803646
| 17>  H       -0.1077581273    -4.1009548366     0.7016766062
| 18>  H       -0.1946143221    -3.3542554043     2.2051789197
| 19>  H        0.1193636823     0.3351067847     4.6569550645
| 20> *
| 21>
| 22>                          ****END OF INPUT****

CARTESIAN COORDINATES (ANGSTROEM)
---------------------------------
  C     -0.046664    1.425977    0.015370
  N     -0.000884   -0.019815    0.067413
  N     -0.015558   -0.742695   -1.048611
  N      0.030474   -2.011842   -0.716563
  C      0.079876   -2.110842    0.634053
  N      0.196566   -3.326413    1.274819
  C      0.058027   -0.828662    1.178023
  C      0.082061   -0.372032    2.502123
  C      0.094787    0.004673    3.648156
  H      0.847312    1.853868    0.476993
  H     -0.092161    1.707360   -1.036181
  H     -0.930274    1.799826    0.539680
  H     -0.107758   -4.100955    0.701677
  H     -0.194614   -3.354255    2.205179
  H      0.119364    0.335107    4.656955

 Total Charge           Charge          ....    0
 Multiplicity           Mult            ....    1
 Number of Electrons    NEL             ....   64
 Basis Dimension        Dim             ....  315

ORBITAL ENERGIES
----------------

  NO   OCC          E(Eh)            E(eV)
   0   2.0000     -15.666253      -426.3004
   1   2.0000     -15.647320      -425.7852
   2   2.0000     -15.586361      -424.1264
   3   2.0000     -15.572990      -423.7626
   4   2.0000     -11.306165      -307.6564
   5   2.0000     -11.286851      -307.1308
   6   2.0000     -11.285451      -307.0927
   7   2.0000     -11.259008      -306.3732
   8   2.0000     -11.248287      -306.0815
   9   2.0000      -1.443708       -39.2853
  10   2.0000      -1.246753       -33.9259
  11   2.0000      -1.202892       -32.7323
  12   2.0000      -1.093766       -29.7629
  13   2.0000      -1.025906       -27.9163
  14   2.0000      -0.994754       -27.0686
  15   2.0000      -0.863538       -23.4981
  16   2.0000      -0.829876       -22.5821
  17   2.0000      -0.765851       -20.8399
  18   2.0000      -0.717304       -19.5188
  19   2.0000      -0.692909       -18.8550
  20   2.0000      -0.681516       -18.5450
  21   2.0000      -0.667393       -18.1607
  22   2.0000      -0.614186       -16.7128
  23   2.0000      -0.587573       -15.9887
  24   2.0000      -0.581381       -15.8202
  25   2.0000      -0.520309       -14.1583
  26   2.0000      -0.495867       -13.4932
  27   2.0000      -0.465111       -12.6563
  28   2.0000      -0.457753       -12.4561
  29   2.0000      -0.409428       -11.1411
  30   2.0000      -0.381941       -10.3931
  31   2.0000      -0.305616        -8.3162
  32   0.0000       0.100105         2.7240
  33   0.0000       0.130221         3.5435
  34   0.0000       0.144777         3.9396
  35   0.0000       0.153742         4.1835
  36   0.0000       0.155444         4.2298

MULLIKEN ATOMIC CHARGES
-----------------------
   0 C :   -0.334363
   1 N :    0.132679
   2 N :   -0.196694
   3 N :   -0.160134
   4 C :    0.125260
   5 N :   -0.518618
   6 C :   -0.186632
   7 C :    0.062558
   8 C :   -0.142289
   9 H :    0.160255
  10 H :    0.180701
  11 H :    0.158785
  12 H :    0.263683
  13 H :    0.256213
  14 H :    0.198595
Sum of atomic charges:    0.0000000

LOEWDIN ATOMIC CHARGES
----------------------
   0 C :   -0.263777
   1 N :    0.188535
   2 N :   -0.037444
   3 N :    0.017062
   4 C :   -0.345436
   5 N :   -0.060773
   6 C :   -0.216898
   7 C :   -0.091395
   8 C :   -0.066831
   9 H :    0.129295
  10 H :    0.136913
  11 H :    0.128894
  12 H :    0.177786
  13 H :    0.173538
  14 H :    0.130532

  Mayer bond orders larger than 0.1
B(  0-C ,  1-N ) :   0.8454 B(  0-C ,  9-H ) :   0.9270 B(  0-C , 10-H ) :   0.9230
B(  0-C , 11-H ) :   0.9267 B(  1-N ,  2-N ) :   1.0499 B(  1-N ,  6-C ) :   1.1973
B(  2-N ,  3-N ) :   1.2100 B(  3-N ,  4-C ) :   1.4350 B(  4-C ,  5-N ) :   1.0838
B(  4-C ,  6-C ) :   1.3640 B(  5-N , 12-H ) :   0.8689 B(  5-N , 13-H ) :   0.8705
B(  6-C ,  7-C ) :   1.1788 B(  6-C ,  8-C ) :  -0.1213 B(  7-C ,  8-C ) :   2.6321
B(  8-C , 14-H ) :   0.8700

MP2 TOTAL ENERGY:     -412.248420825 Eh
FINAL SINGLE POINT ENERGY      -412.248420824803

DIPOLE MOMENT
-------------
                                X             Y             Z
Electronic contribution:      0.21310      -2.66930      -1.15707
Nuclear contribution   :     -0.60361       3.39745       2.56412
                        -----------------------------------------
Total Dipole Moment    :     -0.39051       0.72816       1.40705
                        -----------------------------------------
Magnitude (a.u.)       :      1.63171
Magnitude (Debye)      :      4.14749

                             ****ORCA TERMINATED NORMALLY****
TOTAL RUN TIME: 0 days 0 hours 18 minutes 43 seconds 994 msec
