                         Program Version 3.0.3 - RELEASE   -
|  1> ! RI-MP2 RIJK def2-TZVP def2-TZVP/C def2-TZVP/JK TIGHTSCF
|  2> % maxcore 2000
|  3> % mp2 density relaxed end
|  4> *xyz 0 1
|  5>  O        0.0090452252     1.4024660630     0.0241331419
|  6>  C        0.0123206005     0.0081954328    -0.0689090221
|  7>  C       -0.3331885691    -0.8137241399     1.1455359135
|  8>  C       -1.3261377784    -0.6761953963     0.0033271807
|  9>  C       -2.5787741698     0.0964281861     0.1603264320
| 10>  C       -2.9153436264     1.2833104786     1.0826534666
| 11>  C       -4.4132709687     0.8154126929     1.0670689370
| 12>  C       -3.9930861399    -0.3306302947     0.1386585702
| 13>  O       -3.3903276464     0.2651570507    -1.0177756922
| 14>  H        0.7874165550     1.6693521900     0.5242090856
| 15>  H        0.7386648033    -0.4016454928    -0.7705637877
| 16>  H        0.1526244838    -1.7712734062     1.2972952411
| 17>  H       -0.5491354404    -0.2619282378     2.0542764883
| 18>  H       -1.4471114360    -1.5396162652    -0.6436426633
| 19>  H       -2.4673597797     1.2092063858     2.0759281311
| 20>  H       -2.6894472643     2.2603861033     0.6545650514
| 21>  H       -4.7573950338     0.4749243151     2.0468272907
| 22>  H       -5.1445195511     1.5077771293     0.6430028922
| 23>  H       -4.4391657437    -1.3114801347     0.0117922429
| 24> *
| 25>
| 26>                          ****END OF INPUT****

CARTESIAN COORDINATES (ANGSTROEM)
---------------------------------
  O      0.009045    1.402466    0.024133
  C      0.012321    0.008195   -0.068909
  C     -0.333189   -0.813724    1.145536
  C     -1.326138   -0.676195    0.003327
  C     -2.578774    0.096428    0.160326
  C     -2.915344    1.283310    1.082653
  C     -4.413271    0.815413    1.067069
  C     -3.993086   -0.330630    0.138659
  O     -3.390328    0.265157   -1.017776
  H      0.787417    1.669352    0.524209
  H      0.738665   -0.401645   -0.770564
  H      0.152624   -1.771273    1.297295
  H     -0.549135   -0.261928    2.054276
  H     -1.447111   -1.539616   -0.643643
  H     -2.467360    1.209206    2.075928
  H     -2.689447    2.260386    0.654565
  H     -4.757395    0.474924    2.046827
  H     -5.144520    1.507777    0.643003
  H     -4.439166   -1.311480    0.011792

 Total Charge           Charge          ....    0
 Multiplicity           Mult            ....    1
 Number of Electrons    NEL             ....   68
 Basis Dimension        Dim             ....  339

ORBITAL ENERGIES
----------------

  NO   OCC          E(Eh)            E(eV)
   0   2.0000     -20.567417      -559.6679
   1   2.0000     -20.553461      -559.2881
   2   2.0000     -11.289673      -307.2076
   3   2.0000     -11.284490      -307.0666
   4   2.0000     -11.274810      -306.8032
   5   2.0000     -11.240780      -305.8772
   6   2.0000     -11.234511      -305.7066
   7   2.0000     -11.225435      -305.4596
   8   2.0000     -11.223719      -305.4129
   9   2.0000      -1.405608       -38.2486
  10   2.0000      -1.377248       -37.4768
  11   2.0000      -1.140340       -31.0302
  12   2.0000      -1.070668       -29.1344
  13   2.0000      -0.922401       -25.0998
  14   2.0000      -0.878131       -23.8952
  15   2.0000      -0.835943       -22.7472
  16   2.0000      -0.808072       -21.9888
  17   2.0000      -0.735774       -20.0214
  18   2.0000      -0.719486       -19.5782
  19   2.0000      -0.685312       -18.6483
  20   2.0000      -0.654309       -17.8047
  21   2.0000      -0.614253       -16.7147
  22   2.0000      -0.608673       -16.5628
  23   2.0000      -0.593290       -16.1442
  24   2.0000      -0.564773       -15.3682
  25   2.0000      -0.539083       -14.6692
  26   2.0000      -0.514889       -14.0108
  27   2.0000      -0.504318       -13.7232
  28   2.0000      -0.483399       -13.1540
  29   2.0000      -0.466959       -12.7066
  30   2.0000      -0.452083       -12.3018
  31   2.0000      -0.430335       -11.7100
  32   2.0000      -0.409831       -11.1521
  33   2.0000      -0.366304        -9.9676
  34   0.0000       0.136481         3.7138
  35   0.0000       0.155059         4.2194
  36   0.0000       0.160262         4.3610
  37   0.0000       0.175978         4.7886
  38   0.0000       0.183447         4.9918

MULLIKEN ATOMIC CHARGES
-----------------------
   0 O :   -0.463828
   1 C :    0.026803
   2 C :   -0.313938
   3 C :   -0.102589
   4 C :    0.188567
   5 C :   -0.211819
   6 C :   -0.154005
   7 C :   -0.068115
   8 O :   -0.320596
   9 H :    0.322868
  10 H :    0.109812
  11 H :    0.133562
  12 H :    0.140199
  13 H :    0.133760
  14 H :    0.108269
  15 H :    0.122000
  16 H :    0.108370
  17 H :    0.114276
  18 H :    0.126406
Sum of atomic charges:    0.0000000

LOEWDIN ATOMIC CHARGES
----------------------
   0 O :    0.008824
   1 C :   -0.312287
   2 C :   -0.209457
   3 C :   -0.175429
   4 C :   -0.258505
   5 C :   -0.192203
   6 C :   -0.219568
   7 C :   -0.230514
   8 O :    0.188767
   9 H :    0.181332
  10 H :    0.131508
  11 H :    0.132207
  12 H :    0.137257
  13 H :    0.161340
  14 H :    0.132193
  15 H :    0.134418
  16 H :    0.132896
  17 H :    0.129851
  18 H :    0.127370

  Mayer bond orders larger than 0.1
B(  0-O ,  1-C ) :   1.0378 B(  0-O ,  9-H ) :   0.8401 B(  1-C ,  2-C ) :   0.8851
B(  1-C ,  3-C ) :   0.8717 B(  1-C , 10-H ) :   0.9474 B(  2-C ,  3-C ) :   0.8428
B(  2-C , 11-H ) :   0.9183 B(  2-C , 12-H ) :   0.9315 B(  3-C ,  4-C ) :   0.9319
B(  3-C , 13-H ) :   0.9129 B(  4-C ,  5-C ) :   0.9060 B(  4-C ,  7-C ) :   0.8748
B(  4-C ,  8-O ) :   0.8626 B(  5-C ,  6-C ) :   0.9734 B(  5-C , 14-H ) :   0.9300
B(  5-C , 15-H ) :   0.9073 B(  6-C ,  7-C ) :   0.9100 B(  6-C , 16-H ) :   0.9074
B(  6-C , 17-H ) :   0.9117 B(  7-C ,  8-O ) :   0.9173 B(  7-C , 18-H ) :   0.9228

MP2 TOTAL ENERGY:     -422.257636129 Eh
FINAL SINGLE POINT ENERGY      -422.257636129198

DIPOLE MOMENT
-------------
                                X             Y             Z
Electronic contribution:     -0.15838       0.23403      -3.83855
Nuclear contribution   :      0.81656      -0.72455       4.82153
                        -----------------------------------------
Total Dipole Moment    :      0.65818      -0.49052       0.98298
                        -----------------------------------------
Magnitude (a.u.)       :      1.28065
Magnitude (Debye)      :      3.25515

                             ****ORCA TERMINATED NORMALLY****
TOTAL RUN TIME: 0 days 0 hours 16 minutes 10 seconds 449 msec
