                         Program Version 3.0.3 - RELEASE   -
|  1> ! RI-MP2 RIJK def2-TZVP def2-TZVP/C def2-TZVP/JK TIGHTSCF
|  2> % maxcore 2000
|  3> % mp2 density relaxed end
|  4> *xyz 0 1
|  5>  C        0.0848355809     1.5264493956     0.0568988463
|  6>  C       -0.0167167080     0.0412672684     0.0064306804
|  7>  C       -1.0882468407    -0.7721426293     0.0245329439
|  8>  C       -2.5488757652    -0.4887202539     0.1009918902
|  9>  C       -0.5951576118    -2.1717917080    -0.0496286154
| 10>  O       -1.2048269084    -3.1993354021    -0.0603089294
| 11>  O        0.7951292666    -2.1349672349    -0.1109089653
| 12>  C        1.1875771098    -0.8098771443    -0.0794838708
| 13>  N        2.3840096608    -0.4108711783    -0.1185505175
| 14>  H        0.6838403657     1.8382608935     0.9186711607
| 15>  H        0.6038211150     1.9031097741    -0.8305056663
| 16>  H       -0.8974617833     1.9983931194     0.1192937215
| 17>  H       -3.0667647325    -0.9056462051    -0.7694974006
| 18>  H       -2.9875667683    -0.9700518173     0.9817149037
| 19>  H       -2.7539844393     0.5824070978     0.1496772170
| 20>  H        3.0316245887    -1.1986371954    -0.1769410585
| 21> *
| 22>
| 23>                          ****END OF INPUT****

CARTESIAN COORDINATES (ANGSTROEM)
---------------------------------
  C      0.084836    1.526449    0.056899
  C     -0.016717    0.041267    0.006431
  C     -1.088247   -0.772143    0.024533
  C     -2.548876   -0.488720    0.100992
  C     -0.595158   -2.171792   -0.049629
  O     -1.204827   -3.199335   -0.060309
  O      0.795129   -2.134967   -0.110909
  C      1.187577   -0.809877   -0.079484
  N      2.384010   -0.410871   -0.118551
  H      0.683840    1.838261    0.918671
  H      0.603821    1.903110   -0.830506
  H     -0.897462    1.998393    0.119294
  H     -3.066765   -0.905646   -0.769497
  H     -2.987567   -0.970052    0.981715
  H     -2.753984    0.582407    0.149677
  H      3.031625   -1.198637   -0.176941

 Total Charge           Charge          ....    0
 Multiplicity           Mult            ....    1
 Number of Electrons    NEL             ....   66
 Basis Dimension        Dim             ....  321

ORBITAL ENERGIES
----------------

  NO   OCC          E(Eh)            E(eV)
   0   2.0000     -20.629513      -561.3576
   1   2.0000     -20.566158      -559.6336
   2   2.0000     -15.567022      -423.6002
   3   2.0000     -11.399248      -310.1893
   4   2.0000     -11.362757      -309.1963
   5   2.0000     -11.288814      -307.1843
   6   2.0000     -11.280932      -306.9698
   7   2.0000     -11.251255      -306.1622
   8   2.0000     -11.251014      -306.1557
   9   2.0000      -1.490731       -40.5649
  10   2.0000      -1.399278       -38.0763
  11   2.0000      -1.225426       -33.3455
  12   2.0000      -1.151216       -31.3262
  13   2.0000      -1.028061       -27.9750
  14   2.0000      -0.969262       -26.3750
  15   2.0000      -0.896972       -24.4078
  16   2.0000      -0.802070       -21.8254
  17   2.0000      -0.791573       -21.5398
  18   2.0000      -0.705789       -19.2055
  19   2.0000      -0.680211       -18.5095
  20   2.0000      -0.670619       -18.2485
  21   2.0000      -0.643780       -17.5181
  22   2.0000      -0.600454       -16.3392
  23   2.0000      -0.588519       -16.0144
  24   2.0000      -0.588334       -16.0094
  25   2.0000      -0.583330       -15.8732
  26   2.0000      -0.565146       -15.3784
  27   2.0000      -0.545466       -14.8429
  28   2.0000      -0.534158       -14.5352
  29   2.0000      -0.485631       -13.2147
  30   2.0000      -0.452826       -12.3220
  31   2.0000      -0.448633       -12.2079
  32   2.0000      -0.383556       -10.4371
  33   0.0000       0.056768         1.5447
  34   0.0000       0.125203         3.4069
  35   0.0000       0.154278         4.1981
  36   0.0000       0.165561         4.5052
  37   0.0000       0.182368         4.9625

MULLIKEN ATOMIC CHARGES
-----------------------
   0 C :   -0.384404
   1 C :    0.023181
   2 C :   -0.027638
   3 C :   -0.398261
   4 C :    0.286977
   5 O :   -0.257435
   6 O :   -0.222375
   7 C :    0.160317
   8 N :   -0.341974
   9 H :    0.162640
  10 H :    0.162608
  11 H :    0.136528
  12 H :    0.161167
  13 H :    0.161155
  14 H :    0.139880
  15 H :    0.237634
Sum of atomic charges:    0.0000000

LOEWDIN ATOMIC CHARGES
----------------------
   0 C :   -0.249467
   1 C :   -0.110887
   2 C :   -0.124975
   3 C :   -0.252996
   4 C :   -0.390618
   5 O :    0.169655
   6 O :    0.295180
   7 C :   -0.342607
   8 N :   -0.013159
   9 H :    0.145887
  10 H :    0.145890
  11 H :    0.130777
  12 H :    0.144517
  13 H :    0.144518
  14 H :    0.131941
  15 H :    0.176344

  Mayer bond orders larger than 0.1
B(  0-C ,  1-C ) :   0.8803 B(  0-C ,  9-H ) :   0.9230 B(  0-C , 10-H ) :   0.9230
B(  0-C , 11-H ) :   0.9511 B(  1-C ,  2-C ) :   1.6385 B(  1-C ,  7-C ) :   0.9841
B(  2-C ,  3-C ) :   0.8768 B(  2-C ,  4-C ) :   0.9665 B(  3-C , 12-H ) :   0.9233
B(  3-C , 13-H ) :   0.9233 B(  3-C , 14-H ) :   0.9571 B(  4-C ,  5-O ) :   2.0557
B(  4-C ,  6-O ) :   1.0087 B(  6-O ,  7-C ) :   1.0092 B(  7-C ,  8-N ) :   2.0504
B(  8-N , 15-H ) :   0.8533

MP2 TOTAL ENERGY:     -437.231028865 Eh
FINAL SINGLE POINT ENERGY      -437.231028864621

DIPOLE MOMENT
-------------
                                X             Y             Z
Electronic contribution:      3.84319      -8.17732      -0.47678
Nuclear contribution   :     -4.28959       9.29515       0.53839
                        -----------------------------------------
Total Dipole Moment    :     -0.44640       1.11783       0.06161
                        -----------------------------------------
Magnitude (a.u.)       :      1.20525
Magnitude (Debye)      :      3.06349

                             ****ORCA TERMINATED NORMALLY****
TOTAL RUN TIME: 0 days 0 hours 14 minutes 28 seconds 841 msec
