                         Program Version 3.0.3 - RELEASE   -
|  1> ! RI-MP2 RIJK def2-TZVP def2-TZVP/C def2-TZVP/JK TIGHTSCF
|  2> % maxcore 2000
|  3> % mp2 density relaxed end
|  4> *xyz 0 1
|  5>  C       -0.1255252246     1.5055987668     0.0821438185
|  6>  C       -0.0070413311     0.0068082537     0.0083962751
|  7>  N       -1.1998552495    -0.7363754303    -0.2864904428
|  8>  C       -1.1754597462    -1.9896966426     0.3050419466
|  9>  N       -1.9887030339    -2.9288921515     0.0815650885
| 10>  O       -0.1174275308    -2.0331352129     1.1956541186
| 11>  C        0.6658998146    -0.8697403625     1.0339620931
| 12>  C        1.3120518250    -0.6978351453    -0.3253745297
| 13>  O        1.3067860443    -1.7429896001    -1.2385611818
| 14>  H        0.8193883736     1.9538142633     0.4025086864
| 15>  H       -0.3743928881     1.9275529913    -0.8980332099
| 16>  H       -0.9075675221     1.7984468656     0.7892422200
| 17>  H       -1.5958092476    -0.7075473140    -1.2140721989
| 18>  H       -1.7599612752    -3.7420228733     0.6477469142
| 19>  H        1.1188242731    -0.5264080073     1.9562225837
| 20>  H        2.1962395269    -0.0608700523    -0.3524508217
| 21>  H        1.4911995215    -2.5636068586    -0.7678187000
| 22> *
| 23>
| 24>                          ****END OF INPUT****

CARTESIAN COORDINATES (ANGSTROEM)
---------------------------------
  C     -0.125525    1.505599    0.082144
  C     -0.007041    0.006808    0.008396
  N     -1.199855   -0.736375   -0.286490
  C     -1.175460   -1.989697    0.305042
  N     -1.988703   -2.928892    0.081565
  O     -0.117428   -2.033135    1.195654
  C      0.665900   -0.869740    1.033962
  C      1.312052   -0.697835   -0.325375
  O      1.306786   -1.742990   -1.238561
  H      0.819388    1.953814    0.402509
  H     -0.374393    1.927553   -0.898033
  H     -0.907568    1.798447    0.789242
  H     -1.595809   -0.707547   -1.214072
  H     -1.759961   -3.742023    0.647747
  H      1.118824   -0.526408    1.956223
  H      2.196240   -0.060870   -0.352451
  H      1.491200   -2.563607   -0.767819

 Total Charge           Charge          ....    0
 Multiplicity           Mult            ....    1
 Number of Electrons    NEL             ....   68
 Basis Dimension        Dim             ....  327

ORBITAL ENERGIES
----------------

  NO   OCC          E(Eh)            E(eV)
   0   2.0000     -20.610466      -560.8393
   1   2.0000     -20.580515      -560.0243
   2   2.0000     -15.584575      -424.0779
   3   2.0000     -15.516923      -422.2369
   4   2.0000     -11.367830      -309.3344
   5   2.0000     -11.309404      -307.7445
   6   2.0000     -11.302836      -307.5658
   7   2.0000     -11.292259      -307.2780
   8   2.0000     -11.240956      -305.8820
   9   2.0000      -1.461509       -39.7697
  10   2.0000      -1.388471       -37.7822
  11   2.0000      -1.254219       -34.1290
  12   2.0000      -1.198180       -32.6041
  13   2.0000      -1.103733       -30.0341
  14   2.0000      -0.989535       -26.9266
  15   2.0000      -0.869831       -23.6693
  16   2.0000      -0.825815       -22.4716
  17   2.0000      -0.816285       -22.2123
  18   2.0000      -0.731100       -19.8943
  19   2.0000      -0.718130       -19.5413
  20   2.0000      -0.680662       -18.5218
  21   2.0000      -0.653232       -17.7753
  22   2.0000      -0.639036       -17.3890
  23   2.0000      -0.603049       -16.4098
  24   2.0000      -0.590687       -16.0734
  25   2.0000      -0.586498       -15.9594
  26   2.0000      -0.575134       -15.6502
  27   2.0000      -0.558504       -15.1977
  28   2.0000      -0.525037       -14.2870
  29   2.0000      -0.505907       -13.7664
  30   2.0000      -0.439030       -11.9466
  31   2.0000      -0.433060       -11.7842
  32   2.0000      -0.402643       -10.9565
  33   2.0000      -0.356224        -9.6933
  34   0.0000       0.128135         3.4867
  35   0.0000       0.138538         3.7698
  36   0.0000       0.161339         4.3903
  37   0.0000       0.180855         4.9213
  38   0.0000       0.184214         5.0127

MULLIKEN ATOMIC CHARGES
-----------------------
   0 C :   -0.422764
   1 C :    0.175005
   2 N :   -0.318122
   3 C :    0.215200
   4 N :   -0.415661
   5 O :   -0.279436
   6 C :    0.000269
   7 C :    0.002904
   8 O :   -0.457242
   9 H :    0.127662
  10 H :    0.140424
  11 H :    0.148509
  12 H :    0.256964
  13 H :    0.227621
  14 H :    0.139134
  15 H :    0.116387
  16 H :    0.343146
Sum of atomic charges:    0.0000000

LOEWDIN ATOMIC CHARGES
----------------------
   0 C :   -0.263223
   1 C :   -0.290211
   2 N :    0.144245
   3 C :   -0.480243
   4 N :   -0.097520
   5 O :    0.250106
   6 C :   -0.228561
   7 C :   -0.291860
   8 O :    0.020112
   9 H :    0.131973
  10 H :    0.131674
  11 H :    0.133121
  12 H :    0.199446
  13 H :    0.169450
  14 H :    0.141459
  15 H :    0.140032
  16 H :    0.189998

  Mayer bond orders larger than 0.1
B(  0-C ,  1-C ) :   0.9023 B(  0-C ,  9-H ) :   0.9318 B(  0-C , 10-H ) :   0.9337
B(  0-C , 11-H ) :   0.9427 B(  1-C ,  2-N ) :   0.9203 B(  1-C ,  6-C ) :   0.8668
B(  1-C ,  7-C ) :   0.8159 B(  2-N ,  3-C ) :   1.1216 B(  2-N , 12-H ) :   0.8601
B(  3-C ,  4-N ) :   1.9992 B(  3-C ,  5-O ) :   1.0285 B(  4-N , 13-H ) :   0.8534
B(  5-O ,  6-C ) :   0.9464 B(  6-C ,  7-C ) :   0.8730 B(  6-C , 14-H ) :   0.9264
B(  7-C ,  8-O ) :   0.9904 B(  7-C , 15-H ) :   0.9447 B(  8-O , 16-H ) :   0.8277

MP2 TOTAL ENERGY:     -454.405782312 Eh
FINAL SINGLE POINT ENERGY      -454.405782311746

DIPOLE MOMENT
-------------
                                X             Y             Z
Electronic contribution:     -0.82386      -5.39440       0.47127
Nuclear contribution   :      1.90398       6.26404      -0.07826
                        -----------------------------------------
Total Dipole Moment    :      1.08013       0.86964       0.39301
                        -----------------------------------------
Magnitude (a.u.)       :      1.44132
Magnitude (Debye)      :      3.66355

                             ****ORCA TERMINATED NORMALLY****
TOTAL RUN TIME: 0 days 0 hours 16 minutes 39 seconds 934 msec
