                         Program Version 3.0.3 - RELEASE   -
|  1> ! RI-MP2 RIJK def2-TZVP def2-TZVP/C def2-TZVP/JK TIGHTSCF
|  2> % maxcore 2000
|  3> % mp2 density relaxed end
|  4> *xyz 0 1
|  5>  C        0.1244447278     1.4502588609     0.3682768332
|  6>  O        1.1969757982     2.2058184960    -0.1657243555
|  7>  C        1.5348746656     2.0467310717    -1.5280327455
|  8>  C        1.9641056960     0.6059022022    -1.8698259639
|  9>  O        2.4180600782    -0.0872458658    -0.6723902267
| 10>  C        1.1785426885    -0.7942891655    -0.6176378746
| 11>  C       -0.0959819642     0.0597655414    -0.2214360500
| 12>  N       -0.5108128177     0.1520889304    -1.6706120288
| 13>  C        0.7946263898    -0.4224156769    -2.0514354020
| 14>  H        0.3333195020     1.3706926146     1.4417359686
| 15>  H       -0.8246456563     1.9968849796     0.2469771091
| 16>  H        0.7178490356     2.3457235477    -2.2011886190
| 17>  H        2.3794423506     2.7252001117    -1.6797231816
| 18>  H        2.7315166155     0.5979896689    -2.6499792147
| 19>  H        1.2675689887    -1.7936082257    -0.1859794779
| 20>  H       -0.8183568664    -0.4733149454     0.4051864351
| 21>  H       -1.2568516955    -0.5072373246    -1.8701460987
| 22>  H        0.8359276034    -1.0768273814    -2.9221420571
| 23> *
| 24>
| 25>                          ****END OF INPUT****

CARTESIAN COORDINATES (ANGSTROEM)
---------------------------------
  C      0.124445    1.450259    0.368277
  O      1.196976    2.205818   -0.165724
  C      1.534875    2.046731   -1.528033
  C      1.964106    0.605902   -1.869826
  O      2.418060   -0.087246   -0.672390
  C      1.178543   -0.794289   -0.617638
  C     -0.095982    0.059766   -0.221436
  N     -0.510813    0.152089   -1.670612
  C      0.794626   -0.422416   -2.051435
  H      0.333320    1.370693    1.441736
  H     -0.824646    1.996885    0.246977
  H      0.717849    2.345724   -2.201189
  H      2.379442    2.725200   -1.679723
  H      2.731517    0.597990   -2.649979
  H      1.267569   -1.793608   -0.185979
  H     -0.818357   -0.473315    0.405186
  H     -1.256852   -0.507237   -1.870146
  H      0.835928   -1.076827   -2.922142

 Total Charge           Charge          ....    0
 Multiplicity           Mult            ....    1
 Number of Electrons    NEL             ....   68
 Basis Dimension        Dim             ....  333

ORBITAL ENERGIES
----------------

  NO   OCC          E(Eh)            E(eV)
   0   2.0000     -20.550719      -559.2135
   1   2.0000     -20.544959      -559.0567
   2   2.0000     -15.553231      -423.2249
   3   2.0000     -11.288307      -307.1704
   4   2.0000     -11.285865      -307.1040
   5   2.0000     -11.272939      -306.7523
   6   2.0000     -11.270274      -306.6797
   7   2.0000     -11.269507      -306.6589
   8   2.0000     -11.266269      -306.5708
   9   2.0000      -1.398809       -38.0635
  10   2.0000      -1.356641       -36.9161
  11   2.0000      -1.232360       -33.5342
  12   2.0000      -1.033904       -28.1340
  13   2.0000      -0.965186       -26.2641
  14   2.0000      -0.941090       -25.6084
  15   2.0000      -0.906292       -24.6615
  16   2.0000      -0.777001       -21.1433
  17   2.0000      -0.740056       -20.1379
  18   2.0000      -0.722315       -19.6552
  19   2.0000      -0.674691       -18.3593
  20   2.0000      -0.651109       -17.7176
  21   2.0000      -0.647092       -17.6083
  22   2.0000      -0.612564       -16.6687
  23   2.0000      -0.603928       -16.4337
  24   2.0000      -0.575044       -15.6477
  25   2.0000      -0.555770       -15.1233
  26   2.0000      -0.544755       -14.8235
  27   2.0000      -0.512132       -13.9358
  28   2.0000      -0.497775       -13.5452
  29   2.0000      -0.458427       -12.4744
  30   2.0000      -0.442715       -12.0469
  31   2.0000      -0.412166       -11.2156
  32   2.0000      -0.398346       -10.8396
  33   2.0000      -0.379025       -10.3138
  34   0.0000       0.126262         3.4358
  35   0.0000       0.152224         4.1422
  36   0.0000       0.166831         4.5397
  37   0.0000       0.176246         4.7959
  38   0.0000       0.194751         5.2994

MULLIKEN ATOMIC CHARGES
-----------------------
   0 C :   -0.034525
   1 O :   -0.307293
   2 C :   -0.073667
   3 C :    0.064061
   4 O :   -0.319920
   5 C :   -0.002148
   6 C :   -0.023833
   7 N :   -0.374404
   8 C :   -0.050060
   9 H :    0.112193
  10 H :    0.089207
  11 H :    0.108191
  12 H :    0.124787
  13 H :    0.113385
  14 H :    0.116575
  15 H :    0.123612
  16 H :    0.207083
  17 H :    0.126755
Sum of atomic charges:    0.0000000

LOEWDIN ATOMIC CHARGES
----------------------
   0 C :   -0.302425
   1 O :    0.163790
   2 C :   -0.303427
   3 C :   -0.239867
   4 O :    0.168255
   5 C :   -0.240429
   6 C :   -0.238390
   7 N :   -0.001140
   8 C :   -0.230378
   9 H :    0.134081
  10 H :    0.127856
  11 H :    0.130526
  12 H :    0.132034
  13 H :    0.136573
  14 H :    0.127281
  15 H :    0.142506
  16 H :    0.163381
  17 H :    0.129775

  Mayer bond orders larger than 0.1
B(  0-C ,  1-O ) :   0.9601 B(  0-C ,  6-C ) :   0.9039 B(  0-C ,  9-H ) :   0.9225
B(  0-C , 10-H ) :   0.9224 B(  1-O ,  2-C ) :   0.9445 B(  2-C ,  3-C ) :   0.9037
B(  2-C , 11-H ) :   0.9142 B(  2-C , 12-H ) :   0.9229 B(  3-C ,  4-O ) :   0.9313
B(  3-C ,  8-C ) :   0.9152 B(  3-C , 13-H ) :   0.9117 B(  4-O ,  5-C ) :   1.0028
B(  5-C ,  6-C ) :   0.8675 B(  5-C ,  8-C ) :   0.9708 B(  5-C , 14-H ) :   0.9270
B(  6-C ,  7-N ) :   0.9665 B(  6-C , 15-H ) :   0.9034 B(  7-N ,  8-C ) :   1.0276
B(  7-N , 16-H ) :   0.8727 B(  8-C , 17-H ) :   0.9199

MP2 TOTAL ENERGY:     -438.302038122 Eh
FINAL SINGLE POINT ENERGY      -438.302038121819

DIPOLE MOMENT
-------------
                                X             Y             Z
Electronic contribution:      2.32613      -0.64562       0.56696
Nuclear contribution   :     -3.06159      -0.21348      -1.02541
                        -----------------------------------------
Total Dipole Moment    :     -0.73546      -0.85911      -0.45845
                        -----------------------------------------
Magnitude (a.u.)       :      1.22031
Magnitude (Debye)      :      3.10177

                             ****ORCA TERMINATED NORMALLY****
TOTAL RUN TIME: 0 days 0 hours 17 minutes 19 seconds 363 msec
