                         Program Version 3.0.3 - RELEASE   -
|  1> ! RI-MP2 RIJK def2-TZVP def2-TZVP/C def2-TZVP/JK TIGHTSCF
|  2> % maxcore 2000
|  3> % mp2 density relaxed end
|  4> *xyz 0 1
|  5>  C        0.0491393915     1.4192027693     0.0217728914
|  6>  N        0.1500792021    -0.0313842845     0.0277086302
|  7>  C        0.5940507129    -0.6425664498    -0.9704157499
|  8>  O        1.0305809606    -0.0680775763    -2.1508771445
|  9>  C        1.4886620217    -1.0548748365    -3.0240600890
| 10>  O        1.8970685197    -0.8102412223    -4.1203573267
| 11>  N        1.3778755336    -2.2487871505    -2.3789113192
| 12>  C        0.7451673128    -2.1542933972    -1.0765274993
| 13>  C        1.5587288715    -2.7566334564     0.0694147665
| 14>  H        0.5943831132     1.8129501814     0.8860067667
| 15>  H        0.4309616922     1.8935404038    -0.8882090679
| 16>  H       -1.0014019592     1.6998870148     0.1547296920
| 17>  H        1.5542551990    -3.1059680064    -2.8733843127
| 18>  H       -0.2550332389    -2.6092546276    -1.0896745977
| 19>  H        2.5663401746    -2.3327747693     0.0906185551
| 20>  H        1.0628353209    -2.5331125343     1.0166325369
| 21>  H        1.6372393419    -3.8425884581    -0.0393210019
| 22> *
| 23>
| 24>                          ****END OF INPUT****

CARTESIAN COORDINATES (ANGSTROEM)
---------------------------------
  C      0.049139    1.419203    0.021773
  N      0.150079   -0.031384    0.027709
  C      0.594051   -0.642566   -0.970416
  O      1.030581   -0.068078   -2.150877
  C      1.488662   -1.054875   -3.024060
  O      1.897069   -0.810241   -4.120357
  N      1.377876   -2.248787   -2.378911
  C      0.745167   -2.154293   -1.076527
  C      1.558729   -2.756633    0.069415
  H      0.594383    1.812950    0.886007
  H      0.430962    1.893540   -0.888209
  H     -1.001402    1.699887    0.154730
  H      1.554255   -3.105968   -2.873384
  H     -0.255033   -2.609255   -1.089675
  H      2.566340   -2.332775    0.090619
  H      1.062835   -2.533113    1.016633
  H      1.637239   -3.842588   -0.039321

 Total Charge           Charge          ....    0
 Multiplicity           Mult            ....    1
 Number of Electrons    NEL             ....   68
 Basis Dimension        Dim             ....  327

ORBITAL ENERGIES
----------------

  NO   OCC          E(Eh)            E(eV)
   0   2.0000     -20.631106      -561.4009
   1   2.0000     -20.542844      -558.9992
   2   2.0000     -15.609449      -424.7547
   3   2.0000     -15.562062      -423.4652
   4   2.0000     -11.420190      -310.7592
   5   2.0000     -11.355310      -308.9937
   6   2.0000     -11.309806      -307.7555
   7   2.0000     -11.251987      -306.1821
   8   2.0000     -11.242308      -305.9188
   9   2.0000      -1.496640       -40.7256
  10   2.0000      -1.390792       -37.8454
  11   2.0000      -1.266809       -34.4716
  12   2.0000      -1.238509       -33.7015
  13   2.0000      -1.058024       -28.7903
  14   2.0000      -0.964368       -26.2418
  15   2.0000      -0.898783       -24.4571
  16   2.0000      -0.869666       -23.6648
  17   2.0000      -0.818333       -22.2680
  18   2.0000      -0.721275       -19.6269
  19   2.0000      -0.698479       -19.0066
  20   2.0000      -0.671672       -18.2771
  21   2.0000      -0.653477       -17.7820
  22   2.0000      -0.644949       -17.5499
  23   2.0000      -0.613236       -16.6870
  24   2.0000      -0.597337       -16.2544
  25   2.0000      -0.576626       -15.6908
  26   2.0000      -0.573637       -15.6095
  27   2.0000      -0.551482       -15.0066
  28   2.0000      -0.541014       -14.7217
  29   2.0000      -0.523488       -14.2448
  30   2.0000      -0.476835       -12.9753
  31   2.0000      -0.429773       -11.6947
  32   2.0000      -0.426358       -11.6018
  33   2.0000      -0.400309       -10.8930
  34   0.0000       0.114270         3.1095
  35   0.0000       0.150053         4.0831
  36   0.0000       0.154090         4.1930
  37   0.0000       0.166103         4.5199
  38   0.0000       0.175652         4.7797

MULLIKEN ATOMIC CHARGES
-----------------------
   0 C :   -0.279696
   1 N :   -0.247896
   2 C :    0.145613
   3 O :   -0.230950
   4 C :    0.331680
   5 O :   -0.303034
   6 N :   -0.350452
   7 C :    0.103956
   8 C :   -0.401201
   9 H :    0.140900
  10 H :    0.141708
  11 H :    0.141416
  12 H :    0.256777
  13 H :    0.126510
  14 H :    0.135973
  15 H :    0.153919
  16 H :    0.134778
Sum of atomic charges:   -0.0000000

LOEWDIN ATOMIC CHARGES
----------------------
   0 C :   -0.321959
   1 N :    0.094325
   2 C :   -0.327320
   3 O :    0.291412
   4 C :   -0.545087
   5 O :    0.117481
   6 N :    0.131045
   7 C :   -0.261402
   8 C :   -0.278801
   9 H :    0.121285
  10 H :    0.113775
  11 H :    0.122167
  12 H :    0.193649
  13 H :    0.158704
  14 H :    0.129560
  15 H :    0.137111
  16 H :    0.124054

  Mayer bond orders larger than 0.1
B(  0-C ,  1-N ) :   0.8545 B(  0-C ,  9-H ) :   0.9330 B(  0-C , 10-H ) :   0.9312
B(  0-C , 11-H ) :   0.9331 B(  1-N ,  2-C ) :   1.9820 B(  2-C ,  3-O ) :   1.0051
B(  2-C ,  7-C ) :   0.8882 B(  3-O ,  4-C ) :   0.9879 B(  4-C ,  5-O ) :   2.0525
B(  4-C ,  6-N ) :   1.1642 B(  6-N ,  7-C ) :   0.8951 B(  6-N , 12-H ) :   0.8680
B(  7-C ,  8-C ) :   0.9131 B(  7-C , 13-H ) :   0.9159 B(  8-C , 14-H ) :   0.9306
B(  8-C , 15-H ) :   0.9269 B(  8-C , 16-H ) :   0.9344

MP2 TOTAL ENERGY:     -454.469532556 Eh
FINAL SINGLE POINT ENERGY      -454.469532556007

DIPOLE MOMENT
-------------
                                X             Y             Z
Electronic contribution:      1.03021       0.56990      -7.99122
Nuclear contribution   :     -1.31391      -1.57094       8.85507
                        -----------------------------------------
Total Dipole Moment    :     -0.28370      -1.00104       0.86385
                        -----------------------------------------
Magnitude (a.u.)       :      1.35233
Magnitude (Debye)      :      3.43736

                             ****ORCA TERMINATED NORMALLY****
TOTAL RUN TIME: 0 days 0 hours 14 minutes 28 seconds 537 msec
