                         Program Version 3.0.3 - RELEASE   -
|  1> ! RI-MP2 RIJK def2-TZVP def2-TZVP/C def2-TZVP/JK TIGHTSCF
|  2> % maxcore 2000
|  3> % mp2 density relaxed end
|  4> *xyz 0 1
|  5>  C        0.2311391155     1.5689709680     0.0809376102
|  6>  C       -0.2037848886     0.1240595830    -0.1897488505
|  7>  C        0.5943767170    -0.5154692652    -1.3052448380
|  8>  C        1.9101964592    -1.1758332487    -1.0370175639
|  9>  C        0.7122240904    -2.0369384201    -1.4373255323
| 10>  C        0.1067504509    -2.9074290816    -0.4864722722
| 11>  C       -0.4151551915    -3.6588050132     0.3070496175
| 12>  C       -0.9976883924    -4.5017021975     1.2062656310
| 13>  N       -1.4945844036    -5.2191814767     1.9744563094
| 14>  H        1.2848888197     1.6160415060     0.3742392380
| 15>  H        0.1058877996     2.1946977817    -0.8094184550
| 16>  H       -0.3632405588     2.0117856659     0.8853675371
| 17>  H       -0.0983852618    -0.4738655059     0.7224534995
| 18>  H       -1.2694963838     0.1000567133    -0.4483433857
| 19>  H        0.5081231390    -0.0125842144    -2.2655772899
| 20>  H        2.7122997827    -1.0907419260    -1.7610392709
| 21>  H        2.2348145609    -1.2523799173    -0.0050557172
| 22>  H        0.7214416156    -2.4256925814    -2.4514312368
| 23> *
| 24>
| 25>                          ****END OF INPUT****

CARTESIAN COORDINATES (ANGSTROEM)
---------------------------------
  C      0.231139    1.568971    0.080938
  C     -0.203785    0.124060   -0.189749
  C      0.594377   -0.515469   -1.305245
  C      1.910196   -1.175833   -1.037018
  C      0.712224   -2.036938   -1.437326
  C      0.106750   -2.907429   -0.486472
  C     -0.415155   -3.658805    0.307050
  C     -0.997688   -4.501702    1.206266
  N     -1.494584   -5.219181    1.974456
  H      1.284889    1.616042    0.374239
  H      0.105888    2.194698   -0.809418
  H     -0.363241    2.011786    0.885368
  H     -0.098385   -0.473866    0.722453
  H     -1.269496    0.100057   -0.448343
  H      0.508123   -0.012584   -2.265577
  H      2.712300   -1.090742   -1.761039
  H      2.234815   -1.252380   -0.005056
  H      0.721442   -2.425693   -2.451431

 Total Charge           Charge          ....    0
 Multiplicity           Mult            ....    1
 Number of Electrons    NEL             ....   64
 Basis Dimension        Dim             ....  333

ORBITAL ENERGIES
----------------

  NO   OCC          E(Eh)            E(eV)
   0   2.0000     -15.585112      -424.0925
   1   2.0000     -11.294542      -307.3401
   2   2.0000     -11.290397      -307.2273
   3   2.0000     -11.280745      -306.9647
   4   2.0000     -11.268209      -306.6236
   5   2.0000     -11.266713      -306.5828
   6   2.0000     -11.260342      -306.4095
   7   2.0000     -11.241476      -305.8961
   8   2.0000     -11.227875      -305.5260
   9   2.0000      -1.226056       -33.3627
  10   2.0000      -1.191151       -32.4129
  11   2.0000      -1.079869       -29.3847
  12   2.0000      -1.041791       -28.3486
  13   2.0000      -0.928015       -25.2526
  14   2.0000      -0.889596       -24.2071
  15   2.0000      -0.847677       -23.0665
  16   2.0000      -0.802683       -21.8421
  17   2.0000      -0.708139       -19.2694
  18   2.0000      -0.679972       -18.5030
  19   2.0000      -0.619917       -16.8688
  20   2.0000      -0.587641       -15.9905
  21   2.0000      -0.571146       -15.5417
  22   2.0000      -0.565965       -15.4007
  23   2.0000      -0.553600       -15.0642
  24   2.0000      -0.534577       -14.5466
  25   2.0000      -0.527235       -14.3468
  26   2.0000      -0.513445       -13.9715
  27   2.0000      -0.498482       -13.5644
  28   2.0000      -0.473187       -12.8761
  29   2.0000      -0.456110       -12.4114
  30   2.0000      -0.392173       -10.6716
  31   2.0000      -0.372949       -10.1485
  32   0.0000       0.097077         2.6416
  33   0.0000       0.101590         2.7644
  34   0.0000       0.129943         3.5359
  35   0.0000       0.142862         3.8875
  36   0.0000       0.148008         4.0275

MULLIKEN ATOMIC CHARGES
-----------------------
   0 C :   -0.393051
   1 C :   -0.214763
   2 C :   -0.053475
   3 C :   -0.253829
   4 C :   -0.248844
   5 C :   -0.063397
   6 C :    0.278567
   7 C :   -0.223779
   8 N :   -0.043577
   9 H :    0.129813
  10 H :    0.124736
  11 H :    0.141186
  12 H :    0.120643
  13 H :    0.125277
  14 H :    0.129027
  15 H :    0.146919
  16 H :    0.146396
  17 H :    0.152151
Sum of atomic charges:   -0.0000000

LOEWDIN ATOMIC CHARGES
----------------------
   0 C :   -0.310344
   1 C :   -0.267713
   2 C :   -0.189043
   3 C :   -0.173551
   4 C :   -0.184962
   5 C :    0.013305
   6 C :   -0.057978
   7 C :   -0.183321
   8 N :    0.090739
   9 H :    0.122673
  10 H :    0.121922
  11 H :    0.123644
  12 H :    0.145822
  13 H :    0.143609
  14 H :    0.154304
  15 H :    0.137063
  16 H :    0.144098
  17 H :    0.169734

  Mayer bond orders larger than 0.1
B(  0-C ,  1-C ) :   0.9218 B(  0-C ,  9-H ) :   0.9386 B(  0-C , 10-H ) :   0.9369
B(  0-C , 11-H ) :   0.9404 B(  1-C ,  2-C ) :   0.9402 B(  1-C , 12-H ) :   0.9261
B(  1-C , 13-H ) :   0.9332 B(  2-C ,  3-C ) :   0.8864 B(  2-C ,  4-C ) :   0.8462
B(  2-C , 14-H ) :   0.9227 B(  3-C ,  4-C ) :   0.8450 B(  3-C , 15-H ) :   0.9262
B(  3-C , 16-H ) :   0.9276 B(  4-C ,  5-C ) :   1.1172 B(  4-C ,  6-C ) :  -0.1593
B(  4-C , 17-H ) :   0.9242 B(  5-C ,  6-C ) :   2.5074 B(  5-C ,  8-N ) :   0.1109
B(  6-C ,  7-C ) :   0.9723 B(  7-C ,  8-N ) :   2.7689

MP2 TOTAL ENERGY:     -364.118119504 Eh
FINAL SINGLE POINT ENERGY      -364.118119503896

DIPOLE MOMENT
-------------
                                X             Y             Z
Electronic contribution:     -3.99858     -15.33542       3.26095
Nuclear contribution   :      4.88402      16.89145      -4.50430
                        -----------------------------------------
Total Dipole Moment    :      0.88544       1.55603      -1.24335
                        -----------------------------------------
Magnitude (a.u.)       :      2.17971
Magnitude (Debye)      :      5.54039

                             ****ORCA TERMINATED NORMALLY****
TOTAL RUN TIME: 0 days 0 hours 25 minutes 49 seconds 996 msec
