                         Program Version 3.0.3 - RELEASE   -
|  1> ! RI-MP2 RIJK def2-TZVP def2-TZVP/C def2-TZVP/JK TIGHTSCF
|  2> % maxcore 2000
|  3> % mp2 density relaxed end
|  4> *xyz 0 1
|  5>  O       -0.0408494477     1.4237248449    -0.1178497820
|  6>  C       -0.0412212655     0.0375240465     0.0086106546
|  7>  C       -1.3676563128    -0.7170245959     0.0898849939
|  8>  C       -2.6749937392     0.0496342222     0.0783092326
|  9>  O       -3.5891086435    -0.3836527470    -0.9250067617
| 10>  C       -3.3403235396     0.1572653732    -2.2033237790
| 11>  C       -2.0972113782    -0.3955848010    -2.8966936184
| 12>  O       -0.8821338531     0.0116978941    -2.2651382403
| 13>  C       -0.5141428467    -0.7677680359    -1.1640434884
| 14>  H       -0.2221405263     1.6089050246    -1.0495899006
| 15>  H        0.7919673310    -0.3283218033     0.6016236925
| 16>  H       -1.3627241303    -1.6281659926     0.6811250313
| 17>  H       -3.1905034232    -0.0977805572     1.0315057721
| 18>  H       -2.4742367887     1.1238707242    -0.0300462724
| 19>  H       -4.2168209138    -0.0833038770    -2.8170867254
| 20>  H       -3.2555321493     1.2557415032    -2.1488324060
| 21>  H       -2.1465867462    -1.4914632269    -2.9429373976
| 22>  H       -2.0536728943    -0.0057297548    -3.9201698013
| 23>  H       -0.0206223426    -1.7031481112    -1.4253573539
| 24> *
| 25>
| 26>                          ****END OF INPUT****

CARTESIAN COORDINATES (ANGSTROEM)
---------------------------------
  O     -0.040849    1.423725   -0.117850
  C     -0.041221    0.037524    0.008611
  C     -1.367656   -0.717025    0.089885
  C     -2.674994    0.049634    0.078309
  O     -3.589109   -0.383653   -0.925007
  C     -3.340324    0.157265   -2.203324
  C     -2.097211   -0.395585   -2.896694
  O     -0.882134    0.011698   -2.265138
  C     -0.514143   -0.767768   -1.164043
  H     -0.222141    1.608905   -1.049590
  H      0.791967   -0.328322    0.601624
  H     -1.362724   -1.628166    0.681125
  H     -3.190503   -0.097781    1.031506
  H     -2.474237    1.123871   -0.030046
  H     -4.216821   -0.083304   -2.817087
  H     -3.255532    1.255742   -2.148832
  H     -2.146587   -1.491463   -2.942937
  H     -2.053673   -0.005730   -3.920170
  H     -0.020622   -1.703148   -1.425357

 Total Charge           Charge          ....    0
 Multiplicity           Mult            ....    1
 Number of Electrons    NEL             ....   70
 Basis Dimension        Dim             ....  339

ORBITAL ENERGIES
----------------

  NO   OCC          E(Eh)            E(eV)
   0   2.0000     -20.577499      -559.9422
   1   2.0000     -20.559662      -559.4568
   2   2.0000     -20.556142      -559.3611
   3   2.0000     -11.289431      -307.2010
   4   2.0000     -11.288269      -307.1694
   5   2.0000     -11.287073      -307.1369
   6   2.0000     -11.280897      -306.9688
   7   2.0000     -11.277798      -306.8845
   8   2.0000     -11.232592      -305.6544
   9   2.0000      -1.409179       -38.3457
  10   2.0000      -1.373467       -37.3739
  11   2.0000      -1.363742       -37.1093
  12   2.0000      -1.132425       -30.8149
  13   2.0000      -1.012737       -27.5580
  14   2.0000      -0.960907       -26.1476
  15   2.0000      -0.845826       -23.0161
  16   2.0000      -0.812929       -22.1209
  17   2.0000      -0.782126       -21.2827
  18   2.0000      -0.725938       -19.7538
  19   2.0000      -0.708521       -19.2798
  20   2.0000      -0.683618       -18.6022
  21   2.0000      -0.661244       -17.9934
  22   2.0000      -0.636811       -17.3285
  23   2.0000      -0.612064       -16.6551
  24   2.0000      -0.594538       -16.1782
  25   2.0000      -0.580416       -15.7939
  26   2.0000      -0.560997       -15.2655
  27   2.0000      -0.544324       -14.8118
  28   2.0000      -0.525539       -14.3006
  29   2.0000      -0.518564       -14.1108
  30   2.0000      -0.480130       -13.0650
  31   2.0000      -0.465452       -12.6656
  32   2.0000      -0.430881       -11.7249
  33   2.0000      -0.406270       -11.0552
  34   2.0000      -0.380138       -10.3441
  35   0.0000       0.144191         3.9236
  36   0.0000       0.148542         4.0420
  37   0.0000       0.164084         4.4650
  38   0.0000       0.184129         5.0104
  39   0.0000       0.187615         5.1053

MULLIKEN ATOMIC CHARGES
-----------------------
   0 O :   -0.478715
   1 C :    0.035244
   2 C :   -0.121783
   3 C :   -0.093724
   4 O :   -0.310457
   5 C :   -0.065353
   6 C :   -0.030674
   7 O :   -0.354993
   8 C :    0.009379
   9 H :    0.340047
  10 H :    0.125024
  11 H :    0.124235
  12 H :    0.123757
  13 H :    0.136214
  14 H :    0.125177
  15 H :    0.093314
  16 H :    0.101713
  17 H :    0.123420
  18 H :    0.118176
Sum of atomic charges:   -0.0000000

LOEWDIN ATOMIC CHARGES
----------------------
   0 O :    0.004337
   1 C :   -0.292504
   2 C :   -0.202810
   3 C :   -0.290676
   4 O :    0.152606
   5 C :   -0.339002
   6 C :   -0.306920
   7 O :    0.174830
   8 C :   -0.290339
   9 H :    0.183264
  10 H :    0.137285
  11 H :    0.149923
  12 H :    0.135305
  13 H :    0.129809
  14 H :    0.135235
  15 H :    0.122792
  16 H :    0.128590
  17 H :    0.133345
  18 H :    0.134930

  Mayer bond orders larger than 0.1
B(  0-O ,  1-C ) :   0.9712 B(  0-O ,  9-H ) :   0.8141 B(  1-C ,  2-C ) :   0.8406
B(  1-C ,  8-C ) :   0.9026 B(  1-C , 10-H ) :   0.9418 B(  2-C ,  3-C ) :   0.8989
B(  2-C ,  8-C ) :   0.8586 B(  2-C , 11-H ) :   0.9126 B(  3-C ,  4-O ) :   0.9066
B(  3-C , 12-H ) :   0.9347 B(  3-C , 13-H ) :   0.9374 B(  4-O ,  5-C ) :   0.9430
B(  5-C ,  6-C ) :   0.9415 B(  5-C , 14-H ) :   0.9206 B(  5-C , 15-H ) :   0.9337
B(  6-C ,  7-O ) :   0.8828 B(  6-C , 16-H ) :   0.9281 B(  6-C , 17-H ) :   0.9200
B(  7-O ,  8-C ) :   0.9347 B(  8-C , 18-H ) :   0.9367

MP2 TOTAL ENERGY:     -459.395031485 Eh
FINAL SINGLE POINT ENERGY      -459.395031484932

DIPOLE MOMENT
-------------
                                X             Y             Z
Electronic contribution:      1.74525       0.49664       0.82045
Nuclear contribution   :     -1.81133      -0.94749      -1.31918
                        -----------------------------------------
Total Dipole Moment    :     -0.06608      -0.45085      -0.49873
                        -----------------------------------------
Magnitude (a.u.)       :      0.67555
Magnitude (Debye)      :      1.71711

                             ****ORCA TERMINATED NORMALLY****
TOTAL RUN TIME: 0 days 0 hours 16 minutes 21 seconds 337 msec
