                         Program Version 3.0.3 - RELEASE   -
|  1> ! RI-MP2 RIJK def2-TZVP def2-TZVP/C def2-TZVP/JK TIGHTSCF
|  2> % maxcore 2000
|  3> % mp2 density relaxed end
|  4> *xyz 0 1
|  5>  C       -0.0026212079     1.5245917058     0.2191248219
|  6>  C        0.0050905742     0.0207328263     0.0004784482
|  7>  C        0.7555738989    -0.5867514043    -1.2503380625
|  8>  C        1.2360420508    -1.7864686344    -0.3399442120
|  9>  N        2.5963205036    -2.1836970481    -0.1238750598
| 10>  C        3.0588504006    -1.7266362102     1.1224996507
| 11>  O        4.1116929005    -2.0361945319     1.6320114100
| 12>  C        2.0262202317    -0.7469465471     1.5990162149
| 13>  C        0.9665922733    -0.8400772817     0.7911773284
| 14>  H        1.0141336525     1.9280806324     0.1828782609
| 15>  H       -0.5983554374     2.0272602665    -0.5496233244
| 16>  H       -0.4328820273     1.7787489973     1.1932984208
| 17>  H       -1.0148282965    -0.3794921397     0.0365018866
| 18>  H        0.1477857929    -0.8437800435    -2.1205019607
| 19>  H        1.5986444072     0.0419710560    -1.5431300601
| 20>  H        0.5488071442    -2.6349214840    -0.4297880998
| 21>  H        2.9906455760    -3.0337706044    -0.4959232105
| 22>  H        2.2395927627    -0.0315099849     2.3803282074
| 23> *
| 24>
| 25>                          ****END OF INPUT****

CARTESIAN COORDINATES (ANGSTROEM)
---------------------------------
  C     -0.002621    1.524592    0.219125
  C      0.005091    0.020733    0.000478
  C      0.755574   -0.586751   -1.250338
  C      1.236042   -1.786469   -0.339944
  N      2.596321   -2.183697   -0.123875
  C      3.058850   -1.726636    1.122500
  O      4.111693   -2.036195    1.632011
  C      2.026220   -0.746947    1.599016
  C      0.966592   -0.840077    0.791177
  H      1.014134    1.928081    0.182878
  H     -0.598355    2.027260   -0.549623
  H     -0.432882    1.778749    1.193298
  H     -1.014828   -0.379492    0.036502
  H      0.147786   -0.843780   -2.120502
  H      1.598644    0.041971   -1.543130
  H      0.548807   -2.634921   -0.429788
  H      2.990646   -3.033771   -0.495923
  H      2.239593   -0.031510    2.380328

 Total Charge           Charge          ....    0
 Multiplicity           Mult            ....    1
 Number of Electrons    NEL             ....   66
 Basis Dimension        Dim             ....  333

ORBITAL ENERGIES
----------------

  NO   OCC          E(Eh)            E(eV)
   0   2.0000     -20.513667      -558.2053
   1   2.0000     -15.577841      -423.8946
   2   2.0000     -11.346087      -308.7427
   3   2.0000     -11.282563      -307.0141
   4   2.0000     -11.265848      -306.5593
   5   2.0000     -11.264672      -306.5273
   6   2.0000     -11.252059      -306.1841
   7   2.0000     -11.237101      -305.7771
   8   2.0000     -11.233150      -305.6695
   9   2.0000      -1.376401       -37.4538
  10   2.0000      -1.261868       -34.3372
  11   2.0000      -1.144917       -31.1548
  12   2.0000      -1.036370       -28.2011
  13   2.0000      -0.997683       -27.1483
  14   2.0000      -0.875844       -23.8329
  15   2.0000      -0.855888       -23.2899
  16   2.0000      -0.785757       -21.3815
  17   2.0000      -0.749632       -20.3985
  18   2.0000      -0.691788       -18.8245
  19   2.0000      -0.672494       -18.2995
  20   2.0000      -0.621386       -16.9088
  21   2.0000      -0.612831       -16.6760
  22   2.0000      -0.605295       -16.4709
  23   2.0000      -0.586087       -15.9482
  24   2.0000      -0.563202       -15.3255
  25   2.0000      -0.555308       -15.1107
  26   2.0000      -0.515496       -14.0274
  27   2.0000      -0.506928       -13.7942
  28   2.0000      -0.491003       -13.3609
  29   2.0000      -0.468940       -12.7605
  30   2.0000      -0.417992       -11.3742
  31   2.0000      -0.389825       -10.6077
  32   2.0000      -0.367396        -9.9974
  33   0.0000       0.101038         2.7494
  34   0.0000       0.127378         3.4661
  35   0.0000       0.143940         3.9168
  36   0.0000       0.155322         4.2265
  37   0.0000       0.170303         4.6342

MULLIKEN ATOMIC CHARGES
-----------------------
   0 C :   -0.424054
   1 C :    0.028999
   2 C :   -0.258148
   3 C :    0.065388
   4 N :   -0.328560
   5 C :    0.255608
   6 O :   -0.338080
   7 C :   -0.256060
   8 C :   -0.048016
   9 H :    0.136045
  10 H :    0.138240
  11 H :    0.140043
  12 H :    0.117670
  13 H :    0.129804
  14 H :    0.130169
  15 H :    0.128436
  16 H :    0.234184
  17 H :    0.148332
Sum of atomic charges:    0.0000000

LOEWDIN ATOMIC CHARGES
----------------------
   0 C :   -0.289553
   1 C :   -0.210151
   2 C :   -0.167838
   3 C :   -0.217495
   4 N :    0.123575
   5 C :   -0.417332
   6 O :    0.089706
   7 C :   -0.095555
   8 C :   -0.109785
   9 H :    0.128107
  10 H :    0.127398
  11 H :    0.128866
  12 H :    0.158541
  13 H :    0.126784
  14 H :    0.143454
  15 H :    0.152845
  16 H :    0.181136
  17 H :    0.147297

  Mayer bond orders larger than 0.1
B(  0-C ,  1-C ) :   0.8906 B(  0-C ,  9-H ) :   0.9375 B(  0-C , 10-H ) :   0.9365
B(  0-C , 11-H ) :   0.9370 B(  1-C ,  2-C ) :   0.9153 B(  1-C ,  8-C ) :   0.9041
B(  1-C , 12-H ) :   0.9133 B(  2-C ,  3-C ) :   0.8682 B(  2-C , 13-H ) :   0.9217
B(  2-C , 14-H ) :   0.9142 B(  3-C ,  4-N ) :   0.9840 B(  3-C ,  8-C ) :   0.9290
B(  3-C , 15-H ) :   0.9047 B(  4-N ,  5-C ) :   1.1058 B(  4-N , 16-H ) :   0.8670
B(  5-C ,  6-O ) :   1.9714 B(  5-C ,  7-C ) :   0.9713 B(  7-C ,  8-C ) :   1.6999
B(  7-C , 17-H ) :   0.9415

MP2 TOTAL ENERGY:     -401.273859451 Eh
FINAL SINGLE POINT ENERGY      -401.273859451318

DIPOLE MOMENT
-------------
                                X             Y             Z
Electronic contribution:      6.41574      -6.39902       3.60702
Nuclear contribution   :     -7.94438       6.72055      -4.58941
                        -----------------------------------------
Total Dipole Moment    :     -1.52864       0.32153      -0.98240
                        -----------------------------------------
Magnitude (a.u.)       :      1.84533
Magnitude (Debye)      :      4.69045

                             ****ORCA TERMINATED NORMALLY****
TOTAL RUN TIME: 0 days 0 hours 17 minutes 42 seconds 494 msec
