                         Program Version 3.0.3 - RELEASE   -
|  1> ! RI-MP2 RIJK def2-TZVP def2-TZVP/C def2-TZVP/JK TIGHTSCF
|  2> % maxcore 2000
|  3> % mp2 density relaxed end
|  4> *xyz 0 1
|  5>  O       -0.0582108261     1.3097536750    -0.0609467899
|  6>  N        0.0268916052    -0.0889957191    -0.0451509637
|  7>  C       -1.1220714233    -0.6289949723     0.0420032302
|  8>  C       -2.4932560169    -0.0033039098     0.1714980879
|  9>  C       -3.3287493076    -1.0718999900     0.9314567444
| 10>  O       -4.6872158066    -1.1448500953     0.5517445448
| 11>  C       -2.6296748385    -2.3855574203     0.6244611284
| 12>  O       -2.3220464575    -2.5672615364    -0.7555135795
| 13>  C       -1.2739797476    -2.1050769135     0.1209116742
| 14>  H        0.8682792381     1.5704066756    -0.1008826108
| 15>  H       -2.4511562486     0.9627683218     0.6772312765
| 16>  H       -2.9326536302     0.1454878890    -0.8200115579
| 17>  H       -3.2348428045    -0.9009526833     2.0167804387
| 18>  H       -5.1154613295    -0.3205057095     0.8029065460
| 19>  H       -2.8838652983    -3.2852165575     1.1780963961
| 20>  H       -0.4184695680    -2.7588162145     0.2484747848
| 21> *
| 22>
| 23>                          ****END OF INPUT****

CARTESIAN COORDINATES (ANGSTROEM)
---------------------------------
  O     -0.058211    1.309754   -0.060947
  N      0.026892   -0.088996   -0.045151
  C     -1.122071   -0.628995    0.042003
  C     -2.493256   -0.003304    0.171498
  C     -3.328749   -1.071900    0.931457
  O     -4.687216   -1.144850    0.551745
  C     -2.629675   -2.385557    0.624461
  O     -2.322046   -2.567262   -0.755514
  C     -1.273980   -2.105077    0.120912
  H      0.868279    1.570407   -0.100883
  H     -2.451156    0.962768    0.677231
  H     -2.932654    0.145488   -0.820012
  H     -3.234843   -0.900953    2.016780
  H     -5.115461   -0.320506    0.802907
  H     -2.883865   -3.285217    1.178096
  H     -0.418470   -2.758816    0.248475

 Total Charge           Charge          ....    0
 Multiplicity           Mult            ....    1
 Number of Electrons    NEL             ....   68
 Basis Dimension        Dim             ....  321

ORBITAL ENERGIES
----------------

  NO   OCC          E(Eh)            E(eV)
   0   2.0000     -20.600690      -560.5733
   1   2.0000     -20.582511      -560.0786
   2   2.0000     -20.571891      -559.7896
   3   2.0000     -15.627312      -425.2408
   4   2.0000     -11.305136      -307.6284
   5   2.0000     -11.301711      -307.5352
   6   2.0000     -11.298527      -307.4486
   7   2.0000     -11.289331      -307.1983
   8   2.0000     -11.244706      -305.9840
   9   2.0000      -1.433707       -39.0132
  10   2.0000      -1.426127       -38.8069
  11   2.0000      -1.377575       -37.4857
  12   2.0000      -1.178190       -32.0602
  13   2.0000      -1.068102       -29.0645
  14   2.0000      -0.946666       -25.7601
  15   2.0000      -0.934256       -25.4224
  16   2.0000      -0.809502       -22.0277
  17   2.0000      -0.766890       -20.8682
  18   2.0000      -0.723581       -19.6897
  19   2.0000      -0.713218       -19.4077
  20   2.0000      -0.702296       -19.1104
  21   2.0000      -0.651704       -17.7338
  22   2.0000      -0.625876       -17.0310
  23   2.0000      -0.617003       -16.7895
  24   2.0000      -0.590871       -16.0784
  25   2.0000      -0.575265       -15.6537
  26   2.0000      -0.563529       -15.3344
  27   2.0000      -0.546787       -14.8788
  28   2.0000      -0.515490       -14.0272
  29   2.0000      -0.476075       -12.9547
  30   2.0000      -0.471355       -12.8262
  31   2.0000      -0.448739       -12.2108
  32   2.0000      -0.433790       -11.8040
  33   2.0000      -0.385484       -10.4895
  34   0.0000       0.124027         3.3750
  35   0.0000       0.139625         3.7994
  36   0.0000       0.149073         4.0565
  37   0.0000       0.162223         4.4143
  38   0.0000       0.179296         4.8789

MULLIKEN ATOMIC CHARGES
-----------------------
   0 O :   -0.361483
   1 N :   -0.070883
   2 C :   -0.015940
   3 C :   -0.215978
   4 C :    0.069893
   5 O :   -0.450013
   6 C :    0.049748
   7 O :   -0.307331
   8 C :    0.001053
   9 H :    0.339672
  10 H :    0.147399
  11 H :    0.141893
  12 H :    0.082404
  13 H :    0.319059
  14 H :    0.135602
  15 H :    0.134906
Sum of atomic charges:    0.0000000

LOEWDIN ATOMIC CHARGES
----------------------
   0 O :   -0.069066
   1 N :    0.034776
   2 C :   -0.268896
   3 C :   -0.200275
   4 C :   -0.322309
   5 O :   -0.007999
   6 C :   -0.230793
   7 O :    0.191004
   8 C :   -0.209528
   9 H :    0.171777
  10 H :    0.146024
  11 H :    0.161293
  12 H :    0.141539
  13 H :    0.178255
  14 H :    0.140045
  15 H :    0.144154

  Mayer bond orders larger than 0.1
B(  0-O ,  1-N ) :   0.8093 B(  0-O ,  9-H ) :   0.8414 B(  1-N ,  2-C ) :   1.8595
B(  2-C ,  3-C ) :   0.9375 B(  2-C ,  8-C ) :   0.9689 B(  3-C ,  4-C ) :   0.9176
B(  3-C , 10-H ) :   0.9138 B(  3-C , 11-H ) :   0.8857 B(  4-C ,  5-O ) :   1.0524
B(  4-C ,  6-C ) :   0.8883 B(  4-C , 12-H ) :   0.9318 B(  5-O , 13-H ) :   0.8439
B(  6-C ,  7-O ) :   0.9288 B(  6-C ,  8-C ) :   0.9239 B(  6-C , 14-H ) :   0.9318
B(  7-O ,  8-C ) :   0.8986 B(  8-C , 15-H ) :   0.9162

MP2 TOTAL ENERGY:     -474.215220728 Eh
FINAL SINGLE POINT ENERGY      -474.215220728124

DIPOLE MOMENT
-------------
                                X             Y             Z
Electronic contribution:      2.14255      -1.06453      -1.67468
Nuclear contribution   :     -1.98466       1.74466       2.63005
                        -----------------------------------------
Total Dipole Moment    :      0.15789       0.68013       0.95537
                        -----------------------------------------
Magnitude (a.u.)       :      1.18332
Magnitude (Debye)      :      3.00775

                             ****ORCA TERMINATED NORMALLY****
TOTAL RUN TIME: 0 days 0 hours 14 minutes 26 seconds 549 msec
