                         Program Version 3.0.3 - RELEASE   -
|  1> ! RI-MP2 RIJK def2-TZVP def2-TZVP/C def2-TZVP/JK TIGHTSCF
|  2> % maxcore 2000
|  3> % mp2 density relaxed end
|  4> *xyz 0 1
|  5>  C        0.0256482000    -1.1822996654     0.0005694222
|  6>  C       -0.0001452987     0.0189241767     0.0006287773
|  7>  C       -0.0222657902     1.4589900865     0.0067794259
|  8>  C        0.4987695962     2.1886175735     1.2606907414
|  9>  C        1.3256577435     2.2065895510     0.0245597396
| 10>  C       -1.1035095963     2.0735982929    -0.7076028545
| 11>  C       -2.0129137139     2.5974448213    -1.3082612197
| 12>  C       -3.0362140313     3.1946571594    -1.9839518017
| 13>  N       -3.9065332076     3.7075711939    -2.5585614174
| 14>  H        0.0412543325    -2.2442717644    -0.0041021396
| 15>  H       -0.0332773805     3.0884835832     1.5442716990
| 16>  H        0.7969752790     1.5452373973     2.0791963459
| 17>  H        2.2045638401     1.5758154908    -0.0250691002
| 18>  H        1.3725001372     3.1190378332    -0.5572440082
| 19> *
| 20>
| 21>                          ****END OF INPUT****

CARTESIAN COORDINATES (ANGSTROEM)
---------------------------------
  C      0.025648   -1.182300    0.000569
  C     -0.000145    0.018924    0.000629
  C     -0.022266    1.458990    0.006779
  C      0.498770    2.188618    1.260691
  C      1.325658    2.206590    0.024560
  C     -1.103510    2.073598   -0.707603
  C     -2.012914    2.597445   -1.308261
  C     -3.036214    3.194657   -1.983952
  N     -3.906533    3.707571   -2.558561
  H      0.041254   -2.244272   -0.004102
  H     -0.033277    3.088484    1.544272
  H      0.796975    1.545237    2.079196
  H      2.204564    1.575815   -0.025069
  H      1.372500    3.119038   -0.557244

 Total Charge           Charge          ....    0
 Multiplicity           Mult            ....    1
 Number of Electrons    NEL             ....   60
 Basis Dimension        Dim             ....  309

ORBITAL ENERGIES
----------------

  NO   OCC          E(Eh)            E(eV)
   0   2.0000     -15.591342      -424.2620
   1   2.0000     -11.319086      -308.0080
   2   2.0000     -11.299499      -307.4750
   3   2.0000     -11.298123      -307.4375
   4   2.0000     -11.278374      -306.9002
   5   2.0000     -11.277884      -306.8868
   6   2.0000     -11.277634      -306.8800
   7   2.0000     -11.258379      -306.3561
   8   2.0000     -11.245648      -306.0096
   9   2.0000      -1.231848       -33.5203
  10   2.0000      -1.212032       -32.9811
  11   2.0000      -1.084534       -29.5117
  12   2.0000      -1.048935       -28.5430
  13   2.0000      -0.945581       -25.7306
  14   2.0000      -0.870112       -23.6770
  15   2.0000      -0.868064       -23.6212
  16   2.0000      -0.776614       -21.1327
  17   2.0000      -0.719053       -19.5664
  18   2.0000      -0.690922       -18.8009
  19   2.0000      -0.625453       -17.0195
  20   2.0000      -0.576352       -15.6833
  21   2.0000      -0.563351       -15.3296
  22   2.0000      -0.555689       -15.1211
  23   2.0000      -0.539709       -14.6862
  24   2.0000      -0.513526       -13.9738
  25   2.0000      -0.505630       -13.7589
  26   2.0000      -0.417240       -11.3537
  27   2.0000      -0.416429       -11.3316
  28   2.0000      -0.402910       -10.9637
  29   2.0000      -0.368289       -10.0216
  30   0.0000       0.090086         2.4514
  31   0.0000       0.095688         2.6038
  32   0.0000       0.137780         3.7492
  33   0.0000       0.148509         4.0411
  34   0.0000       0.157768         4.2931

MULLIKEN ATOMIC CHARGES
-----------------------
   0 C :   -0.099284
   1 C :   -0.028860
   2 C :   -0.168248
   3 C :   -0.239755
   4 C :   -0.239746
   5 C :   -0.100265
   6 C :    0.304551
   7 C :   -0.214377
   8 N :   -0.038345
   9 H :    0.200039
  10 H :    0.156521
  11 H :    0.155624
  12 H :    0.155624
  13 H :    0.156519
Sum of atomic charges:    0.0000000

LOEWDIN ATOMIC CHARGES
----------------------
   0 C :   -0.069990
   1 C :   -0.056509
   2 C :   -0.215030
   3 C :   -0.151561
   4 C :   -0.151565
   5 C :    0.056362
   6 C :   -0.043136
   7 C :   -0.178168
   8 N :    0.097421
   9 H :    0.130822
  10 H :    0.144753
  11 H :    0.145924
  12 H :    0.145923
  13 H :    0.144753

  Mayer bond orders larger than 0.1
B(  0-C ,  1-C ) :   2.5273 B(  0-C ,  2-C ) :  -0.1316 B(  0-C ,  9-H ) :   0.8893
B(  1-C ,  2-C ) :   1.2323 B(  2-C ,  3-C ) :   0.7916 B(  2-C ,  4-C ) :   0.7916
B(  2-C ,  5-C ) :   1.1972 B(  2-C ,  6-C ) :  -0.1618 B(  3-C ,  4-C ) :   0.9310
B(  3-C , 10-H ) :   0.9231 B(  3-C , 11-H ) :   0.9230 B(  4-C , 12-H ) :   0.9230
B(  4-C , 13-H ) :   0.9231 B(  5-C ,  6-C ) :   2.4437 B(  5-C ,  8-N ) :   0.1097
B(  6-C ,  7-C ) :   0.9663 B(  7-C ,  8-N ) :   2.7620

MP2 TOTAL ENERGY:     -361.664271951 Eh
FINAL SINGLE POINT ENERGY      -361.664271951373

DIPOLE MOMENT
-------------
                                X             Y             Z
Electronic contribution:     -6.62224       1.30479      -4.41095
Nuclear contribution   :      8.26036      -1.89470       5.49821
                        -----------------------------------------
Total Dipole Moment    :      1.63812      -0.58991       1.08725
                        -----------------------------------------
Magnitude (a.u.)       :      2.05269
Magnitude (Debye)      :      5.21752

                             ****ORCA TERMINATED NORMALLY****
TOTAL RUN TIME: 0 days 0 hours 13 minutes 24 seconds 275 msec
