                         Program Version 3.0.3 - RELEASE   -
|  1> ! RI-MP2 RIJK def2-TZVP def2-TZVP/C def2-TZVP/JK TIGHTSCF
|  2> % maxcore 2000
|  3> % mp2 density relaxed end
|  4> *xyz 0 1
|  5>  C       -0.0850927208     1.4224226229     0.1203605228
|  6>  C       -0.0064455698    -0.0697205393     0.4681579706
|  7>  C       -1.3590254076    -0.7341762544     0.3839834030
|  8>  O       -1.8936626658    -0.9822082538    -0.9283907006
|  9>  C       -1.6246298294    -2.1086897212    -0.0785077229
| 10>  C       -0.5435871272    -3.0628454450    -0.5290412933
| 11>  C       -2.8929870514    -2.7827241634     0.4108545574
| 12>  O       -2.5786434793    -3.5637500665     1.5443065081
| 13>  C       -3.6797226787    -4.2937356939     2.0303329055
| 14>  H        0.8990517697     1.8951581311     0.1885546984
| 15>  H       -0.4604982109     1.5592634339    -0.8981257215
| 16>  H       -0.7596794309     1.9538757798     0.8005354408
| 17>  H        0.6996809328    -0.5660345310    -0.2029678359
| 18>  H        0.3770500001    -0.1978593100     1.4887916770
| 19>  H       -2.0964277767    -0.3092042131     1.0712060402
| 20>  H        0.3556500200    -2.5413479832    -0.8583453929
| 21>  H       -0.2869297675    -3.7423759195     0.2881422896
| 22>  H       -0.9089451025    -3.6672269984    -1.3670952818
| 23>  H       -3.6491369469    -2.0184088544     0.6493328493
| 24>  H       -3.3082474523    -3.4168717990    -0.3923124299
| 25>  H       -3.3367023964    -4.8675317818     2.8946632607
| 26>  H       -4.5016745673    -3.6320398946     2.3464176031
| 27>  H       -4.0739431312    -4.9901333454     1.2732901824
| 28> *
| 29>
| 30>                          ****END OF INPUT****

CARTESIAN COORDINATES (ANGSTROEM)
---------------------------------
  C     -0.085093    1.422423    0.120361
  C     -0.006446   -0.069721    0.468158
  C     -1.359025   -0.734176    0.383983
  O     -1.893663   -0.982208   -0.928391
  C     -1.624630   -2.108690   -0.078508
  C     -0.543587   -3.062845   -0.529041
  C     -2.892987   -2.782724    0.410855
  O     -2.578643   -3.563750    1.544307
  C     -3.679723   -4.293736    2.030333
  H      0.899052    1.895158    0.188555
  H     -0.460498    1.559263   -0.898126
  H     -0.759679    1.953876    0.800535
  H      0.699681   -0.566035   -0.202968
  H      0.377050   -0.197859    1.488792
  H     -2.096428   -0.309204    1.071206
  H      0.355650   -2.541348   -0.858345
  H     -0.286930   -3.742376    0.288142
  H     -0.908945   -3.667227   -1.367095
  H     -3.649137   -2.018409    0.649333
  H     -3.308247   -3.416872   -0.392312
  H     -3.336702   -4.867532    2.894663
  H     -4.501675   -3.632040    2.346418
  H     -4.073943   -4.990133    1.273290

 Total Charge           Charge          ....    0
 Multiplicity           Mult            ....    1
 Number of Electrons    NEL             ....   72
 Basis Dimension        Dim             ....  363

ORBITAL ENERGIES
----------------

  NO   OCC          E(Eh)            E(eV)
   0   2.0000     -20.561170      -559.4979
   1   2.0000     -20.556623      -559.3742
   2   2.0000     -11.285570      -307.0960
   3   2.0000     -11.278389      -306.9006
   4   2.0000     -11.278307      -306.8983
   5   2.0000     -11.275198      -306.8137
   6   2.0000     -11.226100      -305.4777
   7   2.0000     -11.216388      -305.2134
   8   2.0000     -11.214152      -305.1526
   9   2.0000      -1.403956       -38.2036
  10   2.0000      -1.379988       -37.5514
  11   2.0000      -1.048429       -28.5292
  12   2.0000      -1.034775       -28.1577
  13   2.0000      -0.959595       -26.1119
  14   2.0000      -0.909472       -24.7480
  15   2.0000      -0.891421       -24.2568
  16   2.0000      -0.816724       -22.2242
  17   2.0000      -0.759203       -20.6590
  18   2.0000      -0.686125       -18.6704
  19   2.0000      -0.674339       -18.3497
  20   2.0000      -0.658349       -17.9146
  21   2.0000      -0.627243       -17.0682
  22   2.0000      -0.623152       -16.9568
  23   2.0000      -0.583084       -15.8665
  24   2.0000      -0.569132       -15.4869
  25   2.0000      -0.565332       -15.3835
  26   2.0000      -0.553753       -15.0684
  27   2.0000      -0.534770       -14.5518
  28   2.0000      -0.522707       -14.2236
  29   2.0000      -0.506651       -13.7867
  30   2.0000      -0.497914       -13.5489
  31   2.0000      -0.481589       -13.1047
  32   2.0000      -0.473090       -12.8734
  33   2.0000      -0.436408       -11.8753
  34   2.0000      -0.428875       -11.6703
  35   2.0000      -0.409269       -11.1368
  36   0.0000       0.138262         3.7623
  37   0.0000       0.150715         4.1012
  38   0.0000       0.165750         4.5103
  39   0.0000       0.176992         4.8162
  40   0.0000       0.186061         5.0630

MULLIKEN ATOMIC CHARGES
-----------------------
   0 C :   -0.399731
   1 C :   -0.180853
   2 C :    0.012159
   3 O :   -0.354314
   4 C :    0.225260
   5 C :   -0.400149
   6 C :   -0.086251
   7 O :   -0.313070
   8 C :   -0.218007
   9 H :    0.133750
  10 H :    0.142810
  11 H :    0.121688
  12 H :    0.107706
  13 H :    0.112335
  14 H :    0.105300
  15 H :    0.130758
  16 H :    0.151752
  17 H :    0.130275
  18 H :    0.109394
  19 H :    0.103364
  20 H :    0.139736
  21 H :    0.112998
  22 H :    0.113090
Sum of atomic charges:    0.0000000

LOEWDIN ATOMIC CHARGES
----------------------
   0 C :   -0.312669
   1 C :   -0.274649
   2 C :   -0.246883
   3 O :    0.176143
   4 C :   -0.327424
   5 C :   -0.264854
   6 C :   -0.286825
   7 O :    0.138792
   8 C :   -0.360278
   9 H :    0.120843
  10 H :    0.126648
  11 H :    0.120806
  12 H :    0.139587
  13 H :    0.143942
  14 H :    0.140730
  15 H :    0.126030
  16 H :    0.136880
  17 H :    0.131684
  18 H :    0.128379
  19 H :    0.125350
  20 H :    0.113636
  21 H :    0.102301
  22 H :    0.101830

  Mayer bond orders larger than 0.1
B(  0-C ,  1-C ) :   0.9208 B(  0-C ,  9-H ) :   0.9404 B(  0-C , 10-H ) :   0.9369
B(  0-C , 11-H ) :   0.9378 B(  1-C ,  2-C ) :   0.9096 B(  1-C , 12-H ) :   0.9364
B(  1-C , 13-H ) :   0.9261 B(  2-C ,  3-O ) :   0.8469 B(  2-C ,  4-C ) :   0.9790
B(  2-C , 14-H ) :   0.8977 B(  3-O ,  4-C ) :   0.8971 B(  4-C ,  5-C ) :   0.8871
B(  4-C ,  6-C ) :   0.9089 B(  5-C , 15-H ) :   0.9406 B(  5-C , 16-H ) :   0.9312
B(  5-C , 17-H ) :   0.9313 B(  6-C ,  7-O ) :   0.9468 B(  6-C , 18-H ) :   0.9186
B(  6-C , 19-H ) :   0.9285 B(  7-O ,  8-C ) :   0.9203 B(  8-C , 20-H ) :   0.9390
B(  8-C , 21-H ) :   0.9370 B(  8-C , 22-H ) :   0.9384

MP2 TOTAL ENERGY:     -424.696780061 Eh
FINAL SINGLE POINT ENERGY      -424.696780060798

DIPOLE MOMENT
-------------
                                X             Y             Z
Electronic contribution:     -2.03785      -1.17453      -1.22131
Nuclear contribution   :      1.94294       0.88894       1.69427
                        -----------------------------------------
Total Dipole Moment    :     -0.09491      -0.28560       0.47296
                        -----------------------------------------
Magnitude (a.u.)       :      0.56060
Magnitude (Debye)      :      1.42492

                             ****ORCA TERMINATED NORMALLY****
TOTAL RUN TIME: 0 days 0 hours 16 minutes 47 seconds 154 msec
