                         Program Version 3.0.3 - RELEASE   -
|  1> ! RI-MP2 RIJK def2-TZVP def2-TZVP/C def2-TZVP/JK TIGHTSCF
|  2> % maxcore 2000
|  3> % mp2 density relaxed end
|  4> *xyz 0 1
|  5>  C       -0.9757313011     1.2654949728     0.2932962301
|  6>  C       -0.2508132404    -0.0735426239     0.1481714477
|  7>  C        0.6017203747    -0.1757096378    -1.1171050251
|  8>  C        1.3016074859    -1.5348858825    -1.2440007634
|  9>  O        0.3637708940    -2.5839359399    -1.3878263936
| 10>  O       -0.2772768995    -0.0098390869    -2.2433587623
| 11>  C        0.3292820028     0.4762705222    -3.4044692319
| 12>  C       -0.5498047231     1.2587210077    -4.3251751529
| 13>  C        0.5475721698     1.9602783469    -3.5484002626
| 14>  H       -0.2660630037     2.1000512482     0.3373981340
| 15>  H       -1.6442987272     1.4372082453    -0.5538782840
| 16>  H       -1.5731496137     1.2904170366     1.2096127495
| 17>  H        0.4095716988    -0.2394057252     1.0081764548
| 18>  H       -0.9679823834    -0.9009182045     0.1446450431
| 19>  H        1.3544789185     0.6268308926    -1.1265111643
| 20>  H        2.0061009694    -1.5118831930    -2.0918041943
| 21>  H        1.8879639786    -1.7408424770    -0.3418021320
| 22>  H       -0.2854357226    -2.2625486968    -2.0266769875
| 23>  H        1.0687352606    -0.1879805675    -3.8501104779
| 24>  H       -0.4342051812     1.1218404725    -5.3942889540
| 25>  H       -1.5686481520     1.4213109520    -3.9929184870
| 26>  H        0.2379952449     2.5845058704    -2.7178226530
| 27>  H        1.4263569500     2.3089065378    -4.0796124835
| 28> *
| 29>
| 30>                          ****END OF INPUT****

CARTESIAN COORDINATES (ANGSTROEM)
---------------------------------
  C     -0.975731    1.265495    0.293296
  C     -0.250813   -0.073543    0.148171
  C      0.601720   -0.175710   -1.117105
  C      1.301607   -1.534886   -1.244001
  O      0.363771   -2.583936   -1.387826
  O     -0.277277   -0.009839   -2.243359
  C      0.329282    0.476271   -3.404469
  C     -0.549805    1.258721   -4.325175
  C      0.547572    1.960278   -3.548400
  H     -0.266063    2.100051    0.337398
  H     -1.644299    1.437208   -0.553878
  H     -1.573150    1.290417    1.209613
  H      0.409572   -0.239406    1.008176
  H     -0.967982   -0.900918    0.144645
  H      1.354479    0.626831   -1.126511
  H      2.006101   -1.511883   -2.091804
  H      1.887964   -1.740842   -0.341802
  H     -0.285436   -2.262549   -2.026677
  H      1.068735   -0.187981   -3.850110
  H     -0.434205    1.121840   -5.394289
  H     -1.568648    1.421311   -3.992918
  H      0.237995    2.584506   -2.717823
  H      1.426357    2.308907   -4.079612

 Total Charge           Charge          ....    0
 Multiplicity           Mult            ....    1
 Number of Electrons    NEL             ....   72
 Basis Dimension        Dim             ....  363

ORBITAL ENERGIES
----------------

  NO   OCC          E(Eh)            E(eV)
   0   2.0000     -20.565293      -559.6101
   1   2.0000     -20.547451      -559.1246
   2   2.0000     -11.287154      -307.1391
   3   2.0000     -11.281773      -306.9927
   4   2.0000     -11.272017      -306.7272
   5   2.0000     -11.230705      -305.6030
   6   2.0000     -11.229693      -305.5755
   7   2.0000     -11.219235      -305.2909
   8   2.0000     -11.211221      -305.0728
   9   2.0000      -1.391434       -37.8629
  10   2.0000      -1.350231       -36.7417
  11   2.0000      -1.136559       -30.9273
  12   2.0000      -1.055420       -28.7194
  13   2.0000      -0.971802       -26.4441
  14   2.0000      -0.872627       -23.7454
  15   2.0000      -0.835982       -22.7482
  16   2.0000      -0.819364       -22.2960
  17   2.0000      -0.781396       -21.2629
  18   2.0000      -0.711869       -19.3709
  19   2.0000      -0.684407       -18.6237
  20   2.0000      -0.661073       -17.9887
  21   2.0000      -0.638490       -17.3742
  22   2.0000      -0.617850       -16.8126
  23   2.0000      -0.596523       -16.2322
  24   2.0000      -0.591159       -16.0862
  25   2.0000      -0.565592       -15.3905
  26   2.0000      -0.539939       -14.6925
  27   2.0000      -0.520624       -14.1669
  28   2.0000      -0.520389       -14.1605
  29   2.0000      -0.509170       -13.8552
  30   2.0000      -0.489692       -13.3252
  31   2.0000      -0.478624       -13.0240
  32   2.0000      -0.461935       -12.5699
  33   2.0000      -0.434122       -11.8131
  34   2.0000      -0.416703       -11.3391
  35   2.0000      -0.400070       -10.8864
  36   0.0000       0.139265         3.7896
  37   0.0000       0.146506         3.9866
  38   0.0000       0.156295         4.2530
  39   0.0000       0.163460         4.4480
  40   0.0000       0.184068         5.0088

MULLIKEN ATOMIC CHARGES
-----------------------
   0 C :   -0.399382
   1 C :   -0.163046
   2 C :   -0.017891
   3 C :    0.005885
   4 O :   -0.479760
   5 O :   -0.333573
   6 C :    0.017889
   7 C :   -0.252692
   8 C :   -0.269094
   9 H :    0.114059
  10 H :    0.139549
  11 H :    0.136216
  12 H :    0.105451
  13 H :    0.119773
  14 H :    0.089622
  15 H :    0.100179
  16 H :    0.109499
  17 H :    0.326237
  18 H :    0.109345
  19 H :    0.132928
  20 H :    0.138852
  21 H :    0.139347
  22 H :    0.130606
Sum of atomic charges:   -0.0000000

LOEWDIN ATOMIC CHARGES
----------------------
   0 C :   -0.321176
   1 C :   -0.272538
   2 C :   -0.325719
   3 C :   -0.334088
   4 O :   -0.045156
   5 O :    0.201876
   6 C :   -0.327163
   7 C :   -0.225252
   8 C :   -0.235579
   9 H :    0.118560
  10 H :    0.122856
  11 H :    0.121593
  12 H :    0.141779
  13 H :    0.143514
  14 H :    0.143039
  15 H :    0.115659
  16 H :    0.131049
  17 H :    0.176498
  18 H :    0.132908
  19 H :    0.132016
  20 H :    0.138996
  21 H :    0.136317
  22 H :    0.130011

  Mayer bond orders larger than 0.1
B(  0-C ,  1-C ) :   0.9131 B(  0-C ,  9-H ) :   0.9369 B(  0-C , 10-H ) :   0.9388
B(  0-C , 11-H ) :   0.9408 B(  1-C ,  2-C ) :   0.9375 B(  1-C , 12-H ) :   0.9299
B(  1-C , 13-H ) :   0.9199 B(  2-C ,  3-C ) :   0.9453 B(  2-C ,  5-O ) :   0.8346
B(  2-C , 14-H ) :   0.9218 B(  3-C ,  4-O ) :   0.9225 B(  3-C , 15-H ) :   0.9220
B(  3-C , 16-H ) :   0.9311 B(  4-O , 17-H ) :   0.8264 B(  5-O ,  6-C ) :   0.9484
B(  6-C ,  7-C ) :   0.8967 B(  6-C ,  8-C ) :   0.8866 B(  6-C , 18-H ) :   0.9273
B(  7-C ,  8-C ) :   0.9145 B(  7-C , 19-H ) :   0.9263 B(  7-C , 20-H ) :   0.9238
B(  8-C , 21-H ) :   0.9238 B(  8-C , 22-H ) :   0.9224

MP2 TOTAL ENERGY:     -424.697275839 Eh
FINAL SINGLE POINT ENERGY      -424.697275839215

DIPOLE MOMENT
-------------
                                X             Y             Z
Electronic contribution:      0.33879      -4.59876      -2.49975
Nuclear contribution   :      0.02319       5.35693       2.21792
                        -----------------------------------------
Total Dipole Moment    :      0.36198       0.75817      -0.28183
                        -----------------------------------------
Magnitude (a.u.)       :      0.88616
Magnitude (Debye)      :      2.25245

                             ****ORCA TERMINATED NORMALLY****
TOTAL RUN TIME: 0 days 0 hours 18 minutes 13 seconds 737 msec
