                         Program Version 3.0.3 - RELEASE   -
|  1> ! RI-MP2 RIJK def2-TZVP def2-TZVP/C def2-TZVP/JK TIGHTSCF
|  2> % maxcore 2000
|  3> % mp2 density relaxed end
|  4> *xyz 0 1
|  5>  O       -0.3616531022     1.4425885466    -0.4407325304
|  6>  C        0.0305529716     0.1450719966     0.0120135352
|  7>  C       -1.1609494167    -0.8147455268     0.2950013608
|  8>  C       -1.1622465062    -1.8203923328    -0.8637615293
|  9>  C       -1.8099947184    -3.1813780626    -0.7484143586
| 10>  C       -2.4053738138    -2.1521675427    -1.6700341666
| 11>  C        0.1487536270    -1.6310253955    -1.5360691935
| 12>  C        0.8283755526    -0.5954664670    -1.0384345448
| 13>  H       -0.7130410523     1.3350844888    -1.3318539339
| 14>  H        0.6033289324     0.3460584315     0.9227773145
| 15>  H       -0.9974026040    -1.3375620972     1.2433950833
| 16>  H       -2.0904281627    -0.2465097799     0.3860655642
| 17>  H       -1.2983155399    -4.0311076859    -1.1887969667
| 18>  H       -2.3343591403    -3.4077310480     0.1745246357
| 19>  H       -3.3331383729    -1.6738399255    -1.3732226545
| 20>  H       -2.3001001245    -2.2966629946    -2.7403828962
| 21>  H        0.4805527688    -2.2776595218    -2.3426284678
| 22>  H        1.7966111816    -0.2461269131    -1.3775561415
| 23> *
| 24>
| 25>                          ****END OF INPUT****

CARTESIAN COORDINATES (ANGSTROEM)
---------------------------------
  O     -0.361653    1.442589   -0.440733
  C      0.030553    0.145072    0.012014
  C     -1.160949   -0.814746    0.295001
  C     -1.162247   -1.820392   -0.863762
  C     -1.809995   -3.181378   -0.748414
  C     -2.405374   -2.152168   -1.670034
  C      0.148754   -1.631025   -1.536069
  C      0.828376   -0.595466   -1.038435
  H     -0.713041    1.335084   -1.331854
  H      0.603329    0.346058    0.922777
  H     -0.997403   -1.337562    1.243395
  H     -2.090428   -0.246510    0.386066
  H     -1.298316   -4.031108   -1.188797
  H     -2.334359   -3.407731    0.174525
  H     -3.333138   -1.673840   -1.373223
  H     -2.300100   -2.296663   -2.740383
  H      0.480553   -2.277660   -2.342628
  H      1.796611   -0.246127   -1.377556

 Total Charge           Charge          ....    0
 Multiplicity           Mult            ....    1
 Number of Electrons    NEL             ....   60
 Basis Dimension        Dim             ....  308

ORBITAL ENERGIES
----------------

  NO   OCC          E(Eh)            E(eV)
   0   2.0000     -20.548454      -559.1519
   1   2.0000     -11.280125      -306.9478
   2   2.0000     -11.243971      -305.9640
   3   2.0000     -11.237430      -305.7860
   4   2.0000     -11.230703      -305.6030
   5   2.0000     -11.230002      -305.5839
   6   2.0000     -11.223445      -305.4055
   7   2.0000     -11.222364      -305.3761
   8   2.0000      -1.353665       -36.8351
   9   2.0000      -1.170302       -31.8455
  10   2.0000      -1.080646       -29.4059
  11   2.0000      -0.969088       -26.3702
  12   2.0000      -0.892983       -24.2993
  13   2.0000      -0.829144       -22.5622
  14   2.0000      -0.780433       -21.2367
  15   2.0000      -0.736899       -20.0520
  16   2.0000      -0.692670       -18.8485
  17   2.0000      -0.652431       -17.7536
  18   2.0000      -0.628886       -17.1129
  19   2.0000      -0.615990       -16.7619
  20   2.0000      -0.597632       -16.2624
  21   2.0000      -0.555116       -15.1055
  22   2.0000      -0.534499       -14.5445
  23   2.0000      -0.518633       -14.1127
  24   2.0000      -0.495302       -13.4779
  25   2.0000      -0.482404       -13.1269
  26   2.0000      -0.454520       -12.3681
  27   2.0000      -0.435674       -11.8553
  28   2.0000      -0.413973       -11.2648
  29   2.0000      -0.339883        -9.2487
  30   0.0000       0.139957         3.8084
  31   0.0000       0.145138         3.9494
  32   0.0000       0.156823         4.2674
  33   0.0000       0.164867         4.4863
  34   0.0000       0.170067         4.6278

MULLIKEN ATOMIC CHARGES
-----------------------
   0 O :   -0.467926
   1 C :    0.141780
   2 C :   -0.272864
   3 C :    0.158840
   4 C :   -0.307136
   5 C :   -0.295857
   6 C :   -0.181618
   7 C :   -0.227515
   8 H :    0.309836
   9 H :    0.105614
  10 H :    0.117106
  11 H :    0.130534
  12 H :    0.131068
  13 H :    0.131701
  14 H :    0.130832
  15 H :    0.131339
  16 H :    0.131435
  17 H :    0.132833
Sum of atomic charges:    0.0000000

LOEWDIN ATOMIC CHARGES
----------------------
   0 O :   -0.030408
   1 C :   -0.311698
   2 C :   -0.179827
   3 C :   -0.227174
   4 C :   -0.204261
   5 C :   -0.204384
   6 C :   -0.110873
   7 C :   -0.151146
   8 H :    0.174084
   9 H :    0.142128
  10 H :    0.143862
  11 H :    0.142027
  12 H :    0.133826
  13 H :    0.135159
  14 H :    0.134130
  15 H :    0.132838
  16 H :    0.143214
  17 H :    0.138504

  Mayer bond orders larger than 0.1
B(  0-O ,  1-C ) :   0.9247 B(  0-O ,  8-H ) :   0.8434 B(  1-C ,  2-C ) :   0.9360
B(  1-C ,  7-C ) :   0.9500 B(  1-C ,  9-H ) :   0.9382 B(  2-C ,  3-C ) :   0.8837
B(  2-C , 10-H ) :   0.9133 B(  2-C , 11-H ) :   0.9281 B(  3-C ,  4-C ) :   0.8463
B(  3-C ,  5-C ) :   0.8262 B(  3-C ,  6-C ) :   0.9430 B(  4-C ,  5-C ) :   0.9231
B(  4-C , 12-H ) :   0.9277 B(  4-C , 13-H ) :   0.9230 B(  5-C , 14-H ) :   0.9222
B(  5-C , 15-H ) :   0.9286 B(  6-C ,  7-C ) :   1.7531 B(  6-C , 16-H ) :   0.9101
B(  7-C , 17-H ) :   0.9351

MP2 TOTAL ENERGY:     -347.190866983 Eh
FINAL SINGLE POINT ENERGY      -347.190866983301

DIPOLE MOMENT
-------------
                                X             Y             Z
Electronic contribution:      2.36840       2.78786      -0.11456
Nuclear contribution   :     -2.52571      -3.44143      -0.21924
                        -----------------------------------------
Total Dipole Moment    :     -0.15730      -0.65357      -0.33380
                        -----------------------------------------
Magnitude (a.u.)       :      0.75055
Magnitude (Debye)      :      1.90774

                             ****ORCA TERMINATED NORMALLY****
TOTAL RUN TIME: 0 days 0 hours 12 minutes 8 seconds 741 msec
