                         Program Version 3.0.3 - RELEASE   -
|  1> ! RI-MP2 RIJK def2-TZVP def2-TZVP/C def2-TZVP/JK TIGHTSCF
|  2> % maxcore 2000
|  3> % mp2 density relaxed end
|  4> *xyz 0 1
|  5>  C        0.7201449872     1.4095067380    -0.0888384064
|  6>  C       -0.0334536454     0.0802751529     0.0035660776
|  7>  C        0.1518407926    -0.8480332653    -1.2188540321
|  8>  C        1.1774968516    -1.9055375695    -0.7721165577
|  9>  O        0.8306033790    -3.2238132571    -1.1403130437
| 10>  C        2.6916597347    -1.5457179261    -0.9112728891
| 11>  C        2.7749216677    -1.3105561077     0.6251475316
| 12>  C        1.2723946598    -1.7055097867     0.7653491010
| 13>  O        0.3735544397    -0.6874553765     1.1463519286
| 14>  H        1.7769102054     1.2709871797    -0.3370793881
| 15>  H        0.2729049677     2.0427512697    -0.8630089202
| 16>  H        0.6601773787     1.9398374668     0.8656447438
| 17>  H       -1.0951639933     0.3031707290     0.1587582688
| 18>  H       -0.7816866122    -1.3728908151    -1.4391683354
| 19>  H        0.4582793027    -0.2961315718    -2.1125111091
| 20>  H        0.8933811787    -3.2929386670    -2.0991584478
| 21>  H        3.2792655947    -2.3987022876    -1.2576415770
| 22>  H        2.9160948250    -0.6823684645    -1.5433820699
| 23>  H        3.4634115872    -1.9780076227     1.1477109970
| 24>  H        2.9802054923    -0.2856634411     0.9373248786
| 25>  H        1.0777072063    -2.5913940874     1.3741107597
| 26> *
| 27>
| 28>                          ****END OF INPUT****

CARTESIAN COORDINATES (ANGSTROEM)
---------------------------------
  C      0.720145    1.409507   -0.088838
  C     -0.033454    0.080275    0.003566
  C      0.151841   -0.848033   -1.218854
  C      1.177497   -1.905538   -0.772117
  O      0.830603   -3.223813   -1.140313
  C      2.691660   -1.545718   -0.911273
  C      2.774922   -1.310556    0.625148
  C      1.272395   -1.705510    0.765349
  O      0.373554   -0.687455    1.146352
  H      1.776910    1.270987   -0.337079
  H      0.272905    2.042751   -0.863009
  H      0.660177    1.939837    0.865645
  H     -1.095164    0.303171    0.158758
  H     -0.781687   -1.372891   -1.439168
  H      0.458279   -0.296132   -2.112511
  H      0.893381   -3.292939   -2.099158
  H      3.279266   -2.398702   -1.257642
  H      2.916095   -0.682368   -1.543382
  H      3.463412   -1.978008    1.147711
  H      2.980205   -0.285663    0.937325
  H      1.077707   -2.591394    1.374111

 Total Charge           Charge          ....    0
 Multiplicity           Mult            ....    1
 Number of Electrons    NEL             ....   70
 Basis Dimension        Dim             ....  351

ORBITAL ENERGIES
----------------

  NO   OCC          E(Eh)            E(eV)
   0   2.0000     -20.559917      -559.4638
   1   2.0000     -20.546093      -559.0876
   2   2.0000     -11.283554      -307.0411
   3   2.0000     -11.280517      -306.9585
   4   2.0000     -11.268696      -306.6368
   5   2.0000     -11.224475      -305.4335
   6   2.0000     -11.223956      -305.4194
   7   2.0000     -11.219092      -305.2870
   8   2.0000     -11.216106      -305.2058
   9   2.0000      -1.380544       -37.5665
  10   2.0000      -1.360803       -37.0293
  11   2.0000      -1.108243       -30.1568
  12   2.0000      -1.050745       -28.5922
  13   2.0000      -0.967049       -26.3147
  14   2.0000      -0.895836       -24.3769
  15   2.0000      -0.861568       -23.4445
  16   2.0000      -0.797146       -21.6915
  17   2.0000      -0.742272       -20.1982
  18   2.0000      -0.709724       -19.3126
  19   2.0000      -0.653732       -17.7890
  20   2.0000      -0.635556       -17.2944
  21   2.0000      -0.617021       -16.7900
  22   2.0000      -0.607318       -16.5260
  23   2.0000      -0.596423       -16.2295
  24   2.0000      -0.581948       -15.8356
  25   2.0000      -0.559266       -15.2184
  26   2.0000      -0.543485       -14.7890
  27   2.0000      -0.516581       -14.0569
  28   2.0000      -0.501257       -13.6399
  29   2.0000      -0.488418       -13.2905
  30   2.0000      -0.483986       -13.1699
  31   2.0000      -0.466215       -12.6864
  32   2.0000      -0.423827       -11.5329
  33   2.0000      -0.416077       -11.3220
  34   2.0000      -0.394632       -10.7385
  35   0.0000       0.133636         3.6364
  36   0.0000       0.145917         3.9706
  37   0.0000       0.162018         4.4087
  38   0.0000       0.164465         4.4753
  39   0.0000       0.188749         5.1361

MULLIKEN ATOMIC CHARGES
-----------------------
   0 C :   -0.431125
   1 C :    0.140612
   2 C :   -0.326334
   3 C :    0.272809
   4 O :   -0.459175
   5 C :   -0.296876
   6 C :   -0.255166
   7 C :    0.038893
   8 O :   -0.321136
   9 H :    0.124307
  10 H :    0.126087
  11 H :    0.140882
  12 H :    0.098033
  13 H :    0.128411
  14 H :    0.121929
  15 H :    0.316953
  16 H :    0.110842
  17 H :    0.117473
  18 H :    0.119506
  19 H :    0.126862
  20 H :    0.106213
Sum of atomic charges:    0.0000000

LOEWDIN ATOMIC CHARGES
----------------------
   0 C :   -0.299233
   1 C :   -0.317014
   2 C :   -0.206267
   3 C :   -0.335010
   4 O :    0.008385
   5 C :   -0.212256
   6 C :   -0.221483
   7 C :   -0.247423
   8 O :    0.191841
   9 H :    0.120554
  10 H :    0.124788
  11 H :    0.127296
  12 H :    0.141595
  13 H :    0.146020
  14 H :    0.140195
  15 H :    0.177515
  16 H :    0.133256
  17 H :    0.126395
  18 H :    0.130992
  19 H :    0.130920
  20 H :    0.138932

  Mayer bond orders larger than 0.1
B(  0-C ,  1-C ) :   0.9128 B(  0-C ,  9-H ) :   0.9340 B(  0-C , 10-H ) :   0.9312
B(  0-C , 11-H ) :   0.9394 B(  1-C ,  2-C ) :   0.9179 B(  1-C ,  8-O ) :   0.8952
B(  1-C , 12-H ) :   0.9223 B(  2-C ,  3-C ) :   0.9508 B(  2-C , 13-H ) :   0.9167
B(  2-C , 14-H ) :   0.9139 B(  3-C ,  4-O ) :   1.0323 B(  3-C ,  5-C ) :   0.9140
B(  3-C ,  7-C ) :   0.9035 B(  4-O , 15-H ) :   0.8403 B(  5-C ,  6-C ) :   0.9623
B(  5-C , 16-H ) :   0.9011 B(  5-C , 17-H ) :   0.9143 B(  6-C ,  7-C ) :   0.8833
B(  6-C , 18-H ) :   0.9095 B(  6-C , 19-H ) :   0.9322 B(  7-C ,  8-O ) :   1.0047
B(  7-C , 20-H ) :   0.9297

MP2 TOTAL ENERGY:     -423.521628259 Eh
FINAL SINGLE POINT ENERGY      -423.521628259499

DIPOLE MOMENT
-------------
                                X             Y             Z
Electronic contribution:     -2.29422      -5.04458       1.76206
Nuclear contribution   :      2.56710       5.37949      -2.70919
                        -----------------------------------------
Total Dipole Moment    :      0.27288       0.33490      -0.94713
                        -----------------------------------------
Magnitude (a.u.)       :      1.04100
Magnitude (Debye)      :      2.64601

                             ****ORCA TERMINATED NORMALLY****
TOTAL RUN TIME: 0 days 0 hours 19 minutes 41 seconds 114 msec
