                         Program Version 3.0.3 - RELEASE   -
|  1> ! RI-MP2 RIJK def2-TZVP def2-TZVP/C def2-TZVP/JK TIGHTSCF
|  2> % maxcore 2000
|  3> % mp2 density relaxed end
|  4> *xyz 0 1
|  5>  C        0.1531647418     1.5210959116    -0.0664740808
|  6>  C       -0.0167111181     0.0189052377     0.0806942526
|  7>  O        0.5185843804    -0.6427230936    -1.0929107483
|  8>  C        1.2999797227    -1.7146898754    -0.7801096119
|  9>  O        1.6881927052    -2.4971430519    -1.5972018865
| 10>  C        1.5323790527    -1.7148322894     0.7056372907
| 11>  N        2.1735265903    -0.4402218654     1.1365128032
| 12>  C        0.7198281376    -0.6099186066     1.2561989760
| 13>  H        1.2149009029     1.7757643479    -0.0771251847
| 14>  H       -0.3085394070     1.8667882827    -0.9945342187
| 15>  H       -0.3282117366     2.0362836858     0.7711045573
| 16>  H       -1.0801629277    -0.2460160998     0.1362884330
| 17>  H        1.7582005556    -2.6448438873     1.2101263085
| 18>  H        2.6070555440    -0.5981428869     2.0439870378
| 19>  H        0.2467362061    -0.6535276295     2.2304470917
| 20> *
| 21>
| 22>                          ****END OF INPUT****

CARTESIAN COORDINATES (ANGSTROEM)
---------------------------------
  C      0.153165    1.521096   -0.066474
  C     -0.016711    0.018905    0.080694
  O      0.518584   -0.642723   -1.092911
  C      1.299980   -1.714690   -0.780110
  O      1.688193   -2.497143   -1.597202
  C      1.532379   -1.714832    0.705637
  N      2.173527   -0.440222    1.136513
  C      0.719828   -0.609919    1.256199
  H      1.214901    1.775764   -0.077125
  H     -0.308539    1.866788   -0.994534
  H     -0.328212    2.036284    0.771105
  H     -1.080163   -0.246016    0.136288
  H      1.758201   -2.644844    1.210126
  H      2.607056   -0.598143    2.043987
  H      0.246736   -0.653528    2.230447

 Total Charge           Charge          ....    0
 Multiplicity           Mult            ....    1
 Number of Electrons    NEL             ....   60
 Basis Dimension        Dim             ....  290

ORBITAL ENERGIES
----------------

  NO   OCC          E(Eh)            E(eV)
   0   2.0000     -20.598011      -560.5004
   1   2.0000     -20.542444      -558.9883
   2   2.0000     -15.596127      -424.3922
   3   2.0000     -11.380395      -309.6763
   4   2.0000     -11.312811      -307.8372
   5   2.0000     -11.295097      -307.3552
   6   2.0000     -11.293533      -307.3127
   7   2.0000     -11.228800      -305.5512
   8   2.0000      -1.458542       -39.6889
   9   2.0000      -1.368750       -37.2456
  10   2.0000      -1.294259       -35.2186
  11   2.0000      -1.055854       -28.7313
  12   2.0000      -0.972326       -26.4583
  13   2.0000      -0.914881       -24.8952
  14   2.0000      -0.831547       -22.6276
  15   2.0000      -0.780860       -21.2483
  16   2.0000      -0.752372       -20.4731
  17   2.0000      -0.678392       -18.4600
  18   2.0000      -0.662021       -18.0145
  19   2.0000      -0.644983       -17.5509
  20   2.0000      -0.610686       -16.6176
  21   2.0000      -0.583895       -15.8886
  22   2.0000      -0.558479       -15.1970
  23   2.0000      -0.548696       -14.9308
  24   2.0000      -0.526042       -14.3143
  25   2.0000      -0.511129       -13.9085
  26   2.0000      -0.498600       -13.5676
  27   2.0000      -0.461067       -12.5463
  28   2.0000      -0.454662       -12.3720
  29   2.0000      -0.404866       -11.0170
  30   0.0000       0.116334         3.1656
  31   0.0000       0.133333         3.6282
  32   0.0000       0.155470         4.2305
  33   0.0000       0.177592         4.8325
  34   0.0000       0.184789         5.0284

MULLIKEN ATOMIC CHARGES
-----------------------
   0 C :   -0.412324
   1 C :    0.108617
   2 O :   -0.230975
   3 C :    0.270223
   4 O :   -0.279973
   5 C :   -0.096787
   6 N :   -0.386924
   7 C :   -0.044859
   8 H :    0.158150
   9 H :    0.147999
  10 H :    0.124259
  11 H :    0.102648
  12 H :    0.158643
  13 H :    0.226244
  14 H :    0.155060
Sum of atomic charges:   -0.0000000

LOEWDIN ATOMIC CHARGES
----------------------
   0 C :   -0.284928
   1 C :   -0.279143
   2 O :    0.277258
   3 C :   -0.449630
   4 O :    0.147514
   5 C :   -0.206563
   6 N :    0.024232
   7 C :   -0.234082
   8 H :    0.134259
   9 H :    0.130727
  10 H :    0.128994
  11 H :    0.147023
  12 H :    0.146858
  13 H :    0.175454
  14 H :    0.142025

  Mayer bond orders larger than 0.1
B(  0-C ,  1-C ) :   0.9157 B(  0-C ,  8-H ) :   0.9334 B(  0-C ,  9-H ) :   0.9348
B(  0-C , 10-H ) :   0.9260 B(  1-C ,  2-O ) :   0.8882 B(  1-C ,  7-C ) :   0.9260
B(  1-C , 11-H ) :   0.9251 B(  2-O ,  3-C ) :   1.1245 B(  3-C ,  4-O ) :   2.0335
B(  3-C ,  5-C ) :   0.9378 B(  5-C ,  6-N ) :   0.8624 B(  5-C ,  7-C ) :   0.8981
B(  5-C , 12-H ) :   0.9142 B(  6-N ,  7-C ) :   0.9418 B(  6-N , 13-H ) :   0.8633
B(  7-C , 14-H ) :   0.9069

MP2 TOTAL ENERGY:     -399.167721227 Eh
FINAL SINGLE POINT ENERGY      -399.167721226613

DIPOLE MOMENT
-------------
                                X             Y             Z
Electronic contribution:      2.12135      -5.85676      -3.45666
Nuclear contribution   :     -2.76498       6.34631       5.38934
                        -----------------------------------------
Total Dipole Moment    :     -0.64363       0.48955       1.93267
                        -----------------------------------------
Magnitude (a.u.)       :      2.09503
Magnitude (Debye)      :      5.32515

                             ****ORCA TERMINATED NORMALLY****
TOTAL RUN TIME: 0 days 0 hours 11 minutes 38 seconds 538 msec
