                         Program Version 3.0.3 - RELEASE   -
|  1> ! RI-MP2 RIJK def2-TZVP def2-TZVP/C def2-TZVP/JK TIGHTSCF
|  2> % maxcore 2000
|  3> % mp2 density relaxed end
|  4> *xyz 0 1
|  5>  O        0.0012679804    -0.0327219332    -0.0800674925
|  6>  C       -0.0126584567     1.1497755738     0.0485909491
|  7>  C       -1.0359811424     2.3107225722     0.0407403433
|  8>  C       -0.8022418810     2.9826349483     1.4070857321
|  9>  C        0.7666815004     3.0035874810     1.3843850706
| 10>  C        0.9786565847     2.3376183524     0.0115932310
| 11>  O       -0.0495488979     2.9757416015    -0.8162595018
| 12>  H       -2.0362452017     2.2490234660    -0.3822459403
| 13>  H       -1.2325127858     3.9857414976     1.4294444857
| 14>  H       -1.2177294597     2.4038121950     2.2361534967
| 15>  H        1.1704860269     4.0178322475     1.3946811629
| 16>  H        1.2212802103     2.4363799082     2.2008613974
| 17>  H        1.9675584326     2.3024804297    -0.4401706944
| 18> *
| 19>
| 20>                          ****END OF INPUT****

CARTESIAN COORDINATES (ANGSTROEM)
---------------------------------
  O      0.001268   -0.032722   -0.080067
  C     -0.012658    1.149776    0.048591
  C     -1.035981    2.310723    0.040740
  C     -0.802242    2.982635    1.407086
  C      0.766682    3.003587    1.384385
  C      0.978657    2.337618    0.011593
  O     -0.049549    2.975742   -0.816260
  H     -2.036245    2.249023   -0.382246
  H     -1.232513    3.985741    1.429444
  H     -1.217729    2.403812    2.236153
  H      1.170486    4.017832    1.394681
  H      1.221280    2.436380    2.200861
  H      1.967558    2.302480   -0.440171

 Total Charge           Charge          ....    0
 Multiplicity           Mult            ....    1
 Number of Electrons    NEL             ....   52
 Basis Dimension        Dim             ....  253

ORBITAL ENERGIES
----------------

  NO   OCC          E(Eh)            E(eV)
   0   2.0000     -20.580152      -560.0144
   1   2.0000     -20.568980      -559.7104
   2   2.0000     -11.347818      -308.7898
   3   2.0000     -11.308735      -307.7263
   4   2.0000     -11.308709      -307.7256
   5   2.0000     -11.251738      -306.1754
   6   2.0000     -11.251216      -306.1611
   7   2.0000      -1.431193       -38.9447
   8   2.0000      -1.396973       -38.0136
   9   2.0000      -1.092612       -29.7315
  10   2.0000      -0.989770       -26.9330
  11   2.0000      -0.941408       -25.6170
  12   2.0000      -0.814372       -22.1602
  13   2.0000      -0.746605       -20.3162
  14   2.0000      -0.716523       -19.4976
  15   2.0000      -0.670828       -18.2542
  16   2.0000      -0.650111       -17.6904
  17   2.0000      -0.638801       -17.3827
  18   2.0000      -0.568669       -15.4743
  19   2.0000      -0.547809       -14.9066
  20   2.0000      -0.531544       -14.4640
  21   2.0000      -0.525035       -14.2869
  22   2.0000      -0.521147       -14.1811
  23   2.0000      -0.500883       -13.6297
  24   2.0000      -0.452721       -12.3192
  25   2.0000      -0.401292       -10.9197
  26   0.0000       0.128452         3.4954
  27   0.0000       0.157219         4.2782
  28   0.0000       0.158096         4.3020
  29   0.0000       0.171623         4.6701
  30   0.0000       0.176141         4.7930

MULLIKEN ATOMIC CHARGES
-----------------------
   0 O :   -0.232709
   1 C :    0.163699
   2 C :    0.003688
   3 C :   -0.230908
   4 C :   -0.230910
   5 C :    0.003690
   6 O :   -0.286911
   7 H :    0.149425
   8 H :    0.128091
   9 H :    0.127665
  10 H :    0.128092
  11 H :    0.127664
  12 H :    0.149425
Sum of atomic charges:   -0.0000000

LOEWDIN ATOMIC CHARGES
----------------------
   0 O :    0.176599
   1 C :   -0.279511
   2 C :   -0.228888
   3 C :   -0.225355
   4 C :   -0.225355
   5 C :   -0.228888
   6 O :    0.181508
   7 H :    0.137404
   8 H :    0.138278
   9 H :    0.139263
  10 H :    0.138278
  11 H :    0.139263
  12 H :    0.137404

  Mayer bond orders larger than 0.1
B(  0-O ,  1-C ) :   2.0763 B(  1-C ,  2-C ) :   0.9015 B(  1-C ,  5-C ) :   0.9015
B(  2-C ,  3-C ) :   0.9113 B(  2-C ,  6-O ) :   0.9137 B(  2-C ,  7-H ) :   0.9012
B(  3-C ,  4-C ) :   0.9632 B(  3-C ,  8-H ) :   0.9124 B(  3-C ,  9-H ) :   0.9198
B(  4-C ,  5-C ) :   0.9113 B(  4-C , 10-H ) :   0.9124 B(  4-C , 11-H ) :   0.9198
B(  5-C ,  6-O ) :   0.9137 B(  5-C , 12-H ) :   0.9012

MP2 TOTAL ENERGY:     -343.874693976 Eh
FINAL SINGLE POINT ENERGY      -343.874693976202

DIPOLE MOMENT
-------------
                                X             Y             Z
Electronic contribution:     -0.00377      -3.76383      -3.73405
Nuclear contribution   :      0.00506       4.47160       4.47631
                        -----------------------------------------
Total Dipole Moment    :      0.00129       0.70777       0.74227
                        -----------------------------------------
Magnitude (a.u.)       :      1.02562
Magnitude (Debye)      :      2.60693

                             ****ORCA TERMINATED NORMALLY****
TOTAL RUN TIME: 0 days 0 hours 7 minutes 43 seconds 486 msec
