                         Program Version 3.0.3 - RELEASE   -
|  1> ! RI-MP2 RIJK def2-TZVP def2-TZVP/C def2-TZVP/JK TIGHTSCF
|  2> % maxcore 2000
|  3> % mp2 density relaxed end
|  4> *xyz 0 1
|  5>  C        0.0066222495     1.5113940420    -0.0733383561
|  6>  C        0.0085712903     0.0565934567    -0.0102273174
|  7>  C        0.0162020095    -1.1480040181     0.0358077668
|  8>  C        0.0063018357    -2.5982262331     0.1136355508
|  9>  C        0.2099339855    -3.2888486346     1.5176564615
| 10>  C       -1.1292775157    -4.0050763461     1.3375080366
| 11>  C       -2.2260034499    -2.9890307304     1.1515896767
| 12>  C       -1.3526503766    -3.3341747341    -0.0207781497
| 13>  C       -1.8760056938    -3.8734567426    -1.3196264369
| 14>  H        0.8176314334     1.8853424523    -0.7084567116
| 15>  H       -0.9355879700     1.8918868966    -0.4837726267
| 16>  H        0.1352191485     1.9547087957     0.9206264644
| 17>  H        0.7235487218    -3.0137956809    -0.6024690589
| 18>  H        1.0755092141    -3.9544991909     1.5188201725
| 19>  H        0.2813838968    -2.6107680652     2.3729586601
| 20>  H       -1.3396990637    -5.0267839379     1.6316659057
| 21>  H       -3.2322557213    -3.3941893657     1.1038714130
| 22>  H       -2.1593961519    -2.0126518158     1.6262418355
| 23>  H       -2.1900289748    -3.0608147297    -1.9860230737
| 24>  H       -1.1147184257    -4.4597952868    -1.8477941196
| 25>  H       -2.7438925616    -4.5213891814    -1.1576208632
| 26> *
| 27>
| 28>                          ****END OF INPUT****

CARTESIAN COORDINATES (ANGSTROEM)
---------------------------------
  C      0.006622    1.511394   -0.073338
  C      0.008571    0.056593   -0.010227
  C      0.016202   -1.148004    0.035808
  C      0.006302   -2.598226    0.113636
  C      0.209934   -3.288849    1.517656
  C     -1.129278   -4.005076    1.337508
  C     -2.226003   -2.989031    1.151590
  C     -1.352650   -3.334175   -0.020778
  C     -1.876006   -3.873457   -1.319626
  H      0.817631    1.885342   -0.708457
  H     -0.935588    1.891887   -0.483773
  H      0.135219    1.954709    0.920626
  H      0.723549   -3.013796   -0.602469
  H      1.075509   -3.954499    1.518820
  H      0.281384   -2.610768    2.372959
  H     -1.339699   -5.026784    1.631666
  H     -3.232256   -3.394189    1.103871
  H     -2.159396   -2.012652    1.626242
  H     -2.190029   -3.060815   -1.986023
  H     -1.114718   -4.459795   -1.847794
  H     -2.743893   -4.521389   -1.157621

 Total Charge           Charge          ....    0
 Multiplicity           Mult            ....    1
 Number of Electrons    NEL             ....   66
 Basis Dimension        Dim             ....  351

ORBITAL ENERGIES
----------------

  NO   OCC          E(Eh)            E(eV)
   0   2.0000     -11.247912      -306.0713
   1   2.0000     -11.241338      -305.8924
   2   2.0000     -11.237725      -305.7940
   3   2.0000     -11.227235      -305.5086
   4   2.0000     -11.226567      -305.4904
   5   2.0000     -11.219448      -305.2967
   6   2.0000     -11.217311      -305.2386
   7   2.0000     -11.214744      -305.1687
   8   2.0000     -11.208626      -305.0022
   9   2.0000      -1.193216       -32.4691
  10   2.0000      -1.054049       -28.6821
  11   2.0000      -1.003170       -27.2977
  12   2.0000      -0.978181       -26.6176
  13   2.0000      -0.938425       -25.5358
  14   2.0000      -0.872956       -23.7543
  15   2.0000      -0.791912       -21.5490
  16   2.0000      -0.731987       -19.9184
  17   2.0000      -0.666936       -18.1482
  18   2.0000      -0.649693       -17.6790
  19   2.0000      -0.615825       -16.7574
  20   2.0000      -0.607568       -16.5328
  21   2.0000      -0.580969       -15.8090
  22   2.0000      -0.579855       -15.7787
  23   2.0000      -0.562056       -15.2943
  24   2.0000      -0.550896       -14.9906
  25   2.0000      -0.534163       -14.5353
  26   2.0000      -0.529738       -14.4149
  27   2.0000      -0.484741       -13.1905
  28   2.0000      -0.470621       -12.8062
  29   2.0000      -0.403576       -10.9819
  30   2.0000      -0.374396       -10.1878
  31   2.0000      -0.354134        -9.6365
  32   2.0000      -0.353234        -9.6120
  33   0.0000       0.135734         3.6935
  34   0.0000       0.147313         4.0086
  35   0.0000       0.161670         4.3993
  36   0.0000       0.176745         4.8095
  37   0.0000       0.189154         5.1471

MULLIKEN ATOMIC CHARGES
-----------------------
   0 C :   -0.490796
   1 C :    0.018934
   2 C :   -0.051994
   3 C :   -0.136270
   4 C :   -0.208436
   5 C :   -0.124418
   6 C :   -0.292936
   7 C :    0.085087
   8 C :   -0.416299
   9 H :    0.161311
  10 H :    0.161056
  11 H :    0.160403
  12 H :    0.115688
  13 H :    0.117507
  14 H :    0.117968
  15 H :    0.125362
  16 H :    0.126482
  17 H :    0.134751
  18 H :    0.141435
  19 H :    0.127318
  20 H :    0.127849
Sum of atomic charges:    0.0000000

LOEWDIN ATOMIC CHARGES
----------------------
   0 C :   -0.298148
   1 C :   -0.104886
   2 C :   -0.066610
   3 C :   -0.171420
   4 C :   -0.175976
   5 C :   -0.169728
   6 C :   -0.185353
   7 C :   -0.201565
   8 C :   -0.273919
   9 H :    0.139848
  10 H :    0.139834
  11 H :    0.139584
  12 H :    0.166836
  13 H :    0.133494
  14 H :    0.131663
  15 H :    0.133285
  16 H :    0.139893
  17 H :    0.135747
  18 H :    0.131487
  19 H :    0.126007
  20 H :    0.129928

  Mayer bond orders larger than 0.1
B(  0-C ,  1-C ) :   0.8468 B(  0-C ,  9-H ) :   0.9529 B(  0-C , 10-H ) :   0.9477
B(  0-C , 11-H ) :   0.9488 B(  1-C ,  2-C ) :   2.6484 B(  2-C ,  3-C ) :   1.1040
B(  3-C ,  4-C ) :   0.9369 B(  3-C ,  7-C ) :   0.8824 B(  3-C , 12-H ) :   0.9285
B(  4-C ,  5-C ) :   0.9562 B(  4-C , 13-H ) :   0.9273 B(  4-C , 14-H ) :   0.9151
B(  5-C ,  6-C ) :   0.8753 B(  5-C ,  7-C ) :   0.8206 B(  5-C , 15-H ) :   0.9191
B(  6-C ,  7-C ) :   0.9038 B(  6-C , 16-H ) :   0.9323 B(  6-C , 17-H ) :   0.9112
B(  7-C ,  8-C ) :   0.9010 B(  8-C , 18-H ) :   0.9387 B(  8-C , 19-H ) :   0.9404
B(  8-C , 20-H ) :   0.9332

MP2 TOTAL ENERGY:     -349.248483060 Eh
FINAL SINGLE POINT ENERGY      -349.248483059840

DIPOLE MOMENT
-------------
                                X             Y             Z
Electronic contribution:      1.83116       0.07098       0.99202
Nuclear contribution   :     -1.88486      -0.08239      -1.05885
                        -----------------------------------------
Total Dipole Moment    :     -0.05370      -0.01141      -0.06684
                        -----------------------------------------
Magnitude (a.u.)       :      0.08649
Magnitude (Debye)      :      0.21984

                             ****ORCA TERMINATED NORMALLY****
TOTAL RUN TIME: 0 days 0 hours 20 minutes 22 seconds 21 msec
