                         Program Version 3.0.3 - RELEASE   -
|  1> ! RI-MP2 RIJK def2-TZVP def2-TZVP/C def2-TZVP/JK TIGHTSCF
|  2> % maxcore 2000
|  3> % mp2 density relaxed end
|  4> *xyz 0 1
|  5>  C        1.1015181128     1.2758119311    -1.0657775863
|  6>  C        0.6342982865    -0.0445975378    -0.4886396268
|  7>  N        1.4371805717    -0.8942377489     0.3807882075
|  8>  C        2.7742376510    -0.5070236577     0.8115486294
|  9>  C        0.2548460183    -0.2326225779     0.9629299795
| 10>  C        0.3798400471     0.8996456397     1.9781261380
| 11>  O        0.6704493560     0.4120245509     3.2754799840
| 12>  C       -0.8274321264    -1.1316413691     1.3053519646
| 13>  C       -1.7411636855    -1.8389438582     1.6422239969
| 14>  H        1.6450035426     1.9027199585    -0.3578292065
| 15>  H        1.7584178512     1.0955828607    -1.9237975403
| 16>  H        0.2401558319     1.8474666180    -1.4260338161
| 17>  H        0.0463465990    -0.6256151382    -1.1990075667
| 18>  H        2.9720242675     0.5724766605     0.8538751620
| 19>  H        2.9487097552    -0.9183447844     1.8089015233
| 20>  H        3.4973970552    -0.9525270683     0.1210564732
| 21>  H        1.1955980377     1.5763005569     1.7227339010
| 22>  H       -0.5532091387     1.4838767923     1.9656577398
| 23>  H       -0.0025987876    -0.2466122661     3.4867843253
| 24>  H       -2.5426558257    -2.4820223920     1.9107005682
| 25> *
| 26>
| 27>                          ****END OF INPUT****

CARTESIAN COORDINATES (ANGSTROEM)
---------------------------------
  C      1.101518    1.275812   -1.065778
  C      0.634298   -0.044598   -0.488640
  N      1.437181   -0.894238    0.380788
  C      2.774238   -0.507024    0.811549
  C      0.254846   -0.232623    0.962930
  C      0.379840    0.899646    1.978126
  O      0.670449    0.412025    3.275480
  C     -0.827432   -1.131641    1.305352
  C     -1.741164   -1.838944    1.642224
  H      1.645004    1.902720   -0.357829
  H      1.758418    1.095583   -1.923798
  H      0.240156    1.847467   -1.426034
  H      0.046347   -0.625615   -1.199008
  H      2.972024    0.572477    0.853875
  H      2.948710   -0.918345    1.808902
  H      3.497397   -0.952527    0.121056
  H      1.195598    1.576301    1.722734
  H     -0.553209    1.483877    1.965658
  H     -0.002599   -0.246612    3.486784
  H     -2.542656   -2.482022    1.910701

 Total Charge           Charge          ....    0
 Multiplicity           Mult            ....    1
 Number of Electrons    NEL             ....   68
 Basis Dimension        Dim             ....  345

ORBITAL ENERGIES
----------------

  NO   OCC          E(Eh)            E(eV)
   0   2.0000     -20.557821      -559.4068
   1   2.0000     -15.565607      -423.5617
   2   2.0000     -11.288475      -307.1750
   3   2.0000     -11.287776      -307.1560
   4   2.0000     -11.275578      -306.8241
   5   2.0000     -11.247789      -306.0679
   6   2.0000     -11.238953      -305.8274
   7   2.0000     -11.234573      -305.7083
   8   2.0000     -11.229619      -305.5735
   9   2.0000      -1.365963       -37.1697
  10   2.0000      -1.283071       -34.9141
  11   2.0000      -1.055341       -28.7173
  12   2.0000      -1.019260       -27.7355
  13   2.0000      -0.982360       -26.7314
  14   2.0000      -0.950668       -25.8690
  15   2.0000      -0.836210       -22.7544
  16   2.0000      -0.788542       -21.4573
  17   2.0000      -0.725084       -19.7305
  18   2.0000      -0.696160       -18.9435
  19   2.0000      -0.690197       -18.7812
  20   2.0000      -0.646216       -17.5844
  21   2.0000      -0.618308       -16.8250
  22   2.0000      -0.598800       -16.2942
  23   2.0000      -0.585466       -15.9313
  24   2.0000      -0.572207       -15.5706
  25   2.0000      -0.555111       -15.1053
  26   2.0000      -0.552124       -15.0241
  27   2.0000      -0.514074       -13.9887
  28   2.0000      -0.483949       -13.1689
  29   2.0000      -0.471991       -12.8435
  30   2.0000      -0.447598       -12.1798
  31   2.0000      -0.399720       -10.8769
  32   2.0000      -0.391206       -10.6452
  33   2.0000      -0.359491        -9.7823
  34   0.0000       0.132311         3.6004
  35   0.0000       0.147220         4.0061
  36   0.0000       0.162061         4.4099
  37   0.0000       0.169317         4.6073
  38   0.0000       0.170243         4.6325

MULLIKEN ATOMIC CHARGES
-----------------------
   0 C :   -0.394403
   1 C :   -0.057146
   2 N :   -0.212803
   3 C :   -0.301296
   4 C :   -0.120241
   5 C :    0.034267
   6 O :   -0.477614
   7 C :   -0.036002
   8 C :   -0.114862
   9 H :    0.128628
  10 H :    0.145745
  11 H :    0.145723
  12 H :    0.124914
  13 H :    0.102919
  14 H :    0.154367
  15 H :    0.142943
  16 H :    0.095254
  17 H :    0.121325
  18 H :    0.324436
  19 H :    0.193847
Sum of atomic charges:   -0.0000000

LOEWDIN ATOMIC CHARGES
----------------------
   0 C :   -0.293378
   1 C :   -0.223658
   2 N :    0.141777
   3 C :   -0.320449
   4 C :   -0.268212
   5 C :   -0.294834
   6 O :   -0.035315
   7 C :   -0.072224
   8 C :   -0.091299
   9 H :    0.122182
  10 H :    0.131925
  11 H :    0.133764
  12 H :    0.149507
  13 H :    0.103832
  14 H :    0.126461
  15 H :    0.120331
  16 H :    0.130251
  17 H :    0.130486
  18 H :    0.180755
  19 H :    0.128099

  Mayer bond orders larger than 0.1
B(  0-C ,  1-C ) :   0.8881 B(  0-C ,  9-H ) :   0.9409 B(  0-C , 10-H ) :   0.9327
B(  0-C , 11-H ) :   0.9297 B(  1-C ,  2-N ) :   0.9605 B(  1-C ,  4-C ) :   0.8767
B(  1-C , 12-H ) :   0.9101 B(  2-N ,  3-C ) :   0.8847 B(  2-N ,  4-C ) :   0.7966
B(  3-C , 13-H ) :   0.9281 B(  3-C , 14-H ) :   0.9337 B(  3-C , 15-H ) :   0.9314
B(  4-C ,  5-C ) :   0.9965 B(  4-C ,  7-C ) :   1.1374 B(  4-C ,  8-C ) :  -0.1347
B(  5-C ,  6-O ) :   0.9287 B(  5-C , 16-H ) :   0.9097 B(  5-C , 17-H ) :   0.9231
B(  6-O , 18-H ) :   0.8365 B(  7-C ,  8-C ) :   2.5807 B(  8-C , 19-H ) :   0.8840

MP2 TOTAL ENERGY:     -402.379203536 Eh
FINAL SINGLE POINT ENERGY      -402.379203536466

DIPOLE MOMENT
-------------
                                X             Y             Z
Electronic contribution:     -4.71427      -4.43576       3.38815
Nuclear contribution   :      4.49206       4.83968      -3.87210
                        -----------------------------------------
Total Dipole Moment    :     -0.22222       0.40393      -0.48394
                        -----------------------------------------
Magnitude (a.u.)       :      0.66838
Magnitude (Debye)      :      1.69890

                             ****ORCA TERMINATED NORMALLY****
TOTAL RUN TIME: 0 days 0 hours 20 minutes 22 seconds 835 msec
