                         Program Version 3.0.3 - RELEASE   -
|  1> ! RI-MP2 RIJK def2-TZVP def2-TZVP/C def2-TZVP/JK TIGHTSCF
|  2> % maxcore 2000
|  3> % mp2 density relaxed end
|  4> *xyz 0 1
|  5>  C        0.0435074373     1.5614643680    -0.0548572313
|  6>  C        0.1075341941     0.0325381125    -0.0299700848
|  7>  C        0.6940052227    -0.5358540690     1.2602021538
|  8>  C        0.6878292475    -2.0596760884     1.3050697477
|  9>  O        2.0594446620    -0.0504897321     1.3268817211
| 10>  C        2.6248942537     0.0590855203     2.5308062899
| 11>  N        2.0430584776    -0.2450646830     3.6179539076
| 12>  O        3.8725631200     0.5400485225     2.3222610445
| 13>  C        4.6834848454     0.7364979664     3.4689435505
| 14>  H        1.0421654503     1.9929283976     0.0516164064
| 15>  H       -0.3841053232     1.9214506291    -0.9954479440
| 16>  H       -0.5776143616     1.9442818657     0.7626395345
| 17>  H       -0.8980827344    -0.3881893958    -0.1488313402
| 18>  H        0.7023554969    -0.3339615370    -0.8758480027
| 19>  H        0.1617753790    -0.1393303430     2.1304250762
| 20>  H       -0.3396604701    -2.4317020411     1.2418596837
| 21>  H        1.2564248613    -2.4724892867     0.4655151843
| 22>  H        1.1237893466    -2.4133065919     2.2413287298
| 23>  H        2.6246157599    -0.0801634576     4.4321288940
| 24>  H        4.8493266934    -0.2037590829     4.0084822034
| 25>  H        5.6377750040     1.1143732666     3.1005555698
| 26>  H        4.2416052878     1.4726920698     4.1512862660
| 27> *
| 28>
| 29>                          ****END OF INPUT****

CARTESIAN COORDINATES (ANGSTROEM)
---------------------------------
  C      0.043507    1.561464   -0.054857
  C      0.107534    0.032538   -0.029970
  C      0.694005   -0.535854    1.260202
  C      0.687829   -2.059676    1.305070
  O      2.059445   -0.050490    1.326882
  C      2.624894    0.059086    2.530806
  N      2.043058   -0.245065    3.617954
  O      3.872563    0.540049    2.322261
  C      4.683485    0.736498    3.468944
  H      1.042165    1.992928    0.051616
  H     -0.384105    1.921451   -0.995448
  H     -0.577614    1.944282    0.762640
  H     -0.898083   -0.388189   -0.148831
  H      0.702355   -0.333962   -0.875848
  H      0.161775   -0.139330    2.130425
  H     -0.339660   -2.431702    1.241860
  H      1.256425   -2.472489    0.465515
  H      1.123789   -2.413307    2.241329
  H      2.624616   -0.080163    4.432129
  H      4.849327   -0.203759    4.008482
  H      5.637775    1.114373    3.100556
  H      4.241605    1.472692    4.151286

 Total Charge           Charge          ....    0
 Multiplicity           Mult            ....    1
 Number of Electrons    NEL             ....   72
 Basis Dimension        Dim             ....  357

ORBITAL ENERGIES
----------------

  NO   OCC          E(Eh)            E(eV)
   0   2.0000     -20.601760      -560.6024
   1   2.0000     -20.584389      -560.1297
   2   2.0000     -15.524984      -422.4563
   3   2.0000     -11.389689      -309.9292
   4   2.0000     -11.295996      -307.3797
   5   2.0000     -11.281206      -306.9772
   6   2.0000     -11.219436      -305.2964
   7   2.0000     -11.209007      -305.0126
   8   2.0000     -11.208183      -304.9902
   9   2.0000      -1.470549       -40.0157
  10   2.0000      -1.384898       -37.6850
  11   2.0000      -1.184167       -32.2228
  12   2.0000      -1.073066       -29.1996
  13   2.0000      -0.991154       -26.9707
  14   2.0000      -0.970439       -26.4070
  15   2.0000      -0.873430       -23.7672
  16   2.0000      -0.820080       -22.3155
  17   2.0000      -0.768455       -20.9107
  18   2.0000      -0.739909       -20.1339
  19   2.0000      -0.697458       -18.9788
  20   2.0000      -0.682821       -18.5805
  21   2.0000      -0.629469       -17.1287
  22   2.0000      -0.627013       -17.0619
  23   2.0000      -0.597332       -16.2542
  24   2.0000      -0.583787       -15.8857
  25   2.0000      -0.565087       -15.3768
  26   2.0000      -0.559350       -15.2207
  27   2.0000      -0.536408       -14.5964
  28   2.0000      -0.525633       -14.3032
  29   2.0000      -0.509263       -13.8578
  30   2.0000      -0.492280       -13.3956
  31   2.0000      -0.484967       -13.1966
  32   2.0000      -0.465437       -12.6652
  33   2.0000      -0.454127       -12.3574
  34   2.0000      -0.439030       -11.9466
  35   2.0000      -0.395476       -10.7614
  36   0.0000       0.134542         3.6611
  37   0.0000       0.149281         4.0621
  38   0.0000       0.164870         4.4864
  39   0.0000       0.189315         5.1515
  40   0.0000       0.194202         5.2845

MULLIKEN ATOMIC CHARGES
-----------------------
   0 C :   -0.401313
   1 C :   -0.168390
   2 C :    0.079155
   3 C :   -0.409622
   4 O :   -0.253849
   5 C :    0.368258
   6 N :   -0.483717
   7 O :   -0.246910
   8 C :   -0.274009
   9 H :    0.143706
  10 H :    0.131906
  11 H :    0.120062
  12 H :    0.109226
  13 H :    0.110853
  14 H :    0.111625
  15 H :    0.126996
  16 H :    0.126133
  17 H :    0.160284
  18 H :    0.216200
  19 H :    0.140159
  20 H :    0.153838
  21 H :    0.139409
Sum of atomic charges:    0.0000000

LOEWDIN ATOMIC CHARGES
----------------------
   0 C :   -0.318359
   1 C :   -0.275394
   2 C :   -0.307505
   3 C :   -0.293033
   4 O :    0.284281
   5 C :   -0.555985
   6 N :   -0.108876
   7 O :    0.228189
   8 C :   -0.332216
   9 H :    0.125005
  10 H :    0.120616
  11 H :    0.120937
  12 H :    0.141916
  13 H :    0.140937
  14 H :    0.148523
  15 H :    0.127630
  16 H :    0.125365
  17 H :    0.130143
  18 H :    0.159505
  19 H :    0.109285
  20 H :    0.120058
  21 H :    0.108979

  Mayer bond orders larger than 0.1
B(  0-C ,  1-C ) :   0.9230 B(  0-C ,  9-H ) :   0.9385 B(  0-C , 10-H ) :   0.9402
B(  0-C , 11-H ) :   0.9366 B(  1-C ,  2-C ) :   0.9172 B(  1-C , 12-H ) :   0.9302
B(  1-C , 13-H ) :   0.9269 B(  2-C ,  3-C ) :   0.9314 B(  2-C ,  4-O ) :   0.7989
B(  2-C , 14-H ) :   0.9276 B(  3-C , 15-H ) :   0.9333 B(  3-C , 16-H ) :   0.9322
B(  3-C , 17-H ) :   0.9350 B(  4-O ,  5-C ) :   1.1451 B(  5-C ,  6-N ) :   1.8051
B(  5-C ,  7-O ) :   1.1183 B(  6-N , 18-H ) :   0.8702 B(  7-O ,  8-C ) :   0.8692
B(  8-C , 19-H ) :   0.9323 B(  8-C , 20-H ) :   0.9368 B(  8-C , 21-H ) :   0.9326

MP2 TOTAL ENERGY:     -440.780096377 Eh
FINAL SINGLE POINT ENERGY      -440.780096377456

DIPOLE MOMENT
-------------
                                X             Y             Z
Electronic contribution:      5.30422       0.30994       2.57796
Nuclear contribution   :     -4.90951      -0.18822      -2.23154
                        -----------------------------------------
Total Dipole Moment    :      0.39471       0.12172       0.34642
                        -----------------------------------------
Magnitude (a.u.)       :      0.53909
Magnitude (Debye)      :      1.37026

                             ****ORCA TERMINATED NORMALLY****
TOTAL RUN TIME: 0 days 0 hours 16 minutes 5 seconds 421 msec
