                         Program Version 3.0.3 - RELEASE   -
|  1> ! RI-MP2 RIJK def2-TZVP def2-TZVP/C def2-TZVP/JK TIGHTSCF
|  2> % maxcore 2000
|  3> % mp2 density relaxed end
|  4> *xyz 0 1
|  5>  C       -0.2093027983     1.4851878990     0.0660308647
|  6>  C        0.0515352996     0.0103517834     0.0747311114
|  7>  N        0.1418171328    -0.6620263846    -1.0926279970
|  8>  N        0.4298925793    -1.8995804944    -0.6808619778
|  9>  C        0.5008259016    -3.3159032954    -1.0609188471
| 10>  C        0.5977348761    -3.5889956908     0.5100602188
| 11>  O        1.7349015196    -4.2398049318     0.9973328077
| 12>  C        0.4782025952    -2.0688785354     0.6508968812
| 13>  C        0.2393970883    -0.8285542395     1.2136843952
| 14>  H        0.6600754154     2.0508229277     0.4201919006
| 15>  H       -0.4388201100     1.8151679873    -0.9492553548
| 16>  H       -1.0519188481     1.7447077108     0.7154866615
| 17>  H       -0.3991490771    -3.6929458408    -1.5544448676
| 18>  H        1.3923131125    -3.5896335293    -1.6319959022
| 19>  H       -0.2603683288    -4.1498332047     0.8879403636
| 20>  H        2.4977670766    -3.6722035392     0.8391799021
| 21>  H        0.2019918352    -0.5377045722     2.2504412599
| 22> *
| 23>
| 24>                          ****END OF INPUT****

CARTESIAN COORDINATES (ANGSTROEM)
---------------------------------
  C     -0.209303    1.485188    0.066031
  C      0.051535    0.010352    0.074731
  N      0.141817   -0.662026   -1.092628
  N      0.429893   -1.899580   -0.680862
  C      0.500826   -3.315903   -1.060919
  C      0.597735   -3.588996    0.510060
  O      1.734902   -4.239805    0.997333
  C      0.478203   -2.068879    0.650897
  C      0.239397   -0.828554    1.213684
  H      0.660075    2.050823    0.420192
  H     -0.438820    1.815168   -0.949255
  H     -1.051919    1.744708    0.715487
  H     -0.399149   -3.692946   -1.554445
  H      1.392313   -3.589634   -1.631996
  H     -0.260368   -4.149833    0.887940
  H      2.497767   -3.672204    0.839180
  H      0.201992   -0.537705    2.250441

 Total Charge           Charge          ....    0
 Multiplicity           Mult            ....    1
 Number of Electrons    NEL             ....   66
 Basis Dimension        Dim             ....  327

ORBITAL ENERGIES
----------------

  NO   OCC          E(Eh)            E(eV)
   0   2.0000     -20.581681      -560.0560
   1   2.0000     -15.629650      -425.3044
   2   2.0000     -15.580490      -423.9667
   3   2.0000     -11.326944      -308.2218
   4   2.0000     -11.295482      -307.3657
   5   2.0000     -11.270935      -306.6977
   6   2.0000     -11.261709      -306.4467
   7   2.0000     -11.222220      -305.3721
   8   2.0000     -11.220873      -305.3355
   9   2.0000      -1.403062       -38.1793
  10   2.0000      -1.378206       -37.5029
  11   2.0000      -1.175672       -31.9917
  12   2.0000      -1.053500       -28.6672
  13   2.0000      -0.999346       -27.1936
  14   2.0000      -0.920593       -25.0506
  15   2.0000      -0.890403       -24.2291
  16   2.0000      -0.796548       -21.6752
  17   2.0000      -0.733243       -19.9526
  18   2.0000      -0.710844       -19.3430
  19   2.0000      -0.692655       -18.8481
  20   2.0000      -0.650669       -17.7056
  21   2.0000      -0.615270       -16.7424
  22   2.0000      -0.606119       -16.4933
  23   2.0000      -0.577498       -15.7145
  24   2.0000      -0.562598       -15.3091
  25   2.0000      -0.549209       -14.9447
  26   2.0000      -0.546512       -14.8713
  27   2.0000      -0.536356       -14.5950
  28   2.0000      -0.505272       -13.7492
  29   2.0000      -0.456890       -12.4326
  30   2.0000      -0.443622       -12.0716
  31   2.0000      -0.345561        -9.4032
  32   2.0000      -0.338538        -9.2121
  33   0.0000       0.125832         3.4241
  34   0.0000       0.151478         4.1219
  35   0.0000       0.154117         4.1937
  36   0.0000       0.164969         4.4890
  37   0.0000       0.178028         4.8444

MULLIKEN ATOMIC CHARGES
-----------------------
   0 C :   -0.439995
   1 C :    0.131508
   2 N :   -0.293419
   3 N :    0.135047
   4 C :   -0.140339
   5 C :    0.092679
   6 O :   -0.444587
   7 C :   -0.029226
   8 C :   -0.301989
   9 H :    0.138237
  10 H :    0.152255
  11 H :    0.138943
  12 H :    0.132997
  13 H :    0.133692
  14 H :    0.128003
  15 H :    0.324669
  16 H :    0.141526
Sum of atomic charges:   -0.0000000

LOEWDIN ATOMIC CHARGES
----------------------
   0 C :   -0.279417
   1 C :   -0.284203
   2 N :    0.050753
   3 N :    0.219429
   4 C :   -0.174327
   5 C :   -0.289241
   6 O :   -0.001186
   7 C :   -0.204335
   8 C :   -0.163467
   9 H :    0.130201
  10 H :    0.135575
  11 H :    0.130448
  12 H :    0.130828
  13 H :    0.129171
  14 H :    0.145378
  15 H :    0.182592
  16 H :    0.141802

  Mayer bond orders larger than 0.1
B(  0-C ,  1-C ) :   0.8670 B(  0-C ,  9-H ) :   0.9297 B(  0-C , 10-H ) :   0.9498
B(  0-C , 11-H ) :   0.9378 B(  1-C ,  2-N ) :   1.5008 B(  1-C ,  8-C ) :   1.2985
B(  2-N ,  3-N ) :   1.0427 B(  3-N ,  4-C ) :   0.8702 B(  3-N ,  7-C ) :   1.1766
B(  4-C ,  5-C ) :   0.9108 B(  4-C , 12-H ) :   0.9163 B(  4-C , 13-H ) :   0.9100
B(  5-C ,  6-O ) :   0.9788 B(  5-C ,  7-C ) :   0.9487 B(  5-C , 14-H ) :   0.9064
B(  6-O , 15-H ) :   0.8354 B(  7-C ,  8-C ) :   1.3864 B(  8-C , 16-H ) :   0.9234

MP2 TOTAL ENERGY:     -417.285584224 Eh
FINAL SINGLE POINT ENERGY      -417.285584223877

DIPOLE MOMENT
-------------
                                X             Y             Z
Electronic contribution:      1.17061      -3.73489      -0.18453
Nuclear contribution   :     -1.06735       3.46981       0.34151
                        -----------------------------------------
Total Dipole Moment    :      0.10326      -0.26508       0.15698
                        -----------------------------------------
Magnitude (a.u.)       :      0.32492
Magnitude (Debye)      :      0.82587

                             ****ORCA TERMINATED NORMALLY****
TOTAL RUN TIME: 0 days 0 hours 16 minutes 5 seconds 937 msec
