                         Program Version 3.0.3 - RELEASE   -
|  1> ! RI-MP2 RIJK def2-TZVP def2-TZVP/C def2-TZVP/JK TIGHTSCF
|  2> % maxcore 2000
|  3> % mp2 density relaxed end
|  4> *xyz 0 1
|  5>  C       -0.1295648350     1.4979317812    -0.0046525353
|  6>  C        0.0270160094    -0.0182123784     0.0308387595
|  7>  C        1.1971938341    -0.6088480734    -0.8114170951
|  8>  C        2.1202237882    -0.4198851236     0.4255785726
|  9>  C        0.8042800990    -0.5950610323     1.2480783786
| 10>  O        0.6126426796     0.0938515221     2.4553547498
| 11>  C        0.4809967376    -2.0966379613     1.3365213244
| 12>  C        0.9674859657    -2.8124457212     0.0540435278
| 13>  O        0.9420719377    -1.9780921078    -1.1000946965
| 14>  H        0.8180713535     2.0233719532     0.1434671021
| 15>  H       -0.5403480338     1.8142937963    -0.9695002490
| 16>  H       -0.8118754127     1.8312896337     0.7822915148
| 17>  H       -0.9361038089    -0.5002344611    -0.1671325995
| 18>  H        1.4622064499    -0.1276347623    -1.7544958347
| 19>  H        2.9466696270    -1.1188650363     0.5751348917
| 20>  H        2.4957250817     0.6021437859     0.4885674531
| 21>  H        1.0951284617    -0.3649707945     3.1516219822
| 22>  H        0.9886849330    -2.5442488678     2.2019578510
| 23>  H       -0.5964829478    -2.2191324440     1.4902832322
| 24>  H        1.9908744195    -3.1814868834     0.2130395226
| 25>  H        0.3452431205    -3.6816153149    -0.1770470524
| 26> *
| 27>
| 28>                          ****END OF INPUT****

CARTESIAN COORDINATES (ANGSTROEM)
---------------------------------
  C     -0.129565    1.497932   -0.004653
  C      0.027016   -0.018212    0.030839
  C      1.197194   -0.608848   -0.811417
  C      2.120224   -0.419885    0.425579
  C      0.804280   -0.595061    1.248078
  O      0.612643    0.093852    2.455355
  C      0.480997   -2.096638    1.336521
  C      0.967486   -2.812446    0.054044
  O      0.942072   -1.978092   -1.100095
  H      0.818071    2.023372    0.143467
  H     -0.540348    1.814294   -0.969500
  H     -0.811875    1.831290    0.782292
  H     -0.936104   -0.500234   -0.167133
  H      1.462206   -0.127635   -1.754496
  H      2.946670   -1.118865    0.575135
  H      2.495725    0.602144    0.488567
  H      1.095128   -0.364971    3.151622
  H      0.988685   -2.544249    2.201958
  H     -0.596483   -2.219132    1.490283
  H      1.990874   -3.181487    0.213040
  H      0.345243   -3.681615   -0.177047

 Total Charge           Charge          ....    0
 Multiplicity           Mult            ....    1
 Number of Electrons    NEL             ....   70
 Basis Dimension        Dim             ....  351

ORBITAL ENERGIES
----------------

  NO   OCC          E(Eh)            E(eV)
   0   2.0000     -20.560361      -559.4759
   1   2.0000     -20.550011      -559.1942
   2   2.0000     -11.289429      -307.2010
   3   2.0000     -11.279268      -306.9245
   4   2.0000     -11.276995      -306.8626
   5   2.0000     -11.230086      -305.5862
   6   2.0000     -11.221906      -305.3636
   7   2.0000     -11.221798      -305.3606
   8   2.0000     -11.211406      -305.0779
   9   2.0000      -1.378205       -37.5029
  10   2.0000      -1.366048       -37.1721
  11   2.0000      -1.130244       -30.7555
  12   2.0000      -1.034488       -28.1499
  13   2.0000      -0.975909       -26.5558
  14   2.0000      -0.890129       -24.2216
  15   2.0000      -0.844785       -22.9878
  16   2.0000      -0.831316       -22.6213
  17   2.0000      -0.728902       -19.8344
  18   2.0000      -0.698684       -19.0122
  19   2.0000      -0.667418       -18.1614
  20   2.0000      -0.647181       -17.6107
  21   2.0000      -0.618147       -16.8206
  22   2.0000      -0.616960       -16.7883
  23   2.0000      -0.584803       -15.9133
  24   2.0000      -0.553328       -15.0568
  25   2.0000      -0.550456       -14.9787
  26   2.0000      -0.545868       -14.8538
  27   2.0000      -0.537182       -14.6175
  28   2.0000      -0.530049       -14.4234
  29   2.0000      -0.505948       -13.7675
  30   2.0000      -0.474092       -12.9007
  31   2.0000      -0.449611       -12.2345
  32   2.0000      -0.423785       -11.5318
  33   2.0000      -0.410772       -11.1777
  34   2.0000      -0.391666       -10.6578
  35   0.0000       0.129070         3.5122
  36   0.0000       0.153321         4.1721
  37   0.0000       0.158038         4.3004
  38   0.0000       0.169951         4.6246
  39   0.0000       0.187703         5.1076

MULLIKEN ATOMIC CHARGES
-----------------------
   0 C :   -0.428206
   1 C :   -0.127407
   2 C :    0.142611
   3 C :   -0.356417
   4 C :    0.286457
   5 O :   -0.458174
   6 C :   -0.305703
   7 C :   -0.067602
   8 O :   -0.325091
   9 H :    0.122839
  10 H :    0.134878
  11 H :    0.143495
  12 H :    0.099460
  13 H :    0.121093
  14 H :    0.122330
  15 H :    0.132121
  16 H :    0.313070
  17 H :    0.109427
  18 H :    0.123364
  19 H :    0.094549
  20 H :    0.122907
Sum of atomic charges:   -0.0000000

LOEWDIN ATOMIC CHARGES
----------------------
   0 C :   -0.287022
   1 C :   -0.197096
   2 C :   -0.258178
   3 C :   -0.191628
   4 C :   -0.356106
   5 O :    0.020570
   6 C :   -0.230146
   7 C :   -0.301865
   8 O :    0.167331
   9 H :    0.124691
  10 H :    0.125477
  11 H :    0.130404
  12 H :    0.146759
  13 H :    0.133551
  14 H :    0.128496
  15 H :    0.141874
  16 H :    0.176597
  17 H :    0.137892
  18 H :    0.140708
  19 H :    0.119214
  20 H :    0.128478

  Mayer bond orders larger than 0.1
B(  0-C ,  1-C ) :   0.9042 B(  0-C ,  9-H ) :   0.9278 B(  0-C , 10-H ) :   0.9425
B(  0-C , 11-H ) :   0.9333 B(  1-C ,  2-C ) :   0.8793 B(  1-C ,  4-C ) :   0.8670
B(  1-C , 12-H ) :   0.9235 B(  2-C ,  3-C ) :   0.8885 B(  2-C ,  8-O ) :   0.8962
B(  2-C , 13-H ) :   0.9350 B(  3-C ,  4-C ) :   0.9093 B(  3-C , 14-H ) :   0.9149
B(  3-C , 15-H ) :   0.9139 B(  4-C ,  5-O ) :   0.9952 B(  4-C ,  6-C ) :   0.9043
B(  5-O , 16-H ) :   0.8381 B(  6-C ,  7-C ) :   0.9452 B(  6-C , 17-H ) :   0.9184
B(  6-C , 18-H ) :   0.9284 B(  7-C ,  8-O ) :   0.9573 B(  7-C , 19-H ) :   0.9321
B(  7-C , 20-H ) :   0.9214

MP2 TOTAL ENERGY:     -423.518642967 Eh
FINAL SINGLE POINT ENERGY      -423.518642966930

DIPOLE MOMENT
-------------
                                X             Y             Z
Electronic contribution:      0.44012      -1.89756      -0.24910
Nuclear contribution   :     -0.08752       1.62956       0.77773
                        -----------------------------------------
Total Dipole Moment    :      0.35260      -0.26801       0.52862
                        -----------------------------------------
Magnitude (a.u.)       :      0.68964
Magnitude (Debye)      :      1.75292

                             ****ORCA TERMINATED NORMALLY****
TOTAL RUN TIME: 0 days 0 hours 19 minutes 35 seconds 764 msec
