                         Program Version 3.0.3 - RELEASE   -
|  1> ! RI-MP2 RIJK def2-TZVP def2-TZVP/C def2-TZVP/JK TIGHTSCF
|  2> % maxcore 2000
|  3> % mp2 density relaxed end
|  4> *xyz 0 1
|  5>  C       -0.0094663556     1.6480987325     0.1560681207
|  6>  C        0.0342516936     0.1261179884     0.0591991819
|  7>  C       -1.3767535729    -0.4594401619    -0.1808706698
|  8>  C       -1.9632486010    -0.0571284531    -1.4540266273
|  9>  C       -2.4204419924     0.2770898699    -2.5146677142
| 10>  C        1.0860097597    -0.5324853064    -0.8845032423
| 11>  N        1.6429043743    -1.3925955468     0.2219134680
| 12>  C        2.1929760938    -0.4442210171     1.2060379327
| 13>  C        0.7326764847    -0.6468183951     1.1873145514
| 14>  H        0.9846699295     2.0699820922     0.3264140674
| 15>  H       -0.4079798699     2.0819829986    -0.7663660580
| 16>  H       -0.6551133563     1.9684018467     0.9822831944
| 17>  H       -1.3202861204    -1.5544414541    -0.1381051817
| 18>  H       -2.0361984514    -0.1521807388     0.6422530318
| 19>  H       -2.8375641963     0.5662738472    -3.4473200254
| 20>  H        0.6511345102    -1.1484048272    -1.6738949073
| 21>  H        1.8302047276     0.1381866030    -1.3273996006
| 22>  H        2.7512941082    -0.9320696069     1.9995949163
| 23>  H        2.6297254712     0.4882099792     0.8549500363
| 24>  H        0.2127620935    -1.1646624302     1.9896866956
| 25> *
| 26>
| 27>                          ****END OF INPUT****

CARTESIAN COORDINATES (ANGSTROEM)
---------------------------------
  C     -0.009466    1.648099    0.156068
  C      0.034252    0.126118    0.059199
  C     -1.376754   -0.459440   -0.180871
  C     -1.963249   -0.057128   -1.454027
  C     -2.420442    0.277090   -2.514668
  C      1.086010   -0.532485   -0.884503
  N      1.642904   -1.392596    0.221913
  C      2.192976   -0.444221    1.206038
  C      0.732676   -0.646818    1.187315
  H      0.984670    2.069982    0.326414
  H     -0.407980    2.081983   -0.766366
  H     -0.655113    1.968402    0.982283
  H     -1.320286   -1.554441   -0.138105
  H     -2.036198   -0.152181    0.642253
  H     -2.837564    0.566274   -3.447320
  H      0.651135   -1.148405   -1.673895
  H      1.830205    0.138187   -1.327400
  H      2.751294   -0.932070    1.999595
  H      2.629725    0.488210    0.854950
  H      0.212762   -1.164662    1.989687

 Total Charge           Charge          ....    0
 Multiplicity           Mult            ....    1
 Number of Electrons    NEL             ....   66
 Basis Dimension        Dim             ....  345

ORBITAL ENERGIES
----------------

  NO   OCC          E(Eh)            E(eV)
   0   2.0000     -15.560702      -423.4282
   1   2.0000     -11.262529      -306.4690
   2   2.0000     -11.257551      -306.3335
   3   2.0000     -11.255949      -306.2899
   4   2.0000     -11.254059      -306.2385
   5   2.0000     -11.252790      -306.2040
   6   2.0000     -11.236059      -305.7487
   7   2.0000     -11.222626      -305.3832
   8   2.0000     -11.219413      -305.2957
   9   2.0000      -1.291378       -35.1402
  10   2.0000      -1.100978       -29.9591
  11   2.0000      -1.025227       -27.8979
  12   2.0000      -0.964556       -26.2469
  13   2.0000      -0.950304       -25.8591
  14   2.0000      -0.878093       -23.8941
  15   2.0000      -0.828565       -22.5464
  16   2.0000      -0.732912       -19.9436
  17   2.0000      -0.719699       -19.5840
  18   2.0000      -0.677420       -18.4335
  19   2.0000      -0.654342       -17.8056
  20   2.0000      -0.636538       -17.3211
  21   2.0000      -0.603677       -16.4269
  22   2.0000      -0.579428       -15.7670
  23   2.0000      -0.567669       -15.4470
  24   2.0000      -0.559704       -15.2303
  25   2.0000      -0.532843       -14.4994
  26   2.0000      -0.507040       -13.7973
  27   2.0000      -0.462705       -12.5909
  28   2.0000      -0.451390       -12.2829
  29   2.0000      -0.425714       -11.5843
  30   2.0000      -0.388720       -10.5776
  31   2.0000      -0.387177       -10.5356
  32   2.0000      -0.370122       -10.0715
  33   0.0000       0.131786         3.5861
  34   0.0000       0.156131         4.2485
  35   0.0000       0.164142         4.4665
  36   0.0000       0.166961         4.5432
  37   0.0000       0.177807         4.8384

MULLIKEN ATOMIC CHARGES
-----------------------
   0 C :   -0.417488
   1 C :    0.181223
   2 C :   -0.412716
   3 C :   -0.025654
   4 C :   -0.146579
   5 C :   -0.191295
   6 N :   -0.236043
   7 C :   -0.164534
   8 C :   -0.125280
   9 H :    0.124314
  10 H :    0.154143
  11 H :    0.127925
  12 H :    0.168631
  13 H :    0.144866
  14 H :    0.189814
  15 H :    0.134670
  16 H :    0.117288
  17 H :    0.129688
  18 H :    0.121508
  19 H :    0.125519
Sum of atomic charges:   -0.0000000

LOEWDIN ATOMIC CHARGES
----------------------
   0 C :   -0.265068
   1 C :   -0.267538
   2 C :   -0.207113
   3 C :   -0.108537
   4 C :   -0.105415
   5 C :   -0.198374
   6 N :    0.096292
   7 C :   -0.251131
   8 C :   -0.186726
   9 H :    0.123505
  10 H :    0.133704
  11 H :    0.128485
  12 H :    0.167676
  13 H :    0.160576
  14 H :    0.126532
  15 H :    0.135102
  16 H :    0.125180
  17 H :    0.133370
  18 H :    0.124888
  19 H :    0.134592

  Mayer bond orders larger than 0.1
B(  0-C ,  1-C ) :   0.9271 B(  0-C ,  9-H ) :   0.9296 B(  0-C , 10-H ) :   0.9325
B(  0-C , 11-H ) :   0.9307 B(  1-C ,  2-C ) :   0.8665 B(  1-C ,  5-C ) :   0.9295
B(  1-C ,  8-C ) :   0.9138 B(  2-C ,  3-C ) :   1.1061 B(  2-C ,  4-C ) :  -0.1002
B(  2-C , 12-H ) :   0.9173 B(  2-C , 13-H ) :   0.9291 B(  3-C ,  4-C ) :   2.6094
B(  4-C , 14-H ) :   0.8977 B(  5-C ,  6-N ) :   0.9163 B(  5-C , 15-H ) :   0.9150
B(  5-C , 16-H ) :   0.9282 B(  6-N ,  7-C ) :   0.9032 B(  6-N ,  8-C ) :   0.8861
B(  7-C ,  8-C ) :   0.9442 B(  7-C , 17-H ) :   0.9290 B(  7-C , 18-H ) :   0.9068
B(  8-C , 19-H ) :   0.8971

MP2 TOTAL ENERGY:     -365.264820557 Eh
FINAL SINGLE POINT ENERGY      -365.264820556571

DIPOLE MOMENT
-------------
                                X             Y             Z
Electronic contribution:     -1.46333      -3.15812      -1.51794
Nuclear contribution   :      1.34901       3.75771       1.74309
                        -----------------------------------------
Total Dipole Moment    :     -0.11432       0.59959       0.22514
                        -----------------------------------------
Magnitude (a.u.)       :      0.65059
Magnitude (Debye)      :      1.65366

                             ****ORCA TERMINATED NORMALLY****
TOTAL RUN TIME: 0 days 0 hours 20 minutes 36 seconds 543 msec
