                         Program Version 3.0.3 - RELEASE   -
|  1> ! RI-MP2 RIJK def2-TZVP def2-TZVP/C def2-TZVP/JK TIGHTSCF
|  2> % maxcore 2000
|  3> % mp2 density relaxed end
|  4> *xyz 0 1
|  5>  C       -0.5979197273     0.2299215290     0.7766652885
|  6>  C        0.4699488517     0.4956839915    -0.2863854076
|  7>  N        0.7400141736    -0.7210360984    -1.0480036257
|  8>  C        1.8955175198    -1.1958815685    -1.0574478210
|  9>  O        3.0762611949    -0.7240660960    -0.4569523393
| 10>  C        3.8390240999    -1.7577051602    -1.1492734751
| 11>  C        5.1494303891    -1.3580123441    -1.7358717993
| 12>  C        3.3921761733    -3.0846945272    -0.6474931996
| 13>  C        2.5638135308    -2.3529660488    -1.7147556095
| 14>  H       -1.5026282803    -0.1792546709     0.3180653536
| 15>  H       -0.2385325215    -0.4917634217     1.5169001302
| 16>  H       -0.8587584256     1.1554672030     1.2997981560
| 17>  H        0.0934529812     1.2468785455    -0.9921040092
| 18>  H        1.3738894700     0.9085053665     0.1797175050
| 19>  H        5.8607222688    -1.0951307955    -0.9453142489
| 20>  H        5.5742819912    -2.1850445380    -2.3115563291
| 21>  H        5.0343723114    -0.4929045862    -2.3954083769
| 22>  H        3.9353501922    -3.9445464373    -1.0286165030
| 23>  H        3.0116213610    -3.1865842885     0.3640075510
| 24>  H        2.3282190556    -2.7791847143    -2.6789174802
| 25> *
| 26>
| 27>                          ****END OF INPUT****

CARTESIAN COORDINATES (ANGSTROEM)
---------------------------------
  C     -0.597920    0.229922    0.776665
  C      0.469949    0.495684   -0.286385
  N      0.740014   -0.721036   -1.048004
  C      1.895518   -1.195882   -1.057448
  O      3.076261   -0.724066   -0.456952
  C      3.839024   -1.757705   -1.149273
  C      5.149430   -1.358012   -1.735872
  C      3.392176   -3.084695   -0.647493
  C      2.563814   -2.352966   -1.714756
  H     -1.502628   -0.179255    0.318065
  H     -0.238533   -0.491763    1.516900
  H     -0.858758    1.155467    1.299798
  H      0.093453    1.246879   -0.992104
  H      1.373889    0.908505    0.179718
  H      5.860722   -1.095131   -0.945314
  H      5.574282   -2.185045   -2.311556
  H      5.034372   -0.492905   -2.395408
  H      3.935350   -3.944546   -1.028617
  H      3.011621   -3.186584    0.364008
  H      2.328219   -2.779185   -2.678917

 Total Charge           Charge          ....    0
 Multiplicity           Mult            ....    1
 Number of Electrons    NEL             ....   68
 Basis Dimension        Dim             ....  345

ORBITAL ENERGIES
----------------

  NO   OCC          E(Eh)            E(eV)
   0   2.0000     -20.582353      -560.0743
   1   2.0000     -15.535703      -422.7480
   2   2.0000     -11.331749      -308.3526
   3   2.0000     -11.314016      -307.8700
   4   2.0000     -11.253495      -306.2232
   5   2.0000     -11.252900      -306.2070
   6   2.0000     -11.242070      -305.9123
   7   2.0000     -11.239916      -305.8537
   8   2.0000     -11.204417      -304.8877
   9   2.0000      -1.430376       -38.9225
  10   2.0000      -1.214257       -33.0416
  11   2.0000      -1.141358       -31.0579
  12   2.0000      -1.018042       -27.7023
  13   2.0000      -0.995750       -27.0957
  14   2.0000      -0.896013       -24.3818
  15   2.0000      -0.833779       -22.6883
  16   2.0000      -0.785774       -21.3820
  17   2.0000      -0.733635       -19.9632
  18   2.0000      -0.689442       -18.7607
  19   2.0000      -0.669895       -18.2288
  20   2.0000      -0.648524       -17.6472
  21   2.0000      -0.607313       -16.5258
  22   2.0000      -0.593844       -16.1593
  23   2.0000      -0.574573       -15.6349
  24   2.0000      -0.562517       -15.3069
  25   2.0000      -0.554921       -15.1002
  26   2.0000      -0.535408       -14.5692
  27   2.0000      -0.514562       -14.0019
  28   2.0000      -0.510945       -13.9035
  29   2.0000      -0.486799       -13.2465
  30   2.0000      -0.466080       -12.6827
  31   2.0000      -0.402663       -10.9570
  32   2.0000      -0.400572       -10.9001
  33   2.0000      -0.373214       -10.1557
  34   0.0000       0.132868         3.6155
  35   0.0000       0.153056         4.1649
  36   0.0000       0.165616         4.5067
  37   0.0000       0.173849         4.7307
  38   0.0000       0.191354         5.2070

MULLIKEN ATOMIC CHARGES
-----------------------
   0 C :   -0.375274
   1 C :   -0.063546
   2 N :   -0.240360
   3 C :    0.141122
   4 O :   -0.303366
   5 C :    0.201011
   6 C :   -0.389617
   7 C :   -0.248905
   8 C :   -0.172323
   9 H :    0.128071
  10 H :    0.121932
  11 H :    0.120775
  12 H :    0.113101
  13 H :    0.111073
  14 H :    0.146990
  15 H :    0.133918
  16 H :    0.144003
  17 H :    0.135046
  18 H :    0.146022
  19 H :    0.150327
Sum of atomic charges:   -0.0000000

LOEWDIN ATOMIC CHARGES
----------------------
   0 C :   -0.318505
   1 C :   -0.309558
   2 N :    0.108531
   3 C :   -0.332355
   4 O :    0.230234
   5 C :   -0.277483
   6 C :   -0.264309
   7 C :   -0.166800
   8 C :   -0.128155
   9 H :    0.122483
  10 H :    0.119837
  11 H :    0.120271
  12 H :    0.131547
  13 H :    0.125033
  14 H :    0.136696
  15 H :    0.136891
  16 H :    0.135348
  17 H :    0.144539
  18 H :    0.139557
  19 H :    0.146201

  Mayer bond orders larger than 0.1
B(  0-C ,  1-C ) :   0.9311 B(  0-C ,  9-H ) :   0.9366 B(  0-C , 10-H ) :   0.9363
B(  0-C , 11-H ) :   0.9363 B(  1-C ,  2-N ) :   0.8295 B(  1-C , 12-H ) :   0.9289
B(  1-C , 13-H ) :   0.9218 B(  2-N ,  3-C ) :   2.0269 B(  3-C ,  4-O ) :   1.0097
B(  3-C ,  8-C ) :   0.9564 B(  4-O ,  5-C ) :   0.9076 B(  5-C ,  6-C ) :   0.9060
B(  5-C ,  7-C ) :   0.9045 B(  5-C ,  8-C ) :   0.8404 B(  6-C , 14-H ) :   0.9356
B(  6-C , 15-H ) :   0.9291 B(  6-C , 16-H ) :   0.9307 B(  7-C ,  8-C ) :   0.8487
B(  7-C , 17-H ) :   0.9227 B(  7-C , 18-H ) :   0.9029 B(  8-C , 19-H ) :   0.9107

MP2 TOTAL ENERGY:     -402.425044210 Eh
FINAL SINGLE POINT ENERGY      -402.425044210177

DIPOLE MOMENT
-------------
                                X             Y             Z
Electronic contribution:      1.29444      -1.69585      -2.06802
Nuclear contribution   :     -0.41341       1.28880       1.86819
                        -----------------------------------------
Total Dipole Moment    :      0.88103      -0.40706      -0.19983
                        -----------------------------------------
Magnitude (a.u.)       :      0.99087
Magnitude (Debye)      :      2.51860

                             ****ORCA TERMINATED NORMALLY****
TOTAL RUN TIME: 0 days 0 hours 16 minutes 18 seconds 796 msec
