                         Program Version 3.0.3 - RELEASE   -
|  1> ! RI-MP2 RIJK def2-TZVP def2-TZVP/C def2-TZVP/JK TIGHTSCF
|  2> % maxcore 2000
|  3> % mp2 density relaxed end
|  4> *xyz 0 1
|  5>  C       -0.3495471823     1.5351895502     0.0438541100
|  6>  C       -0.0117007409     0.0568652948     0.0731898381
|  7>  C        1.2900202601    -0.6170377339    -0.3282451652
|  8>  C        2.6089767137     0.1443381643    -0.4193595833
|  9>  C        2.7821792864     1.0185882572    -1.6655486634
| 10>  C        2.7230008688     0.9202781714     0.9191256137
| 11>  C        1.8154984758     0.1783707302     1.9303889458
| 12>  C        0.8234365182    -0.6575594067     1.1161418281
| 13>  C        0.2820301085    -1.9070551820     1.7736890552
| 14>  H        0.4445329823     2.1748160244     0.4296366659
| 15>  H       -0.5723796024     1.8651287587    -0.9773155543
| 16>  H       -1.2432269717     1.7283537889     0.6488729767
| 17>  H       -0.8692195851    -0.5421232677    -0.2320592929
| 18>  H        1.1978957934    -1.4999703336    -0.9557088209
| 19>  H        3.3999733449    -0.6189408268    -0.4369643941
| 20>  H        2.0174275387     1.8006806704    -1.7112261389
| 21>  H        3.7626062236     1.5080378589    -1.6712485954
| 22>  H        2.7041763441     0.4230448403    -2.5814502451
| 23>  H        3.7598215369     0.9726733582     1.2652073595
| 24>  H        2.3993049855     1.9560753109     0.7828159584
| 25>  H        2.4131815021    -0.5057976602     2.5448152523
| 26>  H        1.3221537421     0.8674030712     2.6263690008
| 27>  H       -0.3239734766    -1.6652781413     2.6558286231
| 28>  H       -0.3522295334    -2.4769132927     1.0869337637
| 29>  H        1.0933593373    -2.5670559252     2.1049421725
| 30> *
| 31>
| 32>                          ****END OF INPUT****

CARTESIAN COORDINATES (ANGSTROEM)
---------------------------------
  C     -0.349547    1.535190    0.043854
  C     -0.011701    0.056865    0.073190
  C      1.290020   -0.617038   -0.328245
  C      2.608977    0.144338   -0.419360
  C      2.782179    1.018588   -1.665549
  C      2.723001    0.920278    0.919126
  C      1.815498    0.178371    1.930389
  C      0.823437   -0.657559    1.116142
  C      0.282030   -1.907055    1.773689
  H      0.444533    2.174816    0.429637
  H     -0.572380    1.865129   -0.977316
  H     -1.243227    1.728354    0.648873
  H     -0.869220   -0.542123   -0.232059
  H      1.197896   -1.499970   -0.955709
  H      3.399973   -0.618941   -0.436964
  H      2.017428    1.800681   -1.711226
  H      3.762606    1.508038   -1.671249
  H      2.704176    0.423045   -2.581450
  H      3.759822    0.972673    1.265207
  H      2.399305    1.956075    0.782816
  H      2.413182   -0.505798    2.544815
  H      1.322154    0.867403    2.626369
  H     -0.323973   -1.665278    2.655829
  H     -0.352230   -2.476913    1.086934
  H      1.093359   -2.567056    2.104942

 Total Charge           Charge          ....    0
 Multiplicity           Mult            ....    1
 Number of Electrons    NEL             ....   70
 Basis Dimension        Dim             ....  375

ORBITAL ENERGIES
----------------

  NO   OCC          E(Eh)            E(eV)
   0   2.0000     -11.223190      -305.3985
   1   2.0000     -11.221608      -305.3555
   2   2.0000     -11.221397      -305.3497
   3   2.0000     -11.214749      -305.1688
   4   2.0000     -11.213860      -305.1446
   5   2.0000     -11.211975      -305.0933
   6   2.0000     -11.211314      -305.0754
   7   2.0000     -11.210711      -305.0589
   8   2.0000     -11.206844      -304.9537
   9   2.0000      -1.170553       -31.8524
  10   2.0000      -1.046939       -28.4887
  11   2.0000      -0.999736       -27.2042
  12   2.0000      -0.967953       -26.3393
  13   2.0000      -0.935327       -25.4515
  14   2.0000      -0.867419       -23.6037
  15   2.0000      -0.813012       -22.1232
  16   2.0000      -0.724759       -19.7217
  17   2.0000      -0.719130       -19.5685
  18   2.0000      -0.658800       -17.9268
  19   2.0000      -0.614873       -16.7315
  20   2.0000      -0.594948       -16.1893
  21   2.0000      -0.574439       -15.6313
  22   2.0000      -0.568830       -15.4787
  23   2.0000      -0.555595       -15.1185
  24   2.0000      -0.548612       -14.9285
  25   2.0000      -0.545425       -14.8418
  26   2.0000      -0.530045       -14.4232
  27   2.0000      -0.510932       -13.9032
  28   2.0000      -0.503548       -13.7022
  29   2.0000      -0.470989       -12.8162
  30   2.0000      -0.457683       -12.4542
  31   2.0000      -0.452646       -12.3171
  32   2.0000      -0.439471       -11.9586
  33   2.0000      -0.377798       -10.2804
  34   2.0000      -0.368985       -10.0406
  35   0.0000       0.131051         3.5661
  36   0.0000       0.151776         4.1300
  37   0.0000       0.158439         4.3113
  38   0.0000       0.170218         4.6319
  39   0.0000       0.186220         5.0673

MULLIKEN ATOMIC CHARGES
-----------------------
   0 C :   -0.405698
   1 C :   -0.169735
   2 C :   -0.081683
   3 C :   -0.059778
   4 C :   -0.409924
   5 C :   -0.282351
   6 C :   -0.245196
   7 C :    0.130326
   8 C :   -0.409073
   9 H :    0.127863
  10 H :    0.133954
  11 H :    0.133412
  12 H :    0.106147
  13 H :    0.115344
  14 H :    0.086271
  15 H :    0.125845
  16 H :    0.128651
  17 H :    0.127767
  18 H :    0.119557
  19 H :    0.119029
  20 H :    0.112989
  21 H :    0.117149
  22 H :    0.130553
  23 H :    0.124505
  24 H :    0.124076
Sum of atomic charges:    0.0000000

LOEWDIN ATOMIC CHARGES
----------------------
   0 C :   -0.295677
   1 C :   -0.191257
   2 C :   -0.147719
   3 C :   -0.249782
   4 C :   -0.293409
   5 C :   -0.226241
   6 C :   -0.207050
   7 C :   -0.229272
   8 C :   -0.272990
   9 H :    0.122762
  10 H :    0.124921
  11 H :    0.125970
  12 H :    0.154181
  13 H :    0.144631
  14 H :    0.154606
  15 H :    0.122669
  16 H :    0.122066
  17 H :    0.122602
  18 H :    0.132800
  19 H :    0.131139
  20 H :    0.141431
  21 H :    0.136930
  22 H :    0.126146
  23 H :    0.126339
  24 H :    0.124204

  Mayer bond orders larger than 0.1
B(  0-C ,  1-C ) :   0.8881 B(  0-C ,  9-H ) :   0.9409 B(  0-C , 10-H ) :   0.9394
B(  0-C , 11-H ) :   0.9357 B(  1-C ,  2-C ) :   0.8930 B(  1-C ,  7-C ) :   0.8819
B(  1-C , 12-H ) :   0.9339 B(  2-C ,  3-C ) :   0.9173 B(  2-C ,  7-C ) :   0.8130
B(  2-C , 13-H ) :   0.9241 B(  3-C ,  4-C ) :   0.9007 B(  3-C ,  5-C ) :   0.9314
B(  3-C , 14-H ) :   0.9308 B(  4-C , 15-H ) :   0.9349 B(  4-C , 16-H ) :   0.9395
B(  4-C , 17-H ) :   0.9400 B(  5-C ,  6-C ) :   0.9374 B(  5-C , 18-H ) :   0.9300
B(  5-C , 19-H ) :   0.9354 B(  6-C ,  7-C ) :   0.9305 B(  6-C , 20-H ) :   0.9262
B(  6-C , 21-H ) :   0.9296 B(  7-C ,  8-C ) :   0.8858 B(  8-C , 22-H ) :   0.9428
B(  8-C , 23-H ) :   0.9359 B(  8-C , 24-H ) :   0.9382

MP2 TOTAL ENERGY:     -351.722678957 Eh
FINAL SINGLE POINT ENERGY      -351.722678956786

DIPOLE MOMENT
-------------
                                X             Y             Z
Electronic contribution:      0.11963      -1.86025       0.47475
Nuclear contribution   :     -0.09449       1.81685      -0.44236
                        -----------------------------------------
Total Dipole Moment    :      0.02514      -0.04340       0.03239
                        -----------------------------------------
Magnitude (a.u.)       :      0.05970
Magnitude (Debye)      :      0.15175

                             ****ORCA TERMINATED NORMALLY****
TOTAL RUN TIME: 0 days 0 hours 23 minutes 51 seconds 439 msec
