                         Program Version 3.0.3 - RELEASE   -
|  1> ! RI-MP2 RIJK def2-TZVP def2-TZVP/C def2-TZVP/JK TIGHTSCF
|  2> % maxcore 2000
|  3> % mp2 density relaxed end
|  4> *xyz 0 1
|  5>  C        0.0011829659     1.5462149094    -0.1038128517
|  6>  C       -0.0996065850     0.0233126654    -0.2187093442
|  7>  C       -1.4641713305    -0.5256851269     0.2234953545
|  8>  C       -1.5424158091    -2.0359293575     0.1279251166
|  9>  C       -2.8616394356    -2.7949106496     0.1106908884
| 10>  C       -4.2059682102    -2.1041844045     0.2051901115
| 11>  C       -2.0280045591    -2.7130007007    -1.1395394417
| 12>  O       -2.5481173115    -1.9334709515    -2.1813128311
| 13>  H        0.9825433245     1.9093826723    -0.4249042357
| 14>  H       -0.7563167283     2.0411173837    -0.7218951114
| 15>  H       -0.1534268540     1.8745943883     0.9300730139
| 16>  H        0.0942682025    -0.2815275530    -1.2564333127
| 17>  H        0.6917367947    -0.4450101182     0.3813840174
| 18>  H       -1.6590074048    -0.2098648142     1.2575165493
| 19>  H       -2.2482558894    -0.0701575907    -0.3896476820
| 20>  H       -0.7264693298    -2.5453211534     0.6378490002
| 21>  H       -2.8313851380    -3.7598232698     0.6108493591
| 22>  H       -4.2610933301    -1.2344027508    -0.4509071969
| 23>  H       -5.0069578276    -2.7885906660    -0.0941541246
| 24>  H       -4.4130495753    -1.7790048117     1.2305941380
| 25>  H       -1.5144625043    -3.6155866235    -1.4712215481
| 26>  H       -1.8104603650    -1.5076273871    -2.6302813987
| 27> *
| 28>
| 29>                          ****END OF INPUT****

CARTESIAN COORDINATES (ANGSTROEM)
---------------------------------
  C      0.001183    1.546215   -0.103813
  C     -0.099607    0.023313   -0.218709
  C     -1.464171   -0.525685    0.223495
  C     -1.542416   -2.035929    0.127925
  C     -2.861639   -2.794911    0.110691
  C     -4.205968   -2.104184    0.205190
  C     -2.028005   -2.713001   -1.139539
  O     -2.548117   -1.933471   -2.181313
  H      0.982543    1.909383   -0.424904
  H     -0.756317    2.041117   -0.721895
  H     -0.153427    1.874594    0.930073
  H      0.094268   -0.281528   -1.256433
  H      0.691737   -0.445010    0.381384
  H     -1.659007   -0.209865    1.257517
  H     -2.248256   -0.070158   -0.389648
  H     -0.726469   -2.545321    0.637849
  H     -2.831385   -3.759823    0.610849
  H     -4.261093   -1.234403   -0.450907
  H     -5.006958   -2.788591   -0.094154
  H     -4.413050   -1.779005    1.230594
  H     -1.514463   -3.615587   -1.471222
  H     -1.810460   -1.507627   -2.630281

 Total Charge           Charge          ....    0
 Multiplicity           Mult            ....    1
 Number of Electrons    NEL             ....   64
 Basis Dimension        Dim             ....  332

ORBITAL ENERGIES
----------------

  NO   OCC          E(Eh)            E(eV)
   0   2.0000     -20.559318      -559.4475
   1   2.0000     -11.273693      -306.7728
   2   2.0000     -11.224329      -305.4295
   3   2.0000     -11.222886      -305.3903
   4   2.0000     -11.221182      -305.3439
   5   2.0000     -11.218038      -305.2583
   6   2.0000     -11.213288      -305.1291
   7   2.0000     -11.208138      -304.9889
   8   2.0000      -1.367834       -37.2207
   9   2.0000      -1.135573       -30.9005
  10   2.0000      -1.054217       -28.6867
  11   2.0000      -0.962499       -26.1909
  12   2.0000      -0.931781       -25.3551
  13   2.0000      -0.819761       -22.3068
  14   2.0000      -0.785064       -21.3627
  15   2.0000      -0.751527       -20.4501
  16   2.0000      -0.697923       -18.9915
  17   2.0000      -0.668523       -18.1914
  18   2.0000      -0.619837       -16.8666
  19   2.0000      -0.600920       -16.3519
  20   2.0000      -0.578612       -15.7448
  21   2.0000      -0.566227       -15.4078
  22   2.0000      -0.546974       -14.8839
  23   2.0000      -0.537558       -14.6277
  24   2.0000      -0.523372       -14.2417
  25   2.0000      -0.511630       -13.9222
  26   2.0000      -0.489878       -13.3303
  27   2.0000      -0.478985       -13.0339
  28   2.0000      -0.473339       -12.8802
  29   2.0000      -0.463079       -12.6010
  30   2.0000      -0.391347       -10.6491
  31   2.0000      -0.378689       -10.3047
  32   0.0000       0.125097         3.4041
  33   0.0000       0.152547         4.1510
  34   0.0000       0.158257         4.3064
  35   0.0000       0.163579         4.4512
  36   0.0000       0.184176         5.0117

MULLIKEN ATOMIC CHARGES
-----------------------
   0 C :   -0.382691
   1 C :   -0.188322
   2 C :   -0.272628
   3 C :   -0.103634
   4 C :   -0.046196
   5 C :   -0.415768
   6 C :   -0.006936
   7 O :   -0.474995
   8 H :    0.133279
   9 H :    0.123011
  10 H :    0.122887
  11 H :    0.088815
  12 H :    0.106489
  13 H :    0.114947
  14 H :    0.129660
  15 H :    0.112177
  16 H :    0.117558
  17 H :    0.150788
  18 H :    0.133357
  19 H :    0.127557
  20 H :    0.109640
  21 H :    0.321004
Sum of atomic charges:   -0.0000000

LOEWDIN ATOMIC CHARGES
----------------------
   0 C :   -0.321654
   1 C :   -0.293817
   2 C :   -0.253586
   3 C :   -0.205226
   4 C :   -0.217664
   5 C :   -0.292519
   6 C :   -0.303844
   7 O :   -0.002245
   8 H :    0.120105
   9 H :    0.120423
  10 H :    0.120851
  11 H :    0.129182
  12 H :    0.134447
  13 H :    0.140977
  14 H :    0.143281
  15 H :    0.148009
  16 H :    0.147393
  17 H :    0.128718
  18 H :    0.126822
  19 H :    0.124139
  20 H :    0.127335
  21 H :    0.178876

  Mayer bond orders larger than 0.1
B(  0-C ,  1-C ) :   0.9219 B(  0-C ,  8-H ) :   0.9433 B(  0-C ,  9-H ) :   0.9402
B(  0-C , 10-H ) :   0.9388 B(  1-C ,  2-C ) :   0.9314 B(  1-C , 11-H ) :   0.9355
B(  1-C , 12-H ) :   0.9337 B(  2-C ,  3-C ) :   0.9036 B(  2-C , 13-H ) :   0.9282
B(  2-C , 14-H ) :   0.9332 B(  3-C ,  4-C ) :   0.8579 B(  3-C ,  6-C ) :   0.8920
B(  3-C , 15-H ) :   0.9219 B(  4-C ,  5-C ) :   0.9153 B(  4-C ,  6-C ) :   0.8667
B(  4-C , 16-H ) :   0.9261 B(  5-C , 17-H ) :   0.9348 B(  5-C , 18-H ) :   0.9370
B(  5-C , 19-H ) :   0.9389 B(  6-C ,  7-O ) :   0.9933 B(  6-C , 20-H ) :   0.9549
B(  7-O , 21-H ) :   0.8440

MP2 TOTAL ENERGY:     -349.587946812 Eh
FINAL SINGLE POINT ENERGY      -349.587946811911

DIPOLE MOMENT
-------------
                                X             Y             Z
Electronic contribution:     -1.56982      -5.18583      -3.00025
Nuclear contribution   :      2.12007       5.23040       3.11996
                        -----------------------------------------
Total Dipole Moment    :      0.55025       0.04457       0.11970
                        -----------------------------------------
Magnitude (a.u.)       :      0.56488
Magnitude (Debye)      :      1.43581

                             ****ORCA TERMINATED NORMALLY****
TOTAL RUN TIME: 0 days 0 hours 14 minutes 41 seconds 717 msec
