                         Program Version 3.0.3 - RELEASE   -
|  1> ! RI-MP2 RIJK def2-TZVP def2-TZVP/C def2-TZVP/JK TIGHTSCF
|  2> % maxcore 2000
|  3> % mp2 density relaxed end
|  4> *xyz 0 1
|  5>  C        0.0126037059     1.4402046861     0.0054605589
|  6>  N       -0.0476209336    -0.0050754484     0.0061583965
|  7>  C       -0.0221306648    -0.7982615640    -1.1278249211
|  8>  C        0.0282598909    -2.1026358538    -0.7152051665
|  9>  C        0.0496457907    -3.5221084061    -1.2129901727
| 10>  C        0.0774792248    -4.3043418137     0.0946576703
| 11>  C        0.0681328083    -3.4883674234     1.1666601494
| 12>  C        0.0387090504    -2.1045468262     0.7127269543
| 13>  C       -0.0044729457    -0.7967978536     1.1366018356
| 14>  H        1.0453316015     1.8107135397     0.0130760132
| 15>  H       -0.4891096236     1.8288031668    -0.8843025871
| 16>  H       -0.5028515040     1.8311793444     0.8865072543
| 17>  H       -0.0433976515    -0.3410907350    -2.1049189507
| 18>  H       -0.8300265979    -3.7835384700    -1.8169875172
| 19>  H        0.9246636644    -3.7520040109    -1.8363911873
| 20>  H        0.1028629734    -5.3865316023     0.1244361266
| 21>  H        0.0825438282    -3.8085515551     2.2012430181
| 22>  H       -0.0100960772    -0.3462205245     2.1164432756
| 23> *
| 24>
| 25>                          ****END OF INPUT****

CARTESIAN COORDINATES (ANGSTROEM)
---------------------------------
  C      0.012604    1.440205    0.005461
  N     -0.047621   -0.005075    0.006158
  C     -0.022131   -0.798262   -1.127825
  C      0.028260   -2.102636   -0.715205
  C      0.049646   -3.522108   -1.212990
  C      0.077479   -4.304342    0.094658
  C      0.068133   -3.488367    1.166660
  C      0.038709   -2.104547    0.712727
  C     -0.004473   -0.796798    1.136602
  H      1.045332    1.810714    0.013076
  H     -0.489110    1.828803   -0.884303
  H     -0.502852    1.831179    0.886507
  H     -0.043398   -0.341091   -2.104919
  H     -0.830027   -3.783538   -1.816988
  H      0.924664   -3.752004   -1.836391
  H      0.102863   -5.386532    0.124436
  H      0.082544   -3.808552    2.201243
  H     -0.010096   -0.346221    2.116443

 Total Charge           Charge          ....    0
 Multiplicity           Mult            ....    1
 Number of Electrons    NEL             ....   64
 Basis Dimension        Dim             ....  333

ORBITAL ENERGIES
----------------

  NO   OCC          E(Eh)            E(eV)
   0   2.0000     -15.597363      -424.4258
   1   2.0000     -11.268524      -306.6321
   2   2.0000     -11.244691      -305.9836
   3   2.0000     -11.244430      -305.9765
   4   2.0000     -11.226731      -305.4949
   5   2.0000     -11.223699      -305.4124
   6   2.0000     -11.219767      -305.3054
   7   2.0000     -11.204110      -304.8793
   8   2.0000     -11.202866      -304.8455
   9   2.0000      -1.290659       -35.1206
  10   2.0000      -1.135630       -30.9021
  11   2.0000      -1.030220       -28.0337
  12   2.0000      -0.988100       -26.8876
  13   2.0000      -0.921012       -25.0620
  14   2.0000      -0.911190       -24.7948
  15   2.0000      -0.772653       -21.0249
  16   2.0000      -0.747851       -20.3501
  17   2.0000      -0.726377       -19.7657
  18   2.0000      -0.680700       -18.5228
  19   2.0000      -0.629798       -17.1377
  20   2.0000      -0.619045       -16.8451
  21   2.0000      -0.595771       -16.2118
  22   2.0000      -0.582682       -15.8556
  23   2.0000      -0.560813       -15.2605
  24   2.0000      -0.535335       -14.5672
  25   2.0000      -0.529023       -14.3955
  26   2.0000      -0.510100       -13.8805
  27   2.0000      -0.494674       -13.4608
  28   2.0000      -0.472587       -12.8597
  29   2.0000      -0.397338       -10.8121
  30   2.0000      -0.304064        -8.2740
  31   2.0000      -0.272483        -7.4146
  32   0.0000       0.138181         3.7601
  33   0.0000       0.139611         3.7990
  34   0.0000       0.159743         4.3468
  35   0.0000       0.161887         4.4052
  36   0.0000       0.178806         4.8656

MULLIKEN ATOMIC CHARGES
-----------------------
   0 C :   -0.324660
   1 N :    0.016196
   2 C :   -0.164058
   3 C :   -0.093862
   4 C :   -0.157212
   5 C :   -0.145950
   6 C :   -0.271233
   7 C :    0.073919
   8 C :   -0.153946
   9 H :    0.148443
  10 H :    0.147858
  11 H :    0.148292
  12 H :    0.141598
  13 H :    0.124682
  14 H :    0.124780
  15 H :    0.123567
  16 H :    0.120873
  17 H :    0.140712
Sum of atomic charges:   -0.0000000

LOEWDIN ATOMIC CHARGES
----------------------
   0 C :   -0.277611
   1 N :    0.228639
   2 C :   -0.200813
   3 C :   -0.137301
   4 C :   -0.201155
   5 C :   -0.149002
   6 C :   -0.124568
   7 C :   -0.152413
   8 C :   -0.196746
   9 H :    0.120378
  10 H :    0.125816
  11 H :    0.125809
  12 H :    0.133246
  13 H :    0.150622
  14 H :    0.150348
  15 H :    0.132037
  16 H :    0.139275
  17 H :    0.133439

  Mayer bond orders larger than 0.1
B(  0-C ,  1-N ) :   0.8701 B(  0-C ,  9-H ) :   0.9252 B(  0-C , 10-H ) :   0.9337
B(  0-C , 11-H ) :   0.9334 B(  1-N ,  2-C ) :   1.1549 B(  1-N ,  8-C ) :   1.1495
B(  2-C ,  3-C ) :   1.4419 B(  2-C , 12-H ) :   0.8918 B(  3-C ,  4-C ) :   1.0174
B(  3-C ,  7-C ) :   1.2208 B(  4-C ,  5-C ) :   0.9660 B(  4-C , 13-H ) :   0.8857
B(  4-C , 14-H ) :   0.8918 B(  5-C ,  6-C ) :   1.7232 B(  5-C , 15-H ) :   0.9331
B(  6-C ,  7-C ) :   1.0250 B(  6-C , 16-H ) :   0.9290 B(  7-C ,  8-C ) :   1.4013
B(  8-C , 17-H ) :   0.8962

MP2 TOTAL ENERGY:     -364.179012794 Eh
FINAL SINGLE POINT ENERGY      -364.179012793714

DIPOLE MOMENT
-------------
                                X             Y             Z
Electronic contribution:     -0.08495      -2.18904       1.05956
Nuclear contribution   :      0.07825       3.00058      -1.18475
                        -----------------------------------------
Total Dipole Moment    :     -0.00670       0.81155      -0.12519
                        -----------------------------------------
Magnitude (a.u.)       :      0.82117
Magnitude (Debye)      :      2.08725

                             ****ORCA TERMINATED NORMALLY****
TOTAL RUN TIME: 0 days 0 hours 18 minutes 10 seconds 87 msec
