                         Program Version 3.0.3 - RELEASE   -
|  1> ! RI-MP2 RIJK def2-TZVP def2-TZVP/C def2-TZVP/JK TIGHTSCF
|  2> % maxcore 2000
|  3> % mp2 density relaxed end
|  4> *xyz 0 1
|  5>  O       -0.1587636087     0.0294499291    -0.2436688469
|  6>  C       -0.1162264362     1.1951305641     0.0877517297
|  7>  C        1.1103524597     1.9677727876     0.0741625171
|  8>  C        2.1599966125     2.5714813242     0.0238186896
|  9>  C        3.3325775510     3.2543307575    -0.0309861955
| 10>  C        4.3745615371     3.8627369614    -0.0799346717
| 11>  N       -1.2091132168     1.8981048247     0.5822229447
| 12>  C       -1.7875676645     3.0770519795    -0.0384573112
| 13>  C       -2.5328820286     1.7745720455     0.0179169948
| 14>  H        5.2919488895     4.3965465471    -0.1216633060
| 15>  H       -2.0507294086     3.8858672278     0.6366858510
| 16>  H       -1.3855328628     3.3882608550    -0.9990747305
| 17>  H       -2.6242782782     1.1946287356    -0.8962411205
| 18>  H       -3.3409011054     1.6477828210     0.7321746553
| 19> *
| 20>
| 21>                          ****END OF INPUT****

CARTESIAN COORDINATES (ANGSTROEM)
---------------------------------
  O     -0.158764    0.029450   -0.243669
  C     -0.116226    1.195131    0.087752
  C      1.110352    1.967773    0.074163
  C      2.159997    2.571481    0.023819
  C      3.332578    3.254331   -0.030986
  C      4.374562    3.862737   -0.079935
  N     -1.209113    1.898105    0.582223
  C     -1.787568    3.077052   -0.038457
  C     -2.532882    1.774572    0.017917
  H      5.291949    4.396547   -0.121663
  H     -2.050729    3.885867    0.636686
  H     -1.385533    3.388261   -0.999075
  H     -2.624278    1.194629   -0.896241
  H     -3.340901    1.647783    0.732175

 Total Charge           Charge          ....    0
 Multiplicity           Mult            ....    1
 Number of Electrons    NEL             ....   62
 Basis Dimension        Dim             ....  309

ORBITAL ENERGIES
----------------

  NO   OCC          E(Eh)            E(eV)
   0   2.0000     -20.553573      -559.2912
   1   2.0000     -15.599112      -424.4734
   2   2.0000     -11.389523      -309.9247
   3   2.0000     -11.291150      -307.2478
   4   2.0000     -11.285371      -307.0906
   5   2.0000     -11.284809      -307.0753
   6   2.0000     -11.275716      -306.8278
   7   2.0000     -11.271121      -306.7028
   8   2.0000     -11.270840      -306.6951
   9   2.0000      -1.413424       -38.4612
  10   2.0000      -1.305772       -35.5319
  11   2.0000      -1.111040       -30.2329
  12   2.0000      -1.051664       -28.6172
  13   2.0000      -1.000333       -27.2204
  14   2.0000      -0.891137       -24.2491
  15   2.0000      -0.867118       -23.5955
  16   2.0000      -0.812302       -22.1039
  17   2.0000      -0.743696       -20.2370
  18   2.0000      -0.727091       -19.7851
  19   2.0000      -0.696978       -18.9657
  20   2.0000      -0.668339       -18.1864
  21   2.0000      -0.576602       -15.6901
  22   2.0000      -0.556482       -15.1426
  23   2.0000      -0.530833       -14.4447
  24   2.0000      -0.524049       -14.2601
  25   2.0000      -0.501933       -13.6583
  26   2.0000      -0.496740       -13.5170
  27   2.0000      -0.460644       -12.5348
  28   2.0000      -0.411531       -11.1983
  29   2.0000      -0.378882       -10.3099
  30   2.0000      -0.377375       -10.2689
  31   0.0000       0.057112         1.5541
  32   0.0000       0.098465         2.6794
  33   0.0000       0.139803         3.8042
  34   0.0000       0.149653         4.0723
  35   0.0000       0.166554         4.5322

MULLIKEN ATOMIC CHARGES
-----------------------
   0 O :   -0.278977
   1 C :    0.188046
   2 C :   -0.048869
   3 C :    0.001755
   4 C :   -0.009744
   5 C :   -0.128737
   6 N :   -0.181800
   7 C :   -0.170381
   8 C :   -0.157510
   9 H :    0.201291
  10 H :    0.141233
  11 H :    0.149765
  12 H :    0.149809
  13 H :    0.144117
Sum of atomic charges:    0.0000000

LOEWDIN ATOMIC CHARGES
----------------------
   0 O :    0.155065
   1 C :   -0.430560
   2 C :    0.030989
   3 C :   -0.027422
   4 C :   -0.088942
   5 C :   -0.023894
   6 N :    0.179035
   7 C :   -0.226171
   8 C :   -0.227333
   9 H :    0.133349
  10 H :    0.129520
  11 H :    0.131813
  12 H :    0.133266
  13 H :    0.131286

  Mayer bond orders larger than 0.1
B(  0-O ,  1-C ) :   2.0177 B(  1-C ,  2-C ) :   0.9145 B(  1-C ,  6-N ) :   1.0821
B(  2-C ,  3-C ) :   2.6041 B(  2-C ,  5-C ) :   0.1225 B(  3-C ,  4-C ) :   1.3133
B(  4-C ,  5-C ) :   2.5458 B(  5-C ,  9-H ) :   0.8827 B(  6-N ,  7-C ) :   0.8488
B(  6-N ,  8-C ) :   0.8678 B(  7-C ,  8-C ) :   0.9297 B(  7-C , 10-H ) :   0.9251
B(  7-C , 11-H ) :   0.9209 B(  8-C , 12-H ) :   0.9268 B(  8-C , 13-H ) :   0.9224

MP2 TOTAL ENERGY:     -398.762217746 Eh
FINAL SINGLE POINT ENERGY      -398.762217746312

DIPOLE MOMENT
-------------
                                X             Y             Z
Electronic contribution:      5.74680      -2.23197       0.60005
Nuclear contribution   :     -6.03738       3.56871      -0.77674
                        -----------------------------------------
Total Dipole Moment    :     -0.29058       1.33673      -0.17669
                        -----------------------------------------
Magnitude (a.u.)       :      1.37931
Magnitude (Debye)      :      3.50594

                             ****ORCA TERMINATED NORMALLY****
TOTAL RUN TIME: 0 days 0 hours 13 minutes 5 seconds 110 msec
