                         Program Version 3.0.3 - RELEASE   -
|  1> ! RI-MP2 RIJK def2-TZVP def2-TZVP/C def2-TZVP/JK TIGHTSCF
|  2> % maxcore 2000
|  3> % mp2 density relaxed end
|  4> *xyz 0 1
|  5>  O        0.2992777040     0.9457042723     0.5474757431
|  6>  C       -0.1621352041     0.2254523545    -0.5828228594
|  7>  C       -1.4700824940    -0.4887045964    -0.3304472804
|  8>  C       -1.9114088543    -1.6425973505    -1.2291095018
|  9>  C       -1.4857966608    -1.8932126640     0.1726638599
| 10>  C       -0.3948783450    -2.7885961823     0.7537581785
| 11>  C       -1.4728487117    -3.1481894378     1.7589960717
| 12>  N       -1.5373594320    -3.9006312668     2.7576529527
| 13>  O       -2.4273325374    -2.3243950961     1.1858902904
| 14>  H        0.3558726037     0.3332570531     1.2880159106
| 15>  H       -0.2874219503     0.9703350120    -1.3758675286
| 16>  H        0.5906609440    -0.4982008606    -0.9384691751
| 17>  H       -2.2685128160     0.1473895077     0.0425304713
| 18>  H       -2.9684378019    -1.7219020265    -1.4568260632
| 19>  H       -1.2472877647    -1.9594913281    -2.0279883557
| 20>  H       -0.0683086724    -3.6174282781     0.1230440603
| 21>  H        0.4795054276    -2.2891996853     1.1769991607
| 22>  H       -2.4639111948    -3.8722990869     3.1865062650
| 23> *
| 24>
| 25>                          ****END OF INPUT****

CARTESIAN COORDINATES (ANGSTROEM)
---------------------------------
  O      0.299278    0.945704    0.547476
  C     -0.162135    0.225452   -0.582823
  C     -1.470082   -0.488705   -0.330447
  C     -1.911409   -1.642597   -1.229110
  C     -1.485797   -1.893213    0.172664
  C     -0.394878   -2.788596    0.753758
  C     -1.472849   -3.148189    1.758996
  N     -1.537359   -3.900631    2.757653
  O     -2.427333   -2.324395    1.185890
  H      0.355873    0.333257    1.288016
  H     -0.287422    0.970335   -1.375868
  H      0.590661   -0.498201   -0.938469
  H     -2.268513    0.147390    0.042530
  H     -2.968438   -1.721902   -1.456826
  H     -1.247288   -1.959491   -2.027988
  H     -0.068309   -3.617428    0.123044
  H      0.479505   -2.289200    1.176999
  H     -2.463911   -3.872299    3.186506

 Total Charge           Charge          ....    0
 Multiplicity           Mult            ....    1
 Number of Electrons    NEL             ....   68
 Basis Dimension        Dim             ....  333

ORBITAL ENERGIES
----------------

  NO   OCC          E(Eh)            E(eV)
   0   2.0000     -20.600397      -560.5653
   1   2.0000     -20.566823      -559.6517
   2   2.0000     -15.543990      -422.9735
   3   2.0000     -11.349049      -308.8233
   4   2.0000     -11.319059      -308.0072
   5   2.0000     -11.293233      -307.3045
   6   2.0000     -11.264618      -306.5259
   7   2.0000     -11.251819      -306.1776
   8   2.0000     -11.249404      -306.1119
   9   2.0000      -1.445425       -39.3320
  10   2.0000      -1.371924       -37.3319
  11   2.0000      -1.208068       -32.8732
  12   2.0000      -1.162529       -31.6340
  13   2.0000      -1.033715       -28.1288
  14   2.0000      -0.958945       -26.0942
  15   2.0000      -0.837777       -22.7971
  16   2.0000      -0.801588       -21.8123
  17   2.0000      -0.752505       -20.4767
  18   2.0000      -0.727274       -19.7901
  19   2.0000      -0.706807       -19.2332
  20   2.0000      -0.686108       -18.6700
  21   2.0000      -0.666905       -18.1474
  22   2.0000      -0.632445       -17.2097
  23   2.0000      -0.618061       -16.8183
  24   2.0000      -0.575949       -15.6724
  25   2.0000      -0.567062       -15.4305
  26   2.0000      -0.553925       -15.0731
  27   2.0000      -0.522749       -14.2247
  28   2.0000      -0.513081       -13.9616
  29   2.0000      -0.469639       -12.7795
  30   2.0000      -0.460596       -12.5335
  31   2.0000      -0.444028       -12.0826
  32   2.0000      -0.433904       -11.8071
  33   2.0000      -0.390068       -10.6143
  34   0.0000       0.118563         3.2263
  35   0.0000       0.139771         3.8034
  36   0.0000       0.155546         4.2326
  37   0.0000       0.165615         4.5066
  38   0.0000       0.172348         4.6898

MULLIKEN ATOMIC CHARGES
-----------------------
   0 O :   -0.461477
   1 C :   -0.045135
   2 C :   -0.164192
   3 C :   -0.297676
   4 C :    0.173689
   5 C :   -0.204580
   6 C :    0.130575
   7 N :   -0.355368
   8 O :   -0.259266
   9 H :    0.314758
  10 H :    0.126166
  11 H :    0.102795
  12 H :    0.141363
  13 H :    0.150018
  14 H :    0.138170
  15 H :    0.143424
  16 H :    0.134075
  17 H :    0.232662
Sum of atomic charges:   -0.0000000

LOEWDIN ATOMIC CHARGES
----------------------
   0 O :   -0.041887
   1 C :   -0.326987
   2 C :   -0.199385
   3 C :   -0.177129
   4 C :   -0.264497
   5 C :   -0.159346
   6 C :   -0.384700
   7 N :   -0.051724
   8 O :    0.256752
   9 H :    0.173156
  10 H :    0.135362
  11 H :    0.122101
  12 H :    0.160401
  13 H :    0.145022
  14 H :    0.140746
  15 H :    0.151441
  16 H :    0.145543
  17 H :    0.175133

  Mayer bond orders larger than 0.1
B(  0-O ,  1-C ) :   0.9280 B(  0-O ,  9-H ) :   0.8469 B(  1-C ,  2-C ) :   0.9176
B(  1-C , 10-H ) :   0.9294 B(  1-C , 11-H ) :   0.9219 B(  2-C ,  3-C ) :   0.8841
B(  2-C ,  4-C ) :   0.8412 B(  2-C , 12-H ) :   0.9173 B(  3-C ,  4-C ) :   0.8664
B(  3-C , 13-H ) :   0.9152 B(  3-C , 14-H ) :   0.9119 B(  4-C ,  5-C ) :   0.9279
B(  4-C ,  8-O ) :   0.9280 B(  5-C ,  6-C ) :   0.9375 B(  5-C , 15-H ) :   0.8976
B(  5-C , 16-H ) :   0.9084 B(  6-C ,  7-N ) :   2.1008 B(  6-C ,  8-O ) :   1.0477
B(  7-N , 17-H ) :   0.8455

MP2 TOTAL ENERGY:     -438.335176996 Eh
FINAL SINGLE POINT ENERGY      -438.335176996189

DIPOLE MOMENT
-------------
                                X             Y             Z
Electronic contribution:     -2.36761      -2.01617       3.95980
Nuclear contribution   :      2.32964       1.97711      -4.80370
                        -----------------------------------------
Total Dipole Moment    :     -0.03797      -0.03907      -0.84391
                        -----------------------------------------
Magnitude (a.u.)       :      0.84566
Magnitude (Debye)      :      2.14950

                             ****ORCA TERMINATED NORMALLY****
TOTAL RUN TIME: 0 days 0 hours 24 minutes 47 seconds 323 msec
