                         Program Version 3.0.3 - RELEASE   -
|  1> ! RI-MP2 RIJK def2-TZVP def2-TZVP/C def2-TZVP/JK TIGHTSCF
|  2> % maxcore 2000
|  3> % mp2 density relaxed end
|  4> *xyz 0 1
|  5>  O        0.0154802698    -0.0340403357    -0.2825352693
|  6>  C       -0.0546018508     1.1295042785    -0.0642010326
|  7>  C       -1.2532117850     2.1597070767     0.2072307844
|  8>  N       -0.2227309043     2.8991907749     0.9680290848
|  9>  C        0.5983963037     4.1646677041     0.9689554204
| 10>  C        1.8287210595     3.1712908061     1.1209052179
| 11>  C        0.8793670381     2.3498183652     0.1827859445
| 12>  C        0.9727265908     3.2240432473    -1.1377970860
| 13>  C        0.6981074394     4.6128489874    -0.5019323709
| 14>  H       -1.6354656125     2.5906719998    -0.7281792471
| 15>  H       -2.0861951829     1.8002988683     0.8156299073
| 16>  H        0.3644001306     4.9051457031     1.7334678870
| 17>  H        2.7962311895     3.5033360002     0.7379748782
| 18>  H        1.8980871162     2.7555220625     2.1241055653
| 19>  H        1.9639433803     3.1337175728    -1.5872219561
| 20>  H        0.2400085268     2.9440889697    -1.8972872911
| 21>  H       -0.2318064962     5.0688109291    -0.8517091684
| 22>  H        1.5071037671     5.3302378900    -0.6631468984
| 23> *
| 24>
| 25>                          ****END OF INPUT****

CARTESIAN COORDINATES (ANGSTROEM)
---------------------------------
  O      0.015480   -0.034040   -0.282535
  C     -0.054602    1.129504   -0.064201
  C     -1.253212    2.159707    0.207231
  N     -0.222731    2.899191    0.968029
  C      0.598396    4.164668    0.968955
  C      1.828721    3.171291    1.120905
  C      0.879367    2.349818    0.182786
  C      0.972727    3.224043   -1.137797
  C      0.698107    4.612849   -0.501932
  H     -1.635466    2.590672   -0.728179
  H     -2.086195    1.800299    0.815630
  H      0.364400    4.905146    1.733468
  H      2.796231    3.503336    0.737975
  H      1.898087    2.755522    2.124106
  H      1.963943    3.133718   -1.587222
  H      0.240009    2.944089   -1.897287
  H     -0.231806    5.068811   -0.851709
  H      1.507104    5.330238   -0.663147

 Total Charge           Charge          ....    0
 Multiplicity           Mult            ....    1
 Number of Electrons    NEL             ....   66
 Basis Dimension        Dim             ....  333

ORBITAL ENERGIES
----------------

  NO   OCC          E(Eh)            E(eV)
   0   2.0000     -20.561975      -559.5198
   1   2.0000     -15.552872      -423.2152
   2   2.0000     -11.349311      -308.8305
   3   2.0000     -11.287672      -307.1532
   4   2.0000     -11.281855      -306.9949
   5   2.0000     -11.279221      -306.9232
   6   2.0000     -11.250567      -306.1435
   7   2.0000     -11.237658      -305.7922
   8   2.0000     -11.236967      -305.7734
   9   2.0000      -1.409698       -38.3598
  10   2.0000      -1.305037       -35.5119
  11   2.0000      -1.095012       -29.7968
  12   2.0000      -1.008738       -27.4491
  13   2.0000      -0.961239       -26.1566
  14   2.0000      -0.887959       -24.1626
  15   2.0000      -0.828320       -22.5397
  16   2.0000      -0.776573       -21.1316
  17   2.0000      -0.723928       -19.6991
  18   2.0000      -0.682418       -18.5695
  19   2.0000      -0.659978       -17.9589
  20   2.0000      -0.647902       -17.6303
  21   2.0000      -0.640670       -17.4335
  22   2.0000      -0.593589       -16.1524
  23   2.0000      -0.570312       -15.5190
  24   2.0000      -0.536387       -14.5958
  25   2.0000      -0.533709       -14.5230
  26   2.0000      -0.518880       -14.1194
  27   2.0000      -0.497598       -13.5403
  28   2.0000      -0.490214       -13.3394
  29   2.0000      -0.457674       -12.4539
  30   2.0000      -0.444213       -12.0876
  31   2.0000      -0.397508       -10.8167
  32   2.0000      -0.364089        -9.9074
  33   0.0000       0.130605         3.5539
  34   0.0000       0.146995         3.9999
  35   0.0000       0.149425         4.0661
  36   0.0000       0.158575         4.3150
  37   0.0000       0.176333         4.7983

MULLIKEN ATOMIC CHARGES
-----------------------
   0 O :   -0.213948
   1 C :    0.089296
   2 C :   -0.171523
   3 N :   -0.222079
   4 C :   -0.007663
   5 C :   -0.199773
   6 C :    0.103349
   7 C :   -0.263244
   8 C :   -0.278854
   9 H :    0.122320
  10 H :    0.138037
  11 H :    0.130250
  12 H :    0.122254
  13 H :    0.130802
  14 H :    0.138363
  15 H :    0.129094
  16 H :    0.127554
  17 H :    0.125766
Sum of atomic charges:   -0.0000000

LOEWDIN ATOMIC CHARGES
----------------------
   0 O :    0.183380
   1 C :   -0.259551
   2 C :   -0.228243
   3 N :    0.171971
   4 C :   -0.211970
   5 C :   -0.170147
   6 C :   -0.236699
   7 C :   -0.206916
   8 C :   -0.239800
   9 H :    0.125070
  10 H :    0.127002
  11 H :    0.132060
  12 H :    0.128086
  13 H :    0.140032
  14 H :    0.137680
  15 H :    0.134446
  16 H :    0.135055
  17 H :    0.138543

  Mayer bond orders larger than 0.1
B(  0-O ,  1-C ) :   2.0942 B(  1-C ,  2-C ) :   0.9123 B(  1-C ,  6-C ) :   0.7580
B(  2-C ,  3-N ) :   0.9004 B(  2-C ,  6-C ) :  -0.1025 B(  2-C ,  9-H ) :   0.8952
B(  2-C , 10-H ) :   0.9127 B(  3-N ,  4-C ) :   0.8920 B(  3-N ,  6-C ) :   0.8960
B(  4-C ,  5-C ) :   0.9325 B(  4-C ,  8-C ) :   0.9120 B(  4-C , 11-H ) :   0.9144
B(  5-C ,  6-C ) :   0.8763 B(  5-C , 12-H ) :   0.9087 B(  5-C , 13-H ) :   0.9062
B(  6-C ,  7-C ) :   0.8684 B(  7-C ,  8-C ) :   0.9530 B(  7-C , 14-H ) :   0.9307
B(  7-C , 15-H ) :   0.9177 B(  8-C , 16-H ) :   0.9275 B(  8-C , 17-H ) :   0.9167

MP2 TOTAL ENERGY:     -401.180770558 Eh
FINAL SINGLE POINT ENERGY      -401.180770558093

DIPOLE MOMENT
-------------
                                X             Y             Z
Electronic contribution:     -1.27213      -6.66289       1.37308
Nuclear contribution   :      1.35225       7.91511      -1.53546
                        -----------------------------------------
Total Dipole Moment    :      0.08012       1.25222      -0.16238
                        -----------------------------------------
Magnitude (a.u.)       :      1.26524
Magnitude (Debye)      :      3.21599

                             ****ORCA TERMINATED NORMALLY****
TOTAL RUN TIME: 0 days 0 hours 20 minutes 22 seconds 711 msec
