                         Program Version 3.0.3 - RELEASE   -
|  1> ! RI-MP2 RIJK def2-TZVP def2-TZVP/C def2-TZVP/JK TIGHTSCF
|  2> % maxcore 2000
|  3> % mp2 density relaxed end
|  4> *xyz 0 1
|  5>  C       -0.0716160293     1.5052076889    -0.0127675118
|  6>  C       -0.0164494403     0.0050664878    -0.0092103911
|  7>  N       -0.0117908353    -0.6083346448    -1.1570430908
|  8>  C        0.0208841466    -1.9861572575    -1.2271378486
|  9>  O        0.0361333736    -2.6393494673    -2.2286758146
| 10>  O        0.0322539169    -2.6958151351    -0.0014876831
| 11>  C        0.0584162670    -2.0447975887     1.1679132983
| 12>  C        0.0280240524    -0.6954738482     1.2555832147
| 13>  N       -0.0635268812     0.0144880088     2.4689766211
| 14>  H        0.8568263550     1.9283435179     0.3927375680
| 15>  H       -0.2035175684     1.8651421177    -1.0324902980
| 16>  H       -0.8879415582     1.8583015397     0.6260126524
| 17>  H        0.0835999966    -2.7176060016     2.0196184543
| 18>  H        0.0285673577    -0.5856718073     3.2795947665
| 19>  H        0.6081641871     0.7696274495     2.5411537327
| 20> *
| 21>
| 22>                          ****END OF INPUT****

CARTESIAN COORDINATES (ANGSTROEM)
---------------------------------
  C     -0.071616    1.505208   -0.012768
  C     -0.016449    0.005066   -0.009210
  N     -0.011791   -0.608335   -1.157043
  C      0.020884   -1.986157   -1.227138
  O      0.036133   -2.639349   -2.228676
  O      0.032254   -2.695815   -0.001488
  C      0.058416   -2.044798    1.167913
  C      0.028024   -0.695474    1.255583
  N     -0.063527    0.014488    2.468977
  H      0.856826    1.928344    0.392738
  H     -0.203518    1.865142   -1.032490
  H     -0.887942    1.858302    0.626013
  H      0.083600   -2.717606    2.019618
  H      0.028567   -0.585672    3.279595
  H      0.608164    0.769627    2.541154

 Total Charge           Charge          ....    0
 Multiplicity           Mult            ....    1
 Number of Electrons    NEL             ....   66
 Basis Dimension        Dim             ....  315

ORBITAL ENERGIES
----------------

  NO   OCC          E(Eh)            E(eV)
   0   2.0000     -20.633805      -561.4744
   1   2.0000     -20.530644      -558.6672
   2   2.0000     -15.592334      -424.2890
   3   2.0000     -15.575422      -423.8288
   4   2.0000     -11.405190      -310.3510
   5   2.0000     -11.339978      -308.5765
   6   2.0000     -11.337712      -308.5148
   7   2.0000     -11.295469      -307.3653
   8   2.0000     -11.252871      -306.2062
   9   2.0000      -1.483166       -40.3590
  10   2.0000      -1.377328       -37.4790
  11   2.0000      -1.272290       -34.6208
  12   2.0000      -1.233264       -33.5588
  13   2.0000      -1.060039       -28.8451
  14   2.0000      -1.024872       -27.8882
  15   2.0000      -0.908848       -24.7310
  16   2.0000      -0.865970       -23.5642
  17   2.0000      -0.782661       -21.2973
  18   2.0000      -0.731344       -19.9009
  19   2.0000      -0.691588       -18.8191
  20   2.0000      -0.672165       -18.2905
  21   2.0000      -0.665980       -18.1222
  22   2.0000      -0.635216       -17.2851
  23   2.0000      -0.612850       -16.6765
  24   2.0000      -0.607221       -16.5233
  25   2.0000      -0.586632       -15.9631
  26   2.0000      -0.568833       -15.4787
  27   2.0000      -0.536317       -14.5939
  28   2.0000      -0.515219       -14.0198
  29   2.0000      -0.468846       -12.7579
  30   2.0000      -0.451748       -12.2927
  31   2.0000      -0.434273       -11.8172
  32   2.0000      -0.335985        -9.1426
  33   0.0000       0.062190         1.6923
  34   0.0000       0.105204         2.8627
  35   0.0000       0.136338         3.7099
  36   0.0000       0.160888         4.3780
  37   0.0000       0.164888         4.4868

MULLIKEN ATOMIC CHARGES
-----------------------
   0 C :   -0.460746
   1 C :    0.148288
   2 N :   -0.236792
   3 C :    0.293277
   4 O :   -0.272678
   5 O :   -0.177820
   6 C :   -0.005045
   7 C :    0.096925
   8 N :   -0.514758
   9 H :    0.144844
  10 H :    0.171021
  11 H :    0.173011
  12 H :    0.140253
  13 H :    0.239825
  14 H :    0.260396
Sum of atomic charges:   -0.0000000

LOEWDIN ATOMIC CHARGES
----------------------
   0 C :   -0.256058
   1 C :   -0.202008
   2 N :    0.167766
   3 C :   -0.513133
   4 O :    0.139009
   5 O :    0.317576
   6 C :   -0.211103
   7 C :   -0.262091
   8 N :   -0.081695
   9 H :    0.136626
  10 H :    0.141003
  11 H :    0.142444
  12 H :    0.142283
  13 H :    0.169111
  14 H :    0.170270

  Mayer bond orders larger than 0.1
B(  0-C ,  1-C ) :   0.8831 B(  0-C ,  9-H ) :   0.9241 B(  0-C , 10-H ) :   0.9368
B(  0-C , 11-H ) :   0.9224 B(  1-C ,  2-N ) :   1.6437 B(  1-C ,  7-C ) :   1.0646
B(  2-N ,  3-C ) :   1.1301 B(  3-C ,  4-O ) :   2.0483 B(  3-C ,  5-O ) :   0.9539
B(  5-O ,  6-C ) :   1.0985 B(  6-C ,  7-C ) :   1.5457 B(  6-C , 12-H ) :   0.9538
B(  7-C ,  8-N ) :   0.9826 B(  8-N , 13-H ) :   0.8834 B(  8-N , 14-H ) :   0.8643

MP2 TOTAL ENERGY:     -453.248198829 Eh
FINAL SINGLE POINT ENERGY      -453.248198828570

DIPOLE MOMENT
-------------
                                X             Y             Z
Electronic contribution:     -0.02077      -7.50513      -4.71948
Nuclear contribution   :      0.42210       8.64980       7.10613
                        -----------------------------------------
Total Dipole Moment    :      0.40133       1.14467       2.38665
                        -----------------------------------------
Magnitude (a.u.)       :      2.67721
Magnitude (Debye)      :      6.80492

                             ****ORCA TERMINATED NORMALLY****
TOTAL RUN TIME: 0 days 0 hours 14 minutes 56 seconds 409 msec
