                         Program Version 3.0.3 - RELEASE   -
|  1> ! RI-MP2 RIJK def2-TZVP def2-TZVP/C def2-TZVP/JK TIGHTSCF
|  2> % maxcore 2000
|  3> % mp2 density relaxed end
|  4> *xyz 0 1
|  5>  C       -0.0825403584     1.4348284824    -0.0619610473
|  6>  C       -0.0192241881    -0.0463137915     0.1175142505
|  7>  C       -0.9839242754    -0.9347860213     0.3400232451
|  8>  C       -2.3993448743    -1.2794669585    -0.0782969585
|  9>  C       -1.7368271995    -2.5061248495    -0.8169446417
| 10>  C       -0.4838783905    -2.3219733606     0.1190434677
| 11>  O        0.8448812410    -2.2054941195    -0.3530021777
| 12>  C        1.2605795407    -0.8494524092    -0.1146255842
| 13>  H        0.5044459747     1.9581386727     0.7039622445
| 14>  H        0.3309795328     1.7381365717    -1.0325250961
| 15>  H       -1.1111239176     1.7995717085     0.0036917778
| 16>  H       -3.0419513809    -1.6058323093     0.7452229025
| 17>  H       -2.9396195334    -0.5464247703    -0.6806576779
| 18>  H       -2.2638292574    -3.4622318366    -0.7693174502
| 19>  H       -1.4860125198    -2.2605812351    -1.8504668202
| 20>  H       -0.5290982784    -3.0133749333     0.9732077984
| 21>  H        1.8009858286    -0.4829341271    -0.9989414017
| 22>  H        1.9635708960    -0.8144886337     0.7344345889
| 23> *
| 24>
| 25>                          ****END OF INPUT****

CARTESIAN COORDINATES (ANGSTROEM)
---------------------------------
  C     -0.082540    1.434828   -0.061961
  C     -0.019224   -0.046314    0.117514
  C     -0.983924   -0.934786    0.340023
  C     -2.399345   -1.279467   -0.078297
  C     -1.736827   -2.506125   -0.816945
  C     -0.483878   -2.321973    0.119043
  O      0.844881   -2.205494   -0.353002
  C      1.260580   -0.849452   -0.114626
  H      0.504446    1.958139    0.703962
  H      0.330980    1.738137   -1.032525
  H     -1.111124    1.799572    0.003692
  H     -3.041951   -1.605832    0.745223
  H     -2.939620   -0.546425   -0.680658
  H     -2.263829   -3.462232   -0.769317
  H     -1.486013   -2.260581   -1.850467
  H     -0.529098   -3.013375    0.973208
  H      1.800986   -0.482934   -0.998941
  H      1.963571   -0.814489    0.734435

 Total Charge           Charge          ....    0
 Multiplicity           Mult            ....    1
 Number of Electrons    NEL             ....   60
 Basis Dimension        Dim             ....  308

ORBITAL ENERGIES
----------------

  NO   OCC          E(Eh)            E(eV)
   0   2.0000     -20.547532      -559.1268
   1   2.0000     -11.276331      -306.8446
   2   2.0000     -11.271501      -306.7131
   3   2.0000     -11.240712      -305.8753
   4   2.0000     -11.232945      -305.6640
   5   2.0000     -11.231127      -305.6145
   6   2.0000     -11.228912      -305.5542
   7   2.0000     -11.222838      -305.3890
   8   2.0000      -1.371604       -37.3233
   9   2.0000      -1.138105       -30.9694
  10   2.0000      -1.059854       -28.8401
  11   2.0000      -0.940403       -25.5897
  12   2.0000      -0.918133       -24.9837
  13   2.0000      -0.872215       -23.7342
  14   2.0000      -0.785622       -21.3779
  15   2.0000      -0.715925       -19.4813
  16   2.0000      -0.663402       -18.0521
  17   2.0000      -0.645441       -17.5633
  18   2.0000      -0.622089       -16.9279
  19   2.0000      -0.596187       -16.2231
  20   2.0000      -0.571531       -15.5521
  21   2.0000      -0.558950       -15.2098
  22   2.0000      -0.554941       -15.1007
  23   2.0000      -0.511340       -13.9143
  24   2.0000      -0.505525       -13.7560
  25   2.0000      -0.495016       -13.4701
  26   2.0000      -0.468037       -12.7359
  27   2.0000      -0.442679       -12.0459
  28   2.0000      -0.411967       -11.2102
  29   2.0000      -0.327283        -8.9058
  30   0.0000       0.132171         3.5965
  31   0.0000       0.144571         3.9340
  32   0.0000       0.160190         4.3590
  33   0.0000       0.172681         4.6989
  34   0.0000       0.176067         4.7910

MULLIKEN ATOMIC CHARGES
-----------------------
   0 C :   -0.415075
   1 C :   -0.102818
   2 C :   -0.030167
   3 C :   -0.204411
   4 C :   -0.214976
   5 C :    0.102236
   6 O :   -0.328783
   7 C :   -0.010159
   8 H :    0.145860
   9 H :    0.137747
  10 H :    0.139726
  11 H :    0.128634
  12 H :    0.124390
  13 H :    0.120938
  14 H :    0.116026
  15 H :    0.084299
  16 H :    0.105223
  17 H :    0.101309
Sum of atomic charges:    0.0000000

LOEWDIN ATOMIC CHARGES
----------------------
   0 C :   -0.275520
   1 C :   -0.171593
   2 C :   -0.141380
   3 C :   -0.196612
   4 C :   -0.196859
   5 C :   -0.252357
   6 O :    0.160962
   7 C :   -0.242868
   8 H :    0.133896
   9 H :    0.130701
  10 H :    0.132893
  11 H :    0.139522
  12 H :    0.130508
  13 H :    0.122658
  14 H :    0.138220
  15 H :    0.138240
  16 H :    0.126743
  17 H :    0.122847

  Mayer bond orders larger than 0.1
B(  0-C ,  1-C ) :   0.8911 B(  0-C ,  8-H ) :   0.9298 B(  0-C ,  9-H ) :   0.9313
B(  0-C , 10-H ) :   0.9412 B(  1-C ,  2-C ) :   1.7542 B(  1-C ,  7-C ) :   0.9778
B(  2-C ,  3-C ) :   0.9057 B(  2-C ,  5-C ) :   0.9608 B(  3-C ,  4-C ) :   0.9219
B(  3-C , 11-H ) :   0.9195 B(  3-C , 12-H ) :   0.9161 B(  4-C ,  5-C ) :   0.8803
B(  4-C , 13-H ) :   0.9223 B(  4-C , 14-H ) :   0.9150 B(  5-C ,  6-O ) :   0.9825
B(  5-C , 15-H ) :   0.9232 B(  6-O ,  7-C ) :   0.9378 B(  7-C , 16-H ) :   0.9107
B(  7-C , 17-H ) :   0.9119

MP2 TOTAL ENERGY:     -347.165492998 Eh
FINAL SINGLE POINT ENERGY      -347.165492998326

DIPOLE MOMENT
-------------
                                X             Y             Z
Electronic contribution:      1.93601      -3.40034       0.90265
Nuclear contribution   :     -2.35695       3.93919      -0.86649
                        -----------------------------------------
Total Dipole Moment    :     -0.42093       0.53886       0.03616
                        -----------------------------------------
Magnitude (a.u.)       :      0.68473
Magnitude (Debye)      :      1.74045

                             ****ORCA TERMINATED NORMALLY****
TOTAL RUN TIME: 0 days 0 hours 13 minutes 36 seconds 426 msec
