                         Program Version 3.0.3 - RELEASE   -
|  1> ! RI-MP2 RIJK def2-TZVP def2-TZVP/C def2-TZVP/JK TIGHTSCF
|  2> % maxcore 2000
|  3> % mp2 density relaxed end
|  4> *xyz 0 1
|  5>  O        0.0060702598     1.4090931319     0.2274356515
|  6>  C       -0.0129741276     0.0022552317     0.0632992106
|  7>  C       -1.4210742521    -0.4836845927    -0.0411394303
|  8>  C       -2.5328401698     0.2496095392     0.0152573639
|  9>  C       -3.7777263974    -0.5818106822    -0.1800537385
| 10>  C       -3.2545687878    -2.0356071526    -0.0442297600
| 11>  C       -1.7265917282    -1.9467888198    -0.2883182962
| 12>  H        0.9220012394     1.6864366897     0.3159426945
| 13>  H        0.5430585075    -0.3042167206    -0.8418504287
| 14>  H        0.4837565855    -0.5067687982     0.9093795618
| 15>  H       -2.5473999480     1.3244341712     0.1445544392
| 16>  H       -4.5650941654    -0.3526880836     0.5474697595
| 17>  H       -4.2173089484    -0.3962916874    -1.1710720210
| 18>  H       -3.4375015982    -2.3925541191     0.9741941768
| 19>  H       -3.7511943800    -2.7332233512    -0.7234605449
| 20>  H       -1.4583606384    -2.2263568383    -1.3180522051
| 21>  H       -1.1583312709    -2.6200250677     0.3657031169
| 22> *
| 23>
| 24>                          ****END OF INPUT****

CARTESIAN COORDINATES (ANGSTROEM)
---------------------------------
  O      0.006070    1.409093    0.227436
  C     -0.012974    0.002255    0.063299
  C     -1.421074   -0.483685   -0.041139
  C     -2.532840    0.249610    0.015257
  C     -3.777726   -0.581811   -0.180054
  C     -3.254569   -2.035607   -0.044230
  C     -1.726592   -1.946789   -0.288318
  H      0.922001    1.686437    0.315943
  H      0.543059   -0.304217   -0.841850
  H      0.483757   -0.506769    0.909380
  H     -2.547400    1.324434    0.144554
  H     -4.565094   -0.352688    0.547470
  H     -4.217309   -0.396292   -1.171072
  H     -3.437502   -2.392554    0.974194
  H     -3.751194   -2.733223   -0.723461
  H     -1.458361   -2.226357   -1.318052
  H     -1.158331   -2.620025    0.365703

 Total Charge           Charge          ....    0
 Multiplicity           Mult            ....    1
 Number of Electrons    NEL             ....   54
 Basis Dimension        Dim             ....  277

ORBITAL ENERGIES
----------------

  NO   OCC          E(Eh)            E(eV)
   0   2.0000     -20.556244      -559.3638
   1   2.0000     -11.280533      -306.9589
   2   2.0000     -11.221296      -305.3470
   3   2.0000     -11.218588      -305.2733
   4   2.0000     -11.216676      -305.2213
   5   2.0000     -11.215859      -305.1990
   6   2.0000     -11.207223      -304.9640
   7   2.0000      -1.361637       -37.0520
   8   2.0000      -1.127775       -30.6883
   9   2.0000      -0.995466       -27.0880
  10   2.0000      -0.953712       -25.9518
  11   2.0000      -0.889066       -24.1927
  12   2.0000      -0.786217       -21.3941
  13   2.0000      -0.702143       -19.1063
  14   2.0000      -0.691253       -18.8099
  15   2.0000      -0.647323       -17.6146
  16   2.0000      -0.640254       -17.4222
  17   2.0000      -0.617836       -16.8122
  18   2.0000      -0.555845       -15.1253
  19   2.0000      -0.545520       -14.8444
  20   2.0000      -0.502697       -13.6791
  21   2.0000      -0.483688       -13.1618
  22   2.0000      -0.480364       -13.0714
  23   2.0000      -0.477323       -12.9886
  24   2.0000      -0.469291       -12.7701
  25   2.0000      -0.450399       -12.2560
  26   2.0000      -0.327960        -8.9242
  27   0.0000       0.132941         3.6175
  28   0.0000       0.146756         3.9934
  29   0.0000       0.165500         4.5035
  30   0.0000       0.168972         4.5980
  31   0.0000       0.186935         5.0867

MULLIKEN ATOMIC CHARGES
-----------------------
   0 O :   -0.462715
   1 C :   -0.088914
   2 C :    0.016708
   3 C :   -0.205692
   4 C :   -0.157151
   5 C :   -0.230597
   6 C :   -0.216023
   7 H :    0.313730
   8 H :    0.102520
   9 H :    0.105788
  10 H :    0.142183
  11 H :    0.115758
  12 H :    0.108165
  13 H :    0.107836
  14 H :    0.120333
  15 H :    0.110129
  16 H :    0.117942
Sum of atomic charges:   -0.0000000

LOEWDIN ATOMIC CHARGES
----------------------
   0 O :   -0.038603
   1 C :   -0.316410
   2 C :   -0.183378
   3 C :   -0.135861
   4 C :   -0.244880
   5 C :   -0.237847
   6 C :   -0.217068
   7 H :    0.172922
   8 H :    0.124585
   9 H :    0.124577
  10 H :    0.142224
  11 H :    0.133774
  12 H :    0.137126
  13 H :    0.136140
  14 H :    0.129219
  15 H :    0.138565
  16 H :    0.134915

  Mayer bond orders larger than 0.1
B(  0-O ,  1-C ) :   1.0446 B(  0-O ,  2-C ) :  -0.1131 B(  0-O ,  7-H ) :   0.8484
B(  1-C ,  2-C ) :   0.9139 B(  1-C ,  8-H ) :   0.9252 B(  1-C ,  9-H ) :   0.9388
B(  2-C ,  3-C ) :   1.7566 B(  2-C ,  6-C ) :   0.9129 B(  3-C ,  4-C ) :   0.9247
B(  3-C , 10-H ) :   0.9252 B(  4-C ,  5-C ) :   0.9447 B(  4-C , 11-H ) :   0.9332
B(  4-C , 12-H ) :   0.9099 B(  5-C ,  6-C ) :   0.9447 B(  5-C , 13-H ) :   0.9308
B(  5-C , 14-H ) :   0.9402 B(  6-C , 15-H ) :   0.9043 B(  6-C , 16-H ) :   0.9303

MP2 TOTAL ENERGY:     -309.191502158 Eh
FINAL SINGLE POINT ENERGY      -309.191502157728

DIPOLE MOMENT
-------------
                                X             Y             Z
Electronic contribution:      2.07091       3.46241       0.44350
Nuclear contribution   :     -1.52376      -3.79444      -0.46955
                        -----------------------------------------
Total Dipole Moment    :      0.54715      -0.33203      -0.02605
                        -----------------------------------------
Magnitude (a.u.)       :      0.64054
Magnitude (Debye)      :      1.62813

                             ****ORCA TERMINATED NORMALLY****
TOTAL RUN TIME: 0 days 0 hours 12 minutes 15 seconds 725 msec
