                         Program Version 3.0.3 - RELEASE   -
|  1> ! RI-MP2 RIJK def2-TZVP def2-TZVP/C def2-TZVP/JK TIGHTSCF
|  2> % maxcore 2000
|  3> % mp2 density relaxed end
|  4> *xyz 0 1
|  5>  C       -0.1337012837     1.4588773496    -0.3978543016
|  6>  C       -0.0398957113     0.1181320478     0.3421519013
|  7>  C       -1.3625962672    -0.6094913863     0.3486236234
|  8>  O       -1.7909365232    -1.2132674634    -0.8878015459
|  9>  C       -1.5586451780    -2.0691957876     0.2446034156
| 10>  C       -0.4080233272    -3.0447043288     0.1155484661
| 11>  C       -2.8137725728    -2.6832538842     0.8103978284
| 12>  C       -4.1450821066    -2.0998897235     0.5344221494
| 13>  N       -3.7473006231    -3.3710622323    -0.1032021091
| 14>  H        0.8274365737     1.9809300739    -0.3889469551
| 15>  H       -0.4280640606     1.3020442489    -1.4397577337
| 16>  H       -0.8769222615     2.1168470777     0.0654080239
| 17>  H        0.7326158174    -0.5033743808    -0.1185173136
| 18>  H        0.2634630794     0.2858540919     1.3838951228
| 19>  H       -2.1645461998    -0.0597655748     0.8479960242
| 20>  H        0.4504156444    -2.5978870471    -0.3869976163
| 21>  H       -0.0924897265    -3.3970919296     1.1035056688
| 22>  H       -0.7243473388    -3.9193906974    -0.4622521503
| 23>  H       -2.6618761646    -3.2148845798     1.7482326276
| 24>  H       -4.9359556662    -2.1845347206     1.2740929113
| 25>  H       -4.1823148543    -1.2136001933    -0.0913038281
| 26>  H       -3.4644458494    -3.1614285605    -1.0598499790
| 27> *
| 28>
| 29>                          ****END OF INPUT****

CARTESIAN COORDINATES (ANGSTROEM)
---------------------------------
  C     -0.133701    1.458877   -0.397854
  C     -0.039896    0.118132    0.342152
  C     -1.362596   -0.609491    0.348624
  O     -1.790937   -1.213267   -0.887802
  C     -1.558645   -2.069196    0.244603
  C     -0.408023   -3.044704    0.115548
  C     -2.813773   -2.683254    0.810398
  C     -4.145082   -2.099890    0.534422
  N     -3.747301   -3.371062   -0.103202
  H      0.827437    1.980930   -0.388947
  H     -0.428064    1.302044   -1.439758
  H     -0.876922    2.116847    0.065408
  H      0.732616   -0.503374   -0.118517
  H      0.263463    0.285854    1.383895
  H     -2.164546   -0.059766    0.847996
  H      0.450416   -2.597887   -0.386998
  H     -0.092490   -3.397092    1.103506
  H     -0.724347   -3.919391   -0.462252
  H     -2.661876   -3.214885    1.748233
  H     -4.935956   -2.184535    1.274093
  H     -4.182315   -1.213600   -0.091304
  H     -3.464446   -3.161429   -1.059850

 Total Charge           Charge          ....    0
 Multiplicity           Mult            ....    1
 Number of Electrons    NEL             ....   70
 Basis Dimension        Dim             ....  357

ORBITAL ENERGIES
----------------

  NO   OCC          E(Eh)            E(eV)
   0   2.0000     -20.566153      -559.6335
   1   2.0000     -15.553211      -423.2244
   2   2.0000     -11.296792      -307.4013
   3   2.0000     -11.287627      -307.1519
   4   2.0000     -11.260314      -306.4087
   5   2.0000     -11.250076      -306.1301
   6   2.0000     -11.233918      -305.6905
   7   2.0000     -11.226939      -305.5005
   8   2.0000     -11.220478      -305.3247
   9   2.0000      -1.411608       -38.4118
  10   2.0000      -1.254570       -34.1386
  11   2.0000      -1.056077       -28.7373
  12   2.0000      -1.025246       -27.8984
  13   2.0000      -0.924554       -25.1584
  14   2.0000      -0.901867       -24.5410
  15   2.0000      -0.863392       -23.4941
  16   2.0000      -0.812823       -22.1180
  17   2.0000      -0.763725       -20.7820
  18   2.0000      -0.717418       -19.5219
  19   2.0000      -0.654702       -17.8153
  20   2.0000      -0.632714       -17.2170
  21   2.0000      -0.628363       -17.0986
  22   2.0000      -0.585696       -15.9376
  23   2.0000      -0.577874       -15.7247
  24   2.0000      -0.568784       -15.4774
  25   2.0000      -0.551902       -15.0180
  26   2.0000      -0.531231       -14.4555
  27   2.0000      -0.512164       -13.9367
  28   2.0000      -0.505921       -13.7668
  29   2.0000      -0.490452       -13.3459
  30   2.0000      -0.484357       -13.1800
  31   2.0000      -0.469381       -12.7725
  32   2.0000      -0.440407       -11.9841
  33   2.0000      -0.424967       -11.5639
  34   2.0000      -0.382494       -10.4082
  35   0.0000       0.137188         3.7331
  36   0.0000       0.148987         4.0542
  37   0.0000       0.162062         4.4099
  38   0.0000       0.172249         4.6871
  39   0.0000       0.181133         4.9289

MULLIKEN ATOMIC CHARGES
-----------------------
   0 C :   -0.399779
   1 C :   -0.181655
   2 C :    0.007554
   3 O :   -0.366135
   4 C :    0.178440
   5 C :   -0.429122
   6 C :   -0.060528
   7 C :   -0.170383
   8 N :   -0.364461
   9 H :    0.135684
  10 H :    0.143072
  11 H :    0.123583
  12 H :    0.110881
  13 H :    0.111617
  14 H :    0.119015
  15 H :    0.137418
  16 H :    0.139703
  17 H :    0.148662
  18 H :    0.120217
  19 H :    0.120993
  20 H :    0.146099
  21 H :    0.229124
Sum of atomic charges:   -0.0000000

LOEWDIN ATOMIC CHARGES
----------------------
   0 C :   -0.311619
   1 C :   -0.274410
   2 C :   -0.240457
   3 O :    0.172743
   4 C :   -0.321789
   5 C :   -0.260398
   6 C :   -0.247756
   7 C :   -0.262454
   8 N :   -0.015374
   9 H :    0.121677
  10 H :    0.126861
  11 H :    0.121414
  12 H :    0.140119
  13 H :    0.143799
  14 H :    0.142634
  15 H :    0.127538
  16 H :    0.133659
  17 H :    0.135274
  18 H :    0.147518
  19 H :    0.123144
  20 H :    0.127695
  21 H :    0.170184

  Mayer bond orders larger than 0.1
B(  0-C ,  1-C ) :   0.9203 B(  0-C ,  9-H ) :   0.9397 B(  0-C , 10-H ) :   0.9368
B(  0-C , 11-H ) :   0.9379 B(  1-C ,  2-C ) :   0.9143 B(  1-C , 12-H ) :   0.9372
B(  1-C , 13-H ) :   0.9272 B(  2-C ,  3-O ) :   0.8146 B(  2-C ,  4-C ) :   0.9786
B(  2-C , 14-H ) :   0.8937 B(  3-O ,  4-C ) :   0.8921 B(  4-C ,  5-C ) :   0.8761
B(  4-C ,  6-C ) :   0.9175 B(  5-C , 15-H ) :   0.9440 B(  5-C , 16-H ) :   0.9377
B(  5-C , 17-H ) :   0.9312 B(  6-C ,  7-C ) :   0.9676 B(  6-C ,  8-N ) :   0.9407
B(  6-C , 18-H ) :   0.9084 B(  7-C ,  8-N ) :   0.9117 B(  7-C , 19-H ) :   0.9223
B(  7-C , 20-H ) :   0.9085 B(  8-N , 21-H ) :   0.8720

MP2 TOTAL ENERGY:     -403.619962850 Eh
FINAL SINGLE POINT ENERGY      -403.619962850275

DIPOLE MOMENT
-------------
                                X             Y             Z
Electronic contribution:     -4.63954      -3.82752      -0.74069
Nuclear contribution   :      5.29691       4.40982       1.26731
                        -----------------------------------------
Total Dipole Moment    :      0.65737       0.58230       0.52663
                        -----------------------------------------
Magnitude (a.u.)       :      1.02398
Magnitude (Debye)      :      2.60276

                             ****ORCA TERMINATED NORMALLY****
TOTAL RUN TIME: 0 days 0 hours 16 minutes 22 seconds 698 msec
