                         Program Version 3.0.3 - RELEASE   -
|  1> ! RI-MP2 RIJK def2-TZVP def2-TZVP/C def2-TZVP/JK TIGHTSCF
|  2> % maxcore 2000
|  3> % mp2 density relaxed end
|  4> *xyz 0 1
|  5>  C        0.0150053520     1.4786602513    -0.0488556064
|  6>  C       -0.0088721491    -0.0144896854     0.0451850751
|  7>  N       -0.0847269653    -0.7551090609    -1.0542045428
|  8>  N       -0.0758195393    -2.0382820781    -0.5969989572
|  9>  C        0.0058265396    -2.1187157724     0.7540700719
| 10>  N       -0.0427635752    -3.3502253387     1.4137533586
| 11>  C        0.0541701824    -0.8173860411     1.2141280578
| 12>  H        0.9368865604     1.8938687421     0.3738180202
| 13>  H       -0.0522157780     1.7843795436    -1.0951114587
| 14>  H       -0.8219604185     1.9273063217     0.4978337858
| 15>  H       -0.2063498490    -2.7933191727    -1.2475374638
| 16>  H        0.6178519316    -4.0266529551     1.0485110969
| 17>  H        0.1111133298    -3.2447876444     2.4075599861
| 18>  H        0.1399329387    -0.4959369097     2.2399734065
| 19> *
| 20>
| 21>                          ****END OF INPUT****

CARTESIAN COORDINATES (ANGSTROEM)
---------------------------------
  C      0.015005    1.478660   -0.048856
  C     -0.008872   -0.014490    0.045185
  N     -0.084727   -0.755109   -1.054205
  N     -0.075820   -2.038282   -0.596999
  C      0.005827   -2.118716    0.754070
  N     -0.042764   -3.350225    1.413753
  C      0.054170   -0.817386    1.214128
  H      0.936887    1.893869    0.373818
  H     -0.052216    1.784380   -1.095111
  H     -0.821960    1.927306    0.497834
  H     -0.206350   -2.793319   -1.247537
  H      0.617852   -4.026653    1.048511
  H      0.111113   -3.244788    2.407560
  H      0.139933   -0.495937    2.239973

 Total Charge           Charge          ....    0
 Multiplicity           Mult            ....    1
 Number of Electrons    NEL             ....   52
 Basis Dimension        Dim             ....  259

ORBITAL ENERGIES
----------------

  NO   OCC          E(Eh)            E(eV)
   0   2.0000     -15.615431      -424.9175
   1   2.0000     -15.583534      -424.0495
   2   2.0000     -15.562289      -423.4714
   3   2.0000     -11.311383      -307.7984
   4   2.0000     -11.251421      -306.1667
   5   2.0000     -11.215350      -305.1852
   6   2.0000     -11.201165      -304.7992
   7   2.0000      -1.359356       -36.9899
   8   2.0000      -1.223493       -33.2929
   9   2.0000      -1.092544       -29.7296
  10   2.0000      -1.022002       -27.8101
  11   2.0000      -0.955707       -26.0061
  12   2.0000      -0.807128       -21.9631
  13   2.0000      -0.761634       -20.7251
  14   2.0000      -0.729920       -19.8621
  15   2.0000      -0.674403       -18.3514
  16   2.0000      -0.626574       -17.0500
  17   2.0000      -0.608372       -16.5546
  18   2.0000      -0.583600       -15.8806
  19   2.0000      -0.555668       -15.1205
  20   2.0000      -0.537692       -14.6313
  21   2.0000      -0.526163       -14.3176
  22   2.0000      -0.479750       -13.0547
  23   2.0000      -0.439881       -11.9698
  24   2.0000      -0.347396        -9.4531
  25   2.0000      -0.311987        -8.4896
  26   0.0000       0.120214         3.2712
  27   0.0000       0.156628         4.2621
  28   0.0000       0.158366         4.3094
  29   0.0000       0.171566         4.6685
  30   0.0000       0.190478         5.1832

MULLIKEN ATOMIC CHARGES
-----------------------
   0 C :   -0.436591
   1 C :    0.076217
   2 N :   -0.232405
   3 N :   -0.143585
   4 C :    0.200957
   5 N :   -0.531975
   6 C :   -0.242681
   7 H :    0.134221
   8 H :    0.149354
   9 H :    0.135429
  10 H :    0.250214
  11 H :    0.251935
  12 H :    0.255899
  13 H :    0.133010
Sum of atomic charges:   -0.0000000

LOEWDIN ATOMIC CHARGES
----------------------
   0 C :   -0.278839
   1 C :   -0.313263
   2 N :    0.032768
   3 N :    0.128811
   4 C :   -0.345550
   5 N :   -0.093564
   6 C :   -0.189010
   7 H :    0.128620
   8 H :    0.134520
   9 H :    0.129138
  10 H :    0.184531
  11 H :    0.168360
  12 H :    0.174421
  13 H :    0.139056

  Mayer bond orders larger than 0.1
B(  0-C ,  1-C ) :   0.8683 B(  0-C ,  7-H ) :   0.9346 B(  0-C ,  8-H ) :   0.9533
B(  0-C ,  9-H ) :   0.9351 B(  1-C ,  2-N ) :   1.6218 B(  1-C ,  6-C ) :   1.2646
B(  2-N ,  3-N ) :   1.0093 B(  3-N ,  4-C ) :   1.2051 B(  3-N , 10-H ) :   0.8724
B(  4-C ,  5-N ) :   1.0216 B(  4-C ,  6-C ) :   1.4285 B(  5-N , 11-H ) :   0.8728
B(  5-N , 12-H ) :   0.8807 B(  6-C , 13-H ) :   0.9142

MP2 TOTAL ENERGY:     -320.231969741 Eh
FINAL SINGLE POINT ENERGY      -320.231969740904

DIPOLE MOMENT
-------------
                                X             Y             Z
Electronic contribution:     -0.32708      -3.58019      -1.58534
Nuclear contribution   :      0.76895       2.68794       2.29974
                        -----------------------------------------
Total Dipole Moment    :      0.44187      -0.89225       0.71441
                        -----------------------------------------
Magnitude (a.u.)       :      1.22545
Magnitude (Debye)      :      3.11485

                             ****ORCA TERMINATED NORMALLY****
TOTAL RUN TIME: 0 days 0 hours 8 minutes 12 seconds 674 msec
