                         Program Version 3.0.3 - RELEASE   -
|  1> ! RI-MP2 RIJK def2-TZVP def2-TZVP/C def2-TZVP/JK TIGHTSCF
|  2> % maxcore 2000
|  3> % mp2 density relaxed end
|  4> *xyz 0 1
|  5>  C       -0.0628945020     1.4626262989     0.1332237908
|  6>  C       -0.0355035855     0.0094070513     0.0506788542
|  7>  C       -0.0205069972    -1.1913247571    -0.0363971506
|  8>  C        0.0031525481    -2.6497719405    -0.1142626834
|  9>  C        0.6898226402    -3.2986820552     1.1107040222
| 10>  C       -0.4767500332    -3.3931006017     2.0979693531
| 11>  O       -1.6384638674    -3.6264997397     1.2816881969
| 12>  C       -1.4113321721    -3.2272610100    -0.0035393082
| 13>  N       -2.2315708910    -3.3316445011    -0.9541717489
| 14>  H        0.4972866938     1.8250037070     1.0022361324
| 15>  H        0.3792178747     1.9178507899    -0.7597301039
| 16>  H       -1.0896252034     1.8344256421     0.2207677069
| 17>  H        0.4445014389    -2.9682147447    -1.0616995747
| 18>  H        1.0442826159    -4.2997161076     0.8470539223
| 19>  H        1.5277992050    -2.7151813605     1.4927792693
| 20>  H       -0.3944831443    -4.2204973405     2.8059134304
| 21>  H       -0.6142140003    -2.4581881224     2.6535548627
| 22>  H       -3.1087650302    -3.7412020881    -0.6275188216
| 23> *
| 24>
| 25>                          ****END OF INPUT****

CARTESIAN COORDINATES (ANGSTROEM)
---------------------------------
  C     -0.062895    1.462626    0.133224
  C     -0.035504    0.009407    0.050679
  C     -0.020507   -1.191325   -0.036397
  C      0.003153   -2.649772   -0.114263
  C      0.689823   -3.298682    1.110704
  C     -0.476750   -3.393101    2.097969
  O     -1.638464   -3.626500    1.281688
  C     -1.411332   -3.227261   -0.003539
  N     -2.231571   -3.331645   -0.954172
  H      0.497287    1.825004    1.002236
  H      0.379218    1.917851   -0.759730
  H     -1.089625    1.834426    0.220768
  H      0.444501   -2.968215   -1.061700
  H      1.044283   -4.299716    0.847054
  H      1.527799   -2.715181    1.492779
  H     -0.394483   -4.220497    2.805913
  H     -0.614214   -2.458188    2.653555
  H     -3.108765   -3.741202   -0.627519

 Total Charge           Charge          ....    0
 Multiplicity           Mult            ....    1
 Number of Electrons    NEL             ....   66
 Basis Dimension        Dim             ....  333

ORBITAL ENERGIES
----------------

  NO   OCC          E(Eh)            E(eV)
   0   2.0000     -20.593039      -560.3651
   1   2.0000     -15.528917      -422.5633
   2   2.0000     -11.336647      -308.4859
   3   2.0000     -11.296764      -307.4006
   4   2.0000     -11.272847      -306.7497
   5   2.0000     -11.249500      -306.1145
   6   2.0000     -11.249126      -306.1043
   7   2.0000     -11.230686      -305.6025
   8   2.0000     -11.224449      -305.4328
   9   2.0000      -1.429706       -38.9043
  10   2.0000      -1.194081       -32.4926
  11   2.0000      -1.110460       -30.2172
  12   2.0000      -1.050606       -28.5885
  13   2.0000      -0.988973       -26.9113
  14   2.0000      -0.940662       -25.5967
  15   2.0000      -0.851103       -23.1597
  16   2.0000      -0.781030       -21.2529
  17   2.0000      -0.718825       -19.5602
  18   2.0000      -0.693085       -18.8598
  19   2.0000      -0.658162       -17.9095
  20   2.0000      -0.647504       -17.6195
  21   2.0000      -0.616083       -16.7645
  22   2.0000      -0.592580       -16.1249
  23   2.0000      -0.589432       -16.0393
  24   2.0000      -0.580119       -15.7858
  25   2.0000      -0.545289       -14.8381
  26   2.0000      -0.543161       -14.7802
  27   2.0000      -0.512265       -13.9394
  28   2.0000      -0.496236       -13.5033
  29   2.0000      -0.436960       -11.8903
  30   2.0000      -0.399238       -10.8638
  31   2.0000      -0.375233       -10.2106
  32   2.0000      -0.369532       -10.0555
  33   0.0000       0.126999         3.4558
  34   0.0000       0.143995         3.9183
  35   0.0000       0.155808         4.2397
  36   0.0000       0.173647         4.7252
  37   0.0000       0.175979         4.7886

MULLIKEN ATOMIC CHARGES
-----------------------
   0 C :   -0.489721
   1 C :    0.032813
   2 C :   -0.114700
   3 C :    0.031130
   4 C :   -0.267989
   5 C :   -0.049996
   6 O :   -0.258079
   7 C :    0.118120
   8 N :   -0.376377
   9 H :    0.159984
  10 H :    0.165621
  11 H :    0.166548
  12 H :    0.139634
  13 H :    0.130272
  14 H :    0.145043
  15 H :    0.127871
  16 H :    0.116650
  17 H :    0.223176
Sum of atomic charges:   -0.0000000

LOEWDIN ATOMIC CHARGES
----------------------
   0 C :   -0.293453
   1 C :   -0.093554
   2 C :   -0.055774
   3 C :   -0.199054
   4 C :   -0.217494
   5 C :   -0.265195
   6 O :    0.235454
   7 C :   -0.376998
   8 N :   -0.050898
   9 H :    0.140005
  10 H :    0.142341
  11 H :    0.142507
  12 H :    0.178054
  13 H :    0.143049
  14 H :    0.144984
  15 H :    0.127768
  16 H :    0.128701
  17 H :    0.169555

  Mayer bond orders larger than 0.1
B(  0-C ,  1-C ) :   0.8437 B(  0-C ,  9-H ) :   0.9488 B(  0-C , 10-H ) :   0.9519
B(  0-C , 11-H ) :   0.9462 B(  1-C ,  2-C ) :   2.6283 B(  2-C ,  3-C ) :   1.1396
B(  3-C ,  4-C ) :   0.8697 B(  3-C ,  7-C ) :   0.8521 B(  3-C , 12-H ) :   0.9004
B(  4-C ,  5-C ) :   0.9568 B(  4-C , 13-H ) :   0.9253 B(  4-C , 14-H ) :   0.9293
B(  5-C ,  6-O ) :   0.8828 B(  5-C , 15-H ) :   0.9281 B(  5-C , 16-H ) :   0.9209
B(  6-O ,  7-C ) :   1.0956 B(  7-C ,  8-N ) :   2.0739 B(  8-N , 17-H ) :   0.8548

MP2 TOTAL ENERGY:     -401.243336276 Eh
FINAL SINGLE POINT ENERGY      -401.243336276290

DIPOLE MOMENT
-------------
                                X             Y             Z
Electronic contribution:     -3.05408      -4.14205      -1.62732
Nuclear contribution   :      3.85616       4.38394       2.56140
                        -----------------------------------------
Total Dipole Moment    :      0.80208       0.24189       0.93408
                        -----------------------------------------
Magnitude (a.u.)       :      1.25472
Magnitude (Debye)      :      3.18926

                             ****ORCA TERMINATED NORMALLY****
TOTAL RUN TIME: 0 days 0 hours 17 minutes 32 seconds 875 msec
