                         Program Version 3.0.3 - RELEASE   -
|  1> ! RI-MP2 RIJK def2-TZVP def2-TZVP/C def2-TZVP/JK TIGHTSCF
|  2> % maxcore 2000
|  3> % mp2 density relaxed end
|  4> *xyz 0 1
|  5>  O        0.0007738374    -0.0591237272     0.1442466309
|  6>  C       -0.0041810931     1.1294012350     0.0720741413
|  7>  C       -1.0696136405     2.2580231934    -0.0334851220
|  8>  C       -0.6824826709     3.0602004952     1.2239922519
|  9>  O        0.7755118344     3.0151239052     1.1484215182
| 10>  C        1.0168274082     2.2926743835    -0.0702004451
| 11>  C       -0.0446884031     2.8667648164    -1.0226115588
| 12>  C       -0.0798228708     3.0331102961    -2.4682600899
| 13>  O       -0.0812196623     4.1590374185    -1.5610241728
| 14>  H       -2.1188154321     2.0893400265    -0.2580158323
| 15>  H       -1.0185789022     4.1017655526     1.1848533701
| 16>  H       -1.0200419935     2.5959569699     2.1557872761
| 17>  H        2.0790482356     2.2016483268    -0.2751808479
| 18>  H        0.8300618089     2.9142435720    -3.0535192446
| 19>  H       -1.0111671260     2.8734762960    -3.0084468152
| 20> *
| 21>
| 22>                          ****END OF INPUT****

CARTESIAN COORDINATES (ANGSTROEM)
---------------------------------
  O      0.000774   -0.059124    0.144247
  C     -0.004181    1.129401    0.072074
  C     -1.069614    2.258023   -0.033485
  C     -0.682483    3.060200    1.223992
  O      0.775512    3.015124    1.148422
  C      1.016827    2.292674   -0.070200
  C     -0.044688    2.866765   -1.022612
  C     -0.079823    3.033110   -2.468260
  O     -0.081220    4.159037   -1.561024
  H     -2.118815    2.089340   -0.258016
  H     -1.018579    4.101766    1.184853
  H     -1.020042    2.595957    2.155787
  H      2.079048    2.201648   -0.275181
  H      0.830062    2.914244   -3.053519
  H     -1.011167    2.873476   -3.008447

 Total Charge           Charge          ....    0
 Multiplicity           Mult            ....    1
 Number of Electrons    NEL             ....   66
 Basis Dimension        Dim             ....  315

ORBITAL ENERGIES
----------------

  NO   OCC          E(Eh)            E(eV)
   0   2.0000     -20.594814      -560.4134
   1   2.0000     -20.581689      -560.0562
   2   2.0000     -20.577258      -559.9356
   3   2.0000     -11.355978      -309.0119
   4   2.0000     -11.324007      -308.1419
   5   2.0000     -11.316408      -307.9351
   6   2.0000     -11.310530      -307.7752
   7   2.0000     -11.305278      -307.6323
   8   2.0000     -11.273038      -306.7550
   9   2.0000      -1.447293       -39.3828
  10   2.0000      -1.423406       -38.7328
  11   2.0000      -1.397768       -38.0352
  12   2.0000      -1.139430       -31.0055
  13   2.0000      -1.012317       -27.5465
  14   2.0000      -0.938580       -25.5401
  15   2.0000      -0.837614       -22.7926
  16   2.0000      -0.835368       -22.7315
  17   2.0000      -0.768552       -20.9134
  18   2.0000      -0.729204       -19.8426
  19   2.0000      -0.699995       -19.0478
  20   2.0000      -0.686215       -18.6729
  21   2.0000      -0.663504       -18.0549
  22   2.0000      -0.631058       -17.1720
  23   2.0000      -0.605296       -16.4709
  24   2.0000      -0.582763       -15.8578
  25   2.0000      -0.560563       -15.2537
  26   2.0000      -0.542385       -14.7590
  27   2.0000      -0.531824       -14.4717
  28   2.0000      -0.517719       -14.0878
  29   2.0000      -0.488805       -13.3011
  30   2.0000      -0.467852       -12.7309
  31   2.0000      -0.452661       -12.3175
  32   2.0000      -0.383149       -10.4260
  33   0.0000       0.115679         3.1478
  34   0.0000       0.140063         3.8113
  35   0.0000       0.163426         4.4471
  36   0.0000       0.171653         4.6709
  37   0.0000       0.175024         4.7627

MULLIKEN ATOMIC CHARGES
-----------------------
   0 O :   -0.224281
   1 C :    0.064425
   2 C :   -0.024051
   3 C :   -0.073974
   4 O :   -0.316741
   5 C :    0.138178
   6 C :    0.022580
   7 C :   -0.094066
   8 O :   -0.320812
   9 H :    0.157082
  10 H :    0.125369
  11 H :    0.129345
  12 H :    0.153534
  13 H :    0.132965
  14 H :    0.130447
Sum of atomic charges:   -0.0000000

LOEWDIN ATOMIC CHARGES
----------------------
   0 O :    0.187606
   1 C :   -0.253525
   2 C :   -0.148336
   3 C :   -0.231029
   4 O :    0.161038
   5 C :   -0.204716
   6 C :   -0.297248
   7 C :   -0.207504
   8 O :    0.189745
   9 H :    0.147998
  10 H :    0.130412
  11 H :    0.128821
  12 H :    0.141927
  13 H :    0.127620
  14 H :    0.127192

  Mayer bond orders larger than 0.1
B(  0-O ,  1-C ) :   2.0530 B(  1-C ,  2-C ) :   0.8248 B(  1-C ,  5-C ) :   0.8575
B(  2-C ,  3-C ) :   0.9274 B(  2-C ,  6-C ) :   0.8545 B(  2-C ,  9-H ) :   0.8898
B(  3-C ,  4-O ) :   0.9017 B(  3-C , 10-H ) :   0.9196 B(  3-C , 11-H ) :   0.9247
B(  4-O ,  5-C ) :   0.9217 B(  5-C ,  6-C ) :   0.8799 B(  5-C , 12-H ) :   0.8855
B(  6-C ,  7-C ) :   0.9773 B(  6-C ,  8-O ) :   0.9080 B(  7-C ,  8-O ) :   0.8875
B(  7-C , 13-H ) :   0.9137 B(  7-C , 14-H ) :   0.9124

MP2 TOTAL ENERGY:     -456.966863638 Eh
FINAL SINGLE POINT ENERGY      -456.966863637864

DIPOLE MOMENT
-------------
                                X             Y             Z
Electronic contribution:      1.54991      -1.90769       0.85498
Nuclear contribution   :     -2.04050       2.05186      -1.47457
                        -----------------------------------------
Total Dipole Moment    :     -0.49059       0.14418      -0.61959
                        -----------------------------------------
Magnitude (a.u.)       :      0.80334
Magnitude (Debye)      :      2.04193

                             ****ORCA TERMINATED NORMALLY****
TOTAL RUN TIME: 0 days 0 hours 17 minutes 0 seconds 838 msec
