                         Program Version 3.0.3 - RELEASE   -
|  1> ! RI-MP2 RIJK def2-TZVP def2-TZVP/C def2-TZVP/JK TIGHTSCF
|  2> % maxcore 2000
|  3> % mp2 density relaxed end
|  4> *xyz 0 1
|  5>  C       -0.0066849283     1.5413737349    -0.1067879397
|  6>  C       -0.0257318960     0.0155498839     0.0841526513
|  7>  C       -1.4086874847    -0.5390277654     0.0987625894
|  8>  N       -1.9892469163    -1.1084648022     1.1162649557
|  9>  O       -3.2253886399    -1.4382266189     0.6711207529
| 10>  N       -3.3458088813    -1.0361716557    -0.6558363001
| 11>  N       -2.2626257544    -0.4996179994    -0.9953201655
| 12>  H        1.0243321817     1.9022662718    -0.1455379278
| 13>  H       -0.5047314120     1.8240192235    -1.0379977154
| 14>  H       -0.5152279237     2.0458853299     0.7196738786
| 15>  H        0.5271003905    -0.4651433350    -0.7306266949
| 16>  H        0.4616570644    -0.2653121975     1.0211484456
| 17> *
| 18>
| 19>                          ****END OF INPUT****

CARTESIAN COORDINATES (ANGSTROEM)
---------------------------------
  C     -0.006685    1.541374   -0.106788
  C     -0.025732    0.015550    0.084153
  C     -1.408687   -0.539028    0.098763
  N     -1.989247   -1.108465    1.116265
  O     -3.225389   -1.438227    0.671121
  N     -3.345809   -1.036172   -0.655836
  N     -2.262626   -0.499618   -0.995320
  H      1.024332    1.902266   -0.145538
  H     -0.504731    1.824019   -1.037998
  H     -0.515228    2.045885    0.719674
  H      0.527100   -0.465143   -0.730627
  H      0.461657   -0.265312    1.021148

 Total Charge           Charge          ....    0
 Multiplicity           Mult            ....    1
 Number of Electrons    NEL             ....   52
 Basis Dimension        Dim             ....  247

ORBITAL ENERGIES
----------------

  NO   OCC          E(Eh)            E(eV)
   0   2.0000     -20.698967      -563.2475
   1   2.0000     -15.727598      -427.9697
   2   2.0000     -15.663705      -426.2311
   3   2.0000     -15.651646      -425.9029
   4   2.0000     -11.333043      -308.3878
   5   2.0000     -11.266779      -306.5846
   6   2.0000     -11.241926      -305.9083
   7   2.0000      -1.585192       -43.1353
   8   2.0000      -1.342042       -36.5188
   9   2.0000      -1.225924       -33.3591
  10   2.0000      -1.067789       -29.0560
  11   2.0000      -0.933739       -25.4083
  12   2.0000      -0.917908       -24.9776
  13   2.0000      -0.848304       -23.0835
  14   2.0000      -0.728392       -19.8206
  15   2.0000      -0.718139       -19.5416
  16   2.0000      -0.643480       -17.5100
  17   2.0000      -0.632778       -17.2188
  18   2.0000      -0.588894       -16.0246
  19   2.0000      -0.561439       -15.2775
  20   2.0000      -0.538644       -14.6573
  21   2.0000      -0.527437       -14.3523
  22   2.0000      -0.520534       -14.1645
  23   2.0000      -0.507079       -13.7983
  24   2.0000      -0.495920       -13.4947
  25   2.0000      -0.432926       -11.7805
  26   0.0000       0.076334         2.0772
  27   0.0000       0.128281         3.4907
  28   0.0000       0.167515         4.5583
  29   0.0000       0.178411         4.8548
  30   0.0000       0.190871         5.1939

MULLIKEN ATOMIC CHARGES
-----------------------
   0 C :   -0.405648
   1 C :   -0.190627
   2 C :    0.110887
   3 N :   -0.097209
   4 O :    0.001810
   5 N :   -0.001552
   6 N :   -0.133996
   7 H :    0.141813
   8 H :    0.151338
   9 H :    0.138258
  10 H :    0.139094
  11 H :    0.145831
Sum of atomic charges:   -0.0000000

LOEWDIN ATOMIC CHARGES
----------------------
   0 C :   -0.300214
   1 C :   -0.251535
   2 C :   -0.368552
   3 N :    0.042555
   4 O :    0.186535
   5 N :   -0.039573
   6 N :    0.040286
   7 H :    0.126033
   8 H :    0.128752
   9 H :    0.126327
  10 H :    0.155288
  11 H :    0.154098

  Mayer bond orders larger than 0.1
B(  0-C ,  1-C ) :   0.9088 B(  0-C ,  7-H ) :   0.9344 B(  0-C ,  8-H ) :   0.9342
B(  0-C ,  9-H ) :   0.9331 B(  1-C ,  2-C ) :   0.9305 B(  1-C , 10-H ) :   0.9212
B(  1-C , 11-H ) :   0.9354 B(  2-C ,  3-N ) :   1.5922 B(  2-C ,  6-N ) :   1.1888
B(  3-N ,  4-O ) :   0.9550 B(  3-N ,  5-N ) :   0.1243 B(  4-O ,  5-N ) :   0.9257
B(  5-N ,  6-N ) :   1.4203

MP2 TOTAL ENERGY:     -356.067771024 Eh
FINAL SINGLE POINT ENERGY      -356.067771024249

DIPOLE MOMENT
-------------
                                X             Y             Z
Electronic contribution:     -8.09200      -6.27217       0.42376
Nuclear contribution   :      9.14982       6.73094      -0.34553
                        -----------------------------------------
Total Dipole Moment    :      1.05783       0.45877       0.07823
                        -----------------------------------------
Magnitude (a.u.)       :      1.15568
Magnitude (Debye)      :      2.93749

                             ****ORCA TERMINATED NORMALLY****
TOTAL RUN TIME: 0 days 0 hours 6 minutes 58 seconds 578 msec
