                         Program Version 3.0.3 - RELEASE   -
|  1> ! RI-MP2 RIJK def2-TZVP def2-TZVP/C def2-TZVP/JK TIGHTSCF
|  2> % maxcore 2000
|  3> % mp2 density relaxed end
|  4> *xyz 0 1
|  5>  C       -0.0367869463     1.5294043708    -0.0250416756
|  6>  C        1.5188388788     1.4567925859    -0.0049514160
|  7>  C        1.3523302352     0.1219978670     0.7800626034
|  8>  C       -0.0010986808    -0.0304215125     0.0177239225
|  9>  C        0.2973865445    -0.5350493742    -1.3794198946
| 10>  C        1.2834782498     0.0472796203    -2.0628310789
| 11>  C        2.0570552207     1.1781184462    -1.4207295275
| 12>  H       -0.4275796282     1.9539509831     0.9037354947
| 13>  H       -0.5243673090     1.9988021375    -0.8837221064
| 14>  H        2.0666729465     2.2719456224     0.4747942413
| 15>  H        2.1014761836    -0.6616130658     0.6381611225
| 16>  H        1.2008070885     0.3041229915     1.8475157438
| 17>  H       -0.8213475285    -0.5635208708     0.5010546480
| 18>  H       -0.2878086894    -1.3500611547    -1.7944603150
| 19>  H        1.5516322353    -0.2634706144    -3.0687246281
| 20>  H        1.9869648494     2.0848596804    -2.0386040232
| 21>  H        3.1272167700     0.9295908073    -1.3777312508
| 22> *
| 23>
| 24>                          ****END OF INPUT****

CARTESIAN COORDINATES (ANGSTROEM)
---------------------------------
  C     -0.036787    1.529404   -0.025042
  C      1.518839    1.456793   -0.004951
  C      1.352330    0.121998    0.780063
  C     -0.001099   -0.030422    0.017724
  C      0.297387   -0.535049   -1.379420
  C      1.283478    0.047280   -2.062831
  C      2.057055    1.178118   -1.420730
  H     -0.427580    1.953951    0.903735
  H     -0.524367    1.998802   -0.883722
  H      2.066673    2.271946    0.474794
  H      2.101476   -0.661613    0.638161
  H      1.200807    0.304123    1.847516
  H     -0.821348   -0.563521    0.501055
  H     -0.287809   -1.350061   -1.794460
  H      1.551632   -0.263471   -3.068725
  H      1.986965    2.084860   -2.038604
  H      3.127217    0.929591   -1.377731

 Total Charge           Charge          ....    0
 Multiplicity           Mult            ....    1
 Number of Electrons    NEL             ....   52
 Basis Dimension        Dim             ....  277

ORBITAL ENERGIES
----------------

  NO   OCC          E(Eh)            E(eV)
   0   2.0000     -11.227716      -305.5217
   1   2.0000     -11.226941      -305.5006
   2   2.0000     -11.222233      -305.3725
   3   2.0000     -11.218683      -305.2759
   4   2.0000     -11.217045      -305.2313
   5   2.0000     -11.217018      -305.2306
   6   2.0000     -11.216796      -305.2245
   7   2.0000      -1.164860       -31.6974
   8   2.0000      -1.027896       -27.9705
   9   2.0000      -0.981863       -26.7179
  10   2.0000      -0.891046       -24.2466
  11   2.0000      -0.820318       -22.3220
  12   2.0000      -0.784213       -21.3395
  13   2.0000      -0.695000       -18.9119
  14   2.0000      -0.674119       -18.3437
  15   2.0000      -0.606762       -16.5108
  16   2.0000      -0.588770       -16.0212
  17   2.0000      -0.576584       -15.6896
  18   2.0000      -0.530780       -14.4432
  19   2.0000      -0.530662       -14.4400
  20   2.0000      -0.526675       -14.3316
  21   2.0000      -0.477866       -13.0034
  22   2.0000      -0.435329       -11.8459
  23   2.0000      -0.432443       -11.7674
  24   2.0000      -0.415449       -11.3049
  25   2.0000      -0.334404        -9.0996
  26   0.0000       0.139342         3.7917
  27   0.0000       0.148589         4.0433
  28   0.0000       0.165266         4.4971
  29   0.0000       0.175948         4.7878
  30   0.0000       0.187195         5.0938

MULLIKEN ATOMIC CHARGES
-----------------------
   0 C :   -0.311235
   1 C :    0.035677
   2 C :   -0.311235
   3 C :    0.119265
   4 C :   -0.315082
   5 C :   -0.138843
   6 C :   -0.244383
   7 H :    0.117285
   8 H :    0.114225
   9 H :    0.108651
  10 H :    0.114225
  11 H :    0.117284
  12 H :    0.118124
  13 H :    0.116426
  14 H :    0.120023
  15 H :    0.119797
  16 H :    0.119797
Sum of atomic charges:    0.0000000

LOEWDIN ATOMIC CHARGES
----------------------
   0 C :   -0.193901
   1 C :   -0.214378
   2 C :   -0.193900
   3 C :   -0.207519
   4 C :   -0.149260
   5 C :   -0.167400
   6 C :   -0.230677
   7 H :    0.134556
   8 H :    0.127820
   9 H :    0.133836
  10 H :    0.127820
  11 H :    0.134556
  12 H :    0.135295
  13 H :    0.138616
  14 H :    0.137278
  15 H :    0.143629
  16 H :    0.143629

  Mayer bond orders larger than 0.1
B(  0-C ,  1-C ) :   0.9041 B(  0-C ,  3-C ) :   0.8875 B(  0-C ,  7-H ) :   0.9253
B(  0-C ,  8-H ) :   0.9233 B(  1-C ,  2-C ) :   0.9041 B(  1-C ,  6-C ) :   0.9169
B(  1-C ,  9-H ) :   0.9305 B(  2-C ,  3-C ) :   0.8875 B(  2-C , 10-H ) :   0.9233
B(  2-C , 11-H ) :   0.9253 B(  3-C ,  4-C ) :   0.8797 B(  3-C , 12-H ) :   0.9274
B(  4-C ,  5-C ) :   1.7974 B(  4-C , 13-H ) :   0.9350 B(  5-C ,  6-C ) :   0.9550
B(  5-C , 14-H ) :   0.9333 B(  6-C , 15-H ) :   0.9127 B(  6-C , 16-H ) :   0.9127

MP2 TOTAL ENERGY:     -272.071658737 Eh
FINAL SINGLE POINT ENERGY      -272.071658736670

DIPOLE MOMENT
-------------
                                X             Y             Z
Electronic contribution:     -0.56714      -1.02085      -0.80602
Nuclear contribution   :      0.61079       1.10714       0.88154
                        -----------------------------------------
Total Dipole Moment    :      0.04365       0.08629       0.07552
                        -----------------------------------------
Magnitude (a.u.)       :      0.12270
Magnitude (Debye)      :      0.31187

                             ****ORCA TERMINATED NORMALLY****
TOTAL RUN TIME: 0 days 0 hours 9 minutes 29 seconds 26 msec
