                         Program Version 3.0.3 - RELEASE   -
|  1> ! RI-MP2 RIJK def2-TZVP def2-TZVP/C def2-TZVP/JK TIGHTSCF
|  2> % maxcore 2000
|  3> % mp2 density relaxed end
|  4> *xyz 0 1
|  5>  C       -0.4610706301     1.3760349887    -0.0333373035
|  6>  C       -0.0838714227    -0.0977287794     0.0313117435
|  7>  C        0.8993227630    -0.5008381657    -1.0680844022
|  8>  C        1.0215741759    -2.0022457844    -1.3202597748
|  9>  O        1.4069020453    -2.4244977991    -2.3827447366
| 10>  C        0.6146999259    -2.9538318045    -0.1913620510
| 11>  N        1.0484161689    -2.6228355928     1.1531673069
| 12>  C        0.9657444004    -1.4999294861     1.7205823227
| 13>  O        0.4902937323    -0.2895403491     1.3405160779
| 14>  H        0.4337903140     2.0034329234     0.0193928555
| 15>  H       -0.9847844872     1.5930802330    -0.9684077009
| 16>  H       -1.1151267386     1.6368914833     0.8022079414
| 17>  H       -0.9965163458    -0.7041871377    -0.0348812902
| 18>  H        0.6244870106    -0.0402990841    -2.0217589175
| 19>  H        1.8931262055    -0.1118323039    -0.8091566438
| 20>  H       -0.4814781338    -3.0513933289    -0.2276777014
| 21>  H        1.0137991955    -3.9362371046    -0.4559458853
| 22>  H        1.3386368708    -1.4023548082     2.7405541393
| 23> *
| 24>
| 25>                          ****END OF INPUT****

CARTESIAN COORDINATES (ANGSTROEM)
---------------------------------
  C     -0.461071    1.376035   -0.033337
  C     -0.083871   -0.097729    0.031312
  C      0.899323   -0.500838   -1.068084
  C      1.021574   -2.002246   -1.320260
  O      1.406902   -2.424498   -2.382745
  C      0.614700   -2.953832   -0.191362
  N      1.048416   -2.622836    1.153167
  C      0.965744   -1.499929    1.720582
  O      0.490294   -0.289540    1.340516
  H      0.433790    2.003433    0.019393
  H     -0.984784    1.593080   -0.968408
  H     -1.115127    1.636891    0.802208
  H     -0.996516   -0.704187   -0.034881
  H      0.624487   -0.040299   -2.021759
  H      1.893126   -0.111832   -0.809157
  H     -0.481478   -3.051393   -0.227678
  H      1.013799   -3.936237   -0.455946
  H      1.338637   -1.402355    2.740554

 Total Charge           Charge          ....    0
 Multiplicity           Mult            ....    1
 Number of Electrons    NEL             ....   68
 Basis Dimension        Dim             ....  333

ORBITAL ENERGIES
----------------

  NO   OCC          E(Eh)            E(eV)
   0   2.0000     -20.606122      -560.7211
   1   2.0000     -20.553725      -559.2953
   2   2.0000     -15.557857      -423.3508
   3   2.0000     -11.346666      -308.7585
   4   2.0000     -11.339305      -308.5582
   5   2.0000     -11.317813      -307.9733
   6   2.0000     -11.273335      -306.7630
   7   2.0000     -11.252369      -306.1925
   8   2.0000     -11.238869      -305.8252
   9   2.0000      -1.436339       -39.0848
  10   2.0000      -1.399062       -38.0704
  11   2.0000      -1.228976       -33.4421
  12   2.0000      -1.102723       -30.0066
  13   2.0000      -1.004805       -27.3421
  14   2.0000      -0.979632       -26.6571
  15   2.0000      -0.885057       -24.0836
  16   2.0000      -0.793489       -21.5919
  17   2.0000      -0.766073       -20.8459
  18   2.0000      -0.719167       -19.5695
  19   2.0000      -0.700358       -19.0577
  20   2.0000      -0.659413       -17.9435
  21   2.0000      -0.642060       -17.4714
  22   2.0000      -0.622087       -16.9279
  23   2.0000      -0.610239       -16.6054
  24   2.0000      -0.582479       -15.8501
  25   2.0000      -0.573980       -15.6188
  26   2.0000      -0.563178       -15.3248
  27   2.0000      -0.548755       -14.9324
  28   2.0000      -0.520479       -14.1630
  29   2.0000      -0.509507       -13.8644
  30   2.0000      -0.498325       -13.5601
  31   2.0000      -0.446116       -12.1394
  32   2.0000      -0.407206       -11.0806
  33   2.0000      -0.391585       -10.6556
  34   0.0000       0.119324         3.2470
  35   0.0000       0.130054         3.5390
  36   0.0000       0.143564         3.9066
  37   0.0000       0.165145         4.4938
  38   0.0000       0.177716         4.8359

MULLIKEN ATOMIC CHARGES
-----------------------
   0 C :   -0.374756
   1 C :    0.036239
   2 C :   -0.222093
   3 C :    0.122148
   4 O :   -0.265505
   5 C :   -0.117383
   6 N :   -0.271381
   7 C :    0.074060
   8 O :   -0.243404
   9 H :    0.135990
  10 H :    0.134164
  11 H :    0.148261
  12 H :    0.108115
  13 H :    0.147258
  14 H :    0.152003
  15 H :    0.140392
  16 H :    0.155319
  17 H :    0.140572
Sum of atomic charges:    0.0000000

LOEWDIN ATOMIC CHARGES
----------------------
   0 C :   -0.284802
   1 C :   -0.313389
   2 C :   -0.213746
   3 C :   -0.324745
   4 O :    0.161470
   5 C :   -0.271540
   6 N :    0.079153
   7 C :   -0.370859
   8 O :    0.242083
   9 H :    0.130134
  10 H :    0.129620
  11 H :    0.130246
  12 H :    0.145408
  13 H :    0.160997
  14 H :    0.165662
  15 H :    0.149132
  16 H :    0.147917
  17 H :    0.137259

  Mayer bond orders larger than 0.1
B(  0-C ,  1-C ) :   0.9173 B(  0-C ,  9-H ) :   0.9326 B(  0-C , 10-H ) :   0.9344
B(  0-C , 11-H ) :   0.9376 B(  1-C ,  2-C ) :   0.8831 B(  1-C ,  8-O ) :   0.8615
B(  1-C , 12-H ) :   0.9406 B(  2-C ,  3-C ) :   0.8959 B(  2-C , 13-H ) :   0.9098
B(  2-C , 14-H ) :   0.8863 B(  3-C ,  4-O ) :   2.0226 B(  3-C ,  5-C ) :   0.8972
B(  5-C ,  6-N ) :   0.8845 B(  5-C , 15-H ) :   0.9039 B(  5-C , 16-H ) :   0.9270
B(  6-N ,  7-C ) :   1.8616 B(  7-C ,  8-O ) :   1.0754 B(  7-C , 17-H ) :   0.9237

MP2 TOTAL ENERGY:     -438.382278300 Eh
FINAL SINGLE POINT ENERGY      -438.382278300232

DIPOLE MOMENT
-------------
                                X             Y             Z
Electronic contribution:      3.08145      -5.38418       0.32439
Nuclear contribution   :     -3.83437       6.34423      -0.11684
                        -----------------------------------------
Total Dipole Moment    :     -0.75292       0.96005       0.20755
                        -----------------------------------------
Magnitude (a.u.)       :      1.23761
Magnitude (Debye)      :      3.14574

                             ****ORCA TERMINATED NORMALLY****
TOTAL RUN TIME: 0 days 0 hours 17 minutes 26 seconds 946 msec
