                         Program Version 3.0.3 - RELEASE   -
|  1> ! RI-MP2 RIJK def2-TZVP def2-TZVP/C def2-TZVP/JK TIGHTSCF
|  2> % maxcore 2000
|  3> % mp2 density relaxed end
|  4> *xyz 0 1
|  5>  C        0.0794753733    -1.1584195403     0.0674879529
|  6>  C        0.0489398449     0.0428269100     0.0250173894
|  7>  C       -0.0337412651     1.4776050906    -0.0231646157
|  8>  C        0.3393250521     2.2167995920    -1.2702166494
|  9>  N        1.2386886551     2.2605490503    -0.1190221931
| 10>  C        1.0999345295     3.4399411330     0.7689271504
| 11>  C       -0.2405840199     3.3681127458     1.5032405970
| 12>  C       -1.5232892369     3.5113316686     0.7249154978
| 13>  C       -0.9579794813     2.1384681487     0.9891384882
| 14>  H        0.1229721067    -2.2186838112     0.1015744133
| 15>  H        0.7216784655     1.6552309343    -2.1185683611
| 16>  H       -0.2304401492     3.1006614858    -1.5418924030
| 17>  H        1.9159743089     3.3979565870     1.4970620402
| 18>  H        1.2284382545     4.3600551546     0.1869144589
| 19>  H       -0.2481018797     3.6201647825     2.5581784071
| 20>  H       -2.4108397417     3.7833302996     1.2872675451
| 21>  H       -1.5049201912     3.9267028433    -0.2759266903
| 22>  H       -1.4924774455     1.4692486053     1.6509173424
| 23> *
| 24>
| 25>                          ****END OF INPUT****

CARTESIAN COORDINATES (ANGSTROEM)
---------------------------------
  C      0.079475   -1.158420    0.067488
  C      0.048940    0.042827    0.025017
  C     -0.033741    1.477605   -0.023165
  C      0.339325    2.216800   -1.270217
  N      1.238689    2.260549   -0.119022
  C      1.099935    3.439941    0.768927
  C     -0.240584    3.368113    1.503241
  C     -1.523289    3.511332    0.724915
  C     -0.957979    2.138468    0.989138
  H      0.122972   -2.218684    0.101574
  H      0.721678    1.655231   -2.118568
  H     -0.230440    3.100661   -1.541892
  H      1.915974    3.397957    1.497062
  H      1.228438    4.360055    0.186914
  H     -0.248102    3.620165    2.558178
  H     -2.410840    3.783330    1.287268
  H     -1.504920    3.926703   -0.275927
  H     -1.492477    1.469249    1.650917

 Total Charge           Charge          ....    0
 Multiplicity           Mult            ....    1
 Number of Electrons    NEL             ....   64
 Basis Dimension        Dim             ....  333

ORBITAL ENERGIES
----------------

  NO   OCC          E(Eh)            E(eV)
   0   2.0000     -15.565173      -423.5499
   1   2.0000     -11.290570      -307.2320
   2   2.0000     -11.263192      -306.4870
   3   2.0000     -11.258145      -306.3497
   4   2.0000     -11.245070      -305.9939
   5   2.0000     -11.239191      -305.8339
   6   2.0000     -11.237405      -305.7853
   7   2.0000     -11.232876      -305.6621
   8   2.0000     -11.222692      -305.3850
   9   2.0000      -1.292448       -35.1693
  10   2.0000      -1.145949       -31.1829
  11   2.0000      -1.048978       -28.5441
  12   2.0000      -0.994977       -27.0747
  13   2.0000      -0.906473       -24.6664
  14   2.0000      -0.845128       -22.9971
  15   2.0000      -0.801710       -21.8156
  16   2.0000      -0.789542       -21.4845
  17   2.0000      -0.728015       -19.8103
  18   2.0000      -0.699413       -19.0320
  19   2.0000      -0.641992       -17.4695
  20   2.0000      -0.633446       -17.2369
  21   2.0000      -0.608951       -16.5704
  22   2.0000      -0.581220       -15.8158
  23   2.0000      -0.549733       -14.9590
  24   2.0000      -0.523597       -14.2478
  25   2.0000      -0.501263       -13.6401
  26   2.0000      -0.471773       -12.8376
  27   2.0000      -0.432069       -11.7572
  28   2.0000      -0.425141       -11.5687
  29   2.0000      -0.398973       -10.8566
  30   2.0000      -0.381286       -10.3753
  31   2.0000      -0.350888        -9.5481
  32   0.0000       0.144598         3.9347
  33   0.0000       0.150209         4.0874
  34   0.0000       0.166144         4.5210
  35   0.0000       0.172763         4.7011
  36   0.0000       0.179863         4.8943

MULLIKEN ATOMIC CHARGES
-----------------------
   0 C :   -0.093538
   1 C :   -0.002253
   2 C :   -0.118334
   3 C :   -0.154296
   4 N :   -0.211380
   5 C :   -0.152574
   6 C :   -0.119274
   7 C :   -0.274271
   8 C :   -0.097341
   9 H :    0.192103
  10 H :    0.132949
  11 H :    0.109537
  12 H :    0.130889
  13 H :    0.121128
  14 H :    0.130620
  15 H :    0.133123
  16 H :    0.126517
  17 H :    0.146394
Sum of atomic charges:    0.0000000

LOEWDIN ATOMIC CHARGES
----------------------
   0 C :   -0.084276
   1 C :   -0.060523
   2 C :   -0.235288
   3 C :   -0.201717
   4 N :    0.141915
   5 C :   -0.245320
   6 C :   -0.194131
   7 C :   -0.199849
   8 C :   -0.145400
   9 H :    0.127202
  10 H :    0.132425
  11 H :    0.124364
  12 H :    0.139058
  13 H :    0.134263
  14 H :    0.144928
  15 H :    0.137289
  16 H :    0.130202
  17 H :    0.154857

  Mayer bond orders larger than 0.1
B(  0-C ,  1-C ) :   2.5929 B(  0-C ,  2-C ) :  -0.1789 B(  0-C ,  9-H ) :   0.8776
B(  1-C ,  2-C ) :   1.1478 B(  2-C ,  3-C ) :   0.9155 B(  2-C ,  4-N ) :   0.8006
B(  2-C ,  8-C ) :   0.9489 B(  3-C ,  4-N ) :   0.9202 B(  3-C , 10-H ) :   0.9125
B(  3-C , 11-H ) :   0.8979 B(  4-N ,  5-C ) :   0.9185 B(  5-C ,  6-C ) :   0.9544
B(  5-C , 12-H ) :   0.9275 B(  5-C , 13-H ) :   0.9286 B(  6-C ,  7-C ) :   0.8833
B(  6-C ,  8-C ) :   0.8468 B(  6-C , 14-H ) :   0.9208 B(  7-C ,  8-C ) :   0.8905
B(  7-C , 15-H ) :   0.9309 B(  7-C , 16-H ) :   0.9192 B(  8-C , 17-H ) :   0.9305

MP2 TOTAL ENERGY:     -364.066461625 Eh
FINAL SINGLE POINT ENERGY      -364.066461624672

DIPOLE MOMENT
-------------
                                X             Y             Z
Electronic contribution:      1.32244      -4.50661      -0.49175
Nuclear contribution   :     -1.85648       4.97864       0.64515
                        -----------------------------------------
Total Dipole Moment    :     -0.53404       0.47203       0.15340
                        -----------------------------------------
Magnitude (a.u.)       :      0.72907
Magnitude (Debye)      :      1.85314

                             ****ORCA TERMINATED NORMALLY****
TOTAL RUN TIME: 0 days 0 hours 19 minutes 40 seconds 151 msec
