                         Program Version 3.0.3 - RELEASE   -
|  1> ! RI-MP2 RIJK def2-TZVP def2-TZVP/C def2-TZVP/JK TIGHTSCF
|  2> % maxcore 2000
|  3> % mp2 density relaxed end
|  4> *xyz 0 1
|  5>  C        0.0301411027     1.5647067645    -0.0647001979
|  6>  C        0.0212793661     0.0571935519    -0.0234122716
|  7>  C        0.5663141280    -0.9614230731    -1.0391465146
|  8>  N       -0.0038150384    -1.8944102219     0.0313207064
|  9>  C        0.5871559962    -0.9059256591     1.0650085032
| 10>  C       -0.3247644158    -0.9709179256     2.2804472758
| 11>  C       -1.6951587026    -0.9378299465     1.5467729227
| 12>  O       -2.4599053068     0.2393516046     1.7709650132
| 13>  C       -1.1906722379    -0.9126290201     0.1116314855
| 14>  H        1.0544473262     1.9540952435    -0.0690411349
| 15>  H       -0.4717305162     1.9326152670    -0.9664262992
| 16>  H       -0.4974539520     1.9755894927     0.8005398284
| 17>  H        0.0624212546    -1.0471910433    -2.0072134282
| 18>  H        1.6514823336    -1.0468589594    -1.1578203723
| 19>  H        1.6671478309    -0.9882881249     1.2088145813
| 20>  H       -0.1689344050    -1.8890835126     2.8542787245
| 21>  H       -0.2088665753    -0.1118167065     2.9482094208
| 22>  H       -2.2944818459    -1.8356935816     1.7483427578
| 23>  H       -2.7926373791     0.2125727549     2.6732311213
| 24>  H       -1.9248050431    -0.9984287043    -0.6917563922
| 25> *
| 26>
| 27>                          ****END OF INPUT****

CARTESIAN COORDINATES (ANGSTROEM)
---------------------------------
  C      0.030141    1.564707   -0.064700
  C      0.021279    0.057194   -0.023412
  C      0.566314   -0.961423   -1.039147
  N     -0.003815   -1.894410    0.031321
  C      0.587156   -0.905926    1.065009
  C     -0.324764   -0.970918    2.280447
  C     -1.695159   -0.937830    1.546773
  O     -2.459905    0.239352    1.770965
  C     -1.190672   -0.912629    0.111631
  H      1.054447    1.954095   -0.069041
  H     -0.471731    1.932615   -0.966426
  H     -0.497454    1.975589    0.800540
  H      0.062421   -1.047191   -2.007213
  H      1.651482   -1.046859   -1.157820
  H      1.667148   -0.988288    1.208815
  H     -0.168934   -1.889084    2.854279
  H     -0.208867   -0.111817    2.948209
  H     -2.294482   -1.835694    1.748343
  H     -2.792637    0.212573    2.673231
  H     -1.924805   -0.998429   -0.691756

 Total Charge           Charge          ....    0
 Multiplicity           Mult            ....    1
 Number of Electrons    NEL             ....   68
 Basis Dimension        Dim             ....  345

ORBITAL ENERGIES
----------------

  NO   OCC          E(Eh)            E(eV)
   0   2.0000     -20.559828      -559.4614
   1   2.0000     -15.559685      -423.4006
   2   2.0000     -11.280342      -306.9537
   3   2.0000     -11.259547      -306.3879
   4   2.0000     -11.255177      -306.2689
   5   2.0000     -11.250308      -306.1364
   6   2.0000     -11.245534      -306.0065
   7   2.0000     -11.222350      -305.3757
   8   2.0000     -11.212984      -305.1208
   9   2.0000      -1.367074       -37.2000
  10   2.0000      -1.297267       -35.3004
  11   2.0000      -1.048512       -28.5315
  12   2.0000      -1.003947       -27.3188
  13   2.0000      -0.951609       -25.8946
  14   2.0000      -0.878277       -23.8991
  15   2.0000      -0.855753       -23.2862
  16   2.0000      -0.793610       -21.5952
  17   2.0000      -0.726034       -19.7564
  18   2.0000      -0.694707       -18.9040
  19   2.0000      -0.666168       -18.1274
  20   2.0000      -0.609247       -16.5784
  21   2.0000      -0.595623       -16.2077
  22   2.0000      -0.591143       -16.0858
  23   2.0000      -0.570617       -15.5273
  24   2.0000      -0.567353       -15.4384
  25   2.0000      -0.542370       -14.7586
  26   2.0000      -0.531363       -14.4591
  27   2.0000      -0.486237       -13.2312
  28   2.0000      -0.479338       -13.0434
  29   2.0000      -0.457426       -12.4472
  30   2.0000      -0.441247       -12.0070
  31   2.0000      -0.430773       -11.7219
  32   2.0000      -0.423634       -11.5277
  33   2.0000      -0.366654        -9.9772
  34   0.0000       0.132216         3.5978
  35   0.0000       0.147304         4.0084
  36   0.0000       0.167226         4.5504
  37   0.0000       0.170419         4.6373
  38   0.0000       0.185882         5.0581

MULLIKEN ATOMIC CHARGES
-----------------------
   0 C :   -0.390370
   1 C :    0.012621
   2 C :   -0.140219
   3 N :   -0.230416
   4 C :   -0.054345
   5 C :   -0.223514
   6 C :   -0.024454
   7 O :   -0.470031
   8 C :    0.017861
   9 H :    0.126707
  10 H :    0.130021
  11 H :    0.151290
  12 H :    0.111394
  13 H :    0.110679
  14 H :    0.114313
  15 H :    0.119418
  16 H :    0.106848
  17 H :    0.097536
  18 H :    0.317008
  19 H :    0.117651
Sum of atomic charges:    0.0000000

LOEWDIN ATOMIC CHARGES
----------------------
   0 C :   -0.282214
   1 C :   -0.221181
   2 C :   -0.211810
   3 N :    0.126806
   4 C :   -0.187124
   5 C :   -0.220972
   6 C :   -0.310412
   7 O :   -0.019132
   8 C :   -0.170146
   9 H :    0.126366
  10 H :    0.129774
  11 H :    0.132304
  12 H :    0.123255
  13 H :    0.122472
  14 H :    0.135882
  15 H :    0.139517
  16 H :    0.139374
  17 H :    0.133766
  18 H :    0.174032
  19 H :    0.139442

  Mayer bond orders larger than 0.1
B(  0-C ,  1-C ) :   0.8491 B(  0-C ,  9-H ) :   0.9334 B(  0-C , 10-H ) :   0.9344
B(  0-C , 11-H ) :   0.9381 B(  1-C ,  2-C ) :   0.9196 B(  1-C ,  4-C ) :   0.9402
B(  1-C ,  8-C ) :   0.9287 B(  2-C ,  3-N ) :   0.9204 B(  2-C , 12-H ) :   0.9245
B(  2-C , 13-H ) :   0.9261 B(  3-N ,  4-C ) :   0.9517 B(  3-N ,  8-C ) :   0.9625
B(  4-C ,  5-C ) :   0.9537 B(  4-C , 14-H ) :   0.9132 B(  5-C ,  6-C ) :   0.9805
B(  5-C , 15-H ) :   0.9030 B(  5-C , 16-H ) :   0.9032 B(  6-C ,  7-O ) :   1.0902
B(  6-C ,  8-C ) :   0.9125 B(  6-C , 17-H ) :   0.9441 B(  7-O ,  8-C ) :  -0.1025
B(  7-O , 18-H ) :   0.8452 B(  8-C , 19-H ) :   0.9081

MP2 TOTAL ENERGY:     -402.411880118 Eh
FINAL SINGLE POINT ENERGY      -402.411880117868

DIPOLE MOMENT
-------------
                                X             Y             Z
Electronic contribution:     -1.81227      -2.92494       0.42224
Nuclear contribution   :      1.85511       3.33659       0.07909
                        -----------------------------------------
Total Dipole Moment    :      0.04284       0.41165       0.50133
                        -----------------------------------------
Magnitude (a.u.)       :      0.65009
Magnitude (Debye)      :      1.65240

                             ****ORCA TERMINATED NORMALLY****
TOTAL RUN TIME: 0 days 0 hours 20 minutes 39 seconds 460 msec
