                         Program Version 3.0.3 - RELEASE   -
|  1> ! RI-MP2 RIJK def2-TZVP def2-TZVP/C def2-TZVP/JK TIGHTSCF
|  2> % maxcore 2000
|  3> % mp2 density relaxed end
|  4> *xyz 0 1
|  5>  C       -0.4849946816     1.3642874878    -0.1250909867
|  6>  C        0.0120345408    -0.0640528068     0.0130428000
|  7>  O        1.1818587500    -0.3107526879    -0.8093609527
|  8>  C        2.0339092271    -0.5363681180     0.3486143815
|  9>  C        2.7433526625    -1.8844191269     0.2561857952
| 10>  C        3.0011119784     0.5487605093     0.5155039320
| 11>  C        3.8071523802     1.4303069898     0.6560139528
| 12>  C        0.7869126931    -0.4706577052     1.2954590193
| 13>  C        0.7976004590     0.4330547081     2.5168985053
| 14>  H        0.3024339707     2.0846671170     0.1106407987
| 15>  H       -0.8082735761     1.5414399330    -1.1555559568
| 16>  H       -1.3399084351     1.5451640265     0.5357673060
| 17>  H       -0.7913808465    -0.7619162064    -0.2558266030
| 18>  H        3.4371077433    -1.8892907956    -0.5889641198
| 19>  H        3.3118456629    -2.0831110111     1.1701923666
| 20>  H        2.0075974113    -2.6800884155     0.1107341747
| 21>  H        4.5172348052     2.2119135666     0.7705247980
| 22>  H        0.5191241041    -1.4875850632     1.5961346145
| 23>  H        1.1035193650     1.4525909408     2.2725588334
| 24>  H       -0.1962839718     0.4718905185     2.9755312409
| 25>  H        1.4946069075     0.0527307192     3.2708879601
| 26> *
| 27>
| 28>                          ****END OF INPUT****

CARTESIAN COORDINATES (ANGSTROEM)
---------------------------------
  C     -0.484995    1.364287   -0.125091
  C      0.012035   -0.064053    0.013043
  O      1.181859   -0.310753   -0.809361
  C      2.033909   -0.536368    0.348614
  C      2.743353   -1.884419    0.256186
  C      3.001112    0.548761    0.515504
  C      3.807152    1.430307    0.656014
  C      0.786913   -0.470658    1.295459
  C      0.797600    0.433055    2.516899
  H      0.302434    2.084667    0.110641
  H     -0.808274    1.541440   -1.155556
  H     -1.339908    1.545164    0.535767
  H     -0.791381   -0.761916   -0.255827
  H      3.437108   -1.889291   -0.588964
  H      3.311846   -2.083111    1.170192
  H      2.007597   -2.680088    0.110734
  H      4.517235    2.211914    0.770525
  H      0.519124   -1.487585    1.596135
  H      1.103519    1.452591    2.272559
  H     -0.196284    0.471891    2.975531
  H      1.494607    0.052731    3.270888

 Total Charge           Charge          ....    0
 Multiplicity           Mult            ....    1
 Number of Electrons    NEL             ....   68
 Basis Dimension        Dim             ....  351

ORBITAL ENERGIES
----------------

  NO   OCC          E(Eh)            E(eV)
   0   2.0000     -20.546971      -559.1115
   1   2.0000     -11.311283      -307.7957
   2   2.0000     -11.281717      -306.9911
   3   2.0000     -11.240689      -305.8747
   4   2.0000     -11.231935      -305.6365
   5   2.0000     -11.225997      -305.4749
   6   2.0000     -11.222506      -305.3799
   7   2.0000     -11.220506      -305.3255
   8   2.0000     -11.214490      -305.1618
   9   2.0000      -1.379566       -37.5399
  10   2.0000      -1.078163       -29.3383
  11   2.0000      -1.050165       -28.5764
  12   2.0000      -1.004106       -27.3231
  13   2.0000      -0.972878       -26.4733
  14   2.0000      -0.894321       -24.3357
  15   2.0000      -0.860854       -23.4250
  16   2.0000      -0.761113       -20.7109
  17   2.0000      -0.704657       -19.1747
  18   2.0000      -0.678562       -18.4646
  19   2.0000      -0.658344       -17.9144
  20   2.0000      -0.639002       -17.3881
  21   2.0000      -0.577692       -15.7198
  22   2.0000      -0.572118       -15.5681
  23   2.0000      -0.563287       -15.3278
  24   2.0000      -0.558559       -15.1992
  25   2.0000      -0.545681       -14.8487
  26   2.0000      -0.538051       -14.6411
  27   2.0000      -0.523417       -14.2429
  28   2.0000      -0.498222       -13.5573
  29   2.0000      -0.454910       -12.3787
  30   2.0000      -0.445418       -12.1204
  31   2.0000      -0.421291       -11.4639
  32   2.0000      -0.392706       -10.6861
  33   2.0000      -0.383551       -10.4370
  34   0.0000       0.129515         3.5243
  35   0.0000       0.153172         4.1680
  36   0.0000       0.159276         4.3341
  37   0.0000       0.165759         4.5105
  38   0.0000       0.169410         4.6099

MULLIKEN ATOMIC CHARGES
-----------------------
   0 C :   -0.420575
   1 C :    0.111632
   2 O :   -0.325652
   3 C :    0.116473
   4 C :   -0.389095
   5 C :   -0.071408
   6 C :   -0.126841
   7 C :   -0.101786
   8 C :   -0.407516
   9 H :    0.141148
  10 H :    0.141050
  11 H :    0.122429
  12 H :    0.089628
  13 H :    0.142903
  14 H :    0.131990
  15 H :    0.132237
  16 H :    0.190678
  17 H :    0.109477
  18 H :    0.139316
  19 H :    0.135135
  20 H :    0.138777
Sum of atomic charges:    0.0000000

LOEWDIN ATOMIC CHARGES
----------------------
   0 C :   -0.294370
   1 C :   -0.278634
   2 O :    0.185008
   3 C :   -0.311230
   4 C :   -0.251968
   5 C :   -0.060678
   6 C :   -0.084869
   7 C :   -0.191296
   8 C :   -0.290092
   9 H :    0.128114
  10 H :    0.129633
  11 H :    0.126615
  12 H :    0.133057
  13 H :    0.134293
  14 H :    0.132447
  15 H :    0.128131
  16 H :    0.127632
  17 H :    0.152617
  18 H :    0.129209
  19 H :    0.127095
  20 H :    0.129286

  Mayer bond orders larger than 0.1
B(  0-C ,  1-C ) :   0.9023 B(  0-C ,  9-H ) :   0.9428 B(  0-C , 10-H ) :   0.9328
B(  0-C , 11-H ) :   0.9259 B(  1-C ,  2-O ) :   0.9322 B(  1-C ,  7-C ) :   0.9300
B(  1-C , 12-H ) :   0.9154 B(  2-O ,  3-C ) :   0.9364 B(  3-C ,  4-C ) :   0.9041
B(  3-C ,  5-C ) :   1.1880 B(  3-C ,  6-C ) :  -0.1035 B(  3-C ,  7-C ) :   0.9193
B(  4-C , 13-H ) :   0.9329 B(  4-C , 14-H ) :   0.9275 B(  4-C , 15-H ) :   0.9346
B(  5-C ,  6-C ) :   2.5666 B(  6-C , 16-H ) :   0.8864 B(  7-C ,  8-C ) :   0.9312
B(  7-C , 17-H ) :   0.9309 B(  8-C , 18-H ) :   0.9338 B(  8-C , 19-H ) :   0.9367
B(  8-C , 20-H ) :   0.9357

MP2 TOTAL ENERGY:     -386.367518845 Eh
FINAL SINGLE POINT ENERGY      -386.367518844537

DIPOLE MOMENT
-------------
                                X             Y             Z
Electronic contribution:      3.85182       0.01586      -3.62719
Nuclear contribution   :     -4.06394      -0.06021       4.34700
                        -----------------------------------------
Total Dipole Moment    :     -0.21212      -0.04435       0.71981
                        -----------------------------------------
Magnitude (a.u.)       :      0.75172
Magnitude (Debye)      :      1.91072

                             ****ORCA TERMINATED NORMALLY****
TOTAL RUN TIME: 0 days 0 hours 21 minutes 35 seconds 83 msec
