                         Program Version 3.0.3 - RELEASE   -
|  1> ! RI-MP2 RIJK def2-TZVP def2-TZVP/C def2-TZVP/JK TIGHTSCF
|  2> % maxcore 2000
|  3> % mp2 density relaxed end
|  4> *xyz 0 1
|  5>  C       -0.0043744221     1.5535404496     0.0208485914
|  6>  C        0.0413202458     0.0512796050     0.0855421124
|  7>  C       -1.2521305427    -0.7995973141     0.2444268845
|  8>  C       -0.3572055103    -1.8641707381     0.8709816970
|  9>  C        0.9764114210    -1.8458668780     0.1138747468
| 10>  C        0.7072582040    -0.8504667917     1.2133581733
| 11>  C        0.8872687484    -0.7613009754    -0.9662607524
| 12>  C        0.3258376859    -1.0471791206    -2.2755206475
| 13>  C       -0.1439628555    -1.2760072377    -3.3595996599
| 14>  H        1.0018410537     1.9870495061     0.0230121094
| 15>  H       -0.5083771047     1.8825925646    -0.8954960475
| 16>  H       -0.5521838031     1.9705847682     0.8727443342
| 17>  H       -1.9197184189    -0.3554437995     0.9889342502
| 18>  H       -1.8112715306    -1.0380052040    -0.6661219055
| 19>  H       -0.6498237606    -2.7340218407     1.4447518010
| 20>  H        1.6476067674    -2.6945413348     0.1309093286
| 21>  H        1.2392670417    -0.6222471200     2.1253540332
| 22>  H        1.8661177021    -0.2805356456    -1.0750282536
| 23>  H       -0.5557753915    -1.4843710132    -4.3158516458
| 24> *
| 25>
| 26>                          ****END OF INPUT****

CARTESIAN COORDINATES (ANGSTROEM)
---------------------------------
  C     -0.004374    1.553540    0.020849
  C      0.041320    0.051280    0.085542
  C     -1.252131   -0.799597    0.244427
  C     -0.357206   -1.864171    0.870982
  C      0.976411   -1.845867    0.113875
  C      0.707258   -0.850467    1.213358
  C      0.887269   -0.761301   -0.966261
  C      0.325838   -1.047179   -2.275521
  C     -0.143963   -1.276007   -3.359600
  H      1.001841    1.987050    0.023012
  H     -0.508377    1.882593   -0.895496
  H     -0.552184    1.970585    0.872744
  H     -1.919718   -0.355444    0.988934
  H     -1.811272   -1.038005   -0.666122
  H     -0.649824   -2.734022    1.444752
  H      1.647607   -2.694541    0.130909
  H      1.239267   -0.622247    2.125354
  H      1.866118   -0.280536   -1.075028
  H     -0.555775   -1.484371   -4.315852

 Total Charge           Charge          ....    0
 Multiplicity           Mult            ....    1
 Number of Electrons    NEL             ....   64
 Basis Dimension        Dim             ....  339

ORBITAL ENERGIES
----------------

  NO   OCC          E(Eh)            E(eV)
   0   2.0000     -11.252677      -306.2009
   1   2.0000     -11.251179      -306.1601
   2   2.0000     -11.238440      -305.8135
   3   2.0000     -11.234349      -305.7022
   4   2.0000     -11.231559      -305.6263
   5   2.0000     -11.226658      -305.4929
   6   2.0000     -11.221103      -305.3417
   7   2.0000     -11.218181      -305.2622
   8   2.0000     -11.216374      -305.2131
   9   2.0000      -1.236366       -33.6432
  10   2.0000      -1.046608       -28.4796
  11   2.0000      -1.012895       -27.5623
  12   2.0000      -0.970872       -26.4188
  13   2.0000      -0.923592       -25.1322
  14   2.0000      -0.839945       -22.8561
  15   2.0000      -0.769486       -20.9388
  16   2.0000      -0.731878       -19.9154
  17   2.0000      -0.705301       -19.1922
  18   2.0000      -0.663368       -18.0512
  19   2.0000      -0.642578       -17.4854
  20   2.0000      -0.620682       -16.8896
  21   2.0000      -0.585367       -15.9286
  22   2.0000      -0.560719       -15.2579
  23   2.0000      -0.553902       -15.0724
  24   2.0000      -0.531482       -14.4624
  25   2.0000      -0.486650       -13.2424
  26   2.0000      -0.449288       -12.2258
  27   2.0000      -0.443272       -12.0620
  28   2.0000      -0.404069       -10.9953
  29   2.0000      -0.388087       -10.5604
  30   2.0000      -0.372896       -10.1470
  31   2.0000      -0.362896        -9.8749
  32   0.0000       0.139488         3.7957
  33   0.0000       0.159825         4.3491
  34   0.0000       0.165213         4.4957
  35   0.0000       0.169090         4.6012
  36   0.0000       0.179918         4.8958

MULLIKEN ATOMIC CHARGES
-----------------------
   0 C :   -0.398494
   1 C :    0.093966
   2 C :   -0.181012
   3 C :   -0.188183
   4 C :   -0.132634
   5 C :   -0.192186
   6 C :   -0.151183
   7 C :   -0.042080
   8 C :   -0.168099
   9 H :    0.131034
  10 H :    0.145064
  11 H :    0.133696
  12 H :    0.108270
  13 H :    0.122511
  14 H :    0.131205
  15 H :    0.137132
  16 H :    0.147066
  17 H :    0.116876
  18 H :    0.187054
Sum of atomic charges:   -0.0000000

LOEWDIN ATOMIC CHARGES
----------------------
   0 C :   -0.273670
   1 C :   -0.179968
   2 C :   -0.171501
   3 C :   -0.161055
   4 C :   -0.131056
   5 C :   -0.106291
   6 C :   -0.165311
   7 C :   -0.083441
   8 C :   -0.101410
   9 H :    0.128281
  10 H :    0.134853
  11 H :    0.128943
  12 H :    0.140248
  13 H :    0.131445
  14 H :    0.137179
  15 H :    0.139760
  16 H :    0.133646
  17 H :    0.173666
  18 H :    0.125683

  Mayer bond orders larger than 0.1
B(  0-C ,  1-C ) :   0.8683 B(  0-C ,  9-H ) :   0.9372 B(  0-C , 10-H ) :   0.9408
B(  0-C , 11-H ) :   0.9364 B(  1-C ,  2-C ) :   0.9483 B(  1-C ,  5-C ) :   0.8990
B(  1-C ,  6-C ) :   0.9052 B(  2-C ,  3-C ) :   0.9616 B(  2-C , 12-H ) :   0.9279
B(  2-C , 13-H ) :   0.9037 B(  3-C ,  4-C ) :   0.8382 B(  3-C ,  5-C ) :   0.8604
B(  3-C , 14-H ) :   0.9370 B(  4-C ,  5-C ) :   0.8330 B(  4-C ,  6-C ) :   0.9116
B(  4-C , 15-H ) :   0.9289 B(  5-C , 16-H ) :   0.9067 B(  6-C ,  7-C ) :   1.1567
B(  6-C , 17-H ) :   0.9399 B(  7-C ,  8-C ) :   2.5762 B(  8-C , 18-H ) :   0.8959

MP2 TOTAL ENERGY:     -348.020266371 Eh
FINAL SINGLE POINT ENERGY      -348.020266371208

DIPOLE MOMENT
-------------
                                X             Y             Z
Electronic contribution:      1.36240      -3.51037      -2.38801
Nuclear contribution   :     -1.33349       3.63069       2.69102
                        -----------------------------------------
Total Dipole Moment    :      0.02892       0.12031       0.30301
                        -----------------------------------------
Magnitude (a.u.)       :      0.32730
Magnitude (Debye)      :      0.83192

                             ****ORCA TERMINATED NORMALLY****
TOTAL RUN TIME: 0 days 0 hours 21 minutes 5 seconds 921 msec
