                         Program Version 3.0.3 - RELEASE   -
|  1> ! RI-MP2 RIJK def2-TZVP def2-TZVP/C def2-TZVP/JK TIGHTSCF
|  2> % maxcore 2000
|  3> % mp2 density relaxed end
|  4> *xyz 0 1
|  5>  C       -0.0219675541     1.4443458602    -0.0719962334
|  6>  N        0.1166608650     0.0060521575     0.0486698533
|  7>  C       -1.1121095629    -0.7855109973     0.3139976290
|  8>  C       -0.3940405695    -1.5205591787     1.4805154828
|  9>  O        0.0836989049    -2.8282322840     1.2409224727
| 10>  C        1.2753775194    -2.7415920126     0.4663393371
| 11>  C        1.9763349419    -1.4207178857     0.8702891326
| 12>  O        2.7507548948    -0.8593508235    -0.1609277655
| 13>  C        0.7777222012    -0.5346887480     1.2646691128
| 14>  H        0.9685757303     1.9060350074    -0.1299753174
| 15>  H       -0.5628585403     1.6889086056    -0.9920964325
| 16>  H       -0.5664781441     1.9008766309     0.7751783305
| 17>  H       -1.9539946702    -0.1696778724     0.6609608556
| 18>  H       -1.4440566195    -1.4081381063    -0.5234058785
| 19>  H       -0.9278876808    -1.5280080508     2.4311230808
| 20>  H        1.8708497573    -3.6350665787     0.6679024676
| 21>  H        1.0542969773    -2.7068840184    -0.6112365182
| 22>  H        2.6392602971    -1.5797603030     1.7259792067
| 23>  H        2.0938985929    -0.5115019222    -0.7850197082
| 24>  H        0.9927962493     0.2041518401     2.0424314919
| 25> *
| 26>
| 27>                          ****END OF INPUT****

CARTESIAN COORDINATES (ANGSTROEM)
---------------------------------
  C     -0.021968    1.444346   -0.071996
  N      0.116661    0.006052    0.048670
  C     -1.112110   -0.785511    0.313998
  C     -0.394041   -1.520559    1.480515
  O      0.083699   -2.828232    1.240922
  C      1.275378   -2.741592    0.466339
  C      1.976335   -1.420718    0.870289
  O      2.750755   -0.859351   -0.160928
  C      0.777722   -0.534689    1.264669
  H      0.968576    1.906035   -0.129975
  H     -0.562859    1.688909   -0.992096
  H     -0.566478    1.900877    0.775178
  H     -1.953995   -0.169678    0.660961
  H     -1.444057   -1.408138   -0.523406
  H     -0.927888   -1.528008    2.431123
  H      1.870850   -3.635067    0.667902
  H      1.054297   -2.706884   -0.611237
  H      2.639260   -1.579760    1.725979
  H      2.093899   -0.511502   -0.785020
  H      0.992796    0.204152    2.042431

 Total Charge           Charge          ....    0
 Multiplicity           Mult            ....    1
 Number of Electrons    NEL             ....   70
 Basis Dimension        Dim             ....  345

ORBITAL ENERGIES
----------------

  NO   OCC          E(Eh)            E(eV)
   0   2.0000     -20.559325      -559.4477
   1   2.0000     -20.550404      -559.2049
   2   2.0000     -15.559474      -423.3948
   3   2.0000     -11.286292      -307.1156
   4   2.0000     -11.278997      -306.9171
   5   2.0000     -11.270685      -306.6909
   6   2.0000     -11.261261      -306.4345
   7   2.0000     -11.259040      -306.3741
   8   2.0000     -11.254799      -306.2586
   9   2.0000      -1.391234       -37.8574
  10   2.0000      -1.358766       -36.9739
  11   2.0000      -1.250536       -34.0288
  12   2.0000      -1.030449       -28.0399
  13   2.0000      -1.011767       -27.5316
  14   2.0000      -0.929912       -25.3042
  15   2.0000      -0.880157       -23.9503
  16   2.0000      -0.810127       -22.0447
  17   2.0000      -0.754969       -20.5438
  18   2.0000      -0.725277       -19.7358
  19   2.0000      -0.680604       -18.5202
  20   2.0000      -0.670270       -18.2390
  21   2.0000      -0.621460       -16.9108
  22   2.0000      -0.618207       -16.8223
  23   2.0000      -0.601535       -16.3686
  24   2.0000      -0.595958       -16.2169
  25   2.0000      -0.581691       -15.8286
  26   2.0000      -0.551227       -14.9997
  27   2.0000      -0.537500       -14.6261
  28   2.0000      -0.525431       -14.2977
  29   2.0000      -0.509498       -13.8642
  30   2.0000      -0.479042       -13.0354
  31   2.0000      -0.453633       -12.3440
  32   2.0000      -0.440247       -11.9797
  33   2.0000      -0.406086       -11.0502
  34   2.0000      -0.368857       -10.0371
  35   0.0000       0.133738         3.6392
  36   0.0000       0.152462         4.1487
  37   0.0000       0.165497         4.5034
  38   0.0000       0.169713         4.6181
  39   0.0000       0.194228         5.2852

MULLIKEN ATOMIC CHARGES
-----------------------
   0 C :   -0.332263
   1 N :   -0.258657
   2 C :   -0.174494
   3 C :    0.022336
   4 O :   -0.316398
   5 C :   -0.030977
   6 C :    0.006252
   7 O :   -0.471595
   8 C :    0.058861
   9 H :    0.144635
  10 H :    0.143314
  11 H :    0.110512
  12 H :    0.111337
  13 H :    0.116117
  14 H :    0.119953
  15 H :    0.121292
  16 H :    0.090252
  17 H :    0.102026
  18 H :    0.325398
  19 H :    0.112099
Sum of atomic charges:    0.0000000

LOEWDIN ATOMIC CHARGES
----------------------
   0 C :   -0.341258
   1 N :    0.069685
   2 C :   -0.227085
   3 C :   -0.271675
   4 O :    0.172715
   5 C :   -0.282276
   6 C :   -0.330175
   7 O :   -0.013060
   8 C :   -0.213357
   9 H :    0.120617
  10 H :    0.119650
  11 H :    0.104014
  12 H :    0.125234
  13 H :    0.125928
  14 H :    0.134682
  15 H :    0.127220
  16 H :    0.122769
  17 H :    0.143011
  18 H :    0.175374
  19 H :    0.137986

  Mayer bond orders larger than 0.1
B(  0-C ,  1-N ) :   0.8950 B(  0-C ,  9-H ) :   0.9345 B(  0-C , 10-H ) :   0.9375
B(  0-C , 11-H ) :   0.9257 B(  1-N ,  2-C ) :   0.9087 B(  1-N ,  8-C ) :   0.8835
B(  2-C ,  3-C ) :   0.9066 B(  2-C , 12-H ) :   0.9147 B(  2-C , 13-H ) :   0.9134
B(  3-C ,  4-O ) :   0.9957 B(  3-C ,  8-C ) :   0.9333 B(  3-C , 14-H ) :   0.9352
B(  4-O ,  5-C ) :   0.9102 B(  5-C ,  6-C ) :   0.9120 B(  5-C , 15-H ) :   0.9277
B(  5-C , 16-H ) :   0.9164 B(  6-C ,  7-O ) :   0.9852 B(  6-C ,  8-C ) :   0.8978
B(  6-C , 17-H ) :   0.9263 B(  7-O , 18-H ) :   0.8075 B(  8-C , 19-H ) :   0.9096

MP2 TOTAL ENERGY:     -439.544367555 Eh
FINAL SINGLE POINT ENERGY      -439.544367554714

DIPOLE MOMENT
-------------
                                X             Y             Z
Electronic contribution:      1.90841      -4.35588       1.25514
Nuclear contribution   :     -2.56240       5.01530      -1.07604
                        -----------------------------------------
Total Dipole Moment    :     -0.65399       0.65942       0.17911
                        -----------------------------------------
Magnitude (a.u.)       :      0.94584
Magnitude (Debye)      :      2.40414

                             ****ORCA TERMINATED NORMALLY****
TOTAL RUN TIME: 0 days 0 hours 16 minutes 46 seconds 20 msec
