                         Program Version 3.0.3 - RELEASE   -
|  1> ! RI-MP2 RIJK def2-TZVP def2-TZVP/C def2-TZVP/JK TIGHTSCF
|  2> % maxcore 2000
|  3> % mp2 density relaxed end
|  4> *xyz 0 1
|  5>  O       -0.0594649238     1.3856084271     0.0609072760
|  6>  C        0.0568578554     0.0090748613     0.0518856595
|  7>  C        0.7567335558    -0.9467519623     1.0138864041
|  8>  N        0.0836090122    -1.9201619607     0.0517628438
|  9>  C       -1.1453099819    -0.9673749034    -0.0602984724
| 10>  C       -1.0849357323    -1.0233846245    -1.5747453924
| 11>  C       -1.8124012384    -1.8448074805    -2.5831209123
| 12>  C       -1.8515677031    -0.3235910131    -2.6440601086
| 13>  C        0.3675630536    -0.9710049350    -1.1432765362
| 14>  H        0.8209774323     1.7705885439    -0.0132022196
| 15>  H        1.8504203894    -1.0033179088     0.9940484234
| 16>  H        0.3806889252    -1.0156463012     2.0395726894
| 17>  H       -1.9878824424    -1.0710657352     0.6251047915
| 18>  H       -1.2331946528    -2.3702365369    -3.3354542624
| 19>  H       -2.7123357368    -2.3650925188    -2.2716994604
| 20>  H       -2.7765413663     0.1752059077    -2.3736597975
| 21>  H       -1.2990310141     0.1688764691    -3.4378116860
| 22>  H        1.2876532181    -1.0716619088    -1.7222511699
| 23> *
| 24>
| 25>                          ****END OF INPUT****

CARTESIAN COORDINATES (ANGSTROEM)
---------------------------------
  O     -0.059465    1.385608    0.060907
  C      0.056858    0.009075    0.051886
  C      0.756734   -0.946752    1.013886
  N      0.083609   -1.920162    0.051763
  C     -1.145310   -0.967375   -0.060298
  C     -1.084936   -1.023385   -1.574745
  C     -1.812401   -1.844807   -2.583121
  C     -1.851568   -0.323591   -2.644060
  C      0.367563   -0.971005   -1.143277
  H      0.820977    1.770589   -0.013202
  H      1.850420   -1.003318    0.994048
  H      0.380689   -1.015646    2.039573
  H     -1.987882   -1.071066    0.625105
  H     -1.233195   -2.370237   -3.335454
  H     -2.712336   -2.365093   -2.271699
  H     -2.776541    0.175206   -2.373660
  H     -1.299031    0.168876   -3.437812
  H      1.287653   -1.071662   -1.722251

 Total Charge           Charge          ....    0
 Multiplicity           Mult            ....    1
 Number of Electrons    NEL             ....   66
 Basis Dimension        Dim             ....  333

ORBITAL ENERGIES
----------------

  NO   OCC          E(Eh)            E(eV)
   0   2.0000     -20.574267      -559.8543
   1   2.0000     -15.568728      -423.6466
   2   2.0000     -11.305397      -307.6355
   3   2.0000     -11.272360      -306.7365
   4   2.0000     -11.271573      -306.7151
   5   2.0000     -11.254718      -306.2565
   6   2.0000     -11.243461      -305.9501
   7   2.0000     -11.225429      -305.4594
   8   2.0000     -11.223925      -305.4185
   9   2.0000      -1.390114       -37.8269
  10   2.0000      -1.311531       -35.6886
  11   2.0000      -1.137348       -30.9488
  12   2.0000      -0.989727       -26.9318
  13   2.0000      -0.915280       -24.9060
  14   2.0000      -0.887927       -24.1617
  15   2.0000      -0.823156       -22.3992
  16   2.0000      -0.793827       -21.6011
  17   2.0000      -0.721528       -19.6338
  18   2.0000      -0.702409       -19.1135
  19   2.0000      -0.669374       -18.2146
  20   2.0000      -0.655769       -17.8444
  21   2.0000      -0.621248       -16.9050
  22   2.0000      -0.605197       -16.4683
  23   2.0000      -0.587008       -15.9733
  24   2.0000      -0.522477       -14.2173
  25   2.0000      -0.515616       -14.0306
  26   2.0000      -0.484780       -13.1915
  27   2.0000      -0.461781       -12.5657
  28   2.0000      -0.450532       -12.2596
  29   2.0000      -0.429080       -11.6759
  30   2.0000      -0.418676       -11.3927
  31   2.0000      -0.394053       -10.7227
  32   2.0000      -0.377756       -10.2793
  33   0.0000       0.130649         3.5552
  34   0.0000       0.153644         4.1809
  35   0.0000       0.158846         4.3224
  36   0.0000       0.178088         4.8460
  37   0.0000       0.183005         4.9798

MULLIKEN ATOMIC CHARGES
-----------------------
   0 O :   -0.437887
   1 C :    0.134046
   2 C :   -0.136792
   3 N :   -0.197309
   4 C :   -0.064410
   5 C :    0.008918
   6 C :   -0.267954
   7 C :   -0.282483
   8 C :   -0.094464
   9 H :    0.324477
  10 H :    0.111193
  11 H :    0.115282
  12 H :    0.135750
  13 H :    0.128077
  14 H :    0.129475
  15 H :    0.130235
  16 H :    0.125873
  17 H :    0.137973
Sum of atomic charges:   -0.0000000

LOEWDIN ATOMIC CHARGES
----------------------
   0 O :    0.026378
   1 C :   -0.331875
   2 C :   -0.228020
   3 N :    0.143294
   4 C :   -0.109798
   5 C :   -0.205531
   6 C :   -0.199088
   7 C :   -0.199261
   8 C :   -0.124340
   9 H :    0.182687
  10 H :    0.121216
  11 H :    0.124064
  12 H :    0.131387
  13 H :    0.135335
  14 H :    0.135791
  15 H :    0.135766
  16 H :    0.134450
  17 H :    0.127543

  Mayer bond orders larger than 0.1
B(  0-O ,  1-C ) :   1.1401 B(  0-O ,  9-H ) :   0.8324 B(  1-C ,  2-C ) :   0.9854
B(  1-C ,  4-C ) :   0.9358 B(  1-C ,  8-C ) :   0.8991 B(  2-C ,  3-N ) :   0.9225
B(  2-C , 10-H ) :   0.9159 B(  2-C , 11-H ) :   0.9224 B(  3-N ,  4-C ) :   0.9706
B(  3-N ,  8-C ) :   0.9722 B(  4-C ,  5-C ) :   0.8939 B(  4-C , 12-H ) :   0.8678
B(  5-C ,  6-C ) :   0.8551 B(  5-C ,  7-C ) :   0.8620 B(  5-C ,  8-C ) :   0.8766
B(  6-C ,  7-C ) :   0.9391 B(  6-C , 13-H ) :   0.9176 B(  6-C , 14-H ) :   0.9181
B(  7-C , 15-H ) :   0.9151 B(  7-C , 16-H ) :   0.9167 B(  8-C , 17-H ) :   0.8591

MP2 TOTAL ENERGY:     -401.137640267 Eh
FINAL SINGLE POINT ENERGY      -401.137640267368

DIPOLE MOMENT
-------------
                                X             Y             Z
Electronic contribution:      1.51482       1.05448       2.50255
Nuclear contribution   :     -1.05108      -0.54962      -2.63766
                        -----------------------------------------
Total Dipole Moment    :      0.46374       0.50486      -0.13511
                        -----------------------------------------
Magnitude (a.u.)       :      0.69871
Magnitude (Debye)      :      1.77597

                             ****ORCA TERMINATED NORMALLY****
TOTAL RUN TIME: 0 days 0 hours 18 minutes 16 seconds 18 msec
