                         Program Version 3.0.3 - RELEASE   -
|  1> ! RI-MP2 RIJK def2-TZVP def2-TZVP/C def2-TZVP/JK TIGHTSCF
|  2> % maxcore 2000
|  3> % mp2 density relaxed end
|  4> *xyz 0 1
|  5>  C       -0.1792109183     1.4585678234    -0.0463501121
|  6>  C        0.0140784746    -0.0563759356    -0.0055680659
|  7>  C        0.7788151572    -0.4875556315     1.2556834283
|  8>  O       -1.2963405908    -0.6234087422    -0.0012899024
|  9>  C        0.7481206628    -0.5225790923    -1.2714294067
| 10>  O        0.7485483420    -1.9408183391    -1.2867351636
| 11>  C        1.4529743567    -2.5030271769    -2.3812012845
| 12>  C        1.2184903892    -4.0039331909    -2.3540928192
| 13>  O       -0.1434398540    -4.3285671322    -2.5513742881
| 14>  H        0.7831432561     1.9785561452    -0.0733467278
| 15>  H       -0.7618569943     1.7467025513    -0.9258760051
| 16>  H       -0.7235122850     1.7865269929     0.8434127480
| 17>  H        0.1989646401    -0.2268266841     2.1449197016
| 18>  H        0.9461053991    -1.5681694513     1.2504060853
| 19>  H        1.7545764959     0.0060114373     1.3189373228
| 20>  H       -1.1783699026    -1.5694152730    -0.1432678155
| 21>  H        0.2311515689    -0.1384699711    -2.1641309474
| 22>  H        1.7814048931    -0.1413590936    -1.2813014117
| 23>  H        1.0794615769    -2.0847477333    -3.3288929391
| 24>  H        2.5286553438    -2.2759006929    -2.3043106060
| 25>  H        1.7807953497    -4.4755623984    -3.1665166926
| 26>  H        1.5978348986    -4.4082691708    -1.4019794400
| 27>  H       -0.6407870597    -3.7950247410    -1.9221593182
| 28> *
| 29>
| 30>                          ****END OF INPUT****

CARTESIAN COORDINATES (ANGSTROEM)
---------------------------------
  C     -0.179211    1.458568   -0.046350
  C      0.014078   -0.056376   -0.005568
  C      0.778815   -0.487556    1.255683
  O     -1.296341   -0.623409   -0.001290
  C      0.748121   -0.522579   -1.271429
  O      0.748548   -1.940818   -1.286735
  C      1.452974   -2.503027   -2.381201
  C      1.218490   -4.003933   -2.354093
  O     -0.143440   -4.328567   -2.551374
  H      0.783143    1.978556   -0.073347
  H     -0.761857    1.746703   -0.925876
  H     -0.723512    1.786527    0.843413
  H      0.198965   -0.226827    2.144920
  H      0.946105   -1.568169    1.250406
  H      1.754576    0.006011    1.318937
  H     -1.178370   -1.569415   -0.143268
  H      0.231152   -0.138470   -2.164131
  H      1.781405   -0.141359   -1.281301
  H      1.079462   -2.084748   -3.328893
  H      2.528655   -2.275901   -2.304311
  H      1.780795   -4.475562   -3.166517
  H      1.597835   -4.408269   -1.401979
  H     -0.640787   -3.795025   -1.922159

 Total Charge           Charge          ....    0
 Multiplicity           Mult            ....    1
 Number of Electrons    NEL             ....   74
 Basis Dimension        Dim             ....  363

ORBITAL ENERGIES
----------------

  NO   OCC          E(Eh)            E(eV)
   0   2.0000     -20.573897      -559.8442
   1   2.0000     -20.556102      -559.3600
   2   2.0000     -20.549087      -559.1691
   3   2.0000     -11.289164      -307.1938
   4   2.0000     -11.286965      -307.1339
   5   2.0000     -11.283355      -307.0357
   6   2.0000     -11.280001      -306.9444
   7   2.0000     -11.216767      -305.2238
   8   2.0000     -11.214185      -305.1535
   9   2.0000      -1.401041       -38.1243
  10   2.0000      -1.362596       -37.0781
  11   2.0000      -1.352740       -36.8099
  12   2.0000      -1.069335       -29.0981
  13   2.0000      -1.012623       -27.5549
  14   2.0000      -0.941961       -25.6321
  15   2.0000      -0.921071       -25.0636
  16   2.0000      -0.842249       -22.9188
  17   2.0000      -0.777108       -21.1462
  18   2.0000      -0.710632       -19.3373
  19   2.0000      -0.692628       -18.8474
  20   2.0000      -0.688165       -18.7259
  21   2.0000      -0.666316       -18.1314
  22   2.0000      -0.626216       -17.0402
  23   2.0000      -0.614657       -16.7257
  24   2.0000      -0.601147       -16.3580
  25   2.0000      -0.586983       -15.9726
  26   2.0000      -0.563239       -15.3265
  27   2.0000      -0.540199       -14.6995
  28   2.0000      -0.536381       -14.5957
  29   2.0000      -0.534225       -14.5370
  30   2.0000      -0.518264       -14.1027
  31   2.0000      -0.507124       -13.7995
  32   2.0000      -0.498554       -13.5663
  33   2.0000      -0.468239       -12.7414
  34   2.0000      -0.446328       -12.1452
  35   2.0000      -0.444292       -12.0898
  36   2.0000      -0.431957       -11.7541
  37   0.0000       0.123793         3.3686
  38   0.0000       0.145389         3.9562
  39   0.0000       0.151347         4.1184
  40   0.0000       0.169738         4.6188
  41   0.0000       0.183659         4.9976

MULLIKEN ATOMIC CHARGES
-----------------------
   0 C :   -0.389693
   1 C :    0.240965
   2 C :   -0.409985
   3 O :   -0.474488
   4 C :   -0.106005
   5 O :   -0.349565
   6 C :   -0.101854
   7 C :    0.004214
   8 O :   -0.478219
   9 H :    0.122356
  10 H :    0.135059
  11 H :    0.142696
  12 H :    0.140240
  13 H :    0.135622
  14 H :    0.117349
  15 H :    0.314897
  16 H :    0.114353
  17 H :    0.100511
  18 H :    0.109612
  19 H :    0.100041
  20 H :    0.111791
  21 H :    0.101433
  22 H :    0.318671
Sum of atomic charges:   -0.0000000

LOEWDIN ATOMIC CHARGES
----------------------
   0 C :   -0.267507
   1 C :   -0.436600
   2 C :   -0.279377
   3 O :    0.005270
   4 C :   -0.291193
   5 O :    0.140937
   6 C :   -0.337556
   7 C :   -0.353692
   8 O :   -0.046838
   9 H :    0.127269
  10 H :    0.128775
  11 H :    0.132074
  12 H :    0.128292
  13 H :    0.125390
  14 H :    0.125448
  15 H :    0.171777
  16 H :    0.128006
  17 H :    0.127128
  18 H :    0.124551
  19 H :    0.123253
  20 H :    0.131559
  21 H :    0.119837
  22 H :    0.173198

  Mayer bond orders larger than 0.1
B(  0-C ,  1-C ) :   0.8939 B(  0-C ,  9-H ) :   0.9323 B(  0-C , 10-H ) :   0.9369
B(  0-C , 11-H ) :   0.9360 B(  1-C ,  2-C ) :   0.9377 B(  1-C ,  3-O ) :   0.9176
B(  1-C ,  4-C ) :   0.9376 B(  2-C , 12-H ) :   0.9393 B(  2-C , 13-H ) :   0.9245
B(  2-C , 14-H ) :   0.9286 B(  3-O , 15-H ) :   0.8368 B(  4-C ,  5-O ) :   0.9037
B(  4-C , 16-H ) :   0.9258 B(  4-C , 17-H ) :   0.9238 B(  5-O ,  6-C ) :   0.9010
B(  6-C ,  7-C ) :   0.9572 B(  6-C , 18-H ) :   0.9241 B(  6-C , 19-H ) :   0.9175
B(  7-C ,  8-O ) :   0.9302 B(  7-C , 20-H ) :   0.9236 B(  7-C , 21-H ) :   0.9329
B(  8-O , 22-H ) :   0.8395

MP2 TOTAL ENERGY:     -461.832203279 Eh
FINAL SINGLE POINT ENERGY      -461.832203278831

DIPOLE MOMENT
-------------
                                X             Y             Z
Electronic contribution:     -3.16395      -4.78111      -2.27607
Nuclear contribution   :      4.18719       5.21686       2.28265
                        -----------------------------------------
Total Dipole Moment    :      1.02324       0.43574       0.00658
                        -----------------------------------------
Magnitude (a.u.)       :      1.11217
Magnitude (Debye)      :      2.82692

                             ****ORCA TERMINATED NORMALLY****
TOTAL RUN TIME: 0 days 0 hours 16 minutes 15 seconds 858 msec
