                         Program Version 3.0.3 - RELEASE   -
|  1> ! RI-MP2 RIJK def2-TZVP def2-TZVP/C def2-TZVP/JK TIGHTSCF
|  2> % maxcore 2000
|  3> % mp2 density relaxed end
|  4> *xyz 0 1
|  5>  O       -0.0092081375     0.0533399238     0.0036689761
|  6>  C       -0.0487299788     1.2407064579     0.0105691819
|  7>  C       -1.3067007586     2.1628016389     0.0331815317
|  8>  C       -0.6286073236     3.4782000858     0.0305602784
|  9>  C        0.7086698829     3.3301677349     0.0109338710
| 10>  O        1.1168593155     2.0130577599    -0.0018056025
| 11>  C        1.3015362222     4.6226958458     0.0095072097
| 12>  C        0.2235981469     5.4663826325     0.0292836136
| 13>  O       -0.9662593648     4.7878661864     0.0423330180
| 14>  H       -1.9245644198     1.9361229483    -0.8429084975
| 15>  H       -1.8996309219     1.9268198468     0.9239238769
| 16>  H        2.3408992197     4.9049327100    -0.0036344748
| 17>  H        0.1406592076     6.5399727289     0.0362239777
| 18> *
| 19>
| 20>                          ****END OF INPUT****

CARTESIAN COORDINATES (ANGSTROEM)
---------------------------------
  O     -0.009208    0.053340    0.003669
  C     -0.048730    1.240706    0.010569
  C     -1.306701    2.162802    0.033182
  C     -0.628607    3.478200    0.030560
  C      0.708670    3.330168    0.010934
  O      1.116859    2.013058   -0.001806
  C      1.301536    4.622696    0.009507
  C      0.223598    5.466383    0.029284
  O     -0.966259    4.787866    0.042333
  H     -1.924564    1.936123   -0.842908
  H     -1.899631    1.926820    0.923924
  H      2.340899    4.904933   -0.003634
  H      0.140659    6.539973    0.036224

 Total Charge           Charge          ....    0
 Multiplicity           Mult            ....    1
 Number of Electrons    NEL             ....   64
 Basis Dimension        Dim             ....  303

ORBITAL ENERGIES
----------------

  NO   OCC          E(Eh)            E(eV)
   0   2.0000     -20.648354      -561.8703
   1   2.0000     -20.628032      -561.3173
   2   2.0000     -20.566094      -559.6319
   3   2.0000     -11.405103      -310.3486
   4   2.0000     -11.315088      -307.8992
   5   2.0000     -11.302556      -307.5582
   6   2.0000     -11.295347      -307.3620
   7   2.0000     -11.285302      -307.0887
   8   2.0000     -11.259348      -306.3824
   9   2.0000      -1.489777       -40.5389
  10   2.0000      -1.472972       -40.0816
  11   2.0000      -1.396401       -37.9980
  12   2.0000      -1.115250       -30.3475
  13   2.0000      -1.089590       -29.6492
  14   2.0000      -0.976620       -26.5752
  15   2.0000      -0.846915       -23.0457
  16   2.0000      -0.839226       -22.8365
  17   2.0000      -0.771327       -20.9889
  18   2.0000      -0.735306       -20.0087
  19   2.0000      -0.699059       -19.0224
  20   2.0000      -0.685158       -18.6441
  21   2.0000      -0.667269       -18.1573
  22   2.0000      -0.641252       -17.4494
  23   2.0000      -0.612370       -16.6634
  24   2.0000      -0.596832       -16.2406
  25   2.0000      -0.594127       -16.1670
  26   2.0000      -0.588456       -16.0127
  27   2.0000      -0.538709       -14.6590
  28   2.0000      -0.521365       -14.1871
  29   2.0000      -0.462768       -12.5926
  30   2.0000      -0.406591       -11.0639
  31   2.0000      -0.323856        -8.8126
  32   0.0000       0.112050         3.0490
  33   0.0000       0.132323         3.6007
  34   0.0000       0.159318         4.3353
  35   0.0000       0.165141         4.4937
  36   0.0000       0.174825         4.7572

MULLIKEN ATOMIC CHARGES
-----------------------
   0 O :   -0.240671
   1 C :    0.254419
   2 C :   -0.188560
   3 C :    0.046703
   4 C :    0.186943
   5 O :   -0.225006
   6 C :   -0.272891
   7 C :    0.022026
   8 O :   -0.220979
   9 H :    0.160827
  10 H :    0.160822
  11 H :    0.158104
  12 H :    0.158262
Sum of atomic charges:   -0.0000000

LOEWDIN ATOMIC CHARGES
----------------------
   0 O :    0.171542
   1 C :   -0.383846
   2 C :   -0.180835
   3 C :   -0.258989
   4 C :   -0.244262
   5 O :    0.298865
   6 C :   -0.151224
   7 C :   -0.221773
   8 O :    0.358865
   9 H :    0.163141
  10 H :    0.163142
  11 H :    0.150278
  12 H :    0.135096

  Mayer bond orders larger than 0.1
B(  0-O ,  1-C ) :   2.0784 B(  1-C ,  2-C ) :   0.9183 B(  1-C ,  5-O ) :   1.0156
B(  2-C ,  3-C ) :   0.9766 B(  2-C ,  9-H ) :   0.8890 B(  2-C , 10-H ) :   0.8889
B(  3-C ,  4-C ) :   1.4342 B(  3-C ,  8-O ) :   1.0390 B(  4-C ,  5-O ) :   0.9647
B(  4-C ,  6-C ) :   1.2231 B(  6-C ,  7-C ) :   1.5255 B(  6-C , 11-H ) :   0.9129
B(  7-C ,  8-O ) :   1.0381 B(  7-C , 12-H ) :   0.9328

MP2 TOTAL ENERGY:     -455.860931411 Eh
FINAL SINGLE POINT ENERGY      -455.860931410753

DIPOLE MOMENT
-------------
                                X             Y             Z
Electronic contribution:      0.98909      -1.98679      -0.02465
Nuclear contribution   :     -1.37714       3.17438       0.03651
                        -----------------------------------------
Total Dipole Moment    :     -0.38804       1.18758       0.01186
                        -----------------------------------------
Magnitude (a.u.)       :      1.24943
Magnitude (Debye)      :      3.17579

                             ****ORCA TERMINATED NORMALLY****
TOTAL RUN TIME: 0 days 0 hours 13 minutes 6 seconds 284 msec
