                         Program Version 3.0.3 - RELEASE   -
|  1> ! RI-MP2 RIJK def2-TZVP def2-TZVP/C def2-TZVP/JK TIGHTSCF
|  2> % maxcore 2000
|  3> % mp2 density relaxed end
|  4> *xyz 0 1
|  5>  C       -0.0191872853     1.5671862919    -0.0897246866
|  6>  C       -0.0056501204     0.0372818134    -0.1256009115
|  7>  C       -1.4032609472    -0.5687244942     0.1226496963
|  8>  C       -1.4183302966    -2.0663557722     0.1097716984
|  9>  C       -1.6563175973    -2.8763158949     1.1544142355
| 10>  C       -1.5877104515    -4.2973865841     0.7634136934
| 11>  O       -1.7463155228    -5.2649793310     1.4726095232
| 12>  C       -1.2746150761    -4.3291660873    -0.7433021701
| 13>  C       -1.1498459500    -2.8527914126    -1.1606131179
| 14>  H        0.9809460459     1.9752133296    -0.2640011251
| 15>  H       -0.6853429705     1.9759331792    -0.8575061146
| 16>  H       -0.3662742061     1.9378717962     0.8809020119
| 17>  H        0.3755651045    -0.3033102696    -1.0953380015
| 18>  H        0.6879464547    -0.3477283526     0.6314236533
| 19>  H       -1.7878663833    -0.2055620776     1.0822939347
| 20>  H       -2.0865492244    -0.1966663709    -0.6545262558
| 21>  H       -1.8790917378    -2.5659339661     2.1680898990
| 22>  H       -0.3603512023    -4.9048997076    -0.9130177290
| 23>  H       -2.0790954551    -4.8544402709    -1.2663167084
| 24>  H       -1.8667688399    -2.5700696174    -1.9418533185
| 25>  H       -0.1586234884    -2.6155953414    -1.5647209767
| 26> *
| 27>
| 28>                          ****END OF INPUT****

CARTESIAN COORDINATES (ANGSTROEM)
---------------------------------
  C     -0.019187    1.567186   -0.089725
  C     -0.005650    0.037282   -0.125601
  C     -1.403261   -0.568724    0.122650
  C     -1.418330   -2.066356    0.109772
  C     -1.656318   -2.876316    1.154414
  C     -1.587710   -4.297387    0.763414
  O     -1.746316   -5.264979    1.472610
  C     -1.274615   -4.329166   -0.743302
  C     -1.149846   -2.852791   -1.160613
  H      0.980946    1.975213   -0.264001
  H     -0.685343    1.975933   -0.857506
  H     -0.366274    1.937872    0.880902
  H      0.375565   -0.303310   -1.095338
  H      0.687946   -0.347728    0.631424
  H     -1.787866   -0.205562    1.082294
  H     -2.086549   -0.196666   -0.654526
  H     -1.879092   -2.565934    2.168090
  H     -0.360351   -4.904900   -0.913018
  H     -2.079095   -4.854440   -1.266317
  H     -1.866769   -2.570070   -1.941853
  H     -0.158623   -2.615595   -1.564721

 Total Charge           Charge          ....    0
 Multiplicity           Mult            ....    1
 Number of Electrons    NEL             ....   68
 Basis Dimension        Dim             ....  351

ORBITAL ENERGIES
----------------

  NO   OCC          E(Eh)            E(eV)
   0   2.0000     -20.526524      -558.5551
   1   2.0000     -11.318833      -308.0011
   2   2.0000     -11.269126      -306.6485
   3   2.0000     -11.245827      -306.0145
   4   2.0000     -11.244744      -305.9850
   5   2.0000     -11.239326      -305.8376
   6   2.0000     -11.234605      -305.7091
   7   2.0000     -11.227015      -305.5026
   8   2.0000     -11.226393      -305.4857
   9   2.0000      -1.370195       -37.2849
  10   2.0000      -1.155056       -31.4307
  11   2.0000      -1.075562       -29.2675
  12   2.0000      -1.000898       -27.2358
  13   2.0000      -0.962900       -26.2018
  14   2.0000      -0.903049       -24.5732
  15   2.0000      -0.829850       -22.5814
  16   2.0000      -0.759774       -20.6745
  17   2.0000      -0.728694       -19.8288
  18   2.0000      -0.662736       -18.0340
  19   2.0000      -0.649468       -17.6729
  20   2.0000      -0.642957       -17.4957
  21   2.0000      -0.604175       -16.4404
  22   2.0000      -0.585638       -15.9360
  23   2.0000      -0.577618       -15.7178
  24   2.0000      -0.562608       -15.3093
  25   2.0000      -0.539784       -14.6883
  26   2.0000      -0.534240       -14.5374
  27   2.0000      -0.518640       -14.1129
  28   2.0000      -0.504439       -13.7265
  29   2.0000      -0.493373       -13.4254
  30   2.0000      -0.488082       -13.2814
  31   2.0000      -0.480612       -13.0781
  32   2.0000      -0.395745       -10.7688
  33   2.0000      -0.366710        -9.9787
  34   0.0000       0.104288         2.8378
  35   0.0000       0.124517         3.3883
  36   0.0000       0.141026         3.8375
  37   0.0000       0.156962         4.2712
  38   0.0000       0.166793         4.5387

MULLIKEN ATOMIC CHARGES
-----------------------
   0 C :   -0.386964
   1 C :   -0.214096
   2 C :   -0.247792
   3 C :    0.098007
   4 C :   -0.250274
   5 C :    0.181041
   6 O :   -0.295387
   7 C :   -0.198617
   8 C :   -0.232489
   9 H :    0.137801
  10 H :    0.124467
  11 H :    0.126768
  12 H :    0.112169
  13 H :    0.123032
  14 H :    0.130133
  15 H :    0.123858
  16 H :    0.139629
  17 H :    0.134733
  18 H :    0.134299
  19 H :    0.128845
  20 H :    0.130837
Sum of atomic charges:    0.0000000

LOEWDIN ATOMIC CHARGES
----------------------
   0 C :   -0.318444
   1 C :   -0.283309
   2 C :   -0.225339
   3 C :   -0.126323
   4 C :   -0.104656
   5 C :   -0.326429
   6 O :    0.130631
   7 C :   -0.209122
   8 C :   -0.208970
   9 H :    0.122778
  10 H :    0.121285
  11 H :    0.121922
  12 H :    0.134726
  13 H :    0.138372
  14 H :    0.147946
  15 H :    0.149537
  16 H :    0.147120
  17 H :    0.148905
  18 H :    0.149855
  19 H :    0.145233
  20 H :    0.144284

  Mayer bond orders larger than 0.1
B(  0-C ,  1-C ) :   0.9174 B(  0-C ,  9-H ) :   0.9416 B(  0-C , 10-H ) :   0.9385
B(  0-C , 11-H ) :   0.9394 B(  1-C ,  2-C ) :   0.9113 B(  1-C , 12-H ) :   0.9345
B(  1-C , 13-H ) :   0.9328 B(  2-C ,  3-C ) :   0.8765 B(  2-C , 14-H ) :   0.9369
B(  2-C , 15-H ) :   0.9203 B(  3-C ,  4-C ) :   1.6261 B(  3-C ,  8-C ) :   0.9094
B(  4-C ,  5-C ) :   1.0096 B(  4-C , 16-H ) :   0.9270 B(  5-C ,  6-O ) :   2.0047
B(  5-C ,  7-C ) :   0.9180 B(  7-C ,  8-C ) :   0.9407 B(  7-C , 17-H ) :   0.9119
B(  7-C , 18-H ) :   0.9095 B(  8-C , 19-H ) :   0.9051 B(  8-C , 20-H ) :   0.9082

MP2 TOTAL ENERGY:     -386.453383961 Eh
FINAL SINGLE POINT ENERGY      -386.453383960927

DIPOLE MOMENT
-------------
                                X             Y             Z
Electronic contribution:     -3.70824     -12.23461       4.48113
Nuclear contribution   :      3.98338      13.61282      -5.36351
                        -----------------------------------------
Total Dipole Moment    :      0.27514       1.37821      -0.88239
                        -----------------------------------------
Magnitude (a.u.)       :      1.65945
Magnitude (Debye)      :      4.21799

                             ****ORCA TERMINATED NORMALLY****
TOTAL RUN TIME: 0 days 0 hours 18 minutes 47 seconds 336 msec
