                         Program Version 3.0.3 - RELEASE   -
|  1> ! RI-MP2 RIJK def2-TZVP def2-TZVP/C def2-TZVP/JK TIGHTSCF
|  2> % maxcore 2000
|  3> % mp2 density relaxed end
|  4> *xyz 0 1
|  5>  C        0.8273189453    -0.1994233303    -1.3038093762
|  6>  C       -0.0224617750    -0.0392083094    -0.0379085212
|  7>  C        0.6022487954    -0.6439153363     1.2273442028
|  8>  C        1.9395959429     0.0122098618     1.6152000186
|  9>  C        1.8796474570     1.5210772266     1.8774006270
| 10>  C       -0.3511503988    -0.7639673793     2.4777583390
| 11>  C       -0.1166015235    -2.2782255539     2.5016583411
| 12>  C       -0.5671784163    -2.8972351152     1.2104277917
| 13>  C        0.7563661252    -2.1839917547     1.2503690278
| 14>  H        1.0710845967    -1.2526507367    -1.4809112202
| 15>  H        0.2907315213     0.1690648836    -2.1836996210
| 16>  H        1.7700964367     0.3532612447    -1.2406631531
| 17>  H       -0.2364996281     1.0232219712     0.1341778840
| 18>  H       -0.9982060315    -0.5084515370    -0.2079751804
| 19>  H        2.3146090832    -0.4956465369     2.5130650757
| 20>  H        2.6806342661    -0.1902122677     0.8312095112
| 21>  H        2.8442649465     1.8875155607     2.2424012194
| 22>  H        1.6371518986     2.0855742010     0.9718348123
| 23>  H        1.1259267097     1.7687857318     2.6328110454
| 24>  H        0.0433660056    -0.2445081130     3.3542791443
| 25>  H       -1.3903462433    -0.4495950870     2.3292414924
| 26>  H        0.0404626813    -2.8729526945     3.3933336440
| 27>  H       -0.4991683942    -3.9798018009     1.1639246182
| 28>  H       -1.4165746025    -2.4879897699     0.6690091908
| 29>  H        1.6828072517    -2.7046584884     1.0324703964
| 30> *
| 31>
| 32>                          ****END OF INPUT****

CARTESIAN COORDINATES (ANGSTROEM)
---------------------------------
  C      0.827319   -0.199423   -1.303809
  C     -0.022462   -0.039208   -0.037909
  C      0.602249   -0.643915    1.227344
  C      1.939596    0.012210    1.615200
  C      1.879647    1.521077    1.877401
  C     -0.351150   -0.763967    2.477758
  C     -0.116602   -2.278226    2.501658
  C     -0.567178   -2.897235    1.210428
  C      0.756366   -2.183992    1.250369
  H      1.071085   -1.252651   -1.480911
  H      0.290732    0.169065   -2.183700
  H      1.770096    0.353261   -1.240663
  H     -0.236500    1.023222    0.134178
  H     -0.998206   -0.508452   -0.207975
  H      2.314609   -0.495647    2.513065
  H      2.680634   -0.190212    0.831210
  H      2.844265    1.887516    2.242401
  H      1.637152    2.085574    0.971835
  H      1.125927    1.768786    2.632811
  H      0.043366   -0.244508    3.354279
  H     -1.390346   -0.449595    2.329241
  H      0.040463   -2.872953    3.393334
  H     -0.499168   -3.979802    1.163925
  H     -1.416575   -2.487990    0.669009
  H      1.682807   -2.704658    1.032470

 Total Charge           Charge          ....    0
 Multiplicity           Mult            ....    1
 Number of Electrons    NEL             ....   70
 Basis Dimension        Dim             ....  375

ORBITAL ENERGIES
----------------

  NO   OCC          E(Eh)            E(eV)
   0   2.0000     -11.230945      -305.6096
   1   2.0000     -11.224865      -305.4441
   2   2.0000     -11.222452      -305.3784
   3   2.0000     -11.220766      -305.3326
   4   2.0000     -11.216581      -305.2187
   5   2.0000     -11.214931      -305.1738
   6   2.0000     -11.211596      -305.0830
   7   2.0000     -11.210045      -305.0408
   8   2.0000     -11.208098      -304.9879
   9   2.0000      -1.186098       -32.2754
  10   2.0000      -1.064600       -28.9692
  11   2.0000      -1.006518       -27.3887
  12   2.0000      -0.957250       -26.0481
  13   2.0000      -0.894647       -24.3446
  14   2.0000      -0.849541       -23.1172
  15   2.0000      -0.807130       -21.9631
  16   2.0000      -0.772037       -21.0082
  17   2.0000      -0.700211       -19.0537
  18   2.0000      -0.670221       -18.2376
  19   2.0000      -0.629436       -17.1278
  20   2.0000      -0.625226       -17.0133
  21   2.0000      -0.590106       -16.0576
  22   2.0000      -0.559750       -15.2316
  23   2.0000      -0.558742       -15.2041
  24   2.0000      -0.554915       -15.1000
  25   2.0000      -0.523413       -14.2428
  26   2.0000      -0.513038       -13.9605
  27   2.0000      -0.504479       -13.7276
  28   2.0000      -0.494677       -13.4608
  29   2.0000      -0.481519       -13.1028
  30   2.0000      -0.456628       -12.4255
  31   2.0000      -0.435090       -11.8394
  32   2.0000      -0.425173       -11.5695
  33   2.0000      -0.398117       -10.8333
  34   2.0000      -0.367806       -10.0085
  35   0.0000       0.136879         3.7247
  36   0.0000       0.157472         4.2850
  37   0.0000       0.158116         4.3025
  38   0.0000       0.167118         4.5475
  39   0.0000       0.187342         5.0978

MULLIKEN ATOMIC CHARGES
-----------------------
   0 C :   -0.431739
   1 C :   -0.232440
   2 C :    0.217333
   3 C :   -0.301072
   4 C :   -0.413170
   5 C :   -0.273830
   6 C :   -0.123224
   7 C :   -0.268486
   8 C :   -0.173636
   9 H :    0.135610
  10 H :    0.134995
  11 H :    0.128256
  12 H :    0.123008
  13 H :    0.100446
  14 H :    0.126566
  15 H :    0.121328
  16 H :    0.136886
  17 H :    0.130699
  18 H :    0.126733
  19 H :    0.119462
  20 H :    0.112554
  21 H :    0.125383
  22 H :    0.127275
  23 H :    0.125974
  24 H :    0.125091
Sum of atomic charges:   -0.0000000

LOEWDIN ATOMIC CHARGES
----------------------
   0 C :   -0.313395
   1 C :   -0.253239
   2 C :   -0.234805
   3 C :   -0.250465
   4 C :   -0.315323
   5 C :   -0.175025
   6 C :   -0.182910
   7 C :   -0.209509
   8 C :   -0.153455
   9 H :    0.124434
  10 H :    0.121003
  11 H :    0.119284
  12 H :    0.138329
  13 H :    0.137422
  14 H :    0.144440
  15 H :    0.138721
  16 H :    0.121851
  17 H :    0.119860
  18 H :    0.121227
  19 H :    0.135822
  20 H :    0.129701
  21 H :    0.132200
  22 H :    0.138854
  23 H :    0.128820
  24 H :    0.136159

  Mayer bond orders larger than 0.1
B(  0-C ,  1-C ) :   0.9116 B(  0-C ,  9-H ) :   0.9387 B(  0-C , 10-H ) :   0.9407
B(  0-C , 11-H ) :   0.9397 B(  1-C ,  2-C ) :   0.8988 B(  1-C , 12-H ) :   0.9386
B(  1-C , 13-H ) :   0.9256 B(  2-C ,  3-C ) :   0.8681 B(  2-C ,  5-C ) :   0.9137
B(  2-C ,  8-C ) :   0.8946 B(  3-C ,  4-C ) :   0.9154 B(  3-C , 14-H ) :   0.9349
B(  3-C , 15-H ) :   0.9402 B(  4-C , 16-H ) :   0.9418 B(  4-C , 17-H ) :   0.9399
B(  4-C , 18-H ) :   0.9374 B(  5-C ,  6-C ) :   0.9447 B(  5-C , 19-H ) :   0.9273
B(  5-C , 20-H ) :   0.9084 B(  6-C ,  7-C ) :   0.8947 B(  6-C ,  8-C ) :   0.8606
B(  6-C , 21-H ) :   0.9304 B(  7-C ,  8-C ) :   0.8755 B(  7-C , 22-H ) :   0.9325
B(  7-C , 23-H ) :   0.9179 B(  8-C , 24-H ) :   0.9222

MP2 TOTAL ENERGY:     -351.687691482 Eh
FINAL SINGLE POINT ENERGY      -351.687691482088

DIPOLE MOMENT
-------------
                                X             Y             Z
Electronic contribution:     -1.68839      -4.39860       2.54892
Nuclear contribution   :      1.76686       4.39677      -2.51303
                        -----------------------------------------
Total Dipole Moment    :      0.07847      -0.00183       0.03589
                        -----------------------------------------
Magnitude (a.u.)       :      0.08631
Magnitude (Debye)      :      0.21938

                             ****ORCA TERMINATED NORMALLY****
TOTAL RUN TIME: 0 days 0 hours 23 minutes 54 seconds 28 msec
