                         Program Version 3.0.3 - RELEASE   -
|  1> ! RI-MP2 RIJK def2-TZVP def2-TZVP/C def2-TZVP/JK TIGHTSCF
|  2> % maxcore 2000
|  3> % mp2 density relaxed end
|  4> *xyz 0 1
|  5>  C        0.3472255495     1.5644846792    -0.1070370210
|  6>  C        0.0161261058     0.0641978542    -0.0120892840
|  7>  C        0.4848744900    -0.6867060091    -1.2656537770
|  8>  C        0.5984468485    -0.5302485494     1.2435297500
|  9>  O        2.0223070619    -0.7360839747     1.3032227166
| 10>  C        1.1598781541    -1.8570186353     1.5594918682
| 11>  C        0.7283091777    -1.7672726691     3.0246449372
| 12>  C        0.1288918642    -0.3452677938     2.7122833024
| 13>  C        0.6753151885     0.8404789216     3.4958841555
| 14>  H        1.4305238405     1.7150345276    -0.1552463575
| 15>  H       -0.0976286912     2.0017215885    -1.0064576889
| 16>  H       -0.0316512227     2.1179312664     0.7571985160
| 17>  H       -1.0753099437    -0.0390408051     0.0686007743
| 18>  H        1.5755002680    -0.6572977014    -1.3426187729
| 19>  H        0.1744339529    -1.7359102166    -1.2423933696
| 20>  H        0.0632842760    -0.2310659470    -2.1667309923
| 21>  H        1.3039520671    -2.7341628487     0.9384916792
| 22>  H       -0.0341168606    -2.4987380348     3.3034090624
| 23>  H        1.5477375899    -1.7996349179     3.7478889448
| 24>  H       -0.9646366555    -0.3795641501     2.7667357406
| 25>  H        1.7581724498     0.9138552839     3.3614452110
| 26>  H        0.2239888879     1.7847001174     3.1730766152
| 27>  H        0.4713114816     0.7264487745     4.5661238497
| 28> *
| 29>
| 30>                          ****END OF INPUT****

CARTESIAN COORDINATES (ANGSTROEM)
---------------------------------
  C      0.347226    1.564485   -0.107037
  C      0.016126    0.064198   -0.012089
  C      0.484874   -0.686706   -1.265654
  C      0.598447   -0.530249    1.243530
  O      2.022307   -0.736084    1.303223
  C      1.159878   -1.857019    1.559492
  C      0.728309   -1.767273    3.024645
  C      0.128892   -0.345268    2.712283
  C      0.675315    0.840479    3.495884
  H      1.430524    1.715035   -0.155246
  H     -0.097629    2.001722   -1.006458
  H     -0.031651    2.117931    0.757199
  H     -1.075310   -0.039041    0.068601
  H      1.575500   -0.657298   -1.342619
  H      0.174434   -1.735910   -1.242393
  H      0.063284   -0.231066   -2.166731
  H      1.303952   -2.734163    0.938492
  H     -0.034117   -2.498738    3.303409
  H      1.547738   -1.799635    3.747889
  H     -0.964637   -0.379564    2.766736
  H      1.758172    0.913855    3.361445
  H      0.223989    1.784700    3.173077
  H      0.471311    0.726449    4.566124

 Total Charge           Charge          ....    0
 Multiplicity           Mult            ....    1
 Number of Electrons    NEL             ....   70
 Basis Dimension        Dim             ....  363

ORBITAL ENERGIES
----------------

  NO   OCC          E(Eh)            E(eV)
   0   2.0000     -20.556380      -559.3675
   1   2.0000     -11.279265      -306.9244
   2   2.0000     -11.276668      -306.8537
   3   2.0000     -11.235508      -305.7337
   4   2.0000     -11.235024      -305.7205
   5   2.0000     -11.226631      -305.4922
   6   2.0000     -11.213261      -305.1283
   7   2.0000     -11.211687      -305.0855
   8   2.0000     -11.209928      -305.0376
   9   2.0000      -1.407563       -38.3017
  10   2.0000      -1.092933       -29.7402
  11   2.0000      -1.069543       -29.1037
  12   2.0000      -0.970284       -26.4028
  13   2.0000      -0.928838       -25.2750
  14   2.0000      -0.893498       -24.3133
  15   2.0000      -0.832989       -22.6668
  16   2.0000      -0.798541       -21.7294
  17   2.0000      -0.728167       -19.8144
  18   2.0000      -0.688068       -18.7233
  19   2.0000      -0.628792       -17.1103
  20   2.0000      -0.614666       -16.7259
  21   2.0000      -0.599079       -16.3018
  22   2.0000      -0.572773       -15.5860
  23   2.0000      -0.570164       -15.5150
  24   2.0000      -0.549849       -14.9622
  25   2.0000      -0.537147       -14.6165
  26   2.0000      -0.530966       -14.4483
  27   2.0000      -0.525366       -14.2959
  28   2.0000      -0.495330       -13.4786
  29   2.0000      -0.479501       -13.0479
  30   2.0000      -0.477217       -12.9857
  31   2.0000      -0.469563       -12.7775
  32   2.0000      -0.448817       -12.2129
  33   2.0000      -0.418874       -11.3982
  34   2.0000      -0.384150       -10.4533
  35   0.0000       0.133772         3.6401
  36   0.0000       0.156331         4.2540
  37   0.0000       0.162071         4.4102
  38   0.0000       0.166286         4.5249
  39   0.0000       0.191308         5.2058

MULLIKEN ATOMIC CHARGES
-----------------------
   0 C :   -0.423865
   1 C :   -0.011125
   2 C :   -0.415655
   3 C :    0.210350
   4 O :   -0.348425
   5 C :   -0.099533
   6 C :   -0.161633
   7 C :   -0.059998
   8 C :   -0.446073
   9 H :    0.143012
  10 H :    0.131753
  11 H :    0.127291
  12 H :    0.086024
  13 H :    0.146620
  14 H :    0.124771
  15 H :    0.132926
  16 H :    0.131894
  17 H :    0.114603
  18 H :    0.113247
  19 H :    0.099470
  20 H :    0.149953
  21 H :    0.122715
  22 H :    0.131678
Sum of atomic charges:    0.0000000

LOEWDIN ATOMIC CHARGES
----------------------
   0 C :   -0.282211
   1 C :   -0.275448
   2 C :   -0.284839
   3 C :   -0.243742
   4 O :    0.186152
   5 C :   -0.226781
   6 C :   -0.197886
   7 C :   -0.205686
   8 C :   -0.299889
   9 H :    0.130025
  10 H :    0.123042
  11 H :    0.122016
  12 H :    0.158145
  13 H :    0.130314
  14 H :    0.122618
  15 H :    0.123607
  16 H :    0.128780
  17 H :    0.134249
  18 H :    0.133143
  19 H :    0.149536
  20 H :    0.130640
  21 H :    0.120117
  22 H :    0.124100

  Mayer bond orders larger than 0.1
B(  0-C ,  1-C ) :   0.8969 B(  0-C ,  9-H ) :   0.9332 B(  0-C , 10-H ) :   0.9371
B(  0-C , 11-H ) :   0.9389 B(  1-C ,  2-C ) :   0.9170 B(  1-C ,  3-C ) :   0.9163
B(  1-C , 12-H ) :   0.9279 B(  2-C , 13-H ) :   0.9306 B(  2-C , 14-H ) :   0.9369
B(  2-C , 15-H ) :   0.9381 B(  3-C ,  4-O ) :   0.8157 B(  3-C ,  5-C ) :   0.8538
B(  3-C ,  7-C ) :   0.8978 B(  4-O ,  5-C ) :   0.9266 B(  5-C ,  6-C ) :   0.9164
B(  5-C , 16-H ) :   0.9268 B(  6-C ,  7-C ) :   0.9763 B(  6-C , 17-H ) :   0.9067
B(  6-C , 18-H ) :   0.9040 B(  7-C ,  8-C ) :   0.8821 B(  7-C , 19-H ) :   0.9231
B(  8-C , 20-H ) :   0.9404 B(  8-C , 21-H ) :   0.9367 B(  8-C , 22-H ) :   0.9372

MP2 TOTAL ENERGY:     -387.590427413 Eh
FINAL SINGLE POINT ENERGY      -387.590427412788

DIPOLE MOMENT
-------------
                                X             Y             Z
Electronic contribution:      2.52787      -4.12729       1.53699
Nuclear contribution   :     -3.23447       3.93727      -1.51131
                        -----------------------------------------
Total Dipole Moment    :     -0.70660      -0.19002       0.02568
                        -----------------------------------------
Magnitude (a.u.)       :      0.73216
Magnitude (Debye)      :      1.86099

                             ****ORCA TERMINATED NORMALLY****
TOTAL RUN TIME: 0 days 0 hours 24 minutes 35 seconds 470 msec
