                         Program Version 3.0.3 - RELEASE   -
|  1> ! RI-MP2 RIJK def2-TZVP def2-TZVP/C def2-TZVP/JK TIGHTSCF
|  2> % maxcore 2000
|  3> % mp2 density relaxed end
|  4> *xyz 0 1
|  5>  N        0.4835015479    -0.2629102524     0.7732536802
|  6>  C       -0.1358481796     0.2167411377    -0.3282131814
|  7>  O        0.3190336921     1.0517346022    -1.0857492964
|  8>  C       -1.5437777950    -0.3520862249    -0.5781251338
|  9>  C       -1.7114455878    -0.8772801431    -2.0080594047
| 10>  O       -1.5109205580    -2.2881098426    -1.8471367310
| 11>  C       -1.6655746658    -2.6232023690    -0.5393552225
| 12>  N       -1.6626920097    -3.7707834351    -0.0308591646
| 13>  O       -1.8248222551    -1.5025470123     0.2230882751
| 14>  H        1.4092175920     0.0653810792     0.9933559367
| 15>  H        0.0582040276    -0.9865078127     1.3287023138
| 16>  H       -2.2683462482     0.4266572340    -0.3290840101
| 17>  H       -2.7154557217    -0.6975764949    -2.4048352660
| 18>  H       -0.9602053272    -0.4735937757    -2.6863132903
| 19>  H       -1.5705823314    -4.4778619504    -0.7561149849
| 20> *
| 21>
| 22>                          ****END OF INPUT****

CARTESIAN COORDINATES (ANGSTROEM)
---------------------------------
  N      0.483502   -0.262910    0.773254
  C     -0.135848    0.216741   -0.328213
  O      0.319034    1.051735   -1.085749
  C     -1.543778   -0.352086   -0.578125
  C     -1.711446   -0.877280   -2.008059
  O     -1.510921   -2.288110   -1.847137
  C     -1.665575   -2.623202   -0.539355
  N     -1.662692   -3.770783   -0.030859
  O     -1.824822   -1.502547    0.223088
  H      1.409218    0.065381    0.993356
  H      0.058204   -0.986508    1.328702
  H     -2.268346    0.426657   -0.329084
  H     -2.715456   -0.697576   -2.404835
  H     -0.960205   -0.473594   -2.686313
  H     -1.570582   -4.477862   -0.756115

 Total Charge           Charge          ....    0
 Multiplicity           Mult            ....    1
 Number of Electrons    NEL             ....   68
 Basis Dimension        Dim             ....  315

ORBITAL ENERGIES
----------------

  NO   OCC          E(Eh)            E(eV)
   0   2.0000     -20.628629      -561.3335
   1   2.0000     -20.625472      -561.2476
   2   2.0000     -20.539084      -558.8969
   3   2.0000     -15.601412      -424.5360
   4   2.0000     -15.540030      -422.8657
   5   2.0000     -11.406538      -310.3877
   6   2.0000     -11.373692      -309.4939
   7   2.0000     -11.336034      -308.4692
   8   2.0000     -11.322612      -308.1039
   9   2.0000      -1.515984       -41.2520
  10   2.0000      -1.407527       -38.3008
  11   2.0000      -1.396983       -38.0138
  12   2.0000      -1.234177       -33.5837
  13   2.0000      -1.216442       -33.1011
  14   2.0000      -1.059261       -28.8240
  15   2.0000      -0.934683       -25.4340
  16   2.0000      -0.843950       -22.9650
  17   2.0000      -0.826606       -22.4931
  18   2.0000      -0.773247       -21.0411
  19   2.0000      -0.743483       -20.2312
  20   2.0000      -0.717433       -19.5223
  21   2.0000      -0.691876       -18.8269
  22   2.0000      -0.672870       -18.3097
  23   2.0000      -0.639664       -17.4061
  24   2.0000      -0.620313       -16.8796
  25   2.0000      -0.614944       -16.7335
  26   2.0000      -0.585906       -15.9433
  27   2.0000      -0.572770       -15.5859
  28   2.0000      -0.537180       -14.6174
  29   2.0000      -0.513553       -13.9745
  30   2.0000      -0.461202       -12.5499
  31   2.0000      -0.445395       -12.1198
  32   2.0000      -0.434200       -11.8152
  33   2.0000      -0.407912       -11.0998
  34   0.0000       0.121980         3.3192
  35   0.0000       0.139653         3.8002
  36   0.0000       0.159508         4.3404
  37   0.0000       0.174714         4.7542
  38   0.0000       0.179831         4.8935

MULLIKEN ATOMIC CHARGES
-----------------------
   0 N :   -0.463613
   1 C :    0.201030
   2 O :   -0.350361
   3 C :    0.113311
   4 C :   -0.072950
   5 O :   -0.266928
   6 C :    0.276020
   7 N :   -0.385234
   8 O :   -0.283379
   9 H :    0.266244
  10 H :    0.294206
  11 H :    0.145989
  12 H :    0.122840
  13 H :    0.164161
  14 H :    0.238663
Sum of atomic charges:   -0.0000000

LOEWDIN ATOMIC CHARGES
----------------------
   0 N :    0.012310
   1 C :   -0.476066
   2 O :    0.088952
   3 C :   -0.251747
   4 C :   -0.237123
   5 O :    0.238373
   6 C :   -0.538340
   7 N :   -0.073574
   8 O :    0.261508
   9 H :    0.179142
  10 H :    0.183545
  11 H :    0.161740
  12 H :    0.130343
  13 H :    0.144014
  14 H :    0.176924

  Mayer bond orders larger than 0.1
B(  0-N ,  1-C ) :   1.2035 B(  0-N ,  9-H ) :   0.8576 B(  0-N , 10-H ) :   0.8469
B(  1-C ,  2-O ) :   1.9635 B(  1-C ,  3-C ) :   0.8724 B(  3-C ,  4-C ) :   0.9375
B(  3-C ,  8-O ) :   0.8676 B(  3-C , 11-H ) :   0.9109 B(  4-C ,  5-O ) :   0.8758
B(  4-C , 12-H ) :   0.9265 B(  4-C , 13-H ) :   0.9155 B(  5-O ,  6-C ) :   1.0878
B(  6-C ,  7-N ) :   2.0149 B(  6-C ,  8-O ) :   1.0305 B(  7-N , 14-H ) :   0.8476

MP2 TOTAL ENERGY:     -490.372016697 Eh
FINAL SINGLE POINT ENERGY      -490.372016697049

DIPOLE MOMENT
-------------
                                X             Y             Z
Electronic contribution:     -0.08690      -0.46522       0.20920
Nuclear contribution   :      0.02596       0.73534      -0.22989
                        -----------------------------------------
Total Dipole Moment    :     -0.06094       0.27012      -0.02069
                        -----------------------------------------
Magnitude (a.u.)       :      0.27768
Magnitude (Debye)      :      0.70581

                             ****ORCA TERMINATED NORMALLY****
TOTAL RUN TIME: 0 days 0 hours 14 minutes 39 seconds 76 msec
