                         Program Version 3.0.3 - RELEASE   -
|  1> ! RI-MP2 RIJK def2-TZVP def2-TZVP/C def2-TZVP/JK TIGHTSCF
|  2> % maxcore 2000
|  3> % mp2 density relaxed end
|  4> *xyz 0 1
|  5>  C       -0.1596153666     1.5498526031    -0.1338035751
|  6>  C        0.0273428705     0.0267242644    -0.0133318436
|  7>  O        0.7460291263    -0.1713317180     1.2078851078
|  8>  C       -1.2815014205    -0.6521706062     0.0444898314
|  9>  C       -2.3424350909    -1.2111881381     0.1189359941
| 10>  C        0.7910887430    -0.4989527615    -1.1602710528
| 11>  C        1.4347889124    -0.9196107843    -2.0877497390
| 12>  C        2.1883000372    -1.4852874961    -3.2070349149
| 13>  O        1.4097981808    -2.3229299246    -4.0482590349
| 14>  H        0.8225260123     2.0265900370    -0.1597802114
| 15>  H       -0.7078093134     1.7948118962    -1.0448386107
| 16>  H       -0.7146100897     1.9104310191     0.7348068361
| 17>  H        0.8743171585    -1.1204073876     1.3181852943
| 18>  H       -3.2818347120    -1.7032108964     0.1811952619
| 19>  H        2.5644764191    -0.6824221674    -3.8506588290
| 20>  H        3.0710686403    -2.0151850562    -2.8140274849
| 21>  H        0.9628885328    -2.9639612934    -3.4855796694
| 22> *
| 23>
| 24>                          ****END OF INPUT****

CARTESIAN COORDINATES (ANGSTROEM)
---------------------------------
  C     -0.159615    1.549853   -0.133804
  C      0.027343    0.026724   -0.013332
  O      0.746029   -0.171332    1.207885
  C     -1.281501   -0.652171    0.044490
  C     -2.342435   -1.211188    0.118936
  C      0.791089   -0.498953   -1.160271
  C      1.434789   -0.919611   -2.087750
  C      2.188300   -1.485287   -3.207035
  O      1.409798   -2.322930   -4.048259
  H      0.822526    2.026590   -0.159780
  H     -0.707809    1.794812   -1.044839
  H     -0.714610    1.910431    0.734807
  H      0.874317   -1.120407    1.318185
  H     -3.281835   -1.703211    0.181195
  H      2.564476   -0.682422   -3.850659
  H      3.071069   -2.015185   -2.814027
  H      0.962889   -2.963961   -3.485580

 Total Charge           Charge          ....    0
 Multiplicity           Mult            ....    1
 Number of Electrons    NEL             ....   66
 Basis Dimension        Dim             ....  327

ORBITAL ENERGIES
----------------

  NO   OCC          E(Eh)            E(eV)
   0   2.0000     -20.576311      -559.9099
   1   2.0000     -20.570529      -559.7526
   2   2.0000     -11.351579      -308.8922
   3   2.0000     -11.311937      -307.8135
   4   2.0000     -11.245845      -306.0150
   5   2.0000     -11.243194      -305.9429
   6   2.0000     -11.239391      -305.8394
   7   2.0000     -11.239366      -305.8387
   8   2.0000     -11.232534      -305.6528
   9   2.0000      -1.386511       -37.7289
  10   2.0000      -1.375251       -37.4225
  11   2.0000      -1.103036       -30.0151
  12   2.0000      -1.048129       -28.5210
  13   2.0000      -1.010847       -27.5065
  14   2.0000      -0.951344       -25.8874
  15   2.0000      -0.885349       -24.0916
  16   2.0000      -0.761754       -20.7284
  17   2.0000      -0.743690       -20.2368
  18   2.0000      -0.718321       -19.5465
  19   2.0000      -0.697377       -18.9766
  20   2.0000      -0.663114       -18.0442
  21   2.0000      -0.624946       -17.0057
  22   2.0000      -0.614485       -16.7210
  23   2.0000      -0.554982       -15.1018
  24   2.0000      -0.554096       -15.0777
  25   2.0000      -0.547400       -14.8955
  26   2.0000      -0.542671       -14.7668
  27   2.0000      -0.501343       -13.6422
  28   2.0000      -0.480829       -13.0840
  29   2.0000      -0.420899       -11.4532
  30   2.0000      -0.405581       -11.0364
  31   2.0000      -0.390954       -10.6384
  32   2.0000      -0.389837       -10.6080
  33   0.0000       0.116587         3.1725
  34   0.0000       0.140354         3.8192
  35   0.0000       0.147451         4.0123
  36   0.0000       0.156084         4.2473
  37   0.0000       0.160561         4.3691

MULLIKEN ATOMIC CHARGES
-----------------------
   0 C :   -0.368131
   1 C :    0.068217
   2 O :   -0.444955
   3 C :   -0.054995
   4 C :   -0.134835
   5 C :   -0.078707
   6 C :   -0.013429
   7 C :   -0.062252
   8 O :   -0.455983
   9 H :    0.144483
  10 H :    0.138025
  11 H :    0.146974
  12 H :    0.322149
  13 H :    0.196788
  14 H :    0.140471
  15 H :    0.134703
  16 H :    0.321478
Sum of atomic charges:    0.0000000

LOEWDIN ATOMIC CHARGES
----------------------
   0 C :   -0.228719
   1 C :   -0.388107
   2 O :    0.031797
   3 C :   -0.057850
   4 C :   -0.075918
   5 C :   -0.019827
   6 C :   -0.068004
   7 C :   -0.332750
   8 O :   -0.038482
   9 H :    0.134480
  10 H :    0.134943
  11 H :    0.134837
  12 H :    0.182887
  13 H :    0.129510
  14 H :    0.146840
  15 H :    0.135785
  16 H :    0.178579

  Mayer bond orders larger than 0.1
B(  0-C ,  1-C ) :   0.8459 B(  0-C ,  9-H ) :   0.9360 B(  0-C , 10-H ) :   0.9247
B(  0-C , 11-H ) :   0.9367 B(  1-C ,  2-O ) :   0.8854 B(  1-C ,  3-C ) :   1.2027
B(  1-C ,  4-C ) :  -0.1046 B(  1-C ,  5-C ) :   1.1536 B(  1-C ,  6-C ) :  -0.1388
B(  2-O , 12-H ) :   0.8398 B(  3-C ,  4-C ) :   2.5665 B(  4-C , 13-H ) :   0.8892
B(  5-C ,  6-C ) :   2.6955 B(  6-C ,  7-C ) :   0.8497 B(  7-C ,  8-O ) :   0.9620
B(  7-C , 14-H ) :   0.9224 B(  7-C , 15-H ) :   0.9790 B(  8-O , 16-H ) :   0.8414

MP2 TOTAL ENERGY:     -421.032259794 Eh
FINAL SINGLE POINT ENERGY      -421.032259794449

DIPOLE MOMENT
-------------
                                X             Y             Z
Electronic contribution:     -0.70238      -2.71329       0.81792
Nuclear contribution   :      0.60796       2.29675      -0.58834
                        -----------------------------------------
Total Dipole Moment    :     -0.09443      -0.41655       0.22958
                        -----------------------------------------
Magnitude (a.u.)       :      0.48491
Magnitude (Debye)      :      1.23253

                             ****ORCA TERMINATED NORMALLY****
TOTAL RUN TIME: 0 days 0 hours 14 minutes 25 seconds 840 msec
