                         Program Version 3.0.3 - RELEASE   -
|  1> ! RI-MP2 RIJK def2-TZVP def2-TZVP/C def2-TZVP/JK TIGHTSCF
|  2> % maxcore 2000
|  3> % mp2 density relaxed end
|  4> *xyz 0 1
|  5>  C       -0.0301096928     1.4437328874     0.0869049308
|  6>  C        0.0040279631    -0.0648522966     0.0073886902
|  7>  C        1.0106776256    -0.7260422044    -0.9446378927
|  8>  C        0.3342835517    -2.0573817792    -1.3660386241
|  9>  C       -0.7394216134    -2.2702718133    -0.2892937064
| 10>  C       -0.0891677461    -2.3164019127     1.1367936041
| 11>  C       -0.3824983614    -0.8259394322     1.2602976350
| 12>  O       -0.4845224928    -0.1357448311     2.4560801603
| 13>  C       -1.2933643873    -0.8565413787     0.0331354128
| 14>  H        0.9241725377     1.8392232564     0.4531573050
| 15>  H       -0.2134266873     1.8787829570    -0.9021614911
| 16>  H       -0.8085793761     1.7918467463     0.7691718840
| 17>  H        1.2030204422    -0.0789311297    -1.8068002167
| 18>  H        1.9768099884    -0.8940534051    -0.4557680523
| 19>  H       -0.1375806887    -1.9530745111    -2.3495783117
| 20>  H        1.0387702312    -2.8933980239    -1.4266144040
| 21>  H       -1.4550002690    -3.0639587887    -0.5041792508
| 22>  H       -0.7062231474    -2.8935348854     1.8342646096
| 23>  H        0.9497521282    -2.6584298133     1.2169074637
| 24>  H       -1.1592854276    -0.5659687242     2.9931727836
| 25>  H       -2.2789373382    -0.4494768077    -0.1534543895
| 26> *
| 27>
| 28>                          ****END OF INPUT****

CARTESIAN COORDINATES (ANGSTROEM)
---------------------------------
  C     -0.030110    1.443733    0.086905
  C      0.004028   -0.064852    0.007389
  C      1.010678   -0.726042   -0.944638
  C      0.334284   -2.057382   -1.366039
  C     -0.739422   -2.270272   -0.289294
  C     -0.089168   -2.316402    1.136794
  C     -0.382498   -0.825939    1.260298
  O     -0.484522   -0.135745    2.456080
  C     -1.293364   -0.856541    0.033135
  H      0.924173    1.839223    0.453157
  H     -0.213427    1.878783   -0.902161
  H     -0.808579    1.791847    0.769172
  H      1.203020   -0.078931   -1.806800
  H      1.976810   -0.894053   -0.455768
  H     -0.137581   -1.953075   -2.349578
  H      1.038770   -2.893398   -1.426614
  H     -1.455000   -3.063959   -0.504179
  H     -0.706223   -2.893535    1.834265
  H      0.949752   -2.658430    1.216907
  H     -1.159285   -0.565969    2.993173
  H     -2.278937   -0.449477   -0.153454

 Total Charge           Charge          ....    0
 Multiplicity           Mult            ....    1
 Number of Electrons    NEL             ....   68
 Basis Dimension        Dim             ....  351

ORBITAL ENERGIES
----------------

  NO   OCC          E(Eh)            E(eV)
   0   2.0000     -20.563618      -559.5645
   1   2.0000     -11.281464      -306.9842
   2   2.0000     -11.230061      -305.5855
   3   2.0000     -11.229941      -305.5822
   4   2.0000     -11.222126      -305.3696
   5   2.0000     -11.217283      -305.2378
   6   2.0000     -11.215605      -305.1921
   7   2.0000     -11.214516      -305.1625
   8   2.0000     -11.208614      -305.0019
   9   2.0000      -1.375010       -37.4159
  10   2.0000      -1.200202       -32.6592
  11   2.0000      -1.025010       -27.8919
  12   2.0000      -1.015347       -27.6290
  13   2.0000      -0.916666       -24.9438
  14   2.0000      -0.894642       -24.3445
  15   2.0000      -0.811703       -22.0876
  16   2.0000      -0.740271       -20.1438
  17   2.0000      -0.726636       -19.7728
  18   2.0000      -0.688595       -18.7376
  19   2.0000      -0.638801       -17.3827
  20   2.0000      -0.635637       -17.2966
  21   2.0000      -0.599201       -16.3051
  22   2.0000      -0.577291       -15.7089
  23   2.0000      -0.557338       -15.1659
  24   2.0000      -0.549678       -14.9575
  25   2.0000      -0.540956       -14.7202
  26   2.0000      -0.523166       -14.2361
  27   2.0000      -0.497217       -13.5300
  28   2.0000      -0.476166       -12.9571
  29   2.0000      -0.461761       -12.5652
  30   2.0000      -0.455472       -12.3940
  31   2.0000      -0.432309       -11.7637
  32   2.0000      -0.374086       -10.1794
  33   2.0000      -0.357586        -9.7304
  34   0.0000       0.132290         3.5998
  35   0.0000       0.151578         4.1246
  36   0.0000       0.158856         4.3227
  37   0.0000       0.172471         4.6932
  38   0.0000       0.187658         5.1064

MULLIKEN ATOMIC CHARGES
-----------------------
   0 C :   -0.437903
   1 C :    0.073528
   2 C :   -0.192879
   3 C :   -0.281433
   4 C :    0.034516
   5 C :   -0.230928
   6 C :    0.092517
   7 O :   -0.452007
   8 C :   -0.265464
   9 H :    0.133717
  10 H :    0.128454
  11 H :    0.145278
  12 H :    0.115735
  13 H :    0.114873
  14 H :    0.109918
  15 H :    0.115343
  16 H :    0.120636
  17 H :    0.103788
  18 H :    0.107039
  19 H :    0.323176
  20 H :    0.142096
Sum of atomic charges:    0.0000000

LOEWDIN ATOMIC CHARGES
----------------------
   0 C :   -0.262536
   1 C :   -0.208259
   2 C :   -0.203010
   3 C :   -0.230642
   4 C :   -0.185710
   5 C :   -0.177728
   6 C :   -0.303792
   7 O :    0.034489
   8 C :   -0.116626
   9 H :    0.130091
  10 H :    0.125673
  11 H :    0.132743
  12 H :    0.137594
  13 H :    0.137925
  14 H :    0.136253
  15 H :    0.132819
  16 H :    0.139162
  17 H :    0.135672
  18 H :    0.127491
  19 H :    0.182792
  20 H :    0.135600

  Mayer bond orders larger than 0.1
B(  0-C ,  1-C ) :   0.8810 B(  0-C ,  9-H ) :   0.9401 B(  0-C , 10-H ) :   0.9423
B(  0-C , 11-H ) :   0.9357 B(  1-C ,  2-C ) :   0.8959 B(  1-C ,  6-C ) :   0.8798
B(  1-C ,  8-C ) :   0.8838 B(  2-C ,  3-C ) :   0.9750 B(  2-C , 12-H ) :   0.9285
B(  2-C , 13-H ) :   0.9214 B(  3-C ,  4-C ) :   0.9042 B(  3-C , 14-H ) :   0.9251
B(  3-C , 15-H ) :   0.9301 B(  4-C ,  5-C ) :   0.9316 B(  4-C ,  8-C ) :   0.8706
B(  4-C , 16-H ) :   0.9151 B(  5-C ,  6-C ) :   0.9990 B(  5-C , 17-H ) :   0.9101
B(  5-C , 18-H ) :   0.9084 B(  6-C ,  7-O ) :   1.0816 B(  6-C ,  8-C ) :   0.8036
B(  7-O , 19-H ) :   0.8347 B(  8-C , 20-H ) :   0.9030

MP2 TOTAL ENERGY:     -386.406585302 Eh
FINAL SINGLE POINT ENERGY      -386.406585302005

DIPOLE MOMENT
-------------
                                X             Y             Z
Electronic contribution:     -1.81338      -0.54636       3.65424
Nuclear contribution   :      1.42486       0.14515      -3.72946
                        -----------------------------------------
Total Dipole Moment    :     -0.38852      -0.40121      -0.07522
                        -----------------------------------------
Magnitude (a.u.)       :      0.56354
Magnitude (Debye)      :      1.43241

                             ****ORCA TERMINATED NORMALLY****
TOTAL RUN TIME: 0 days 0 hours 20 minutes 49 seconds 669 msec
