                         Program Version 3.0.3 - RELEASE   -
|  1> ! RI-MP2 RIJK def2-TZVP def2-TZVP/C def2-TZVP/JK TIGHTSCF
|  2> % maxcore 2000
|  3> % mp2 density relaxed end
|  4> *xyz 0 1
|  5>  C       -0.0041687705     1.5309325030     0.0015043778
|  6>  C        0.0519277087     0.0252969836    -0.0482696197
|  7>  C        0.4718417360    -0.7211357756    -1.3056227495
|  8>  C        0.3888096917    -2.0130963028    -0.9862299854
|  9>  C       -0.0797554351    -2.0109376250     0.4624103645
| 10>  O       -0.3574905400    -3.1922142133     1.1250362576
| 11>  C        0.6194916952    -0.7846029592     1.1785610139
| 12>  O       -0.5825783735    -0.5137320748     1.9715953968
| 13>  C       -1.0888353037    -0.8306611764     0.6317349116
| 14>  H        0.9789882181     1.9704893260    -0.1988329184
| 15>  H       -0.7029106388     1.9262319872    -0.7437585487
| 16>  H       -0.3333946790     1.8566458904     0.9917432419
| 17>  H        0.7623295494    -0.2623135944    -2.2413822052
| 18>  H        0.5813502918    -2.8937859515    -1.5838869690
| 19>  H        0.4438595306    -3.7251332333     1.1564824720
| 20>  H        1.5913913470    -0.7104161013     1.6756816893
| 21>  H       -2.1702042280    -0.8122759727     0.4718292104
| 22> *
| 23>
| 24>                          ****END OF INPUT****

CARTESIAN COORDINATES (ANGSTROEM)
---------------------------------
  C     -0.004169    1.530933    0.001504
  C      0.051928    0.025297   -0.048270
  C      0.471842   -0.721136   -1.305623
  C      0.388810   -2.013096   -0.986230
  C     -0.079755   -2.010938    0.462410
  O     -0.357491   -3.192214    1.125036
  C      0.619492   -0.784603    1.178561
  O     -0.582578   -0.513732    1.971595
  C     -1.088835   -0.830661    0.631735
  H      0.978988    1.970489   -0.198833
  H     -0.702911    1.926232   -0.743759
  H     -0.333395    1.856646    0.991743
  H      0.762330   -0.262314   -2.241382
  H      0.581350   -2.893786   -1.583887
  H      0.443860   -3.725133    1.156482
  H      1.591391   -0.710416    1.675682
  H     -2.170204   -0.812276    0.471829

 Total Charge           Charge          ....    0
 Multiplicity           Mult            ....    1
 Number of Electrons    NEL             ....   66
 Basis Dimension        Dim             ....  327

ORBITAL ENERGIES
----------------

  NO   OCC          E(Eh)            E(eV)
   0   2.0000     -20.572667      -559.8107
   1   2.0000     -20.548255      -559.1464
   2   2.0000     -11.305740      -307.6448
   3   2.0000     -11.299196      -307.4668
   4   2.0000     -11.298835      -307.4569
   5   2.0000     -11.256841      -306.3142
   6   2.0000     -11.240527      -305.8703
   7   2.0000     -11.238193      -305.8068
   8   2.0000     -11.221599      -305.3552
   9   2.0000      -1.412206       -38.4281
  10   2.0000      -1.370614       -37.2963
  11   2.0000      -1.159765       -31.5588
  12   2.0000      -1.011109       -27.5137
  13   2.0000      -0.973894       -26.5010
  14   2.0000      -0.891294       -24.2533
  15   2.0000      -0.871736       -23.7211
  16   2.0000      -0.774064       -21.0634
  17   2.0000      -0.722546       -19.6615
  18   2.0000      -0.706376       -19.2215
  19   2.0000      -0.685697       -18.6588
  20   2.0000      -0.645262       -17.5585
  21   2.0000      -0.607882       -16.5413
  22   2.0000      -0.597157       -16.2495
  23   2.0000      -0.586189       -15.9510
  24   2.0000      -0.549727       -14.9588
  25   2.0000      -0.547139       -14.8884
  26   2.0000      -0.521332       -14.1862
  27   2.0000      -0.497165       -13.5285
  28   2.0000      -0.480586       -13.0774
  29   2.0000      -0.467081       -12.7099
  30   2.0000      -0.425225       -11.5710
  31   2.0000      -0.392816       -10.6891
  32   2.0000      -0.345633        -9.4051
  33   0.0000       0.117143         3.1876
  34   0.0000       0.139835         3.8051
  35   0.0000       0.144738         3.9385
  36   0.0000       0.174766         4.7556
  37   0.0000       0.186772         5.0823

MULLIKEN ATOMIC CHARGES
-----------------------
   0 C :   -0.460820
   1 C :    0.160337
   2 C :   -0.249726
   3 C :   -0.220150
   4 C :    0.225649
   5 O :   -0.453845
   6 C :   -0.005283
   7 O :   -0.333405
   8 C :    0.019178
   9 H :    0.135109
  10 H :    0.135941
  11 H :    0.164067
  12 H :    0.140805
  13 H :    0.144736
  14 H :    0.327068
  15 H :    0.137076
  16 H :    0.133262
Sum of atomic charges:    0.0000000

LOEWDIN ATOMIC CHARGES
----------------------
   0 C :   -0.272119
   1 C :   -0.201626
   2 C :   -0.106079
   3 C :   -0.119496
   4 C :   -0.306758
   5 O :    0.041366
   6 C :   -0.148427
   7 O :    0.135408
   8 C :   -0.134710
   9 H :    0.129072
  10 H :    0.129358
  11 H :    0.138275
  12 H :    0.138104
  13 H :    0.136847
  14 H :    0.186161
  15 H :    0.125301
  16 H :    0.129323

  Mayer bond orders larger than 0.1
B(  0-C ,  1-C ) :   0.8408 B(  0-C ,  9-H ) :   0.9387 B(  0-C , 10-H ) :   0.9377
B(  0-C , 11-H ) :   0.9470 B(  1-C ,  2-C ) :   0.8716 B(  1-C ,  4-C ) :  -0.1316
B(  1-C ,  6-C ) :   0.8907 B(  1-C ,  8-C ) :   0.9167 B(  2-C ,  3-C ) :   1.7074
B(  2-C , 12-H ) :   0.9089 B(  3-C ,  4-C ) :   0.9181 B(  3-C , 13-H ) :   0.9127
B(  4-C ,  5-O ) :   1.0833 B(  4-C ,  6-C ) :   0.8865 B(  4-C ,  8-C ) :   0.8990
B(  5-O , 14-H ) :   0.8351 B(  6-C ,  7-O ) :   0.9078 B(  6-C , 15-H ) :   0.8614
B(  7-O ,  8-C ) :   0.9137 B(  8-C , 16-H ) :   0.8739

MP2 TOTAL ENERGY:     -421.039758787 Eh
FINAL SINGLE POINT ENERGY      -421.039758786673

DIPOLE MOMENT
-------------
                                X             Y             Z
Electronic contribution:     -0.89500      -4.76354       2.47054
Nuclear contribution   :      1.64683       4.72202      -3.32736
                        -----------------------------------------
Total Dipole Moment    :      0.75183      -0.04152      -0.85682
                        -----------------------------------------
Magnitude (a.u.)       :      1.14067
Magnitude (Debye)      :      2.89935

                             ****ORCA TERMINATED NORMALLY****
TOTAL RUN TIME: 0 days 0 hours 17 minutes 35 seconds 546 msec
