                         Program Version 3.0.3 - RELEASE   -
|  1> ! RI-MP2 RIJK def2-TZVP def2-TZVP/C def2-TZVP/JK TIGHTSCF
|  2> % maxcore 2000
|  3> % mp2 density relaxed end
|  4> *xyz 0 1
|  5>  C       -0.0578310973     1.4081722071    -0.2379970426
|  6>  C        1.2926144405     0.7858695423    -0.1313319678
|  7>  N        0.0851237568    -0.0166373112     0.0569372299
|  8>  C       -0.2204109850    -0.4567822429     1.3571707643
|  9>  C       -0.0402734933    -1.8123692077     1.9885245040
| 10>  C        0.6294896724    -1.2223372501     3.2261051528
| 11>  C       -0.0773284554     0.1116948082     2.8634901503
| 12>  C       -1.5865731275    -0.2008844127     3.0511057731
| 13>  C       -1.4431201759    -1.1657612173     1.8777504363
| 14>  H       -0.3660827409     2.0674281825     0.5705488566
| 15>  H       -0.4796358226     1.6455992017    -1.2103020680
| 16>  H        1.8687072857     0.5634535656    -1.0248176758
| 17>  H        1.8840653335     1.0305333612     0.7482758429
| 18>  H        0.1743203959    -2.7435826091     1.4806598691
| 19>  H        0.3986857034    -1.6519789407     4.2082972973
| 20>  H        1.7141308170    -1.1602306056     3.0995879773
| 21>  H        0.3377972059     1.0666702971     3.1807232325
| 22>  H       -1.8908885233    -0.5966379799     4.0274944507
| 23>  H       -2.2185626165     0.6524700563     2.7890253309
| 24>  H       -2.2192816335    -1.6403126247     1.2916534163
| 25> *
| 26>
| 27>                          ****END OF INPUT****

CARTESIAN COORDINATES (ANGSTROEM)
---------------------------------
  C     -0.057831    1.408172   -0.237997
  C      1.292614    0.785870   -0.131332
  N      0.085124   -0.016637    0.056937
  C     -0.220411   -0.456782    1.357171
  C     -0.040273   -1.812369    1.988525
  C      0.629490   -1.222337    3.226105
  C     -0.077328    0.111695    2.863490
  C     -1.586573   -0.200884    3.051106
  C     -1.443120   -1.165761    1.877750
  H     -0.366083    2.067428    0.570549
  H     -0.479636    1.645599   -1.210302
  H      1.868707    0.563454   -1.024818
  H      1.884065    1.030533    0.748276
  H      0.174320   -2.743583    1.480660
  H      0.398686   -1.651979    4.208297
  H      1.714131   -1.160231    3.099588
  H      0.337797    1.066670    3.180723
  H     -1.890889   -0.596638    4.027494
  H     -2.218563    0.652470    2.789025
  H     -2.219282   -1.640313    1.291653

 Total Charge           Charge          ....    0
 Multiplicity           Mult            ....    1
 Number of Electrons    NEL             ....   66
 Basis Dimension        Dim             ....  345

ORBITAL ENERGIES
----------------

  NO   OCC          E(Eh)            E(eV)
   0   2.0000     -15.565665      -423.5633
   1   2.0000     -11.257727      -306.3383
   2   2.0000     -11.256058      -306.2929
   3   2.0000     -11.255345      -306.2735
   4   2.0000     -11.234033      -305.6936
   5   2.0000     -11.223551      -305.4084
   6   2.0000     -11.223003      -305.3934
   7   2.0000     -11.220713      -305.3311
   8   2.0000     -11.220699      -305.3307
   9   2.0000      -1.283232       -34.9185
  10   2.0000      -1.212844       -33.0032
  11   2.0000      -0.978292       -26.6207
  12   2.0000      -0.967722       -26.3331
  13   2.0000      -0.919273       -25.0147
  14   2.0000      -0.843338       -22.9484
  15   2.0000      -0.820367       -22.3233
  16   2.0000      -0.739999       -20.1364
  17   2.0000      -0.718525       -19.5521
  18   2.0000      -0.697590       -18.9824
  19   2.0000      -0.662777       -18.0351
  20   2.0000      -0.620433       -16.8828
  21   2.0000      -0.596347       -16.2274
  22   2.0000      -0.574607       -15.6358
  23   2.0000      -0.529103       -14.3976
  24   2.0000      -0.519407       -14.1338
  25   2.0000      -0.510729       -13.8976
  26   2.0000      -0.506950       -13.7948
  27   2.0000      -0.480857       -13.0848
  28   2.0000      -0.450933       -12.2705
  29   2.0000      -0.441980       -12.0269
  30   2.0000      -0.404154       -10.9976
  31   2.0000      -0.351211        -9.5569
  32   2.0000      -0.347218        -9.4483
  33   0.0000       0.141961         3.8629
  34   0.0000       0.158117         4.3026
  35   0.0000       0.163947         4.4612
  36   0.0000       0.177606         4.8329
  37   0.0000       0.187975         5.1151

MULLIKEN ATOMIC CHARGES
-----------------------
   0 C :   -0.166175
   1 C :   -0.166173
   2 N :   -0.175208
   3 C :    0.014404
   4 C :   -0.165671
   5 C :   -0.193711
   6 C :   -0.126946
   7 C :   -0.193716
   8 C :   -0.165673
   9 H :    0.122507
  10 H :    0.132201
  11 H :    0.132202
  12 H :    0.122508
  13 H :    0.130534
  14 H :    0.104750
  15 H :    0.113462
  16 H :    0.131961
  17 H :    0.104749
  18 H :    0.113462
  19 H :    0.130534
Sum of atomic charges:   -0.0000000

LOEWDIN ATOMIC CHARGES
----------------------
   0 C :   -0.251367
   1 C :   -0.251368
   2 N :    0.144082
   3 C :   -0.216725
   4 C :   -0.145718
   5 C :   -0.204199
   6 C :   -0.151435
   7 C :   -0.204200
   8 C :   -0.145718
   9 H :    0.124045
  10 H :    0.124159
  11 H :    0.124159
  12 H :    0.124044
  13 H :    0.139112
  14 H :    0.124143
  15 H :    0.137827
  16 H :    0.128079
  17 H :    0.124142
  18 H :    0.137827
  19 H :    0.139111

  Mayer bond orders larger than 0.1
B(  0-C ,  1-C ) :   0.9462 B(  0-C ,  2-N ) :   0.8641 B(  0-C ,  9-H ) :   0.9214
B(  0-C , 10-H ) :   0.9267 B(  1-C ,  2-N ) :   0.8641 B(  1-C , 11-H ) :   0.9267
B(  1-C , 12-H ) :   0.9214 B(  2-N ,  3-C ) :   1.0764 B(  3-C ,  4-C ) :   0.8429
B(  3-C ,  6-C ) :   0.8456 B(  3-C ,  8-C ) :   0.8429 B(  4-C ,  5-C ) :   0.9522
B(  4-C ,  8-C ) :   0.8504 B(  4-C , 13-H ) :   0.9245 B(  5-C ,  6-C ) :   0.9200
B(  5-C , 14-H ) :   0.9137 B(  5-C , 15-H ) :   0.9312 B(  6-C ,  7-C ) :   0.9200
B(  6-C , 16-H ) :   0.9135 B(  7-C ,  8-C ) :   0.9522 B(  7-C , 17-H ) :   0.9137
B(  7-C , 18-H ) :   0.9312 B(  8-C , 19-H ) :   0.9245

MP2 TOTAL ENERGY:     -365.257479699 Eh
FINAL SINGLE POINT ENERGY      -365.257479698555

DIPOLE MOMENT
-------------
                                X             Y             Z
Electronic contribution:     -0.57240      -1.55018      -1.79705
Nuclear contribution   :      0.75844       1.97854       1.94087
                        -----------------------------------------
Total Dipole Moment    :      0.18604       0.42836       0.14382
                        -----------------------------------------
Magnitude (a.u.)       :      0.48866
Magnitude (Debye)      :      1.24208

                             ****ORCA TERMINATED NORMALLY****
TOTAL RUN TIME: 0 days 0 hours 18 minutes 15 seconds 690 msec
