                         Program Version 3.0.3 - RELEASE   -
|  1> ! RI-MP2 RIJK def2-TZVP def2-TZVP/C def2-TZVP/JK TIGHTSCF
|  2> % maxcore 2000
|  3> % mp2 density relaxed end
|  4> *xyz 0 1
|  5>  C       -0.4186915312     1.4835665045    -0.2155847185
|  6>  C        0.1503477509     0.0905075991     0.0864904921
|  7>  C        0.8915140820    -0.4969403884    -1.0828528161
|  8>  O        0.1095253318    -0.8707575727    -2.2464015878
|  9>  C        0.8388127964    -1.8864318911    -1.5644776424
| 10>  C        2.1540412820    -2.1853268149    -2.2438436677
| 11>  O        2.8543605660    -0.9287372134    -2.2879353439
| 12>  C        2.2354402324     0.0145861906    -1.5154584853
| 13>  N        2.7312126102     1.1331099793    -1.2032559923
| 14>  H        0.3863321306     2.1818870973    -0.4530694948
| 15>  H       -1.1043778585     1.4401189914    -1.0668990050
| 16>  H       -0.9709040646     1.8649312892     0.6480858230
| 17>  H        0.8369615917     0.1412966043     0.9387032079
| 18>  H       -0.6584530707    -0.5962242385     0.3592422130
| 19>  H        0.2618813471    -2.6691828084    -1.0804986147
| 20>  H        2.7473289784    -2.9098644468    -1.6733811356
| 21>  H        2.0315653473    -2.5446550936    -3.2697860744
| 22>  H        3.6719575182     1.2326946422    -1.5890003076
| 23> *
| 24>
| 25>                          ****END OF INPUT****

CARTESIAN COORDINATES (ANGSTROEM)
---------------------------------
  C     -0.418692    1.483567   -0.215585
  C      0.150348    0.090508    0.086490
  C      0.891514   -0.496940   -1.082853
  O      0.109525   -0.870758   -2.246402
  C      0.838813   -1.886432   -1.564478
  C      2.154041   -2.185327   -2.243844
  O      2.854361   -0.928737   -2.287935
  C      2.235440    0.014586   -1.515458
  N      2.731213    1.133110   -1.203256
  H      0.386332    2.181887   -0.453069
  H     -1.104378    1.440119   -1.066899
  H     -0.970904    1.864931    0.648086
  H      0.836962    0.141297    0.938703
  H     -0.658453   -0.596224    0.359242
  H      0.261881   -2.669183   -1.080499
  H      2.747329   -2.909864   -1.673381
  H      2.031565   -2.544655   -3.269786
  H      3.671958    1.232695   -1.589000

 Total Charge           Charge          ....    0
 Multiplicity           Mult            ....    1
 Number of Electrons    NEL             ....   68
 Basis Dimension        Dim             ....  333

ORBITAL ENERGIES
----------------

  NO   OCC          E(Eh)            E(eV)
   0   2.0000     -20.600768      -560.5754
   1   2.0000     -20.587436      -560.2126
   2   2.0000     -15.541766      -422.9130
   3   2.0000     -11.344084      -308.6882
   4   2.0000     -11.310965      -307.7870
   5   2.0000     -11.308885      -307.7304
   6   2.0000     -11.308221      -307.7123
   7   2.0000     -11.238250      -305.8083
   8   2.0000     -11.209692      -305.0312
   9   2.0000      -1.460090       -39.7311
  10   2.0000      -1.407042       -38.2876
  11   2.0000      -1.204485       -32.7757
  12   2.0000      -1.060341       -28.8534
  13   2.0000      -1.018068       -27.7030
  14   2.0000      -0.958012       -26.0688
  15   2.0000      -0.864628       -23.5277
  16   2.0000      -0.846157       -23.0251
  17   2.0000      -0.761689       -20.7266
  18   2.0000      -0.718085       -19.5401
  19   2.0000      -0.690616       -18.7926
  20   2.0000      -0.669979       -18.2311
  21   2.0000      -0.647172       -17.6104
  22   2.0000      -0.616147       -16.7662
  23   2.0000      -0.583027       -15.8650
  24   2.0000      -0.581022       -15.8104
  25   2.0000      -0.559229       -15.2174
  26   2.0000      -0.541530       -14.7358
  27   2.0000      -0.523177       -14.2364
  28   2.0000      -0.503532       -13.7018
  29   2.0000      -0.493092       -13.4177
  30   2.0000      -0.470110       -12.7923
  31   2.0000      -0.455367       -12.3912
  32   2.0000      -0.427605       -11.6357
  33   2.0000      -0.399881       -10.8813
  34   0.0000       0.138274         3.7626
  35   0.0000       0.148783         4.0486
  36   0.0000       0.164128         4.4661
  37   0.0000       0.166340         4.5263
  38   0.0000       0.177512         4.8303

MULLIKEN ATOMIC CHARGES
-----------------------
   0 C :   -0.427536
   1 C :   -0.163232
   2 C :    0.247973
   3 O :   -0.324089
   4 C :   -0.070516
   5 C :    0.015610
   6 O :   -0.262287
   7 C :    0.097543
   8 N :   -0.384352
   9 H :    0.164354
  10 H :    0.136979
  11 H :    0.128989
  12 H :    0.119695
  13 H :    0.116267
  14 H :    0.139526
  15 H :    0.113234
  16 H :    0.126782
  17 H :    0.225059
Sum of atomic charges:   -0.0000000

LOEWDIN ATOMIC CHARGES
----------------------
   0 C :   -0.304890
   1 C :   -0.240700
   2 C :   -0.250682
   3 O :    0.202227
   4 C :   -0.247270
   5 C :   -0.247752
   6 O :    0.239807
   7 C :   -0.363876
   8 N :   -0.041447
   9 H :    0.130255
  10 H :    0.125557
  11 H :    0.120814
  12 H :    0.151673
  13 H :    0.145715
  14 H :    0.141640
  15 H :    0.132565
  16 H :    0.136162
  17 H :    0.170202

  Mayer bond orders larger than 0.1
B(  0-C ,  1-C ) :   0.9266 B(  0-C ,  9-H ) :   0.9284 B(  0-C , 10-H ) :   0.9376
B(  0-C , 11-H ) :   0.9366 B(  1-C ,  2-C ) :   0.9005 B(  1-C , 12-H ) :   0.9182
B(  1-C , 13-H ) :   0.9311 B(  2-C ,  3-O ) :   0.7864 B(  2-C ,  4-C ) :   0.9314
B(  2-C ,  7-C ) :   0.9355 B(  3-O ,  4-C ) :   0.9355 B(  4-C ,  5-C ) :   0.9544
B(  4-C , 14-H ) :   0.9101 B(  5-C ,  6-O ) :   0.8946 B(  5-C , 15-H ) :   0.9170
B(  5-C , 16-H ) :   0.9066 B(  6-O ,  7-C ) :   1.1042 B(  7-C ,  8-N ) :   2.0038
B(  8-N , 17-H ) :   0.8509

MP2 TOTAL ENERGY:     -438.365423847 Eh
FINAL SINGLE POINT ENERGY      -438.365423847172

DIPOLE MOMENT
-------------
                                X             Y             Z
Electronic contribution:      4.11844      -2.78170      -4.46326
Nuclear contribution   :     -4.06842       1.60893       4.86366
                        -----------------------------------------
Total Dipole Moment    :      0.05002      -1.17277       0.40040
                        -----------------------------------------
Magnitude (a.u.)       :      1.24025
Magnitude (Debye)      :      3.15246

                             ****ORCA TERMINATED NORMALLY****
TOTAL RUN TIME: 0 days 0 hours 16 minutes 25 seconds 714 msec
