                         Program Version 3.0.3 - RELEASE   -
|  1> ! RI-MP2 RIJK def2-TZVP def2-TZVP/C def2-TZVP/JK TIGHTSCF
|  2> % maxcore 2000
|  3> % mp2 density relaxed end
|  4> *xyz 0 1
|  5>  O        0.2568370860     1.2783952035    -0.3253431004
|  6>  C        0.0856664230    -0.0595310420     0.1034183636
|  7>  C       -1.3746967476    -0.5151022347     0.0532701243
|  8>  C       -2.2169779940     0.1119510077     1.1555236914
|  9>  O       -2.2281652370     1.5289413005     0.9693316013
| 10>  C       -2.0699198126    -0.4239449136    -1.3601832544
| 11>  C       -2.2607420213    -1.9438333557    -1.3166429715
| 12>  O       -0.9597571536    -2.5349750637    -1.1854862400
| 13>  C       -1.5997990733    -2.0480337420    -0.0060988279
| 14>  H       -0.4039842411     1.8022784395     0.1457402499
| 15>  H        0.6727973298    -0.6857813916    -0.5736515003
| 16>  H        0.4797735698    -0.2121760076     1.1245939942
| 17>  H       -3.2423663764    -0.2888653633     1.1255614478
| 18>  H       -1.7856703210    -0.1459704087     2.1356102305
| 19>  H       -2.6682834965     1.9365428196     1.7209968791
| 20>  H       -3.0030424504     0.1424566020    -1.3282185586
| 21>  H       -1.4442892197    -0.0515271599    -2.1727155712
| 22>  H       -3.0329659089    -2.5575794842    -1.7655556408
| 23>  H       -1.7328456752    -2.7472649360     0.8130532331
| 24> *
| 25>
| 26>                          ****END OF INPUT****

CARTESIAN COORDINATES (ANGSTROEM)
---------------------------------
  O      0.256837    1.278395   -0.325343
  C      0.085666   -0.059531    0.103418
  C     -1.374697   -0.515102    0.053270
  C     -2.216978    0.111951    1.155524
  O     -2.228165    1.528941    0.969332
  C     -2.069920   -0.423945   -1.360183
  C     -2.260742   -1.943833   -1.316643
  O     -0.959757   -2.534975   -1.185486
  C     -1.599799   -2.048034   -0.006099
  H     -0.403984    1.802278    0.145740
  H      0.672797   -0.685781   -0.573652
  H      0.479774   -0.212176    1.124594
  H     -3.242366   -0.288865    1.125561
  H     -1.785670   -0.145970    2.135610
  H     -2.668283    1.936543    1.720997
  H     -3.003042    0.142457   -1.328219
  H     -1.444289   -0.051527   -2.172716
  H     -3.032966   -2.557579   -1.765556
  H     -1.732846   -2.747265    0.813053

 Total Charge           Charge          ....    0
 Multiplicity           Mult            ....    1
 Number of Electrons    NEL             ....   70
 Basis Dimension        Dim             ....  339

ORBITAL ENERGIES
----------------

  NO   OCC          E(Eh)            E(eV)
   0   2.0000     -20.582366      -560.0747
   1   2.0000     -20.571381      -559.7757
   2   2.0000     -20.534565      -558.7739
   3   2.0000     -11.296793      -307.4014
   4   2.0000     -11.291249      -307.2505
   5   2.0000     -11.289865      -307.2129
   6   2.0000     -11.264472      -306.5219
   7   2.0000     -11.248567      -306.0891
   8   2.0000     -11.231533      -305.6255
   9   2.0000      -1.422949       -38.7204
  10   2.0000      -1.386155       -37.7192
  11   2.0000      -1.341512       -36.5044
  12   2.0000      -1.110707       -30.2239
  13   2.0000      -0.980523       -26.6814
  14   2.0000      -0.919947       -25.0330
  15   2.0000      -0.889980       -24.2176
  16   2.0000      -0.831215       -22.6185
  17   2.0000      -0.753296       -20.4982
  18   2.0000      -0.730944       -19.8900
  19   2.0000      -0.705607       -19.2005
  20   2.0000      -0.674410       -18.3516
  21   2.0000      -0.639549       -17.4030
  22   2.0000      -0.627702       -17.0806
  23   2.0000      -0.617989       -16.8163
  24   2.0000      -0.581993       -15.8368
  25   2.0000      -0.574687       -15.6380
  26   2.0000      -0.559762       -15.2319
  27   2.0000      -0.536769       -14.6062
  28   2.0000      -0.510233       -13.8842
  29   2.0000      -0.485689       -13.2163
  30   2.0000      -0.475670       -12.9436
  31   2.0000      -0.452352       -12.3091
  32   2.0000      -0.448708       -12.2100
  33   2.0000      -0.427056       -11.6208
  34   2.0000      -0.396846       -10.7987
  35   0.0000       0.116873         3.1803
  36   0.0000       0.149686         4.0732
  37   0.0000       0.162734         4.4282
  38   0.0000       0.176002         4.7892
  39   0.0000       0.187946         5.1143

MULLIKEN ATOMIC CHARGES
-----------------------
   0 O :   -0.485847
   1 C :   -0.042733
   2 C :    0.171345
   3 C :   -0.131972
   4 O :   -0.496510
   5 C :   -0.222845
   6 C :   -0.053657
   7 O :   -0.321290
   8 C :   -0.057861
   9 H :    0.333146
  10 H :    0.129093
  11 H :    0.084282
  12 H :    0.114813
  13 H :    0.114532
  14 H :    0.324282
  15 H :    0.135283
  16 H :    0.131269
  17 H :    0.134689
  18 H :    0.139980
Sum of atomic charges:   -0.0000000

LOEWDIN ATOMIC CHARGES
----------------------
   0 O :   -0.045434
   1 C :   -0.307010
   2 C :   -0.256202
   3 C :   -0.299303
   4 O :   -0.046804
   5 C :   -0.171002
   6 C :   -0.237079
   7 O :    0.179773
   8 C :   -0.213126
   9 H :    0.169421
  10 H :    0.136487
  11 H :    0.118817
  12 H :    0.125908
  13 H :    0.123924
  14 H :    0.176133
  15 H :    0.142123
  16 H :    0.142284
  17 H :    0.129000
  18 H :    0.132092

  Mayer bond orders larger than 0.1
B(  0-O ,  1-C ) :   0.9513 B(  0-O ,  9-H ) :   0.8222 B(  1-C ,  2-C ) :   0.9344
B(  1-C , 10-H ) :   0.9247 B(  1-C , 11-H ) :   0.9191 B(  2-C ,  3-C ) :   0.8993
B(  2-C ,  5-C ) :   0.9216 B(  2-C ,  8-C ) :   0.8270 B(  3-C ,  4-O ) :   0.9766
B(  3-C , 12-H ) :   0.9240 B(  3-C , 13-H ) :   0.9280 B(  4-O , 14-H ) :   0.8421
B(  5-C ,  6-C ) :   0.9318 B(  5-C , 15-H ) :   0.9111 B(  5-C , 16-H ) :   0.8881
B(  6-C ,  7-O ) :   0.9279 B(  6-C ,  8-C ) :   0.9331 B(  6-C , 17-H ) :   0.9354
B(  7-O ,  8-C ) :   0.9050 B(  8-C , 18-H ) :   0.9201

MP2 TOTAL ENERGY:     -459.383013331 Eh
FINAL SINGLE POINT ENERGY      -459.383013330679

DIPOLE MOMENT
-------------
                                X             Y             Z
Electronic contribution:      1.00415      -1.55018      -1.66561
Nuclear contribution   :     -2.41949       1.50315       2.87211
                        -----------------------------------------
Total Dipole Moment    :     -1.41534      -0.04703       1.20649
                        -----------------------------------------
Magnitude (a.u.)       :      1.86039
Magnitude (Debye)      :      4.72873

                             ****ORCA TERMINATED NORMALLY****
TOTAL RUN TIME: 0 days 0 hours 18 minutes 19 seconds 113 msec
