                         Program Version 3.0.3 - RELEASE   -
|  1> ! RI-MP2 RIJK def2-TZVP def2-TZVP/C def2-TZVP/JK TIGHTSCF
|  2> % maxcore 2000
|  3> % mp2 density relaxed end
|  4> *xyz 0 1
|  5>  C        1.3054470628     0.5815316151     0.2797755849
|  6>  C       -0.0771383555     0.0473799378     0.0305528819
|  7>  N       -1.0536290344     0.1231754812     0.8575104333
|  8>  O       -0.6683857550     0.7522856345     2.0471737080
|  9>  C       -0.3847248844    -0.6311988660    -1.2371431499
| 10>  C       -1.6953060584    -1.2904649999    -1.6863870782
| 11>  C       -0.8488522878    -2.2811963855    -2.5614171669
| 12>  C        0.4153968493    -1.5624626059    -2.0743739685
| 13>  O        0.2915886555    -0.1853015096    -2.4304991419
| 14>  H        1.9105771014     0.5188967653    -0.6244305363
| 15>  H        1.2491998406     1.6239653284     0.6055226404
| 16>  H        1.7893730392     0.0246968894     1.0891654606
| 17>  H       -1.4900420966     0.7573223846     2.5497404559
| 18>  H       -2.2191912610    -1.7861342105    -0.8688130351
| 19>  H       -2.3812967574    -0.6245465443    -2.2130342081
| 20>  H       -0.9173867762    -3.3133538763    -2.2107043327
| 21>  H       -1.0062270949    -2.2497042966    -3.6419479111
| 22>  H        1.4197957331    -1.9488074118    -1.9385804263
| 23> *
| 24>
| 25>                          ****END OF INPUT****

CARTESIAN COORDINATES (ANGSTROEM)
---------------------------------
  C      1.305447    0.581532    0.279776
  C     -0.077138    0.047380    0.030553
  N     -1.053629    0.123175    0.857510
  O     -0.668386    0.752286    2.047174
  C     -0.384725   -0.631199   -1.237143
  C     -1.695306   -1.290465   -1.686387
  C     -0.848852   -2.281196   -2.561417
  C      0.415397   -1.562463   -2.074374
  O      0.291589   -0.185302   -2.430499
  H      1.910577    0.518897   -0.624431
  H      1.249200    1.623965    0.605523
  H      1.789373    0.024697    1.089165
  H     -1.490042    0.757322    2.549740
  H     -2.219191   -1.786134   -0.868813
  H     -2.381297   -0.624547   -2.213034
  H     -0.917387   -3.313354   -2.210704
  H     -1.006227   -2.249704   -3.641948
  H      1.419796   -1.948807   -1.938580

 Total Charge           Charge          ....    0
 Multiplicity           Mult            ....    1
 Number of Electrons    NEL             ....   68
 Basis Dimension        Dim             ....  333

ORBITAL ENERGIES
----------------

  NO   OCC          E(Eh)            E(eV)
   0   2.0000     -20.595254      -560.4254
   1   2.0000     -20.575299      -559.8824
   2   2.0000     -15.619026      -425.0153
   3   2.0000     -11.298683      -307.4528
   4   2.0000     -11.294515      -307.3394
   5   2.0000     -11.286668      -307.1258
   6   2.0000     -11.237745      -305.7946
   7   2.0000     -11.234169      -305.6973
   8   2.0000     -11.229116      -305.5598
   9   2.0000      -1.428269       -38.8652
  10   2.0000      -1.422222       -38.7006
  11   2.0000      -1.172066       -31.8935
  12   2.0000      -1.084692       -29.5160
  13   2.0000      -0.987560       -26.8729
  14   2.0000      -0.926057       -25.1993
  15   2.0000      -0.882384       -24.0109
  16   2.0000      -0.804159       -21.8823
  17   2.0000      -0.743696       -20.2370
  18   2.0000      -0.700862       -19.0714
  19   2.0000      -0.687935       -18.7197
  20   2.0000      -0.634173       -17.2567
  21   2.0000      -0.623392       -16.9634
  22   2.0000      -0.613263       -16.6877
  23   2.0000      -0.608337       -16.5537
  24   2.0000      -0.574151       -15.6234
  25   2.0000      -0.556160       -15.1339
  26   2.0000      -0.550809       -14.9883
  27   2.0000      -0.519805       -14.1446
  28   2.0000      -0.496359       -13.5066
  29   2.0000      -0.484291       -13.1782
  30   2.0000      -0.454382       -12.3644
  31   2.0000      -0.438064       -11.9203
  32   2.0000      -0.435711       -11.8563
  33   2.0000      -0.362544        -9.8653
  34   0.0000       0.138306         3.7635
  35   0.0000       0.140418         3.8210
  36   0.0000       0.155556         4.2329
  37   0.0000       0.164188         4.4678
  38   0.0000       0.179694         4.8897

MULLIKEN ATOMIC CHARGES
-----------------------
   0 C :   -0.421151
   1 C :    0.011066
   2 N :   -0.090321
   3 O :   -0.365162
   4 C :    0.202673
   5 C :   -0.239670
   6 C :   -0.163379
   7 C :   -0.038519
   8 O :   -0.320695
   9 H :    0.157667
  10 H :    0.155940
  11 H :    0.147871
  12 H :    0.336905
  13 H :    0.133308
  14 H :    0.120669
  15 H :    0.116618
  16 H :    0.119191
  17 H :    0.136987
Sum of atomic charges:    0.0000000

LOEWDIN ATOMIC CHARGES
----------------------
   0 C :   -0.272749
   1 C :   -0.276622
   2 N :    0.032456
   3 O :   -0.064381
   4 C :   -0.252847
   5 C :   -0.183698
   6 C :   -0.215815
   7 C :   -0.223752
   8 O :    0.197096
   9 H :    0.136422
  10 H :    0.140824
  11 H :    0.138878
  12 H :    0.171225
  13 H :    0.141356
  14 H :    0.134166
  15 H :    0.135880
  16 H :    0.131374
  17 H :    0.130186

  Mayer bond orders larger than 0.1
B(  0-C ,  1-C ) :   0.9313 B(  0-C ,  9-H ) :   0.9306 B(  0-C , 10-H ) :   0.9186
B(  0-C , 11-H ) :   0.9154 B(  1-C ,  2-N ) :   1.8272 B(  1-C ,  4-C ) :   0.9690
B(  2-N ,  3-O ) :   0.8170 B(  3-O , 12-H ) :   0.8440 B(  4-C ,  5-C ) :   0.9224
B(  4-C ,  7-C ) :   0.8671 B(  4-C ,  8-O ) :   0.8662 B(  5-C ,  6-C ) :   0.9884
B(  5-C , 13-H ) :   0.9187 B(  5-C , 14-H ) :   0.9126 B(  6-C ,  7-C ) :   0.9262
B(  6-C , 15-H ) :   0.9132 B(  6-C , 16-H ) :   0.9127 B(  7-C ,  8-O ) :   0.8980
B(  7-C , 17-H ) :   0.9105

MP2 TOTAL ENERGY:     -438.284436437 Eh
FINAL SINGLE POINT ENERGY      -438.284436436717

DIPOLE MOMENT
-------------
                                X             Y             Z
Electronic contribution:     -0.99518       2.13172       1.25688
Nuclear contribution   :      0.97129      -2.69148      -0.90387
                        -----------------------------------------
Total Dipole Moment    :     -0.02389      -0.55976       0.35302
                        -----------------------------------------
Magnitude (a.u.)       :      0.66221
Magnitude (Debye)      :      1.68320

                             ****ORCA TERMINATED NORMALLY****
TOTAL RUN TIME: 0 days 0 hours 15 minutes 44 seconds 0 msec
