                         Program Version 3.0.3 - RELEASE   -
|  1> ! RI-MP2 RIJK def2-TZVP def2-TZVP/C def2-TZVP/JK TIGHTSCF
|  2> % maxcore 2000
|  3> % mp2 density relaxed end
|  4> *xyz 0 1
|  5>  C       -0.1050555709     1.4664511742     0.0665541145
|  6>  C        0.0389550391    -0.0148196812     0.0450692066
|  7>  C        1.1875956517    -0.8494458005    -0.3709941397
|  8>  C        0.6170143935    -1.0198024197     1.0575347887
|  9>  C        1.3944995902    -0.8323168515     2.2319450281
| 10>  N        2.0365193487    -0.6556960689     3.1781571739
| 11>  C       -0.7214693663    -1.6827567556     0.9307358707
| 12>  N       -1.2885325060    -2.6271774133     1.5168918016
| 13>  O       -1.1723317698    -0.8127253904    -0.0609414794
| 14>  H        0.8547581266     1.9356691551     0.2972565361
| 15>  H       -0.4369244073     1.8268945102    -0.9127488241
| 16>  H       -0.8385808677     1.7727748530     0.8167046289
| 17>  H        1.0516964602    -1.6547809296    -1.0851408418
| 18>  H        2.1558541828    -0.3595337871    -0.3881549042
| 19>  H       -2.2405708447    -2.7689705746     1.1768550702
| 20> *
| 21>
| 22>                          ****END OF INPUT****

CARTESIAN COORDINATES (ANGSTROEM)
---------------------------------
  C     -0.105056    1.466451    0.066554
  C      0.038955   -0.014820    0.045069
  C      1.187596   -0.849446   -0.370994
  C      0.617014   -1.019802    1.057535
  C      1.394500   -0.832317    2.231945
  N      2.036519   -0.655696    3.178157
  C     -0.721469   -1.682757    0.930736
  N     -1.288533   -2.627177    1.516892
  O     -1.172332   -0.812725   -0.060941
  H      0.854758    1.935669    0.297257
  H     -0.436924    1.826895   -0.912749
  H     -0.838581    1.772775    0.816705
  H      1.051696   -1.654781   -1.085141
  H      2.155854   -0.359534   -0.388155
  H     -2.240571   -2.768971    1.176855

 Total Charge           Charge          ....    0
 Multiplicity           Mult            ....    1
 Number of Electrons    NEL             ....   64
 Basis Dimension        Dim             ....  315

ORBITAL ENERGIES
----------------

  NO   OCC          E(Eh)            E(eV)
   0   2.0000     -20.619325      -561.0804
   1   2.0000     -15.583646      -424.0526
   2   2.0000     -15.562708      -423.4828
   3   2.0000     -11.372175      -309.4526
   4   2.0000     -11.356951      -309.0384
   5   2.0000     -11.313069      -307.8443
   6   2.0000     -11.292604      -307.2874
   7   2.0000     -11.289240      -307.1958
   8   2.0000     -11.262989      -306.4815
   9   2.0000      -1.471187       -40.0330
  10   2.0000      -1.233381       -33.5620
  11   2.0000      -1.226381       -33.3715
  12   2.0000      -1.180298       -32.1175
  13   2.0000      -1.038262       -28.2525
  14   2.0000      -0.953743       -25.9527
  15   2.0000      -0.852283       -23.1918
  16   2.0000      -0.827945       -22.5295
  17   2.0000      -0.741804       -20.1855
  18   2.0000      -0.712825       -19.3970
  19   2.0000      -0.683125       -18.5888
  20   2.0000      -0.634510       -17.2659
  21   2.0000      -0.605944       -16.4886
  22   2.0000      -0.598337       -16.2816
  23   2.0000      -0.584503       -15.9051
  24   2.0000      -0.577651       -15.7187
  25   2.0000      -0.560630       -15.2555
  26   2.0000      -0.542559       -14.7638
  27   2.0000      -0.507090       -13.7986
  28   2.0000      -0.473888       -12.8952
  29   2.0000      -0.455520       -12.3953
  30   2.0000      -0.426091       -11.5945
  31   2.0000      -0.409822       -11.1518
  32   0.0000       0.116326         3.1654
  33   0.0000       0.132335         3.6010
  34   0.0000       0.151604         4.1254
  35   0.0000       0.157873         4.2959
  36   0.0000       0.161103         4.3838

MULLIKEN ATOMIC CHARGES
-----------------------
   0 C :   -0.384315
   1 C :    0.191224
   2 C :   -0.224271
   3 C :    0.158725
   4 C :   -0.237996
   5 N :   -0.043409
   6 C :    0.120258
   7 N :   -0.338331
   8 O :   -0.272551
   9 H :    0.150359
  10 H :    0.157301
  11 H :    0.156338
  12 H :    0.164707
  13 H :    0.160374
  14 H :    0.241588
Sum of atomic charges:   -0.0000000

LOEWDIN ATOMIC CHARGES
----------------------
   0 C :   -0.251153
   1 C :   -0.240155
   2 C :   -0.110992
   3 C :   -0.142464
   4 C :   -0.148548
   5 N :    0.083576
   6 C :   -0.341371
   7 N :   -0.015241
   8 O :    0.252179
   9 H :    0.144132
  10 H :    0.142312
  11 H :    0.141890
  12 H :    0.148534
  13 H :    0.156490
  14 H :    0.180810

  Mayer bond orders larger than 0.1
B(  0-C ,  1-C ) :   0.9091 B(  0-C ,  9-H ) :   0.9238 B(  0-C , 10-H ) :   0.9276
B(  0-C , 11-H ) :   0.9264 B(  1-C ,  2-C ) :   0.9291 B(  1-C ,  3-C ) :   0.7886
B(  1-C ,  8-O ) :   0.9104 B(  2-C ,  3-C ) :   0.8049 B(  2-C , 12-H ) :   0.8981
B(  2-C , 13-H ) :   0.9189 B(  3-C ,  4-C ) :   0.9514 B(  3-C ,  6-C ) :   0.9091
B(  4-C ,  5-N ) :   2.8471 B(  6-C ,  7-N ) :   2.0979 B(  6-C ,  8-O ) :   1.0478
B(  7-N , 14-H ) :   0.8387

MP2 TOTAL ENERGY:     -416.084796386 Eh
FINAL SINGLE POINT ENERGY      -416.084796386032

DIPOLE MOMENT
-------------
                                X             Y             Z
Electronic contribution:      0.15411      -4.17864       3.55497
Nuclear contribution   :     -0.48407       5.00260      -5.26267
                        -----------------------------------------
Total Dipole Moment    :     -0.32997       0.82396      -1.70770
                        -----------------------------------------
Magnitude (a.u.)       :      1.92458
Magnitude (Debye)      :      4.89190

                             ****ORCA TERMINATED NORMALLY****
TOTAL RUN TIME: 0 days 0 hours 15 minutes 55 seconds 657 msec
