                         Program Version 3.0.3 - RELEASE   -
|  1> ! RI-MP2 RIJK def2-TZVP def2-TZVP/C def2-TZVP/JK TIGHTSCF
|  2> % maxcore 2000
|  3> % mp2 density relaxed end
|  4> *xyz 0 1
|  5>  C        0.2550851132     1.5218857233    -0.2310471374
|  6>  C        0.0456812911     0.0540008531     0.0773756984
|  7>  O        0.6920792460    -0.8113307906    -0.8909747439
|  8>  C        1.3603899571    -1.5686147726     0.1362014254
|  9>  C        2.8655315249    -1.3410148455     0.1508299391
| 10>  O        3.0455235725    -0.0499672247     0.7347115991
| 11>  C        2.0765946631     0.0678083270     1.7653582912
| 12>  C        0.8135878347    -0.6371857893     1.2434253451
| 13>  O        0.0403184449    -1.2575603484     2.2376040734
| 14>  H        1.3204209208     1.7564608914    -0.2965229196
| 15>  H       -0.2098256377     1.7688500191    -1.1905850414
| 16>  H       -0.2081202114     2.1509386169     0.5377977069
| 17>  H       -1.0247171344    -0.1855966582     0.1453285357
| 18>  H        1.0515206619    -2.6177181892     0.1600671048
| 19>  H        3.3585617575    -2.1173494553     0.7584354469
| 20>  H        3.3068952494    -1.3271501248    -0.8482097802
| 21>  H        2.3962592746    -0.4505261991     2.6844201966
| 22>  H        1.9497515540     1.1321811482     1.9835267280
| 23>  H       -0.2800395922    -0.5815824011     2.8448194518
| 24> *
| 25>
| 26>                          ****END OF INPUT****

CARTESIAN COORDINATES (ANGSTROEM)
---------------------------------
  C      0.255085    1.521886   -0.231047
  C      0.045681    0.054001    0.077376
  O      0.692079   -0.811331   -0.890975
  C      1.360390   -1.568615    0.136201
  C      2.865532   -1.341015    0.150830
  O      3.045524   -0.049967    0.734712
  C      2.076595    0.067808    1.765358
  C      0.813588   -0.637186    1.243425
  O      0.040318   -1.257560    2.237604
  H      1.320421    1.756461   -0.296523
  H     -0.209826    1.768850   -1.190585
  H     -0.208120    2.150939    0.537798
  H     -1.024717   -0.185597    0.145329
  H      1.051521   -2.617718    0.160067
  H      3.358562   -2.117349    0.758435
  H      3.306895   -1.327150   -0.848210
  H      2.396259   -0.450526    2.684420
  H      1.949752    1.132181    1.983527
  H     -0.280040   -0.581582    2.844819

 Total Charge           Charge          ....    0
 Multiplicity           Mult            ....    1
 Number of Electrons    NEL             ....   70
 Basis Dimension        Dim             ....  339

ORBITAL ENERGIES
----------------

  NO   OCC          E(Eh)            E(eV)
   0   2.0000     -20.577676      -559.9470
   1   2.0000     -20.562713      -559.5399
   2   2.0000     -20.549618      -559.1835
   3   2.0000     -11.295709      -307.3719
   4   2.0000     -11.285718      -307.1000
   5   2.0000     -11.283513      -307.0400
   6   2.0000     -11.283102      -307.0288
   7   2.0000     -11.277778      -306.8839
   8   2.0000     -11.219579      -305.3003
   9   2.0000      -1.410822       -38.3904
  10   2.0000      -1.377785       -37.4914
  11   2.0000      -1.364853       -37.1395
  12   2.0000      -1.040153       -28.3040
  13   2.0000      -1.021780       -27.8040
  14   2.0000      -0.981336       -26.7035
  15   2.0000      -0.880381       -23.9564
  16   2.0000      -0.822818       -22.3900
  17   2.0000      -0.756957       -20.5978
  18   2.0000      -0.737154       -20.0590
  19   2.0000      -0.695382       -18.9223
  20   2.0000      -0.652951       -17.7677
  21   2.0000      -0.648629       -17.6501
  22   2.0000      -0.618205       -16.8222
  23   2.0000      -0.612717       -16.6729
  24   2.0000      -0.588091       -16.0028
  25   2.0000      -0.574806       -15.6413
  26   2.0000      -0.559974       -15.2377
  27   2.0000      -0.538560       -14.6550
  28   2.0000      -0.530818       -14.4443
  29   2.0000      -0.518478       -14.1085
  30   2.0000      -0.500687       -13.6244
  31   2.0000      -0.448326       -12.1996
  32   2.0000      -0.436395       -11.8749
  33   2.0000      -0.420711       -11.4481
  34   2.0000      -0.414993       -11.2925
  35   0.0000       0.121226         3.2987
  36   0.0000       0.153372         4.1735
  37   0.0000       0.163159         4.4398
  38   0.0000       0.180209         4.9037
  39   0.0000       0.192527         5.2389

MULLIKEN ATOMIC CHARGES
-----------------------
   0 C :   -0.446898
   1 C :    0.056767
   2 O :   -0.334776
   3 C :    0.031338
   4 C :   -0.052918
   5 O :   -0.326707
   6 C :   -0.091161
   7 C :    0.203621
   8 O :   -0.455712
   9 H :    0.159556
  10 H :    0.145456
  11 H :    0.123149
  12 H :    0.089726
  13 H :    0.114236
  14 H :    0.098030
  15 H :    0.127679
  16 H :    0.106796
  17 H :    0.128424
  18 H :    0.323394
Sum of atomic charges:   -0.0000000

LOEWDIN ATOMIC CHARGES
----------------------
   0 C :   -0.297469
   1 C :   -0.268995
   2 O :    0.162719
   3 C :   -0.241317
   4 C :   -0.282630
   5 O :    0.152104
   6 C :   -0.282972
   7 C :   -0.331877
   8 O :    0.019931
   9 H :    0.132035
  10 H :    0.131641
  11 H :    0.126017
  12 H :    0.138715
  13 H :    0.140223
  14 H :    0.126433
  15 H :    0.135289
  16 H :    0.127817
  17 H :    0.130351
  18 H :    0.181984

  Mayer bond orders larger than 0.1
B(  0-C ,  1-C ) :   0.8759 B(  0-C ,  9-H ) :   0.9349 B(  0-C , 10-H ) :   0.9301
B(  0-C , 11-H ) :   0.9300 B(  1-C ,  2-O ) :   0.9358 B(  1-C ,  7-C ) :   0.9274
B(  1-C , 12-H ) :   0.9173 B(  2-O ,  3-C ) :   0.9516 B(  3-C ,  4-C ) :   0.9583
B(  3-C ,  7-C ) :   0.9057 B(  3-C , 13-H ) :   0.9064 B(  4-C ,  5-O ) :   0.9189
B(  4-C , 14-H ) :   0.9248 B(  4-C , 15-H ) :   0.9100 B(  5-O ,  6-C ) :   0.9307
B(  6-C ,  7-C ) :   0.9533 B(  6-C , 16-H ) :   0.9141 B(  6-C , 17-H ) :   0.9154
B(  7-C ,  8-O ) :   1.0147 B(  8-O , 18-H ) :   0.8381

MP2 TOTAL ENERGY:     -459.418264529 Eh
FINAL SINGLE POINT ENERGY      -459.418264529439

DIPOLE MOMENT
-------------
                                X             Y             Z
Electronic contribution:      0.37902      -3.37050       0.02043
Nuclear contribution   :     -0.68575       3.67167       0.75049
                        -----------------------------------------
Total Dipole Moment    :     -0.30674       0.30117       0.77092
                        -----------------------------------------
Magnitude (a.u.)       :      0.88267
Magnitude (Debye)      :      2.24357

                             ****ORCA TERMINATED NORMALLY****
TOTAL RUN TIME: 0 days 0 hours 17 minutes 17 seconds 974 msec
