                         Program Version 3.0.3 - RELEASE   -
|  1> ! RI-MP2 RIJK def2-TZVP def2-TZVP/C def2-TZVP/JK TIGHTSCF
|  2> % maxcore 2000
|  3> % mp2 density relaxed end
|  4> *xyz 0 1
|  5>  C       -0.0474411062     1.6106215457    -0.0826244245
|  6>  C        0.0123447102     0.0851316931     0.0406850726
|  7>  C       -1.3791627996    -0.5588976349     0.0652843235
|  8>  C       -1.3789702073    -2.0979637744     0.0779145828
|  9>  C       -0.7415621685    -2.6879860388     1.3417873246
| 10>  C       -2.8333594977    -2.6037549474    -0.0959636212
| 11>  C       -2.9281793768    -4.0549530325    -0.2393012576
| 12>  N       -2.9832472504    -5.2036197887    -0.3560656381
| 13>  H        0.9555126229     2.0477667890    -0.0985572136
| 14>  H       -0.5585450147     1.9145209339    -1.0028606542
| 15>  H       -0.5906735488     2.0551455365     0.7587055419
| 16>  H        0.5860440038    -0.3286697500    -0.7992244834
| 17>  H        0.5650390078    -0.1812064705     0.9488536501
| 18>  H       -1.9353672412    -0.1923280928     0.9405422514
| 19>  H       -1.9383733730    -0.2129916651    -0.8151347950
| 20>  H       -0.8088877849    -2.4469065377    -0.7933784898
| 21>  H        0.3097971823    -2.4028362049     1.4273126995
| 22>  H       -1.2593349871    -2.3341209685     2.2416860759
| 23>  H       -0.7894957583    -3.7807184904     1.3339185476
| 24>  H       -3.4398984256    -2.3001123135     0.7665969671
| 25>  H       -3.2897654771    -2.1425285483    -0.9792637097
| 26> *
| 27>
| 28>                          ****END OF INPUT****

CARTESIAN COORDINATES (ANGSTROEM)
---------------------------------
  C     -0.047441    1.610622   -0.082624
  C      0.012345    0.085132    0.040685
  C     -1.379163   -0.558898    0.065284
  C     -1.378970   -2.097964    0.077915
  C     -0.741562   -2.687986    1.341787
  C     -2.833359   -2.603755   -0.095964
  C     -2.928179   -4.054953   -0.239301
  N     -2.983247   -5.203620   -0.356066
  H      0.955513    2.047767   -0.098557
  H     -0.558545    1.914521   -1.002861
  H     -0.590674    2.055146    0.758706
  H      0.586044   -0.328670   -0.799224
  H      0.565039   -0.181206    0.948854
  H     -1.935367   -0.192328    0.940542
  H     -1.938373   -0.212992   -0.815135
  H     -0.808888   -2.446907   -0.793378
  H      0.309797   -2.402836    1.427313
  H     -1.259335   -2.334121    2.241686
  H     -0.789496   -3.780718    1.333919
  H     -3.439898   -2.300112    0.766597
  H     -3.289765   -2.142529   -0.979264

 Total Charge           Charge          ....    0
 Multiplicity           Mult            ....    1
 Number of Electrons    NEL             ....   62
 Basis Dimension        Dim             ....  326

ORBITAL ENERGIES
----------------

  NO   OCC          E(Eh)            E(eV)
   0   2.0000     -15.564440      -423.5299
   1   2.0000     -11.277911      -306.8876
   2   2.0000     -11.269470      -306.6579
   3   2.0000     -11.255070      -306.2660
   4   2.0000     -11.235439      -305.7318
   5   2.0000     -11.231270      -305.6184
   6   2.0000     -11.225149      -305.4518
   7   2.0000     -11.222202      -305.3716
   8   2.0000      -1.215301       -33.0700
   9   2.0000      -1.122889       -30.5554
  10   2.0000      -1.054165       -28.6853
  11   2.0000      -0.983011       -26.7491
  12   2.0000      -0.937782       -25.5183
  13   2.0000      -0.839060       -22.8320
  14   2.0000      -0.789436       -21.4817
  15   2.0000      -0.696706       -18.9583
  16   2.0000      -0.664223       -18.0744
  17   2.0000      -0.636155       -17.3107
  18   2.0000      -0.616267       -16.7695
  19   2.0000      -0.594673       -16.1819
  20   2.0000      -0.573426       -15.6037
  21   2.0000      -0.553009       -15.0481
  22   2.0000      -0.547274       -14.8921
  23   2.0000      -0.530571       -14.4376
  24   2.0000      -0.521825       -14.1996
  25   2.0000      -0.497492       -13.5374
  26   2.0000      -0.483495       -13.1566
  27   2.0000      -0.476801       -12.9744
  28   2.0000      -0.473761       -12.8917
  29   2.0000      -0.452614       -12.3163
  30   2.0000      -0.444215       -12.0877
  31   0.0000       0.121085         3.2949
  32   0.0000       0.139969         3.8088
  33   0.0000       0.150540         4.0964
  34   0.0000       0.155695         4.2367
  35   0.0000       0.175606         4.7785

MULLIKEN ATOMIC CHARGES
-----------------------
   0 C :   -0.386827
   1 C :   -0.202368
   2 C :   -0.242543
   3 C :   -0.039008
   4 C :   -0.439029
   5 C :   -0.118967
   6 C :   -0.192228
   7 N :   -0.056414
   8 H :    0.137355
   9 H :    0.124263
  10 H :    0.123890
  11 H :    0.110821
  12 H :    0.114596
  13 H :    0.111685
  14 H :    0.112118
  15 H :    0.105211
  16 H :    0.141672
  17 H :    0.123035
  18 H :    0.162575
  19 H :    0.153239
  20 H :    0.156921
Sum of atomic charges:   -0.0000000

LOEWDIN ATOMIC CHARGES
----------------------
   0 C :   -0.319286
   1 C :   -0.293154
   2 C :   -0.250183
   3 C :   -0.268841
   4 C :   -0.286094
   5 C :   -0.227325
   6 C :   -0.195649
   7 N :    0.052494
   8 H :    0.121826
   9 H :    0.120549
  10 H :    0.121039
  11 H :    0.136595
  12 H :    0.135205
  13 H :    0.140314
  14 H :    0.140703
  15 H :    0.157969
  16 H :    0.125283
  17 H :    0.125949
  18 H :    0.132502
  19 H :    0.165502
  20 H :    0.164601

  Mayer bond orders larger than 0.1
B(  0-C ,  1-C ) :   0.9235 B(  0-C ,  8-H ) :   0.9430 B(  0-C ,  9-H ) :   0.9409
B(  0-C , 10-H ) :   0.9381 B(  1-C ,  2-C ) :   0.9306 B(  1-C , 11-H ) :   0.9322
B(  1-C , 12-H ) :   0.9362 B(  2-C ,  3-C ) :   0.9196 B(  2-C , 13-H ) :   0.9176
B(  2-C , 14-H ) :   0.9317 B(  3-C ,  4-C ) :   0.9128 B(  3-C ,  5-C ) :   0.9064
B(  3-C , 15-H ) :   0.9271 B(  4-C , 16-H ) :   0.9392 B(  4-C , 17-H ) :   0.9267
B(  4-C , 18-H ) :   0.9342 B(  5-C ,  6-C ) :   0.9378 B(  5-C , 19-H ) :   0.9031
B(  5-C , 20-H ) :   0.9068 B(  6-C ,  7-N ) :   2.8864

MP2 TOTAL ENERGY:     -328.567081353 Eh
FINAL SINGLE POINT ENERGY      -328.567081352722

DIPOLE MOMENT
-------------
                                X             Y             Z
Electronic contribution:     -6.41062     -11.42418      -2.15865
Nuclear contribution   :      6.73142      13.02863       2.33684
                        -----------------------------------------
Total Dipole Moment    :      0.32080       1.60445       0.17819
                        -----------------------------------------
Magnitude (a.u.)       :      1.64589
Magnitude (Debye)      :      4.18351

                             ****ORCA TERMINATED NORMALLY****
TOTAL RUN TIME: 0 days 0 hours 13 minutes 20 seconds 83 msec
