                         Program Version 3.0.3 - RELEASE   -
|  1> ! RI-MP2 RIJK def2-TZVP def2-TZVP/C def2-TZVP/JK TIGHTSCF
|  2> % maxcore 2000
|  3> % mp2 density relaxed end
|  4> *xyz 0 1
|  5>  C       -0.0138117009     0.1732654307    -1.6476665287
|  6>  C        0.0590269554    -0.5286666754    -0.3051776009
|  7>  O       -1.0220492158    -1.4765159610    -0.2539950683
|  8>  C       -1.1186991266    -2.2025668977     0.8723483959
|  9>  N       -0.3244087471    -2.0648366869     1.8504535626
| 10>  O       -2.1333354204    -3.0877411871     0.8407391812
| 11>  C       -3.0365438754    -3.1609471274    -0.2924916039
| 12>  C       -3.6324663278    -4.5613547438    -0.2443640725
| 13>  C       -4.0901312127    -2.0613793285    -0.1971665127
| 14>  H        0.7977028316     0.9026560720    -1.7266532192
| 15>  H        0.0848466888    -0.5412558641    -2.4700183620
| 16>  H       -0.9639952674     0.7027732023    -1.7633625524
| 17>  H        1.0033321745    -1.0642976665    -0.1689745430
| 18>  H       -0.0425337965     0.1678461909     0.5324848941
| 19>  H       -0.5783414480    -2.7119912732     2.5930077908
| 20>  H       -2.4513735003    -3.0351644859    -1.2070780821
| 21>  H       -4.1899177221    -4.7106742783     0.6854975413
| 22>  H       -4.3172631447    -4.7083015825    -1.0848270224
| 23>  H       -2.8463466499    -5.3187997216    -0.2997537020
| 24>  H       -4.7894400867    -2.1357801178    -1.0361793106
| 25>  H       -4.6577661343    -2.1561403422     0.7339374435
| 26>  H       -3.6236328137    -1.0745673159    -0.2271874887
| 27> *
| 28>
| 29>                          ****END OF INPUT****

CARTESIAN COORDINATES (ANGSTROEM)
---------------------------------
  C     -0.013812    0.173265   -1.647667
  C      0.059027   -0.528667   -0.305178
  O     -1.022049   -1.476516   -0.253995
  C     -1.118699   -2.202567    0.872348
  N     -0.324409   -2.064837    1.850454
  O     -2.133335   -3.087741    0.840739
  C     -3.036544   -3.160947   -0.292492
  C     -3.632466   -4.561355   -0.244364
  C     -4.090131   -2.061379   -0.197167
  H      0.797703    0.902656   -1.726653
  H      0.084847   -0.541256   -2.470018
  H     -0.963995    0.702773   -1.763363
  H      1.003332   -1.064298   -0.168975
  H     -0.042534    0.167846    0.532485
  H     -0.578341   -2.711991    2.593008
  H     -2.451374   -3.035164   -1.207078
  H     -4.189918   -4.710674    0.685498
  H     -4.317263   -4.708302   -1.084827
  H     -2.846347   -5.318800   -0.299754
  H     -4.789440   -2.135780   -1.036179
  H     -4.657766   -2.156140    0.733937
  H     -3.623633   -1.074567   -0.227187

 Total Charge           Charge          ....    0
 Multiplicity           Mult            ....    1
 Number of Electrons    NEL             ....   72
 Basis Dimension        Dim             ....  357

ORBITAL ENERGIES
----------------

  NO   OCC          E(Eh)            E(eV)
   0   2.0000     -20.594425      -560.4028
   1   2.0000     -20.588453      -560.2403
   2   2.0000     -15.513300      -422.1384
   3   2.0000     -11.383203      -309.7527
   4   2.0000     -11.295175      -307.3573
   5   2.0000     -11.283508      -307.0399
   6   2.0000     -11.223557      -305.4085
   7   2.0000     -11.222031      -305.3670
   8   2.0000     -11.220461      -305.3243
   9   2.0000      -1.466773       -39.9129
  10   2.0000      -1.381266       -37.5862
  11   2.0000      -1.180471       -32.1222
  12   2.0000      -1.060149       -28.8481
  13   2.0000      -1.032811       -28.1042
  14   2.0000      -0.945893       -25.7391
  15   2.0000      -0.875818       -23.8322
  16   2.0000      -0.833127       -22.6705
  17   2.0000      -0.782251       -21.2861
  18   2.0000      -0.734501       -19.9868
  19   2.0000      -0.686856       -18.6903
  20   2.0000      -0.677911       -18.4469
  21   2.0000      -0.639112       -17.3911
  22   2.0000      -0.615815       -16.7572
  23   2.0000      -0.586519       -15.9600
  24   2.0000      -0.574384       -15.6298
  25   2.0000      -0.559766       -15.2320
  26   2.0000      -0.549995       -14.9661
  27   2.0000      -0.547172       -14.8893
  28   2.0000      -0.535286       -14.5659
  29   2.0000      -0.527375       -14.3506
  30   2.0000      -0.510178       -13.8827
  31   2.0000      -0.492729       -13.4078
  32   2.0000      -0.480680       -13.0800
  33   2.0000      -0.460691       -12.5361
  34   2.0000      -0.436745       -11.8844
  35   2.0000      -0.382570       -10.4102
  36   0.0000       0.127171         3.4605
  37   0.0000       0.149288         4.0623
  38   0.0000       0.171446         4.6653
  39   0.0000       0.176670         4.8074
  40   0.0000       0.190677         5.1886

MULLIKEN ATOMIC CHARGES
-----------------------
   0 C :   -0.359508
   1 C :   -0.060507
   2 O :   -0.272966
   3 C :    0.342281
   4 N :   -0.460829
   5 O :   -0.272677
   6 C :    0.089217
   7 C :   -0.362649
   8 C :   -0.410956
   9 H :    0.132365
  10 H :    0.129846
  11 H :    0.129600
  12 H :    0.124622
  13 H :    0.124850
  14 H :    0.223993
  15 H :    0.101874
  16 H :    0.131023
  17 H :    0.126040
  18 H :    0.138535
  19 H :    0.129261
  20 H :    0.129336
  21 H :    0.147247
Sum of atomic charges:    0.0000000

LOEWDIN ATOMIC CHARGES
----------------------
   0 C :   -0.317221
   1 C :   -0.303277
   2 O :    0.243979
   3 C :   -0.558747
   4 N :   -0.106832
   5 O :    0.257563
   6 C :   -0.337469
   7 C :   -0.291669
   8 C :   -0.295815
   9 H :    0.128678
  10 H :    0.123841
  11 H :    0.123479
  12 H :    0.129979
  13 H :    0.129799
  14 H :    0.168906
  15 H :    0.141791
  16 H :    0.127154
  17 H :    0.127902
  18 H :    0.126843
  19 H :    0.128154
  20 H :    0.126874
  21 H :    0.126088

  Mayer bond orders larger than 0.1
B(  0-C ,  1-C ) :   0.9312 B(  0-C ,  9-H ) :   0.9358 B(  0-C , 10-H ) :   0.9335
B(  0-C , 11-H ) :   0.9339 B(  1-C ,  2-O ) :   0.8411 B(  1-C , 12-H ) :   0.9323
B(  1-C , 13-H ) :   0.9351 B(  2-O ,  3-C ) :   1.0544 B(  3-C ,  4-N ) :   1.8976
B(  3-C ,  5-O ) :   1.1264 B(  4-N , 14-H ) :   0.8580 B(  5-O ,  6-C ) :   0.8249
B(  6-C ,  7-C ) :   0.9247 B(  6-C ,  8-C ) :   0.9261 B(  6-C , 15-H ) :   0.9355
B(  7-C , 16-H ) :   0.9319 B(  7-C , 17-H ) :   0.9336 B(  7-C , 18-H ) :   0.9367
B(  8-C , 19-H ) :   0.9308 B(  8-C , 20-H ) :   0.9292 B(  8-C , 21-H ) :   0.9358

MP2 TOTAL ENERGY:     -440.784496312 Eh
FINAL SINGLE POINT ENERGY      -440.784496311671

DIPOLE MOMENT
-------------
                                X             Y             Z
Electronic contribution:      3.58915      -1.54161       5.05028
Nuclear contribution   :     -4.09938       1.56740      -5.83271
                        -----------------------------------------
Total Dipole Moment    :     -0.51024       0.02580      -0.78244
                        -----------------------------------------
Magnitude (a.u.)       :      0.93446
Magnitude (Debye)      :      2.37521

                             ****ORCA TERMINATED NORMALLY****
TOTAL RUN TIME: 0 days 0 hours 16 minutes 12 seconds 27 msec
