                         Program Version 3.0.3 - RELEASE   -
|  1> ! RI-MP2 RIJK def2-TZVP def2-TZVP/C def2-TZVP/JK TIGHTSCF
|  2> % maxcore 2000
|  3> % mp2 density relaxed end
|  4> *xyz 0 1
|  5>  C       -0.8707402838     1.2965055964     0.6189043920
|  6>  C       -0.3754328140    -0.1325972299     0.3811206751
|  7>  C       -1.4566424657    -1.0499040500    -0.2007555113
|  8>  C       -0.9544514934    -2.4720996261    -0.4353815133
|  9>  O       -1.9405155083    -3.2930712004    -1.0598984154
| 10>  C       -2.8018617848    -3.9342895033    -0.2387410689
| 11>  N       -3.7764612620    -4.5664119363    -0.7168597613
| 12>  C       -4.6869938141    -5.2948508018     0.1497086750
| 13>  C       -4.4550517721    -5.2664367407     1.6647528157
| 14>  H       -0.0785583885     1.9287697255     1.0313279074
| 15>  H       -1.2133465977     1.7561556611    -0.3144314800
| 16>  H       -1.7104585783     1.3122450443     1.3222771534
| 17>  H        0.4874333509    -0.1130521701    -0.2976981752
| 18>  H       -0.0075746398    -0.5543129398     1.3260885687
| 19>  H       -2.3219773974    -1.0809702987     0.4746607488
| 20>  H       -1.8215430307    -0.6486301221    -1.1539168626
| 21>  H       -0.0990955142    -2.4707986299    -1.1180137476
| 22>  H       -0.6239232067    -2.9294835700     0.5085269316
| 23>  H       -2.5402791541    -3.8501534844     0.8247592357
| 24>  H       -5.6979548843    -4.9231683473    -0.0652281072
| 25>  H       -4.6892678060    -6.3383179247    -0.1935217036
| 26>  H       -5.2267189918    -5.8600133930     2.1642406842
| 27>  H       -3.4826229585    -5.6903320807     1.9379462709
| 28>  H       -4.5077621547    -4.2488695780     2.0669959878
| 29> *
| 30>
| 31>                          ****END OF INPUT****

CARTESIAN COORDINATES (ANGSTROEM)
---------------------------------
  C     -0.870740    1.296506    0.618904
  C     -0.375433   -0.132597    0.381121
  C     -1.456642   -1.049904   -0.200756
  C     -0.954451   -2.472100   -0.435382
  O     -1.940516   -3.293071   -1.059898
  C     -2.801862   -3.934290   -0.238741
  N     -3.776461   -4.566412   -0.716860
  C     -4.686994   -5.294851    0.149709
  C     -4.455052   -5.266437    1.664753
  H     -0.078558    1.928770    1.031328
  H     -1.213347    1.756156   -0.314431
  H     -1.710459    1.312245    1.322277
  H      0.487433   -0.113052   -0.297698
  H     -0.007575   -0.554313    1.326089
  H     -2.321977   -1.080970    0.474661
  H     -1.821543   -0.648630   -1.153917
  H     -0.099096   -2.470799   -1.118014
  H     -0.623923   -2.929484    0.508527
  H     -2.540279   -3.850153    0.824759
  H     -5.697955   -4.923168   -0.065228
  H     -4.689268   -6.338318   -0.193522
  H     -5.226719   -5.860013    2.164241
  H     -3.482623   -5.690332    1.937946
  H     -4.507762   -4.248870    2.066996

 Total Charge           Charge          ....    0
 Multiplicity           Mult            ....    1
 Number of Electrons    NEL             ....   72
 Basis Dimension        Dim             ....  369

ORBITAL ENERGIES
----------------

  NO   OCC          E(Eh)            E(eV)
   0   2.0000     -20.579979      -560.0097
   1   2.0000     -15.534325      -422.7105
   2   2.0000     -11.322122      -308.0906
   3   2.0000     -11.288903      -307.1867
   4   2.0000     -11.249110      -306.1038
   5   2.0000     -11.231112      -305.6141
   6   2.0000     -11.228268      -305.5367
   7   2.0000     -11.220294      -305.3197
   8   2.0000     -11.218773      -305.2783
   9   2.0000      -1.414748       -38.4972
  10   2.0000      -1.212880       -33.0042
  11   2.0000      -1.081609       -29.4321
  12   2.0000      -1.015462       -27.6321
  13   2.0000      -0.982778       -26.7428
  14   2.0000      -0.897025       -24.4093
  15   2.0000      -0.857150       -23.3242
  16   2.0000      -0.808205       -21.9924
  17   2.0000      -0.787259       -21.4224
  18   2.0000      -0.698189       -18.9987
  19   2.0000      -0.659794       -17.9539
  20   2.0000      -0.640334       -17.4244
  21   2.0000      -0.626818       -17.0566
  22   2.0000      -0.617332       -16.7984
  23   2.0000      -0.596190       -16.2231
  24   2.0000      -0.570074       -15.5125
  25   2.0000      -0.568590       -15.4721
  26   2.0000      -0.540527       -14.7085
  27   2.0000      -0.530508       -14.4359
  28   2.0000      -0.511477       -13.9180
  29   2.0000      -0.506365       -13.7789
  30   2.0000      -0.496035       -13.4978
  31   2.0000      -0.485406       -13.2086
  32   2.0000      -0.476481       -12.9657
  33   2.0000      -0.473642       -12.8884
  34   2.0000      -0.398281       -10.8378
  35   2.0000      -0.371443       -10.1075
  36   0.0000       0.124636         3.3915
  37   0.0000       0.140784         3.8309
  38   0.0000       0.147664         4.0181
  39   0.0000       0.161941         4.4066
  40   0.0000       0.169205         4.6043

MULLIKEN ATOMIC CHARGES
-----------------------
   0 C :   -0.381522
   1 C :   -0.202398
   2 C :   -0.222847
   3 C :   -0.096907
   4 O :   -0.224566
   5 C :    0.058313
   6 N :   -0.193248
   7 C :   -0.082690
   8 C :   -0.427305
   9 H :    0.134344
  10 H :    0.126618
  11 H :    0.123545
  12 H :    0.109664
  13 H :    0.106928
  14 H :    0.110024
  15 H :    0.124352
  16 H :    0.132401
  17 H :    0.112229
  18 H :    0.062697
  19 H :    0.119357
  20 H :    0.119085
  21 H :    0.138266
  22 H :    0.127473
  23 H :    0.126186
Sum of atomic charges:    0.0000000

LOEWDIN ATOMIC CHARGES
----------------------
   0 C :   -0.319000
   1 C :   -0.294949
   2 C :   -0.276251
   3 C :   -0.307346
   4 O :    0.239224
   5 C :   -0.370955
   6 N :    0.081281
   7 C :   -0.330286
   8 C :   -0.335148
   9 H :    0.121175
  10 H :    0.121860
  11 H :    0.120877
  12 H :    0.135938
  13 H :    0.134516
  14 H :    0.137433
  15 H :    0.142599
  16 H :    0.132680
  17 H :    0.121523
  18 H :    0.111850
  19 H :    0.134667
  20 H :    0.134825
  21 H :    0.125875
  22 H :    0.118954
  23 H :    0.118659

  Mayer bond orders larger than 0.1
B(  0-C ,  1-C ) :   0.9237 B(  0-C ,  9-H ) :   0.9411 B(  0-C , 10-H ) :   0.9393
B(  0-C , 11-H ) :   0.9394 B(  1-C ,  2-C ) :   0.9192 B(  1-C , 12-H ) :   0.9315
B(  1-C , 13-H ) :   0.9313 B(  2-C ,  3-C ) :   0.9347 B(  2-C , 14-H ) :   0.9274
B(  2-C , 15-H ) :   0.9228 B(  3-C ,  4-O ) :   0.8806 B(  3-C , 16-H ) :   0.9256
B(  3-C , 17-H ) :   0.9543 B(  4-O ,  5-C ) :   1.0633 B(  5-C ,  6-N ) :   1.8890
B(  5-C , 18-H ) :   0.9214 B(  6-N ,  7-C ) :   0.9265 B(  7-C ,  8-C ) :   0.9108
B(  7-C , 19-H ) :   0.9275 B(  7-C , 20-H ) :   0.9256 B(  8-C , 21-H ) :   0.9308
B(  8-C , 22-H ) :   0.9341 B(  8-C , 23-H ) :   0.9346

MP2 TOTAL ENERGY:     -404.848993086 Eh
FINAL SINGLE POINT ENERGY      -404.848993085704

DIPOLE MOMENT
-------------
                                X             Y             Z
Electronic contribution:     -1.30052      -6.36981      -6.35882
Nuclear contribution   :      1.77247       6.80946       7.43569
                        -----------------------------------------
Total Dipole Moment    :      0.47194       0.43965       1.07687
                        -----------------------------------------
Magnitude (a.u.)       :      1.25525
Magnitude (Debye)      :      3.19060

                             ****ORCA TERMINATED NORMALLY****
TOTAL RUN TIME: 0 days 0 hours 16 minutes 5 seconds 818 msec
