                         Program Version 3.0.3 - RELEASE   -
|  1> ! RI-MP2 RIJK def2-TZVP def2-TZVP/C def2-TZVP/JK TIGHTSCF
|  2> % maxcore 2000
|  3> % mp2 density relaxed end
|  4> *xyz 0 1
|  5>  C       -0.0359538222     1.5106656441    -0.0562471133
|  6>  C        1.3838135422     2.0177711712    -0.0255606176
|  7>  C        2.1806961238     1.8420148826     1.0457870780
|  8>  C        1.8709749229     1.0293514586     2.1984994753
|  9>  C        1.1007544774    -0.0925330778     2.1997599931
| 10>  C        0.4524388398    -0.6753257022     1.0486153036
| 11>  C        0.0009714507     0.0035534189    -0.0232982067
| 12>  H       -0.5774379432     1.8834060894     0.8247193226
| 13>  H       -0.5612626560     1.8703149996    -0.9439518375
| 14>  H        1.7604794050     2.5525163371    -0.8933164274
| 15>  H        3.1549458803     2.3269721035     1.0514074609
| 16>  H        2.4046109988     1.2685119632     3.1158208797
| 17>  H        1.0702655272    -0.6750623885     3.1180049394
| 18>  H        0.3499287099    -1.7587530410     1.0559979876
| 19>  H       -0.3636327668    -0.5414213087    -0.8898407475
| 20> *
| 21>
| 22>                          ****END OF INPUT****

CARTESIAN COORDINATES (ANGSTROEM)
---------------------------------
  C     -0.035954    1.510666   -0.056247
  C      1.383814    2.017771   -0.025561
  C      2.180696    1.842015    1.045787
  C      1.870975    1.029351    2.198499
  C      1.100754   -0.092533    2.199760
  C      0.452439   -0.675326    1.048615
  C      0.000971    0.003553   -0.023298
  H     -0.577438    1.883406    0.824719
  H     -0.561263    1.870315   -0.943952
  H      1.760479    2.552516   -0.893316
  H      3.154946    2.326972    1.051407
  H      2.404611    1.268512    3.115821
  H      1.070266   -0.675062    3.118005
  H      0.349929   -1.758753    1.055998
  H     -0.363633   -0.541421   -0.889841

 Total Charge           Charge          ....    0
 Multiplicity           Mult            ....    1
 Number of Electrons    NEL             ....   50
 Basis Dimension        Dim             ....  265

ORBITAL ENERGIES
----------------

  NO   OCC          E(Eh)            E(eV)
   0   2.0000     -11.236281      -305.7548
   1   2.0000     -11.236236      -305.7535
   2   2.0000     -11.234505      -305.7064
   3   2.0000     -11.233038      -305.6665
   4   2.0000     -11.230758      -305.6045
   5   2.0000     -11.225185      -305.4528
   6   2.0000     -11.225183      -305.4528
   7   2.0000      -1.131748       -30.7964
   8   2.0000      -1.039072       -28.2746
   9   2.0000      -1.035489       -28.1771
  10   2.0000      -0.901382       -24.5279
  11   2.0000      -0.856292       -23.3009
  12   2.0000      -0.733823       -19.9683
  13   2.0000      -0.693129       -18.8610
  14   2.0000      -0.688069       -18.7233
  15   2.0000      -0.616042       -16.7634
  16   2.0000      -0.614001       -16.7078
  17   2.0000      -0.586849       -15.9690
  18   2.0000      -0.528807       -14.3896
  19   2.0000      -0.525460       -14.2985
  20   2.0000      -0.502977       -13.6867
  21   2.0000      -0.485048       -13.1988
  22   2.0000      -0.436439       -11.8761
  23   2.0000      -0.351013        -9.5516
  24   2.0000      -0.302587        -8.2338
  25   0.0000       0.096911         2.6371
  26   0.0000       0.145761         3.9663
  27   0.0000       0.150693         4.1006
  28   0.0000       0.175539         4.7767
  29   0.0000       0.176045         4.7904

MULLIKEN ATOMIC CHARGES
-----------------------
   0 C :   -0.149737
   1 C :   -0.140712
   2 C :   -0.144354
   3 C :   -0.137029
   4 C :   -0.137030
   5 C :   -0.144354
   6 C :   -0.140712
   7 H :    0.124741
   8 H :    0.128912
   9 H :    0.125465
  10 H :    0.122627
  11 H :    0.122045
  12 H :    0.122045
  13 H :    0.122627
  14 H :    0.125465
Sum of atomic charges:   -0.0000000

LOEWDIN ATOMIC CHARGES
----------------------
   0 C :   -0.245984
   1 C :   -0.139693
   2 C :   -0.170487
   3 C :   -0.154155
   4 C :   -0.154155
   5 C :   -0.170487
   6 C :   -0.139693
   7 H :    0.154118
   8 H :    0.142644
   9 H :    0.140781
  10 H :    0.150363
  11 H :    0.147801
  12 H :    0.147801
  13 H :    0.150363
  14 H :    0.140781

  Mayer bond orders larger than 0.1
B(  0-C ,  1-C ) :   0.9158 B(  0-C ,  6-C ) :   0.9158 B(  0-C ,  7-H ) :   0.9128
B(  0-C ,  8-H ) :   0.9377 B(  1-C ,  2-C ) :   1.6914 B(  1-C ,  9-H ) :   0.9227
B(  2-C ,  3-C ) :   1.0664 B(  2-C , 10-H ) :   0.9211 B(  3-C ,  4-C ) :   1.6180
B(  3-C , 11-H ) :   0.9256 B(  4-C ,  5-C ) :   1.0664 B(  4-C , 12-H ) :   0.9256
B(  5-C ,  6-C ) :   1.6914 B(  5-C , 13-H ) :   0.9211 B(  6-C , 14-H ) :   0.9227

MP2 TOTAL ENERGY:     -270.878039085 Eh
FINAL SINGLE POINT ENERGY      -270.878039084706

DIPOLE MOMENT
-------------
                                X             Y             Z
Electronic contribution:      0.59331      -0.40662       0.62741
Nuclear contribution   :     -0.60711       0.41598      -0.73727
                        -----------------------------------------
Total Dipole Moment    :     -0.01380       0.00935      -0.10986
                        -----------------------------------------
Magnitude (a.u.)       :      0.11112
Magnitude (Debye)      :      0.28244

                             ****ORCA TERMINATED NORMALLY****
TOTAL RUN TIME: 0 days 0 hours 8 minutes 25 seconds 379 msec
