                         Program Version 3.0.3 - RELEASE   -
|  1> ! RI-MP2 RIJK def2-TZVP def2-TZVP/C def2-TZVP/JK TIGHTSCF
|  2> % maxcore 2000
|  3> % mp2 density relaxed end
|  4> *xyz 0 1
|  5>  C        0.2257169815     1.5486615263     0.1759318973
|  6>  C        0.0782069789     0.0240197092     0.1149581177
|  7>  C        0.5839994988    -0.5340493911    -1.2067519763
|  8>  C        0.4261041456    -2.0392716288    -1.6067331195
|  9>  C       -0.3100679757    -3.0390060349    -0.7524908911
| 10>  O       -0.4209434275    -2.9931552203     0.4469971010
| 11>  C       -0.3202031473    -1.5391036873    -2.8465434599
| 12>  C       -1.4731943358    -0.7026235865    -2.4571161172
| 13>  N       -0.1351226576    -0.0862048957    -2.4654262891
| 14>  H        1.2746291439     1.8494352052     0.0767021847
| 15>  H       -0.3327317102     2.0308929687    -0.6320207653
| 16>  H       -0.1456918319     1.9401350764     1.1274694497
| 17>  H        0.6432462454    -0.4514564741     0.9236296875
| 18>  H       -0.9650663642    -0.2589411969     0.2850366792
| 19>  H        1.6285706482    -0.2352643143    -1.3360427892
| 20>  H        1.3932304527    -2.4869935335    -1.8639750231
| 21>  H       -0.7703522674    -3.8705707161    -1.3383010471
| 22>  H       -0.1586322466    -1.8854922252    -3.8618083703
| 23>  H       -2.1084307947    -0.3249557692    -3.2519740662
| 24>  H       -1.9891110561    -0.8805148717    -1.5167787029
| 25> *
| 26>
| 27>                          ****END OF INPUT****

CARTESIAN COORDINATES (ANGSTROEM)
---------------------------------
  C      0.225717    1.548662    0.175932
  C      0.078207    0.024020    0.114958
  C      0.583999   -0.534049   -1.206752
  C      0.426104   -2.039272   -1.606733
  C     -0.310068   -3.039006   -0.752491
  O     -0.420943   -2.993155    0.446997
  C     -0.320203   -1.539104   -2.846543
  C     -1.473194   -0.702624   -2.457116
  N     -0.135123   -0.086205   -2.465426
  H      1.274629    1.849435    0.076702
  H     -0.332732    2.030893   -0.632021
  H     -0.145692    1.940135    1.127469
  H      0.643246   -0.451456    0.923630
  H     -0.965066   -0.258941    0.285037
  H      1.628571   -0.235264   -1.336043
  H      1.393230   -2.486994   -1.863975
  H     -0.770352   -3.870571   -1.338301
  H     -0.158632   -1.885492   -3.861808
  H     -2.108431   -0.324956   -3.251974
  H     -1.989111   -0.880515   -1.516779

 Total Charge           Charge          ....    0
 Multiplicity           Mult            ....    1
 Number of Electrons    NEL             ....   68
 Basis Dimension        Dim             ....  345

ORBITAL ENERGIES
----------------

  NO   OCC          E(Eh)            E(eV)
   0   2.0000     -20.562238      -559.5269
   1   2.0000     -15.569181      -423.6590
   2   2.0000     -11.338113      -308.5257
   3   2.0000     -11.276134      -306.8392
   4   2.0000     -11.270907      -306.6970
   5   2.0000     -11.265576      -306.5519
   6   2.0000     -11.257106      -306.3214
   7   2.0000     -11.219786      -305.3059
   8   2.0000     -11.210432      -305.0514
   9   2.0000      -1.401234       -38.1295
  10   2.0000      -1.301032       -35.4029
  11   2.0000      -1.064163       -28.9574
  12   2.0000      -1.027579       -27.9618
  13   2.0000      -0.948867       -25.8200
  14   2.0000      -0.867818       -23.6145
  15   2.0000      -0.841878       -22.9087
  16   2.0000      -0.793459       -21.5911
  17   2.0000      -0.739619       -20.1261
  18   2.0000      -0.709430       -19.3046
  19   2.0000      -0.672541       -18.3008
  20   2.0000      -0.640400       -17.4262
  21   2.0000      -0.638104       -17.3637
  22   2.0000      -0.592167       -16.1137
  23   2.0000      -0.584851       -15.9146
  24   2.0000      -0.557418       -15.1681
  25   2.0000      -0.542630       -14.7657
  26   2.0000      -0.528462       -14.3802
  27   2.0000      -0.509456       -13.8630
  28   2.0000      -0.491205       -13.3664
  29   2.0000      -0.468114       -12.7380
  30   2.0000      -0.450430       -12.2568
  31   2.0000      -0.439705       -11.9650
  32   2.0000      -0.427212       -11.6250
  33   2.0000      -0.375654       -10.2221
  34   0.0000       0.124564         3.3895
  35   0.0000       0.141026         3.8375
  36   0.0000       0.146886         3.9970
  37   0.0000       0.159348         4.3361
  38   0.0000       0.177132         4.8200

MULLIKEN ATOMIC CHARGES
-----------------------
   0 C :   -0.388929
   1 C :   -0.180062
   2 C :   -0.059901
   3 C :    0.019171
   4 C :    0.052184
   5 O :   -0.264742
   6 C :   -0.128419
   7 C :   -0.169329
   8 N :   -0.237764
   9 H :    0.119997
  10 H :    0.142590
  11 H :    0.135980
  12 H :    0.127398
  13 H :    0.096466
  14 H :    0.105959
  15 H :    0.136912
  16 H :    0.083963
  17 H :    0.134624
  18 H :    0.136777
  19 H :    0.137125
Sum of atomic charges:    0.0000000

LOEWDIN ATOMIC CHARGES
----------------------
   0 C :   -0.312368
   1 C :   -0.279040
   2 C :   -0.216351
   3 C :   -0.208414
   4 C :   -0.278736
   5 O :    0.137699
   6 C :   -0.198875
   7 C :   -0.247329
   8 N :    0.120407
   9 H :    0.121564
  10 H :    0.125441
  11 H :    0.121453
  12 H :    0.146096
  13 H :    0.136411
  14 H :    0.151301
  15 H :    0.168809
  16 H :    0.115186
  17 H :    0.133047
  18 H :    0.135145
  19 H :    0.128554

  Mayer bond orders larger than 0.1
B(  0-C ,  1-C ) :   0.9095 B(  0-C ,  9-H ) :   0.9364 B(  0-C , 10-H ) :   0.9357
B(  0-C , 11-H ) :   0.9415 B(  1-C ,  2-C ) :   0.9789 B(  1-C , 12-H ) :   0.9309
B(  1-C , 13-H ) :   0.9145 B(  2-C ,  3-C ) :   0.9444 B(  2-C ,  8-N ) :   0.9084
B(  2-C , 14-H ) :   0.9110 B(  3-C ,  4-C ) :   0.8489 B(  3-C ,  6-C ) :   0.9187
B(  3-C , 15-H ) :   0.8987 B(  4-C ,  5-O ) :   1.9840 B(  4-C , 16-H ) :   0.9437
B(  6-C ,  7-C ) :   0.9404 B(  6-C ,  8-N ) :   0.9091 B(  6-C , 17-H ) :   0.9025
B(  7-C ,  8-N ) :   0.8701 B(  7-C , 18-H ) :   0.9327 B(  7-C , 19-H ) :   0.9043

MP2 TOTAL ENERGY:     -402.414526085 Eh
FINAL SINGLE POINT ENERGY      -402.414526084526

DIPOLE MOMENT
-------------
                                X             Y             Z
Electronic contribution:     -0.11480      -6.62114      -1.60275
Nuclear contribution   :      0.18072       6.33330       1.03124
                        -----------------------------------------
Total Dipole Moment    :      0.06592      -0.28783      -0.57151
                        -----------------------------------------
Magnitude (a.u.)       :      0.64329
Magnitude (Debye)      :      1.63511

                             ****ORCA TERMINATED NORMALLY****
TOTAL RUN TIME: 0 days 0 hours 33 minutes 45 seconds 913 msec
