                         Program Version 3.0.3 - RELEASE   -
|  1> ! RI-MP2 RIJK def2-TZVP def2-TZVP/C def2-TZVP/JK TIGHTSCF
|  2> % maxcore 2000
|  3> % mp2 density relaxed end
|  4> *xyz 0 1
|  5>  C        0.0718296350     1.5510936202     0.3956942183
|  6>  C        1.3322575653     1.9242419646    -0.4209194461
|  7>  C        2.0459803086     0.5837920454    -0.7721502557
|  8>  O        2.4550574769     0.5695451521    -2.1546144442
|  9>  C        3.8436418142     0.2849318058    -2.2760144764
| 10>  C        4.3407916056     0.1479846924    -0.8648915972
| 11>  C        3.3308499874     0.3192158001    -0.0219059061
| 12>  C        0.9658874658    -0.4451191835    -0.4983068547
| 13>  C       -0.0855041457     0.0727497418     0.1305340461
| 14>  H        0.2101159720     1.7405364321     1.4689100884
| 15>  H       -0.8119301329     2.1275482757     0.0985193813
| 16>  H        1.0508215180     2.3826921190    -1.3723253772
| 17>  H        1.9927509273     2.6214848415     0.1004213075
| 18>  H        3.9923537893    -0.6359143785    -2.8628825149
| 19>  H        4.3469089685     1.0982227267    -2.8224530899
| 20>  H        5.3747066831    -0.0544875018    -0.6148900852
| 21>  H        3.3648376000     0.2792253430     1.0595574392
| 22>  H        1.1022393151    -1.4829983904    -0.7797159982
| 23>  H       -0.9600479236    -0.4848574365     0.4491385850
| 24> *
| 25>
| 26>                          ****END OF INPUT****

CARTESIAN COORDINATES (ANGSTROEM)
---------------------------------
  C      0.071830    1.551094    0.395694
  C      1.332258    1.924242   -0.420919
  C      2.045980    0.583792   -0.772150
  O      2.455057    0.569545   -2.154614
  C      3.843642    0.284932   -2.276014
  C      4.340792    0.147985   -0.864892
  C      3.330850    0.319216   -0.021906
  C      0.965887   -0.445119   -0.498307
  C     -0.085504    0.072750    0.130534
  H      0.210116    1.740536    1.468910
  H     -0.811930    2.127548    0.098519
  H      1.050822    2.382692   -1.372325
  H      1.992751    2.621485    0.100421
  H      3.992354   -0.635914   -2.862883
  H      4.346909    1.098223   -2.822453
  H      5.374707   -0.054488   -0.614890
  H      3.364838    0.279225    1.059557
  H      1.102239   -1.482998   -0.779716
  H     -0.960048   -0.484857    0.449139

 Total Charge           Charge          ....    0
 Multiplicity           Mult            ....    1
 Number of Electrons    NEL             ....   66
 Basis Dimension        Dim             ....  339

ORBITAL ENERGIES
----------------

  NO   OCC          E(Eh)            E(eV)
   0   2.0000     -20.545387      -559.0684
   1   2.0000     -11.287969      -307.1613
   2   2.0000     -11.276032      -306.8364
   3   2.0000     -11.231922      -305.6361
   4   2.0000     -11.228863      -305.5529
   5   2.0000     -11.227382      -305.5126
   6   2.0000     -11.225641      -305.4652
   7   2.0000     -11.218200      -305.2627
   8   2.0000     -11.217248      -305.2368
   9   2.0000      -1.371697       -37.3258
  10   2.0000      -1.129249       -30.7284
  11   2.0000      -1.067270       -29.0419
  12   2.0000      -0.984034       -26.7769
  13   2.0000      -0.966843       -26.3091
  14   2.0000      -0.871999       -23.7283
  15   2.0000      -0.784774       -21.3548
  16   2.0000      -0.761843       -20.7308
  17   2.0000      -0.730059       -19.8659
  18   2.0000      -0.692063       -18.8320
  19   2.0000      -0.655018       -17.8240
  20   2.0000      -0.634903       -17.2766
  21   2.0000      -0.620137       -16.8748
  22   2.0000      -0.570847       -15.5335
  23   2.0000      -0.555585       -15.1182
  24   2.0000      -0.527516       -14.3544
  25   2.0000      -0.516051       -14.0425
  26   2.0000      -0.499960       -13.6046
  27   2.0000      -0.490295       -13.3416
  28   2.0000      -0.488063       -13.2809
  29   2.0000      -0.479117       -13.0374
  30   2.0000      -0.427517       -11.6333
  31   2.0000      -0.353904        -9.6302
  32   2.0000      -0.348661        -9.4876
  33   0.0000       0.139986         3.8092
  34   0.0000       0.143190         3.8964
  35   0.0000       0.159173         4.3313
  36   0.0000       0.174118         4.7380
  37   0.0000       0.178229         4.8499

MULLIKEN ATOMIC CHARGES
-----------------------
   0 C :   -0.176683
   1 C :   -0.308364
   2 C :    0.440363
   3 O :   -0.341749
   4 C :    0.010323
   5 C :   -0.172058
   6 C :   -0.282282
   7 C :   -0.240158
   8 C :   -0.157822
   9 H :    0.114641
  10 H :    0.122017
  11 H :    0.130200
  12 H :    0.128219
  13 H :    0.103426
  14 H :    0.105729
  15 H :    0.136110
  16 H :    0.134281
  17 H :    0.126122
  18 H :    0.127685
Sum of atomic charges:   -0.0000000

LOEWDIN ATOMIC CHARGES
----------------------
   0 C :   -0.242178
   1 C :   -0.190374
   2 C :   -0.291840
   3 O :    0.190824
   4 C :   -0.289609
   5 C :   -0.161559
   6 C :   -0.121838
   7 C :   -0.118348
   8 C :   -0.149484
   9 H :    0.139603
  10 H :    0.136942
  11 H :    0.147717
  12 H :    0.135357
  13 H :    0.125751
  14 H :    0.126113
  15 H :    0.139784
  16 H :    0.145284
  17 H :    0.141280
  18 H :    0.136576

  Mayer bond orders larger than 0.1
B(  0-C ,  1-C ) :   0.9629 B(  0-C ,  8-C ) :   0.9283 B(  0-C ,  9-H ) :   0.9094
B(  0-C , 10-H ) :   0.9286 B(  1-C ,  2-C ) :   0.8601 B(  1-C , 11-H ) :   0.9260
B(  1-C , 12-H ) :   0.9318 B(  2-C ,  3-O ) :   0.8927 B(  2-C ,  6-C ) :   0.9093
B(  2-C ,  7-C ) :   0.8922 B(  3-O ,  4-C ) :   0.9507 B(  4-C ,  5-C ) :   0.9800
B(  4-C , 13-H ) :   0.9106 B(  4-C , 14-H ) :   0.9124 B(  5-C ,  6-C ) :   1.7952
B(  5-C , 15-H ) :   0.9161 B(  6-C , 16-H ) :   0.9160 B(  7-C ,  8-C ) :   1.7836
B(  7-C , 17-H ) :   0.9215 B(  8-C , 18-H ) :   0.9242

MP2 TOTAL ENERGY:     -385.216809739 Eh
FINAL SINGLE POINT ENERGY      -385.216809738962

DIPOLE MOMENT
-------------
                                X             Y             Z
Electronic contribution:      1.01138      -1.76135      -1.58906
Nuclear contribution   :     -0.70098       1.74031       2.07734
                        -----------------------------------------
Total Dipole Moment    :      0.31040      -0.02105       0.48828
                        -----------------------------------------
Magnitude (a.u.)       :      0.57897
Magnitude (Debye)      :      1.47162

                             ****ORCA TERMINATED NORMALLY****
TOTAL RUN TIME: 0 days 0 hours 17 minutes 46 seconds 900 msec
