                         Program Version 3.0.3 - RELEASE   -
|  1> ! RI-MP2 RIJK def2-TZVP def2-TZVP/C def2-TZVP/JK TIGHTSCF
|  2> % maxcore 2000
|  3> % mp2 density relaxed end
|  4> *xyz 0 1
|  5>  C       -0.5409671268     1.3722327303     0.1978318289
|  6>  C       -0.3329902111    -0.1451645969     0.2468037105
|  7>  C        0.8555771871    -0.5476405341     1.1210502559
|  8>  C        0.6196348922    -0.4303878715     2.6562297503
|  9>  C        0.5991334654    -1.9839661932     2.7972133525
| 10>  C       -0.7695661574    -2.5637563167     3.0311116314
| 11>  O       -0.9997157983    -3.5177432773     3.7311184009
| 12>  C        1.1221412357    -2.0793849185     1.3113161269
| 13>  C        0.5174882601    -3.1050452874     0.3594187582
| 14>  H        0.3408399257     1.8765702079    -0.2126511808
| 15>  H       -1.3985049477     1.6349980414    -0.4289557244
| 16>  H       -0.7216466938     1.7852876672     1.1960692622
| 17>  H       -1.2513664374    -0.6248865216     0.6103665022
| 18>  H       -0.1766241808    -0.5232731442    -0.7712575012
| 19>  H        1.7382971024    -0.0036016568     0.7675276087
| 20>  H        1.4481203804     0.0246931388     3.2024976864
| 21>  H       -0.3027111403     0.0786609294     2.9545971297
| 22>  H        1.2712421251    -2.4174851687     3.5404161870
| 23>  H       -1.6009795292    -2.0392091019     2.5019742416
| 24>  H        2.2024779396    -2.2479425377     1.3599043110
| 25>  H       -0.5611767856    -2.9772799128     0.2311280100
| 26>  H        0.9784525995    -3.0345752295    -0.6317090738
| 27>  H        0.6869770349    -4.1209267462     0.7318646160
| 28> *
| 29>
| 30>                          ****END OF INPUT****

CARTESIAN COORDINATES (ANGSTROEM)
---------------------------------
  C     -0.540967    1.372233    0.197832
  C     -0.332990   -0.145165    0.246804
  C      0.855577   -0.547641    1.121050
  C      0.619635   -0.430388    2.656230
  C      0.599133   -1.983966    2.797213
  C     -0.769566   -2.563756    3.031112
  O     -0.999716   -3.517743    3.731118
  C      1.122141   -2.079385    1.311316
  C      0.517488   -3.105045    0.359419
  H      0.340840    1.876570   -0.212651
  H     -1.398505    1.634998   -0.428956
  H     -0.721647    1.785288    1.196069
  H     -1.251366   -0.624887    0.610367
  H     -0.176624   -0.523273   -0.771258
  H      1.738297   -0.003602    0.767528
  H      1.448120    0.024693    3.202498
  H     -0.302711    0.078661    2.954597
  H      1.271242   -2.417485    3.540416
  H     -1.600980   -2.039209    2.501974
  H      2.202478   -2.247943    1.359904
  H     -0.561177   -2.977280    0.231128
  H      0.978453   -3.034575   -0.631709
  H      0.686977   -4.120927    0.731865

 Total Charge           Charge          ....    0
 Multiplicity           Mult            ....    1
 Number of Electrons    NEL             ....   70
 Basis Dimension        Dim             ....  363

ORBITAL ENERGIES
----------------

  NO   OCC          E(Eh)            E(eV)
   0   2.0000     -20.550957      -559.2200
   1   2.0000     -11.325000      -308.1689
   2   2.0000     -11.243384      -305.9480
   3   2.0000     -11.237448      -305.7865
   4   2.0000     -11.234790      -305.7142
   5   2.0000     -11.234208      -305.6983
   6   2.0000     -11.229246      -305.5633
   7   2.0000     -11.222489      -305.3795
   8   2.0000     -11.220699      -305.3307
   9   2.0000      -1.389315       -37.8052
  10   2.0000      -1.153180       -31.3796
  11   2.0000      -1.043240       -28.3880
  12   2.0000      -0.995551       -27.0903
  13   2.0000      -0.941139       -25.6097
  14   2.0000      -0.868447       -23.6316
  15   2.0000      -0.853056       -23.2128
  16   2.0000      -0.785333       -21.3700
  17   2.0000      -0.731706       -19.9107
  18   2.0000      -0.682081       -18.5604
  19   2.0000      -0.644192       -17.5294
  20   2.0000      -0.634081       -17.2542
  21   2.0000      -0.615180       -16.7399
  22   2.0000      -0.595689       -16.2095
  23   2.0000      -0.582586       -15.8530
  24   2.0000      -0.575948       -15.6723
  25   2.0000      -0.539424       -14.6785
  26   2.0000      -0.525853       -14.3092
  27   2.0000      -0.523092       -14.2341
  28   2.0000      -0.517606       -14.0848
  29   2.0000      -0.508731       -13.8433
  30   2.0000      -0.466717       -12.7000
  31   2.0000      -0.461838       -12.5672
  32   2.0000      -0.434519       -11.8239
  33   2.0000      -0.427550       -11.6342
  34   2.0000      -0.405019       -11.0211
  35   0.0000       0.121727         3.3124
  36   0.0000       0.130930         3.5628
  37   0.0000       0.142452         3.8763
  38   0.0000       0.156097         4.2476
  39   0.0000       0.168696         4.5904

MULLIKEN ATOMIC CHARGES
-----------------------
   0 C :   -0.389264
   1 C :   -0.256064
   2 C :   -0.078571
   3 C :   -0.288704
   4 C :    0.031354
   5 C :   -0.004196
   6 O :   -0.259204
   7 C :   -0.036874
   8 C :   -0.410901
   9 H :    0.125334
  10 H :    0.137241
  11 H :    0.126129
  12 H :    0.106704
  13 H :    0.118545
  14 H :    0.097507
  15 H :    0.132384
  16 H :    0.127339
  17 H :    0.118431
  18 H :    0.079372
  19 H :    0.105598
  20 H :    0.129472
  21 H :    0.137718
  22 H :    0.150650
Sum of atomic charges:    0.0000000

LOEWDIN ATOMIC CHARGES
----------------------
   0 C :   -0.314499
   1 C :   -0.277868
   2 C :   -0.211295
   3 C :   -0.191142
   4 C :   -0.198858
   5 C :   -0.284306
   6 O :    0.132109
   7 C :   -0.201856
   8 C :   -0.297584
   9 H :    0.121718
  10 H :    0.121720
  11 H :    0.120798
  12 H :    0.133593
  13 H :    0.139541
  14 H :    0.143455
  15 H :    0.136080
  16 H :    0.132823
  17 H :    0.149586
  18 H :    0.110354
  19 H :    0.154123
  20 H :    0.123998
  21 H :    0.126539
  22 H :    0.130971

  Mayer bond orders larger than 0.1
B(  0-C ,  1-C ) :   0.9225 B(  0-C ,  9-H ) :   0.9390 B(  0-C , 10-H ) :   0.9422
B(  0-C , 11-H ) :   0.9398 B(  1-C ,  2-C ) :   0.9249 B(  1-C , 12-H ) :   0.9272
B(  1-C , 13-H ) :   0.9372 B(  2-C ,  3-C ) :   0.8941 B(  2-C ,  7-C ) :   0.9044
B(  2-C , 14-H ) :   0.9160 B(  3-C ,  4-C ) :   0.8738 B(  3-C , 15-H ) :   0.9183
B(  3-C , 16-H ) :   0.9264 B(  4-C ,  5-C ) :   0.8292 B(  4-C ,  7-C ) :   0.8568
B(  4-C , 17-H ) :   0.9062 B(  4-C , 18-H ) :  -0.1050 B(  5-C ,  6-O ) :   1.9982
B(  5-C , 18-H ) :   0.9549 B(  7-C ,  8-C ) :   0.9053 B(  7-C , 19-H ) :   0.9250
B(  8-C , 20-H ) :   0.9333 B(  8-C , 21-H ) :   0.9379 B(  8-C , 22-H ) :   0.9366

MP2 TOTAL ENERGY:     -387.613809687 Eh
FINAL SINGLE POINT ENERGY      -387.613809686521

DIPOLE MOMENT
-------------
                                X             Y             Z
Electronic contribution:     -0.78207      -6.36186       7.54686
Nuclear contribution   :      1.27129       7.19155      -8.29286
                        -----------------------------------------
Total Dipole Moment    :      0.48922       0.82970      -0.74600
                        -----------------------------------------
Magnitude (a.u.)       :      1.21829
Magnitude (Debye)      :      3.09666

                             ****ORCA TERMINATED NORMALLY****
TOTAL RUN TIME: 0 days 0 hours 35 minutes 24 seconds 461 msec
