                         Program Version 3.0.3 - RELEASE   -
|  1> ! RI-MP2 RIJK def2-TZVP def2-TZVP/C def2-TZVP/JK TIGHTSCF
|  2> % maxcore 2000
|  3> % mp2 density relaxed end
|  4> *xyz 0 1
|  5>  O       -0.0245500908     1.3941374292     0.0101506822
|  6>  C        0.0505303380     0.0122621441     0.0196912858
|  7>  C        0.6135448163    -0.9638155813     1.0714889834
|  8>  N        0.0179274910    -1.9045825216     0.0198003470
|  9>  C       -1.1795394644    -0.9137109805    -0.0104087946
| 10>  C       -2.0804252364    -0.9888353693    -1.2337326843
| 11>  C       -1.2742477861    -1.0250756881    -2.4999814222
| 12>  C        0.0520011947    -1.0162612215    -2.3983776297
| 13>  C        0.6618926752    -0.9623667334    -1.0374802568
| 14>  H        0.8687614574     1.7548421061    -0.0122466313
| 15>  H        1.6991476106    -1.0572979892     1.1676249457
| 16>  H        0.1121941271    -1.0234854790     2.0409016218
| 17>  H       -1.7564670876    -0.9590022234     0.9182678697
| 18>  H       -2.7204355140    -1.8785360878    -1.1580831964
| 19>  H       -2.7634766089    -0.1276427728    -1.2303072171
| 20>  H       -1.7882426786    -1.0622797992    -3.4554495239
| 21>  H        0.7045113712    -1.0432569669    -3.2648249939
| 22>  H        1.7512771954    -1.0531887155    -1.0409935753
| 23> *
| 24>
| 25>                          ****END OF INPUT****

CARTESIAN COORDINATES (ANGSTROEM)
---------------------------------
  O     -0.024550    1.394137    0.010151
  C      0.050530    0.012262    0.019691
  C      0.613545   -0.963816    1.071489
  N      0.017927   -1.904583    0.019800
  C     -1.179539   -0.913711   -0.010409
  C     -2.080425   -0.988835   -1.233733
  C     -1.274248   -1.025076   -2.499981
  C      0.052001   -1.016261   -2.398378
  C      0.661893   -0.962367   -1.037480
  H      0.868761    1.754842   -0.012247
  H      1.699148   -1.057298    1.167625
  H      0.112194   -1.023485    2.040902
  H     -1.756467   -0.959002    0.918268
  H     -2.720436   -1.878536   -1.158083
  H     -2.763477   -0.127643   -1.230307
  H     -1.788243   -1.062280   -3.455450
  H      0.704511   -1.043257   -3.264825
  H      1.751277   -1.053189   -1.040994

 Total Charge           Charge          ....    0
 Multiplicity           Mult            ....    1
 Number of Electrons    NEL             ....   66
 Basis Dimension        Dim             ....  333

ORBITAL ENERGIES
----------------

  NO   OCC          E(Eh)            E(eV)
   0   2.0000     -20.571276      -559.7729
   1   2.0000     -15.570732      -423.7012
   2   2.0000     -11.302894      -307.5674
   3   2.0000     -11.265764      -306.5570
   4   2.0000     -11.264147      -306.5130
   5   2.0000     -11.257095      -306.3211
   6   2.0000     -11.231732      -305.6310
   7   2.0000     -11.230088      -305.5862
   8   2.0000     -11.223579      -305.4091
   9   2.0000      -1.385406       -37.6988
  10   2.0000      -1.292000       -35.1571
  11   2.0000      -1.090800       -29.6822
  12   2.0000      -1.004256       -27.3272
  13   2.0000      -0.912816       -24.8390
  14   2.0000      -0.908370       -24.7180
  15   2.0000      -0.857199       -23.3256
  16   2.0000      -0.797187       -21.6926
  17   2.0000      -0.720928       -19.6175
  18   2.0000      -0.684031       -18.6134
  19   2.0000      -0.656698       -17.8697
  20   2.0000      -0.631929       -17.1957
  21   2.0000      -0.618429       -16.8283
  22   2.0000      -0.593476       -16.1493
  23   2.0000      -0.580172       -15.7873
  24   2.0000      -0.560802       -15.2602
  25   2.0000      -0.535256       -14.5651
  26   2.0000      -0.516025       -14.0418
  27   2.0000      -0.475957       -12.9515
  28   2.0000      -0.461348       -12.5539
  29   2.0000      -0.444049       -12.0832
  30   2.0000      -0.425142       -11.5687
  31   2.0000      -0.390345       -10.6218
  32   2.0000      -0.344093        -9.3632
  33   0.0000       0.126602         3.4450
  34   0.0000       0.140256         3.8166
  35   0.0000       0.153702         4.1824
  36   0.0000       0.168276         4.5790
  37   0.0000       0.171263         4.6603

MULLIKEN ATOMIC CHARGES
-----------------------
   0 O :   -0.449485
   1 C :    0.132239
   2 C :   -0.137077
   3 N :   -0.220737
   4 C :   -0.038487
   5 C :   -0.181274
   6 C :   -0.131977
   7 C :   -0.310330
   8 C :    0.067458
   9 H :    0.322865
  10 H :    0.114485
  11 H :    0.116276
  12 H :    0.102358
  13 H :    0.126631
  14 H :    0.126121
  15 H :    0.125569
  16 H :    0.123543
  17 H :    0.111820
Sum of atomic charges:    0.0000000

LOEWDIN ATOMIC CHARGES
----------------------
   0 O :    0.022079
   1 C :   -0.343510
   2 C :   -0.220816
   3 N :    0.137594
   4 C :   -0.181355
   5 C :   -0.227908
   6 C :   -0.144746
   7 C :   -0.155259
   8 C :   -0.190336
   9 H :    0.181490
  10 H :    0.122669
  11 H :    0.125192
  12 H :    0.144098
  13 H :    0.152735
  14 H :    0.153927
  15 H :    0.140660
  16 H :    0.141910
  17 H :    0.141577

  Mayer bond orders larger than 0.1
B(  0-O ,  1-C ) :   1.0482 B(  0-O ,  9-H ) :   0.8339 B(  1-C ,  2-C ) :   0.9373
B(  1-C ,  4-C ) :   0.9401 B(  1-C ,  8-C ) :   0.9014 B(  2-C ,  3-N ) :   0.9139
B(  2-C , 10-H ) :   0.9159 B(  2-C , 11-H ) :   0.9237 B(  3-N ,  4-C ) :   0.9384
B(  3-N ,  8-C ) :   0.9268 B(  4-C ,  5-C ) :   0.9670 B(  4-C , 12-H ) :   0.9222
B(  5-C ,  6-C ) :   0.9658 B(  5-C , 13-H ) :   0.8988 B(  5-C , 14-H ) :   0.8992
B(  6-C ,  7-C ) :   1.8046 B(  6-C , 15-H ) :   0.9294 B(  7-C ,  8-C ) :   0.9191
B(  7-C , 16-H ) :   0.9261 B(  8-C , 17-H ) :   0.9168

MP2 TOTAL ENERGY:     -401.203415159 Eh
FINAL SINGLE POINT ENERGY      -401.203415159458

DIPOLE MOMENT
-------------
                                X             Y             Z
Electronic contribution:      1.12384       0.92050       0.18945
Nuclear contribution   :     -0.76757      -0.45824      -0.24781
                        -----------------------------------------
Total Dipole Moment    :      0.35627       0.46225      -0.05836
                        -----------------------------------------
Magnitude (a.u.)       :      0.58652
Magnitude (Debye)      :      1.49082

                             ****ORCA TERMINATED NORMALLY****
TOTAL RUN TIME: 0 days 0 hours 19 minutes 19 seconds 234 msec
