                         Program Version 3.0.3 - RELEASE   -
|  1> ! RI-MP2 RIJK def2-TZVP def2-TZVP/C def2-TZVP/JK TIGHTSCF
|  2> % maxcore 2000
|  3> % mp2 density relaxed end
|  4> *xyz 0 1
|  5>  C       -0.0869585763     1.5263164853     0.0325330361
|  6>  C       -0.0281213298     0.0207818662    -0.1601742503
|  7>  O       -1.3126281271    -0.5159010642     0.0946271356
|  8>  C       -1.3712732822    -1.9136715159    -0.0559029597
|  9>  C       -2.8090880203    -2.3609386942     0.2101902074
| 10>  C       -2.9290806798    -3.8639858697     0.3076864003
| 11>  O       -3.6778275413    -4.5413678245    -0.3472417520
| 12>  H        0.8932976123     1.9729171493    -0.1582941213
| 13>  H       -0.8120543003     1.9725487971    -0.6537763533
| 14>  H       -0.3874141388     1.7710469306     1.0551975052
| 15>  H        0.2888596356    -0.2272316621    -1.1871421229
| 16>  H        0.7125478613    -0.4296800301     0.5223235401
| 17>  H       -1.0606269257    -2.2107760683    -1.0716260116
| 18>  H       -0.6804038282    -2.4092942577     0.6494691607
| 19>  H       -3.1134742854    -1.9360803904     1.1770215684
| 20>  H       -3.4891144761    -1.9906518354    -0.5601584234
| 21>  H       -2.2528797880    -4.3295450960     1.0638940306
| 22> *
| 23>
| 24>                          ****END OF INPUT****

CARTESIAN COORDINATES (ANGSTROEM)
---------------------------------
  C     -0.086959    1.526316    0.032533
  C     -0.028121    0.020782   -0.160174
  O     -1.312628   -0.515901    0.094627
  C     -1.371273   -1.913672   -0.055903
  C     -2.809088   -2.360939    0.210190
  C     -2.929081   -3.863986    0.307686
  O     -3.677828   -4.541368   -0.347242
  H      0.893298    1.972917   -0.158294
  H     -0.812054    1.972549   -0.653776
  H     -0.387414    1.771047    1.055198
  H      0.288860   -0.227232   -1.187142
  H      0.712548   -0.429680    0.522324
  H     -1.060627   -2.210776   -1.071626
  H     -0.680404   -2.409294    0.649469
  H     -3.113474   -1.936080    1.177022
  H     -3.489114   -1.990652   -0.560158
  H     -2.252880   -4.329545    1.063894

 Total Charge           Charge          ....    0
 Multiplicity           Mult            ....    1
 Number of Electrons    NEL             ....   56
 Basis Dimension        Dim             ....  277

ORBITAL ENERGIES
----------------

  NO   OCC          E(Eh)            E(eV)
   0   2.0000     -20.566257      -559.6363
   1   2.0000     -20.559778      -559.4600
   2   2.0000     -11.334824      -308.4362
   3   2.0000     -11.295034      -307.3535
   4   2.0000     -11.284098      -307.0559
   5   2.0000     -11.241893      -305.9075
   6   2.0000     -11.221317      -305.3476
   7   2.0000      -1.398566       -38.0569
   8   2.0000      -1.389292       -37.8046
   9   2.0000      -1.072202       -29.1761
  10   2.0000      -1.012144       -27.5418
  11   2.0000      -0.887716       -24.1560
  12   2.0000      -0.841550       -22.8997
  13   2.0000      -0.795888       -21.6572
  14   2.0000      -0.696527       -18.9535
  15   2.0000      -0.680807       -18.5257
  16   2.0000      -0.667636       -18.1673
  17   2.0000      -0.629063       -17.1177
  18   2.0000      -0.610536       -16.6135
  19   2.0000      -0.603808       -16.4304
  20   2.0000      -0.555232       -15.1086
  21   2.0000      -0.542402       -14.7595
  22   2.0000      -0.530142       -14.4259
  23   2.0000      -0.504043       -13.7157
  24   2.0000      -0.495836       -13.4924
  25   2.0000      -0.485168       -13.2021
  26   2.0000      -0.434703       -11.8289
  27   2.0000      -0.423414       -11.5217
  28   0.0000       0.127155         3.4601
  29   0.0000       0.133091         3.6216
  30   0.0000       0.154047         4.1918
  31   0.0000       0.164536         4.4773
  32   0.0000       0.174640         4.7522

MULLIKEN ATOMIC CHARGES
-----------------------
   0 C :   -0.358478
   1 C :   -0.052261
   2 O :   -0.290425
   3 C :   -0.100424
   4 C :   -0.123292
   5 C :    0.085725
   6 O :   -0.260664
   7 H :    0.123276
   8 H :    0.131076
   9 H :    0.129556
  10 H :    0.095179
  11 H :    0.092395
  12 H :    0.106235
  13 H :    0.094555
  14 H :    0.129228
  15 H :    0.127659
  16 H :    0.070660
Sum of atomic charges:    0.0000000

LOEWDIN ATOMIC CHARGES
----------------------
   0 C :   -0.315906
   1 C :   -0.351890
   2 O :    0.157924
   3 C :   -0.328975
   4 C :   -0.259158
   5 C :   -0.297068
   6 O :    0.133807
   7 H :    0.125097
   8 H :    0.124772
   9 H :    0.124252
  10 H :    0.116998
  11 H :    0.116261
  12 H :    0.122077
  13 H :    0.119287
  14 H :    0.156543
  15 H :    0.147036
  16 H :    0.108943

  Mayer bond orders larger than 0.1
B(  0-C ,  1-C ) :   0.9534 B(  0-C ,  7-H ) :   0.9318 B(  0-C ,  8-H ) :   0.9358
B(  0-C ,  9-H ) :   0.9361 B(  1-C ,  2-O ) :   0.9173 B(  1-C , 10-H ) :   0.9261
B(  1-C , 11-H ) :   0.9251 B(  2-O ,  3-C ) :   0.9576 B(  3-C ,  4-C ) :   0.9220
B(  3-C , 12-H ) :   0.9221 B(  3-C , 13-H ) :   0.9242 B(  4-C ,  5-C ) :   0.8786
B(  4-C , 14-H ) :   0.9075 B(  4-C , 15-H ) :   0.9063 B(  5-C ,  6-O ) :   1.9911
B(  5-C , 16-H ) :   0.9249

MP2 TOTAL ENERGY:     -346.286335260 Eh
FINAL SINGLE POINT ENERGY      -346.286335259848

DIPOLE MOMENT
-------------
                                X             Y             Z
Electronic contribution:     -5.91898      -7.48336      -0.37072
Nuclear contribution   :      6.91006       8.06898       0.70608
                        -----------------------------------------
Total Dipole Moment    :      0.99108       0.58562       0.33537
                        -----------------------------------------
Magnitude (a.u.)       :      1.19903
Magnitude (Debye)      :      3.04769

                             ****ORCA TERMINATED NORMALLY****
TOTAL RUN TIME: 0 days 0 hours 7 minutes 21 seconds 34 msec
