                         Program Version 3.0.3 - RELEASE   -
|  1> ! RI-MP2 RIJK def2-TZVP def2-TZVP/C def2-TZVP/JK TIGHTSCF
|  2> % maxcore 2000
|  3> % mp2 density relaxed end
|  4> *xyz 0 1
|  5>  C       -0.0379669198     1.5546323083     0.1192204646
|  6>  C       -0.1280195165     0.0407734103     0.1197297341
|  7>  O        0.8488282049    -0.4591820363     1.0461882764
|  8>  C        0.8716481207    -1.8174110585     1.1312233857
|  9>  C       -0.1085328420    -2.6375504395     1.9913866450
| 10>  C        1.3627496725    -2.7233438441     2.2282189945
| 11>  O        1.9387118424    -3.6381930840     1.2525878750
| 12>  C        1.5913488451    -2.7687207852     0.2159232066
| 13>  N        1.8663995437    -2.7963190413    -1.0045306869
| 14>  H        0.9585669654     1.8801440012    -0.1913891627
| 15>  H       -0.7721085571     1.9744036807    -0.5747370984
| 16>  H       -0.2356195466     1.9545723982     1.1179395899
| 17>  H       -1.1275434986    -0.2979203304     0.4296861399
| 18>  H        0.0754254788    -0.3706890714    -0.8766223737
| 19>  H       -0.6542915865    -2.0170365347     2.6965723281
| 20>  H       -0.6435641986    -3.4952936792     1.5960103936
| 21>  H        1.9187879725    -2.5430073321     3.1369049969
| 22>  H        2.4294186097    -3.6140322217    -1.2448195185
| 23> *
| 24>
| 25>                          ****END OF INPUT****

CARTESIAN COORDINATES (ANGSTROEM)
---------------------------------
  C     -0.037967    1.554632    0.119220
  C     -0.128020    0.040773    0.119730
  O      0.848828   -0.459182    1.046188
  C      0.871648   -1.817411    1.131223
  C     -0.108533   -2.637550    1.991387
  C      1.362750   -2.723344    2.228219
  O      1.938712   -3.638193    1.252588
  C      1.591349   -2.768721    0.215923
  N      1.866400   -2.796319   -1.004531
  H      0.958567    1.880144   -0.191389
  H     -0.772109    1.974404   -0.574737
  H     -0.235620    1.954572    1.117940
  H     -1.127543   -0.297920    0.429686
  H      0.075425   -0.370689   -0.876622
  H     -0.654292   -2.017037    2.696572
  H     -0.643564   -3.495294    1.596010
  H      1.918788   -2.543007    3.136905
  H      2.429419   -3.614032   -1.244820

 Total Charge           Charge          ....    0
 Multiplicity           Mult            ....    1
 Number of Electrons    NEL             ....   68
 Basis Dimension        Dim             ....  333

ORBITAL ENERGIES
----------------

  NO   OCC          E(Eh)            E(eV)
   0   2.0000     -20.595884      -560.4425
   1   2.0000     -20.581228      -560.0437
   2   2.0000     -15.544607      -422.9903
   3   2.0000     -11.346018      -308.7409
   4   2.0000     -11.315019      -307.8973
   5   2.0000     -11.312865      -307.8387
   6   2.0000     -11.284480      -307.0663
   7   2.0000     -11.258760      -306.3664
   8   2.0000     -11.221035      -305.3399
   9   2.0000      -1.447798       -39.3966
  10   2.0000      -1.400899       -38.1204
  11   2.0000      -1.204578       -32.7782
  12   2.0000      -1.138331       -30.9756
  13   2.0000      -1.024926       -27.8897
  14   2.0000      -0.909067       -24.7370
  15   2.0000      -0.859730       -23.3945
  16   2.0000      -0.841012       -22.8851
  17   2.0000      -0.747232       -20.3332
  18   2.0000      -0.727153       -19.7868
  19   2.0000      -0.703163       -19.1340
  20   2.0000      -0.670540       -18.2463
  21   2.0000      -0.646140       -17.5824
  22   2.0000      -0.616591       -16.7783
  23   2.0000      -0.612237       -16.6598
  24   2.0000      -0.567352       -15.4384
  25   2.0000      -0.561366       -15.2755
  26   2.0000      -0.545432       -14.8420
  27   2.0000      -0.538442       -14.6517
  28   2.0000      -0.505156       -13.7460
  29   2.0000      -0.491377       -13.3710
  30   2.0000      -0.459698       -12.5090
  31   2.0000      -0.427176       -11.6240
  32   2.0000      -0.410659       -11.1746
  33   2.0000      -0.395386       -10.7590
  34   0.0000       0.138640         3.7726
  35   0.0000       0.158589         4.3154
  36   0.0000       0.164005         4.4628
  37   0.0000       0.171956         4.6792
  38   0.0000       0.174876         4.7586

MULLIKEN ATOMIC CHARGES
-----------------------
   0 C :   -0.363755
   1 C :   -0.062071
   2 O :   -0.288692
   3 C :    0.146641
   4 C :   -0.266864
   5 C :    0.046050
   6 O :   -0.276813
   7 C :    0.125559
   8 N :   -0.371475
   9 H :    0.137422
  10 H :    0.126862
  11 H :    0.127812
  12 H :    0.099593
  13 H :    0.135812
  14 H :    0.140942
  15 H :    0.148529
  16 H :    0.161094
  17 H :    0.233353
Sum of atomic charges:    0.0000000

LOEWDIN ATOMIC CHARGES
----------------------
   0 C :   -0.315036
   1 C :   -0.313105
   2 O :    0.228642
   3 C :   -0.297895
   4 C :   -0.174640
   5 C :   -0.188719
   6 O :    0.221329
   7 C :   -0.350909
   8 N :   -0.040352
   9 H :    0.126871
  10 H :    0.127125
  11 H :    0.123714
  12 H :    0.119712
  13 H :    0.129536
  14 H :    0.149808
  15 H :    0.138677
  16 H :    0.139148
  17 H :    0.176092

  Mayer bond orders larger than 0.1
B(  0-C ,  1-C ) :   0.9527 B(  0-C ,  9-H ) :   0.9351 B(  0-C , 10-H ) :   0.9306
B(  0-C , 11-H ) :   0.9354 B(  1-C ,  2-O ) :   0.8521 B(  1-C , 12-H ) :   0.9255
B(  1-C , 13-H ) :   0.9218 B(  2-O ,  3-C ) :   1.0567 B(  3-C ,  4-C ) :   0.8622
B(  3-C ,  5-C ) :   0.8995 B(  3-C ,  7-C ) :   0.9119 B(  4-C ,  5-C ) :   0.9005
B(  4-C , 14-H ) :   0.9143 B(  4-C , 15-H ) :   0.8917 B(  5-C ,  6-O ) :   0.9080
B(  5-C , 16-H ) :   0.9006 B(  6-O ,  7-C ) :   1.0345 B(  7-C ,  8-N ) :   2.0429
B(  8-N , 17-H ) :   0.8451

MP2 TOTAL ENERGY:     -438.311386192 Eh
FINAL SINGLE POINT ENERGY      -438.311386192153

DIPOLE MOMENT
-------------
                                X             Y             Z
Electronic contribution:      5.17808      -7.74653       1.39142
Nuclear contribution   :     -5.81277       7.91052      -0.83226
                        -----------------------------------------
Total Dipole Moment    :     -0.63469       0.16399       0.55915
                        -----------------------------------------
Magnitude (a.u.)       :      0.86161
Magnitude (Debye)      :      2.19004

                             ****ORCA TERMINATED NORMALLY****
TOTAL RUN TIME: 0 days 0 hours 15 minutes 7 seconds 7 msec
