                         Program Version 3.0.3 - RELEASE   -
|  1> ! RI-MP2 RIJK def2-TZVP def2-TZVP/C def2-TZVP/JK TIGHTSCF
|  2> % maxcore 2000
|  3> % mp2 density relaxed end
|  4> *xyz 0 1
|  5>  C       -0.3115177011     1.4252813368     0.0088300223
|  6>  N        0.0975401267     0.0374013888     0.0058761479
|  7>  C        0.7428715125    -0.4374007660    -1.2464703596
|  8>  C        1.8091617561    -1.4125535039    -0.7253158379
|  9>  N        2.9343985299    -0.5865549333    -0.2122740331
| 10>  C        2.3908307657     0.1210094985     1.0049959607
| 11>  C        0.9467564382    -0.4215996060     1.1132307608
| 12>  C        1.1804604041    -1.8580503138     0.6005439618
| 13>  O        1.0158777979    -2.9300646813     1.1074396838
| 14>  H        0.5203595543     2.1408563550    -0.1258379359
| 15>  H       -1.0254806177     1.5929312734    -0.8044456058
| 16>  H       -0.8170418213     1.6623581734     0.9504835381
| 17>  H        0.0101080769    -0.9217023292    -1.9026921882
| 18>  H        1.2310038336     0.3767966050    -1.8023556811
| 19>  H        2.1410547781    -2.1839669156    -1.4165214943
| 20>  H        3.6919414082    -1.2017421567     0.0669745803
| 21>  H        2.9757540416    -0.1135863171     1.9006955222
| 22>  H        2.4238771835     1.2052821060     0.8571313845
| 23>  H        0.4622848229    -0.3224731241     2.0829863734
| 24> *
| 25>
| 26>                          ****END OF INPUT****

CARTESIAN COORDINATES (ANGSTROEM)
---------------------------------
  C     -0.311518    1.425281    0.008830
  N      0.097540    0.037401    0.005876
  C      0.742872   -0.437401   -1.246470
  C      1.809162   -1.412554   -0.725316
  N      2.934399   -0.586555   -0.212274
  C      2.390831    0.121009    1.004996
  C      0.946756   -0.421600    1.113231
  C      1.180460   -1.858050    0.600544
  O      1.015878   -2.930065    1.107440
  H      0.520360    2.140856   -0.125838
  H     -1.025481    1.592931   -0.804446
  H     -0.817042    1.662358    0.950484
  H      0.010108   -0.921702   -1.902692
  H      1.231004    0.376797   -1.802356
  H      2.141055   -2.183967   -1.416521
  H      3.691941   -1.201742    0.066975
  H      2.975754   -0.113586    1.900696
  H      2.423877    1.205282    0.857131
  H      0.462285   -0.322473    2.082986

 Total Charge           Charge          ....    0
 Multiplicity           Mult            ....    1
 Number of Electrons    NEL             ....   68
 Basis Dimension        Dim             ....  339

ORBITAL ENERGIES
----------------

  NO   OCC          E(Eh)            E(eV)
   0   2.0000     -20.556174      -559.3619
   1   2.0000     -15.564581      -423.5338
   2   2.0000     -15.560493      -423.4225
   3   2.0000     -11.330404      -308.3160
   4   2.0000     -11.273197      -306.7593
   5   2.0000     -11.271709      -306.7188
   6   2.0000     -11.266743      -306.5837
   7   2.0000     -11.262792      -306.4761
   8   2.0000     -11.254327      -306.2458
   9   2.0000      -1.399917       -38.0937
  10   2.0000      -1.282024       -34.8857
  11   2.0000      -1.196797       -32.5665
  12   2.0000      -1.029571       -28.0161
  13   2.0000      -1.015770       -27.6405
  14   2.0000      -0.911354       -24.7992
  15   2.0000      -0.878669       -23.9098
  16   2.0000      -0.771153       -20.9842
  17   2.0000      -0.762593       -20.7512
  18   2.0000      -0.718872       -19.5615
  19   2.0000      -0.665602       -18.1120
  20   2.0000      -0.655687       -17.8422
  21   2.0000      -0.623886       -16.9768
  22   2.0000      -0.610741       -16.6191
  23   2.0000      -0.584041       -15.8926
  24   2.0000      -0.570455       -15.5229
  25   2.0000      -0.556351       -15.1391
  26   2.0000      -0.544695       -14.8219
  27   2.0000      -0.538508       -14.6536
  28   2.0000      -0.517136       -14.0720
  29   2.0000      -0.509145       -13.8545
  30   2.0000      -0.494925       -13.4676
  31   2.0000      -0.441440       -12.0122
  32   2.0000      -0.377289       -10.2666
  33   2.0000      -0.347786        -9.4637
  34   0.0000       0.127588         3.4719
  35   0.0000       0.145016         3.9461
  36   0.0000       0.148985         4.0541
  37   0.0000       0.168421         4.5830
  38   0.0000       0.182976         4.9790

MULLIKEN ATOMIC CHARGES
-----------------------
   0 C :   -0.341245
   1 N :   -0.160822
   2 C :   -0.208921
   3 C :    0.048934
   4 N :   -0.352033
   5 C :   -0.223256
   6 C :    0.048320
   7 C :    0.048919
   8 O :   -0.247053
   9 H :    0.112116
  10 H :    0.144804
  11 H :    0.137618
  12 H :    0.123836
  13 H :    0.113282
  14 H :    0.146902
  15 H :    0.215059
  16 H :    0.132482
  17 H :    0.118699
  18 H :    0.142359
Sum of atomic charges:    0.0000000

LOEWDIN ATOMIC CHARGES
----------------------
   0 C :   -0.331712
   1 N :    0.090443
   2 C :   -0.229378
   3 C :   -0.254337
   4 N :    0.000649
   5 C :   -0.250420
   6 C :   -0.244191
   7 C :   -0.275493
   8 O :    0.167884
   9 H :    0.102736
  10 H :    0.121686
  11 H :    0.120310
  12 H :    0.130706
  13 H :    0.131457
  14 H :    0.146311
  15 H :    0.168960
  16 H :    0.129422
  17 H :    0.126963
  18 H :    0.148003

  Mayer bond orders larger than 0.1
B(  0-C ,  1-N ) :   0.9050 B(  0-C ,  9-H ) :   0.9249 B(  0-C , 10-H ) :   0.9370
B(  0-C , 11-H ) :   0.9366 B(  1-N ,  2-C ) :   0.9379 B(  1-N ,  6-C ) :   0.9282
B(  2-C ,  3-C ) :   0.8976 B(  2-C , 12-H ) :   0.9161 B(  2-C , 13-H ) :   0.9215
B(  3-C ,  4-N ) :   0.9770 B(  3-C ,  6-C ) :  -0.1307 B(  3-C ,  7-C ) :   0.9089
B(  3-C , 14-H ) :   0.9024 B(  4-N ,  5-C ) :   0.9381 B(  4-N , 15-H ) :   0.8795
B(  5-C ,  6-C ) :   0.9110 B(  5-C , 16-H ) :   0.9304 B(  5-C , 17-H ) :   0.9125
B(  6-C ,  7-C ) :   0.8500 B(  6-C , 18-H ) :   0.9015 B(  7-C ,  8-O ) :   2.0711

MP2 TOTAL ENERGY:     -418.493996247 Eh
FINAL SINGLE POINT ENERGY      -418.493996247128

DIPOLE MOMENT
-------------
                                X             Y             Z
Electronic contribution:      0.66927      -7.44635       1.80998
Nuclear contribution   :     -0.37750       8.26525      -1.93440
                        -----------------------------------------
Total Dipole Moment    :      0.29177       0.81890      -0.12441
                        -----------------------------------------
Magnitude (a.u.)       :      0.87818
Magnitude (Debye)      :      2.23215

                             ****ORCA TERMINATED NORMALLY****
TOTAL RUN TIME: 0 days 0 hours 22 minutes 28 seconds 417 msec
