                         Program Version 3.0.3 - RELEASE   -
|  1> ! RI-MP2 RIJK def2-TZVP def2-TZVP/C def2-TZVP/JK TIGHTSCF
|  2> % maxcore 2000
|  3> % mp2 density relaxed end
|  4> *xyz 0 1
|  5>  C       -0.4441781267     0.9620015810    -0.0872114350
|  6>  O        0.5199365328    -0.0533810042     0.1103089119
|  7>  C        0.9327059794    -0.6446047950    -1.0825350876
|  8>  C        1.5040082393    -2.0154811401    -1.0724434638
|  9>  C        0.1429676489    -1.7318618183    -1.7601141594
| 10>  C       -0.5751205292    -2.6021315679    -0.7146398412
| 11>  O       -1.2777855874    -3.7082043143    -1.2339062635
| 12>  C        0.8064193722    -2.8989940858    -0.0194206435
| 13>  C        1.2386811469    -4.3597423234    -0.0396534550
| 14>  H       -0.0433310752     1.7855335405    -0.6977788498
| 15>  H       -1.3471963625     0.5745261744    -0.5798463454
| 16>  H       -0.7102803159     1.3503825574     0.8984840857
| 17>  H        1.4143640695     0.0524945916    -1.7725066595
| 18>  H        2.4715532181    -2.2314221188    -1.5140027870
| 19>  H       -0.1232088202    -1.6919051521    -2.8114931139
| 20>  H       -1.2972308855    -2.0761558307    -0.0846060625
| 21>  H       -0.7062395722    -4.1620513163    -1.8622151748
| 22>  H        0.8768685524    -2.5056171817     0.9988666045
| 23>  H        1.2523824617    -4.7745701605    -1.0546339126
| 24>  H        2.2532348675    -4.4610415427     0.3596135717
| 25>  H        0.5695379459    -4.9781599631     0.5650448706
| 26> *
| 27>
| 28>                          ****END OF INPUT****

CARTESIAN COORDINATES (ANGSTROEM)
---------------------------------
  C     -0.444178    0.962002   -0.087211
  O      0.519937   -0.053381    0.110309
  C      0.932706   -0.644605   -1.082535
  C      1.504008   -2.015481   -1.072443
  C      0.142968   -1.731862   -1.760114
  C     -0.575121   -2.602132   -0.714640
  O     -1.277786   -3.708204   -1.233906
  C      0.806419   -2.898994   -0.019421
  C      1.238681   -4.359742   -0.039653
  H     -0.043331    1.785534   -0.697779
  H     -1.347196    0.574526   -0.579846
  H     -0.710280    1.350383    0.898484
  H      1.414364    0.052495   -1.772507
  H      2.471553   -2.231422   -1.514003
  H     -0.123209   -1.691905   -2.811493
  H     -1.297231   -2.076156   -0.084606
  H     -0.706240   -4.162051   -1.862215
  H      0.876869   -2.505617    0.998867
  H      1.252382   -4.774570   -1.054634
  H      2.253235   -4.461042    0.359614
  H      0.569538   -4.978160    0.565045

 Total Charge           Charge          ....    0
 Multiplicity           Mult            ....    1
 Number of Electrons    NEL             ....   70
 Basis Dimension        Dim             ....  351

ORBITAL ENERGIES
----------------

  NO   OCC          E(Eh)            E(eV)
   0   2.0000     -20.561850      -559.5164
   1   2.0000     -20.554598      -559.3191
   2   2.0000     -11.286898      -307.1321
   3   2.0000     -11.279024      -306.9178
   4   2.0000     -11.273181      -306.7589
   5   2.0000     -11.235141      -305.7237
   6   2.0000     -11.232033      -305.6392
   7   2.0000     -11.228229      -305.5357
   8   2.0000     -11.216982      -305.2296
   9   2.0000      -1.386409       -37.7261
  10   2.0000      -1.362498       -37.0755
  11   2.0000      -1.178665       -32.0731
  12   2.0000      -1.021033       -27.7837
  13   2.0000      -0.945481       -25.7278
  14   2.0000      -0.913830       -24.8666
  15   2.0000      -0.854655       -23.2564
  16   2.0000      -0.791157       -21.5285
  17   2.0000      -0.748623       -20.3711
  18   2.0000      -0.697954       -18.9923
  19   2.0000      -0.680419       -18.5151
  20   2.0000      -0.656079       -17.8528
  21   2.0000      -0.630646       -17.1608
  22   2.0000      -0.610927       -16.6242
  23   2.0000      -0.607387       -16.5279
  24   2.0000      -0.580174       -15.7873
  25   2.0000      -0.569668       -15.5015
  26   2.0000      -0.532142       -14.4803
  27   2.0000      -0.518611       -14.1121
  28   2.0000      -0.515989       -14.0408
  29   2.0000      -0.501851       -13.6561
  30   2.0000      -0.456129       -12.4119
  31   2.0000      -0.444939       -12.1074
  32   2.0000      -0.429635       -11.6910
  33   2.0000      -0.404082       -10.9956
  34   2.0000      -0.372376       -10.1329
  35   0.0000       0.135039         3.6746
  36   0.0000       0.144942         3.9441
  37   0.0000       0.160393         4.3645
  38   0.0000       0.169652         4.6165
  39   0.0000       0.193510         5.2657

MULLIKEN ATOMIC CHARGES
-----------------------
   0 C :   -0.220186
   1 O :   -0.304852
   2 C :    0.042313
   3 C :   -0.166793
   4 C :   -0.187281
   5 C :    0.051314
   6 O :   -0.445445
   7 C :    0.008389
   8 C :   -0.439940
   9 H :    0.114496
  10 H :    0.122255
  11 H :    0.141195
  12 H :    0.102963
  13 H :    0.130982
  14 H :    0.128547
  15 H :    0.112976
  16 H :    0.311228
  17 H :    0.105351
  18 H :    0.102245
  19 H :    0.137181
  20 H :    0.153065
Sum of atomic charges:   -0.0000000

LOEWDIN ATOMIC CHARGES
----------------------
   0 C :   -0.347648
   1 O :    0.172333
   2 C :   -0.291253
   3 C :   -0.142092
   4 C :   -0.160701
   5 C :   -0.281169
   6 O :   -0.003501
   7 C :   -0.217403
   8 C :   -0.297093
   9 H :    0.103407
  10 H :    0.104984
  11 H :    0.113911
  12 H :    0.143649
  13 H :    0.136682
  14 H :    0.134214
  15 H :    0.137103
  16 H :    0.173493
  17 H :    0.147836
  18 H :    0.117066
  19 H :    0.126813
  20 H :    0.129368

  Mayer bond orders larger than 0.1
B(  0-C ,  1-O ) :   0.8967 B(  0-C ,  9-H ) :   0.9359 B(  0-C , 10-H ) :   0.9343
B(  0-C , 11-H ) :   0.9395 B(  1-O ,  2-C ) :   1.0080 B(  2-C ,  3-C ) :   0.8874
B(  2-C ,  4-C ) :   0.8868 B(  2-C , 12-H ) :   0.9381 B(  3-C ,  4-C ) :   0.8135
B(  3-C ,  7-C ) :   0.9146 B(  3-C , 13-H ) :   0.9202 B(  4-C ,  5-C ) :   0.9204
B(  4-C , 14-H ) :   0.9266 B(  5-C ,  6-O ) :   0.9971 B(  5-C ,  7-C ) :   0.9512
B(  5-C , 15-H ) :   0.9217 B(  6-O , 16-H ) :   0.8407 B(  7-C ,  8-C ) :   0.8804
B(  7-C , 17-H ) :   0.9007 B(  8-C , 18-H ) :   0.9341 B(  8-C , 19-H ) :   0.9411
B(  8-C , 20-H ) :   0.9394

MP2 TOTAL ENERGY:     -423.474378634 Eh
FINAL SINGLE POINT ENERGY      -423.474378633523

DIPOLE MOMENT
-------------
                                X             Y             Z
Electronic contribution:     -0.76024       0.62000      -0.69425
Nuclear contribution   :      1.15893      -0.33337       0.20118
                        -----------------------------------------
Total Dipole Moment    :      0.39869       0.28663      -0.49307
                        -----------------------------------------
Magnitude (a.u.)       :      0.69587
Magnitude (Debye)      :      1.76875

                             ****ORCA TERMINATED NORMALLY****
TOTAL RUN TIME: 0 days 0 hours 17 minutes 36 seconds 792 msec
