                         Program Version 3.0.3 - RELEASE   -
|  1> ! RI-MP2 RIJK def2-TZVP def2-TZVP/C def2-TZVP/JK TIGHTSCF
|  2> % maxcore 2000
|  3> % mp2 density relaxed end
|  4> *xyz 0 1
|  5>  O        0.4480146771     1.3851589271    -0.0688470631
|  6>  C        0.2281547074     0.0035854407     0.0747248505
|  7>  C        0.6651660869    -0.5226963979     1.4199186468
|  8>  C       -0.2344781141    -1.3380585880     1.9960696690
|  9>  C       -1.4788844718    -1.4035813204     1.2035459819
| 10>  O       -2.4682431592    -2.0703818278     1.3717312022
| 11>  C       -1.2602765070    -0.3696883401     0.0659731687
| 12>  O       -2.0948004023     0.1433660777    -0.6277489821
| 13>  H       -0.2427272548     1.7133459454    -0.6603840424
| 14>  H        0.7368793136    -0.5642201921    -0.7258444520
| 15>  H        1.6332831942    -0.2601492745     1.8323210398
| 16>  H       -0.1127215500    -1.8657831501     2.9334877307
| 17> *
| 18>
| 19>                          ****END OF INPUT****

CARTESIAN COORDINATES (ANGSTROEM)
---------------------------------
  O      0.448015    1.385159   -0.068847
  C      0.228155    0.003585    0.074725
  C      0.665166   -0.522696    1.419919
  C     -0.234478   -1.338059    1.996070
  C     -1.478884   -1.403581    1.203546
  O     -2.468243   -2.070382    1.371731
  C     -1.260277   -0.369688    0.065973
  O     -2.094800    0.143366   -0.627749
  H     -0.242727    1.713346   -0.660384
  H      0.736879   -0.564220   -0.725844
  H      1.633283   -0.260149    1.832321
  H     -0.112722   -1.865783    2.933488

 Total Charge           Charge          ....    0
 Multiplicity           Mult            ....    1
 Number of Electrons    NEL             ....   58
 Basis Dimension        Dim             ....  272

ORBITAL ENERGIES
----------------

  NO   OCC          E(Eh)            E(eV)
   0   2.0000     -20.596965      -560.4719
   1   2.0000     -20.592297      -560.3449
   2   2.0000     -20.579027      -559.9838
   3   2.0000     -11.364223      -309.2362
   4   2.0000     -11.361257      -309.1555
   5   2.0000     -11.332538      -308.3740
   6   2.0000     -11.300717      -307.5082
   7   2.0000     -11.276285      -306.8433
   8   2.0000      -1.443712       -39.2854
   9   2.0000      -1.412393       -38.4332
  10   2.0000      -1.396936       -38.0126
  11   2.0000      -1.170253       -31.8442
  12   2.0000      -0.984078       -26.7781
  13   2.0000      -0.944682       -25.7061
  14   2.0000      -0.807505       -21.9733
  15   2.0000      -0.775176       -21.0936
  16   2.0000      -0.726693       -19.7743
  17   2.0000      -0.708333       -19.2747
  18   2.0000      -0.686643       -18.6845
  19   2.0000      -0.654043       -17.7974
  20   2.0000      -0.633117       -17.2280
  21   2.0000      -0.608905       -16.5692
  22   2.0000      -0.598704       -16.2916
  23   2.0000      -0.570112       -15.5135
  24   2.0000      -0.535620       -14.5750
  25   2.0000      -0.516295       -14.0491
  26   2.0000      -0.493644       -13.4327
  27   2.0000      -0.419510       -11.4155
  28   2.0000      -0.405596       -11.0368
  29   0.0000       0.037610         1.0234
  30   0.0000       0.097962         2.6657
  31   0.0000       0.145411         3.9568
  32   0.0000       0.152387         4.1467
  33   0.0000       0.169237         4.6052

MULLIKEN ATOMIC CHARGES
-----------------------
   0 O :   -0.472660
   1 C :    0.188383
   2 C :   -0.147319
   3 C :   -0.154882
   4 C :    0.190600
   5 O :   -0.244095
   6 C :    0.100615
   7 O :   -0.242170
   8 H :    0.337640
   9 H :    0.115964
  10 H :    0.163404
  11 H :    0.164520
Sum of atomic charges:    0.0000000

LOEWDIN ATOMIC CHARGES
----------------------
   0 O :   -0.000797
   1 C :   -0.312740
   2 C :   -0.061769
   3 C :   -0.103161
   4 C :   -0.296282
   5 O :    0.187180
   6 C :   -0.253502
   7 O :    0.195870
   8 H :    0.189437
   9 H :    0.155115
  10 H :    0.149518
  11 H :    0.151130

  Mayer bond orders larger than 0.1
B(  0-O ,  1-C ) :   0.9750 B(  0-O ,  8-H ) :   0.8216 B(  1-C ,  2-C ) :   0.8998
B(  1-C ,  6-C ) :   0.8554 B(  1-C ,  9-H ) :   0.8946 B(  2-C ,  3-C ) :   1.6234
B(  2-C , 10-H ) :   0.9024 B(  3-C ,  4-C ) :   0.9507 B(  3-C , 11-H ) :   0.9035
B(  4-C ,  5-O ) :   1.9605 B(  4-C ,  6-C ) :   0.8645 B(  6-C ,  7-O ) :   1.9984

MP2 TOTAL ENERGY:     -417.827263731 Eh
FINAL SINGLE POINT ENERGY      -417.827263730750

DIPOLE MOMENT
-------------
                                X             Y             Z
Electronic contribution:     -3.54024      -0.92371      -0.54386
Nuclear contribution   :      4.83732       0.87983       0.76237
                        -----------------------------------------
Total Dipole Moment    :      1.29708      -0.04388       0.21851
                        -----------------------------------------
Magnitude (a.u.)       :      1.31609
Magnitude (Debye)      :      3.34522

                             ****ORCA TERMINATED NORMALLY****
TOTAL RUN TIME: 0 days 0 hours 10 minutes 27 seconds 638 msec
