                         Program Version 3.0.3 - RELEASE   -
|  1> ! RI-MP2 RIJK def2-TZVP def2-TZVP/C def2-TZVP/JK TIGHTSCF
|  2> % maxcore 2000
|  3> % mp2 density relaxed end
|  4> *xyz 0 1
|  5>  C       -0.0453759862     1.4723046952    -0.4562959029
|  6>  C        0.0101143711    -0.0312542750    -0.0738561482
|  7>  C        0.7759599714    -0.2321172391     1.2612883717
|  8>  C       -1.3624208039    -0.5358689628     0.0817188018
|  9>  N       -2.4477374728    -0.8958268767     0.2432027916
| 10>  C        0.6974998688    -0.8300698817    -1.1958256255
| 11>  O        0.1682199849    -1.7140610328    -1.8208524974
| 12>  C        2.1584962770    -0.5068629881    -1.5737798843
| 13>  O        2.8474672898     0.3361416884    -1.0649109076
| 14>  H        0.9656057623     1.8700590832    -0.5488323590
| 15>  H       -0.5801031157     1.6184657516    -1.3984106498
| 16>  H       -0.5749539918     2.0239978900     0.3242183952
| 17>  H        0.2555673288     0.3021393118     2.0599473517
| 18>  H        0.8208937308    -1.2899441221     1.5329814666
| 19>  H        1.7887822882     0.1616116882     1.1719662945
| 20>  H        2.5047041674    -1.1670909503    -2.3955099884
| 21> *
| 22>
| 23>                          ****END OF INPUT****

CARTESIAN COORDINATES (ANGSTROEM)
---------------------------------
  C     -0.045376    1.472305   -0.456296
  C      0.010114   -0.031254   -0.073856
  C      0.775960   -0.232117    1.261288
  C     -1.362421   -0.535869    0.081719
  N     -2.447737   -0.895827    0.243203
  C      0.697500   -0.830070   -1.195826
  O      0.168220   -1.714061   -1.820852
  C      2.158496   -0.506863   -1.573780
  O      2.847467    0.336142   -1.064911
  H      0.965606    1.870059   -0.548832
  H     -0.580103    1.618466   -1.398411
  H     -0.574954    2.023998    0.324218
  H      0.255567    0.302139    2.059947
  H      0.820894   -1.289944    1.532981
  H      1.788782    0.161612    1.171966
  H      2.504704   -1.167091   -2.395510

 Total Charge           Charge          ....    0
 Multiplicity           Mult            ....    1
 Number of Electrons    NEL             ....   66
 Basis Dimension        Dim             ....  321

ORBITAL ENERGIES
----------------

  NO   OCC          E(Eh)            E(eV)
   0   2.0000     -20.614732      -560.9554
   1   2.0000     -20.609506      -560.8132
   2   2.0000     -15.577120      -423.8750
   3   2.0000     -11.381302      -309.7010
   4   2.0000     -11.378968      -309.6375
   5   2.0000     -11.322740      -308.1074
   6   2.0000     -11.277891      -306.8870
   7   2.0000     -11.260522      -306.4144
   8   2.0000     -11.260481      -306.4133
   9   2.0000      -1.458724       -39.6939
  10   2.0000      -1.441698       -39.2306
  11   2.0000      -1.228237       -33.4220
  12   2.0000      -1.140743       -31.0412
  13   2.0000      -0.978542       -26.6275
  14   2.0000      -0.967604       -26.3299
  15   2.0000      -0.909952       -24.7611
  16   2.0000      -0.815369       -22.1873
  17   2.0000      -0.725064       -19.7300
  18   2.0000      -0.712199       -19.3799
  19   2.0000      -0.690294       -18.7839
  20   2.0000      -0.656645       -17.8682
  21   2.0000      -0.639940       -17.4137
  22   2.0000      -0.608052       -16.5459
  23   2.0000      -0.591608       -16.0985
  24   2.0000      -0.583945       -15.8899
  25   2.0000      -0.571353       -15.5473
  26   2.0000      -0.554438       -15.0870
  27   2.0000      -0.547626       -14.9017
  28   2.0000      -0.531696       -14.4682
  29   2.0000      -0.518995       -14.1226
  30   2.0000      -0.474004       -12.8983
  31   2.0000      -0.463757       -12.6195
  32   2.0000      -0.437378       -11.9017
  33   0.0000       0.034315         0.9338
  34   0.0000       0.122746         3.3401
  35   0.0000       0.148733         4.0472
  36   0.0000       0.162283         4.4159
  37   0.0000       0.171118         4.6564

MULLIKEN ATOMIC CHARGES
-----------------------
   0 C :   -0.448365
   1 C :    0.258514
   2 C :   -0.448313
   3 C :   -0.219774
   4 N :   -0.033612
   5 C :    0.141515
   6 O :   -0.212955
   7 C :    0.098251
   8 O :   -0.245211
   9 H :    0.175603
  10 H :    0.157715
  11 H :    0.155476
  12 H :    0.155438
  13 H :    0.157695
  14 H :    0.175629
  15 H :    0.132393
Sum of atomic charges:   -0.0000000

LOEWDIN ATOMIC CHARGES
----------------------
   0 C :   -0.233277
   1 C :   -0.280460
   2 C :   -0.233330
   3 C :   -0.148152
   4 N :    0.079270
   5 C :   -0.271686
   6 O :    0.218736
   7 C :   -0.247581
   8 O :    0.166930
   9 H :    0.135869
  10 H :    0.136257
  11 H :    0.138322
  12 H :    0.138330
  13 H :    0.136258
  14 H :    0.135873
  15 H :    0.128641

  Mayer bond orders larger than 0.1
B(  0-C ,  1-C ) :   0.8606 B(  0-C ,  9-H ) :   0.9257 B(  0-C , 10-H ) :   0.9252
B(  0-C , 11-H ) :   0.9229 B(  1-C ,  2-C ) :   0.8608 B(  1-C ,  3-C ) :   0.8948
B(  1-C ,  5-C ) :   0.8175 B(  2-C , 12-H ) :   0.9229 B(  2-C , 13-H ) :   0.9253
B(  2-C , 14-H ) :   0.9257 B(  3-C ,  4-N ) :   2.8791 B(  5-C ,  6-O ) :   1.9999
B(  5-C ,  7-C ) :   0.8657 B(  7-C ,  8-O ) :   1.9372 B(  7-C , 15-H ) :   0.9261

MP2 TOTAL ENERGY:     -437.188678159 Eh
FINAL SINGLE POINT ENERGY      -437.188678159089

DIPOLE MOMENT
-------------
                                X             Y             Z
Electronic contribution:     -1.21099      -4.63696      -4.02199
Nuclear contribution   :      2.46308       5.33522       4.11567
                        -----------------------------------------
Total Dipole Moment    :      1.25209       0.69825       0.09368
                        -----------------------------------------
Magnitude (a.u.)       :      1.43668
Magnitude (Debye)      :      3.65175

                             ****ORCA TERMINATED NORMALLY****
TOTAL RUN TIME: 0 days 0 hours 16 minutes 39 seconds 129 msec
