                         Program Version 3.0.3 - RELEASE   -
|  1> ! RI-MP2 RIJK def2-TZVP def2-TZVP/C def2-TZVP/JK TIGHTSCF
|  2> % maxcore 2000
|  3> % mp2 density relaxed end
|  4> *xyz 0 1
|  5>  O       -0.0707893628    -0.0849291596     0.0043992992
|  6>  C       -0.0246787022     1.1387957148     0.0091896381
|  7>  C       -1.2404064193     1.9754372246     0.0307629893
|  8>  N       -1.2723701537     3.2728707142     0.0376610602
|  9>  N       -0.0947469400     3.9105967086     0.0242864548
| 10>  C        1.1304419054     3.2908265923     0.0040955625
| 11>  C        1.1968323555     1.9275003595    -0.0036559804
| 12>  C        2.2626828231     4.1517350368    -0.0073727417
| 13>  C        3.2026128057     4.9022774888    -0.0166243784
| 14>  H       -2.2032793165     1.4738732955     0.0419056205
| 15>  H       -0.1542717865     4.9163459489     0.0301315405
| 16>  H        2.1559536400     1.4271661381    -0.0194473250
| 17>  H        4.0441031914     5.5514518976    -0.0248683595
| 18> *
| 19>
| 20>                          ****END OF INPUT****

CARTESIAN COORDINATES (ANGSTROEM)
---------------------------------
  O     -0.070789   -0.084929    0.004399
  C     -0.024679    1.138796    0.009190
  C     -1.240406    1.975437    0.030763
  N     -1.272370    3.272871    0.037661
  N     -0.094747    3.910597    0.024286
  C      1.130442    3.290827    0.004096
  C      1.196832    1.927500   -0.003656
  C      2.262683    4.151735   -0.007373
  C      3.202613    4.902277   -0.016624
  H     -2.203279    1.473873    0.041906
  H     -0.154272    4.916346    0.030132
  H      2.155954    1.427166   -0.019447
  H      4.044103    5.551452   -0.024868

 Total Charge           Charge          ....    0
 Multiplicity           Mult            ....    1
 Number of Electrons    NEL             ....   62
 Basis Dimension        Dim             ....  303

ORBITAL ENERGIES
----------------

  NO   OCC          E(Eh)            E(eV)
   0   2.0000     -20.524150      -558.4905
   1   2.0000     -15.667567      -426.3362
   2   2.0000     -15.651804      -425.9072
   3   2.0000     -11.351913      -308.9013
   4   2.0000     -11.333680      -308.4051
   5   2.0000     -11.288967      -307.1884
   6   2.0000     -11.280494      -306.9578
   7   2.0000     -11.276583      -306.8514
   8   2.0000     -11.255800      -306.2859
   9   2.0000      -1.401333       -38.1322
  10   2.0000      -1.365062       -37.1452
  11   2.0000      -1.186319       -32.2814
  12   2.0000      -1.105421       -30.0800
  13   2.0000      -1.059397       -28.8276
  14   2.0000      -0.923440       -25.1281
  15   2.0000      -0.906789       -24.6750
  16   2.0000      -0.811434       -22.0802
  17   2.0000      -0.766880       -20.8679
  18   2.0000      -0.739949       -20.1350
  19   2.0000      -0.710277       -19.3276
  20   2.0000      -0.645791       -17.5729
  21   2.0000      -0.640411       -17.4265
  22   2.0000      -0.613995       -16.7076
  23   2.0000      -0.593804       -16.1582
  24   2.0000      -0.533921       -14.5287
  25   2.0000      -0.512932       -13.9576
  26   2.0000      -0.493981       -13.4419
  27   2.0000      -0.443661       -12.0726
  28   2.0000      -0.413096       -11.2409
  29   2.0000      -0.401163       -10.9162
  30   2.0000      -0.341682        -9.2977
  31   0.0000       0.061164         1.6643
  32   0.0000       0.090702         2.4681
  33   0.0000       0.125142         3.4053
  34   0.0000       0.140575         3.8252
  35   0.0000       0.142897         3.8884

MULLIKEN ATOMIC CHARGES
-----------------------
   0 O :   -0.351867
   1 C :    0.258160
   2 C :   -0.111881
   3 N :   -0.148886
   4 N :   -0.154227
   5 C :    0.080127
   6 C :   -0.309970
   7 C :    0.005348
   8 C :   -0.049710
   9 H :    0.151479
  10 H :    0.269432
  11 H :    0.151225
  12 H :    0.210770
Sum of atomic charges:   -0.0000000

LOEWDIN ATOMIC CHARGES
----------------------
   0 O :    0.094444
   1 C :   -0.390964
   2 C :   -0.185378
   3 N :    0.070131
   4 N :    0.145599
   5 C :   -0.211459
   6 C :   -0.069120
   7 C :   -0.065583
   8 C :   -0.038831
   9 H :    0.149504
  10 H :    0.203570
  11 H :    0.163230
  12 H :    0.134857

  Mayer bond orders larger than 0.1
B(  0-O ,  1-C ) :   1.8427 B(  1-C ,  2-C ) :   1.0328 B(  1-C ,  6-C ) :   1.0825
B(  2-C ,  3-N ) :   1.6344 B(  2-C ,  9-H ) :   0.9139 B(  3-N ,  4-N ) :   1.0156
B(  4-N ,  5-C ) :   1.1896 B(  4-N , 10-H ) :   0.8725 B(  5-C ,  6-C ) :   1.4080
B(  5-C ,  7-C ) :   1.0955 B(  5-C ,  8-C ) :  -0.1627 B(  6-C , 11-H ) :   0.9483
B(  7-C ,  8-C ) :   2.5947 B(  8-C , 12-H ) :   0.8685

MP2 TOTAL ENERGY:     -414.871157764 Eh
FINAL SINGLE POINT ENERGY      -414.871157764307

DIPOLE MOMENT
-------------
                                X             Y             Z
Electronic contribution:     -0.85555      -0.46606       0.00888
Nuclear contribution   :      1.64617       2.46466      -0.01017
                        -----------------------------------------
Total Dipole Moment    :      0.79062       1.99860      -0.00130
                        -----------------------------------------
Magnitude (a.u.)       :      2.14929
Magnitude (Debye)      :      5.46307

                             ****ORCA TERMINATED NORMALLY****
TOTAL RUN TIME: 0 days 0 hours 14 minutes 44 seconds 789 msec
