                         Program Version 3.0.3 - RELEASE   -
|  1> ! RI-MP2 RIJK def2-TZVP def2-TZVP/C def2-TZVP/JK TIGHTSCF
|  2> % maxcore 2000
|  3> % mp2 density relaxed end
|  4> *xyz 0 1
|  5>  O        0.1342474185     1.3924720388     0.1349867002
|  6>  C       -0.0175220108    -0.0004041707    -0.0734377918
|  7>  C       -1.4612610310    -0.3990580725    -0.0371688174
|  8>  O       -1.9226893694    -1.6192625371    -0.6261519031
|  9>  C       -2.5518753085    -0.3735396870    -1.0034793309
| 10>  C       -3.5788033522     0.0522684913     0.0931860856
| 11>  C       -3.6084100226    -0.9402551437     1.2436217749
| 12>  C       -2.4616388701     0.0154310881     1.1107754018
| 13>  O       -2.1156950003     0.9899676324     2.0414254463
| 14>  H       -0.3732912105     1.6164680265     0.9263467708
| 15>  H        0.4014598343    -0.2369435752    -1.0564205528
| 16>  H        0.5455719210    -0.5874493435     0.6725224406
| 17>  H       -2.5748892596    -0.1273788771    -2.0578134312
| 18>  H       -4.3454811112     0.8005341052    -0.0519766339
| 19>  H       -4.3157977298    -0.6693458938     2.0219727134
| 20>  H       -3.4817166934    -2.0013512108     1.0671291720
| 21>  H       -1.8685113346     0.5501529190     2.8631592753
| 22> *
| 23>
| 24>                          ****END OF INPUT****

CARTESIAN COORDINATES (ANGSTROEM)
---------------------------------
  O      0.134247    1.392472    0.134987
  C     -0.017522   -0.000404   -0.073438
  C     -1.461261   -0.399058   -0.037169
  O     -1.922689   -1.619263   -0.626152
  C     -2.551875   -0.373540   -1.003479
  C     -3.578803    0.052268    0.093186
  C     -3.608410   -0.940255    1.243622
  C     -2.461639    0.015431    1.110775
  O     -2.115695    0.989968    2.041425
  H     -0.373291    1.616468    0.926347
  H      0.401460   -0.236944   -1.056421
  H      0.545572   -0.587449    0.672522
  H     -2.574889   -0.127379   -2.057813
  H     -4.345481    0.800534   -0.051977
  H     -4.315798   -0.669346    2.021973
  H     -3.481717   -2.001351    1.067129
  H     -1.868511    0.550153    2.863159

 Total Charge           Charge          ....    0
 Multiplicity           Mult            ....    1
 Number of Electrons    NEL             ....   68
 Basis Dimension        Dim             ....  327

ORBITAL ENERGIES
----------------

  NO   OCC          E(Eh)            E(eV)
   0   2.0000     -20.595439      -560.4304
   1   2.0000     -20.577409      -559.9398
   2   2.0000     -20.554579      -559.3185
   3   2.0000     -11.305407      -307.6358
   4   2.0000     -11.297377      -307.4172
   5   2.0000     -11.295134      -307.3562
   6   2.0000     -11.287183      -307.1399
   7   2.0000     -11.248118      -306.0768
   8   2.0000     -11.243914      -305.9625
   9   2.0000      -1.430436       -38.9241
  10   2.0000      -1.399106       -38.0716
  11   2.0000      -1.360247       -37.0142
  12   2.0000      -1.163497       -31.6604
  13   2.0000      -0.995003       -27.0754
  14   2.0000      -0.940206       -25.5843
  15   2.0000      -0.863907       -23.5081
  16   2.0000      -0.804103       -21.8808
  17   2.0000      -0.766474       -20.8568
  18   2.0000      -0.732546       -19.9336
  19   2.0000      -0.698980       -19.0202
  20   2.0000      -0.675112       -18.3707
  21   2.0000      -0.654532       -17.8107
  22   2.0000      -0.633106       -17.2277
  23   2.0000      -0.607879       -16.5412
  24   2.0000      -0.582674       -15.8554
  25   2.0000      -0.566468       -15.4144
  26   2.0000      -0.555141       -15.1062
  27   2.0000      -0.523261       -14.2387
  28   2.0000      -0.515800       -14.0356
  29   2.0000      -0.498181       -13.5562
  30   2.0000      -0.457077       -12.4377
  31   2.0000      -0.432839       -11.7782
  32   2.0000      -0.409236       -11.1359
  33   2.0000      -0.361569        -9.8388
  34   0.0000       0.120901         3.2899
  35   0.0000       0.162020         4.4088
  36   0.0000       0.168168         4.5761
  37   0.0000       0.175244         4.7686
  38   0.0000       0.185579         5.0499

MULLIKEN ATOMIC CHARGES
-----------------------
   0 O :   -0.476220
   1 C :   -0.012120
   2 C :    0.079280
   3 O :   -0.319181
   4 C :   -0.046604
   5 C :   -0.115438
   6 C :   -0.308809
   7 C :    0.180640
   8 O :   -0.495004
   9 H :    0.331380
  10 H :    0.125110
  11 H :    0.102586
  12 H :    0.150943
  13 H :    0.155473
  14 H :    0.141431
  15 H :    0.162855
  16 H :    0.343678
Sum of atomic charges:    0.0000000

LOEWDIN ATOMIC CHARGES
----------------------
   0 O :   -0.039151
   1 C :   -0.307618
   2 C :   -0.257471
   3 O :    0.194337
   4 C :   -0.182515
   5 C :   -0.143102
   6 C :   -0.186524
   7 C :   -0.294576
   8 O :    0.022629
   9 H :    0.173112
  10 H :    0.140173
  11 H :    0.125200
  12 H :    0.135563
  13 H :    0.143740
  14 H :    0.146086
  15 H :    0.139794
  16 H :    0.190323

  Mayer bond orders larger than 0.1
B(  0-O ,  1-C ) :   0.9442 B(  0-O ,  9-H ) :   0.8260 B(  1-C ,  2-C ) :   0.8730
B(  1-C , 10-H ) :   0.9328 B(  1-C , 11-H ) :   0.9340 B(  2-C ,  3-O ) :   0.9131
B(  2-C ,  4-C ) :   0.9679 B(  2-C ,  7-C ) :   0.8932 B(  3-O ,  4-C ) :   0.8900
B(  4-C ,  5-C ) :   0.8640 B(  4-C , 12-H ) :   0.9099 B(  5-C ,  6-C ) :   0.8862
B(  5-C ,  7-C ) :   0.8927 B(  5-C , 13-H ) :   0.8979 B(  6-C ,  7-C ) :   0.9381
B(  6-C , 14-H ) :   0.9258 B(  6-C , 15-H ) :   0.8858 B(  7-C ,  8-O ) :   0.9275
B(  8-O , 16-H ) :   0.8264

MP2 TOTAL ENERGY:     -458.137232138 Eh
FINAL SINGLE POINT ENERGY      -458.137232138277

DIPOLE MOMENT
-------------
                                X             Y             Z
Electronic contribution:      0.27264      -0.07490      -0.77423
Nuclear contribution   :     -0.76730      -0.11943       1.47107
                        -----------------------------------------
Total Dipole Moment    :     -0.49466      -0.19434       0.69684
                        -----------------------------------------
Magnitude (a.u.)       :      0.87638
Magnitude (Debye)      :      2.22758

                             ****ORCA TERMINATED NORMALLY****
TOTAL RUN TIME: 0 days 0 hours 16 minutes 10 seconds 293 msec
