                         Program Version 3.0.3 - RELEASE   -
|  1> ! RI-MP2 RIJK def2-TZVP def2-TZVP/C def2-TZVP/JK TIGHTSCF
|  2> % maxcore 2000
|  3> % mp2 density relaxed end
|  4> *xyz 0 1
|  5>  O       -0.7037361252     1.3606433818     0.2279426181
|  6>  C       -0.2190643592     0.0903348420     0.1397359571
|  7>  C        0.2208478550    -0.4817761209    -1.0377822446
|  8>  C        0.2651553212     0.0876790980    -2.4257730297
|  9>  C        1.1415231617    -0.6784327934    -3.3115822969
| 10>  N        1.8242383803    -1.3218657818    -3.9858926013
| 11>  N        0.6063727612    -1.7445388065    -0.7024114047
| 12>  N        0.4587724557    -2.0207114773     0.5985307105
| 13>  C       -0.0524869752    -0.9064914760     1.1238985407
| 14>  H       -0.8918833609     1.5618818239     1.1493195937
| 15>  H       -0.7355342912     0.1181985854    -2.8775852000
| 16>  H        0.6130439347     1.1262919915    -2.3865898008
| 17>  H        1.0197892947    -2.4308331866    -1.3135281136
| 18>  H       -0.2790585028    -0.8568503502     2.1792799614
| 19> *
| 20>
| 21>                          ****END OF INPUT****

CARTESIAN COORDINATES (ANGSTROEM)
---------------------------------
  O     -0.703736    1.360643    0.227943
  C     -0.219064    0.090335    0.139736
  C      0.220848   -0.481776   -1.037782
  C      0.265155    0.087679   -2.425773
  C      1.141523   -0.678433   -3.311582
  N      1.824238   -1.321866   -3.985893
  N      0.606373   -1.744539   -0.702411
  N      0.458772   -2.020711    0.598531
  C     -0.052487   -0.906491    1.123899
  H     -0.891883    1.561882    1.149320
  H     -0.735534    0.118199   -2.877585
  H      0.613044    1.126292   -2.386590
  H      1.019789   -2.430833   -1.313528
  H     -0.279059   -0.856850    2.179280

 Total Charge           Charge          ....    0
 Multiplicity           Mult            ....    1
 Number of Electrons    NEL             ....   64
 Basis Dimension        Dim             ....  309

ORBITAL ENERGIES
----------------

  NO   OCC          E(Eh)            E(eV)
   0   2.0000     -20.605301      -560.6987
   1   2.0000     -15.651399      -425.8962
   2   2.0000     -15.604133      -424.6100
   3   2.0000     -15.587856      -424.1671
   4   2.0000     -11.310488      -307.7740
   5   2.0000     -11.299755      -307.4820
   6   2.0000     -11.295178      -307.3574
   7   2.0000     -11.292576      -307.2866
   8   2.0000     -11.266019      -306.5640
   9   2.0000      -1.422660       -38.7125
  10   2.0000      -1.387023       -37.7428
  11   2.0000      -1.238126       -33.6911
  12   2.0000      -1.133668       -30.8487
  13   2.0000      -1.082837       -29.4655
  14   2.0000      -1.019848       -27.7515
  15   2.0000      -0.849721       -23.1221
  16   2.0000      -0.825285       -22.4572
  17   2.0000      -0.767515       -20.8851
  18   2.0000      -0.721685       -19.6380
  19   2.0000      -0.675122       -18.3710
  20   2.0000      -0.659242       -17.9389
  21   2.0000      -0.643629       -17.5140
  22   2.0000      -0.621924       -16.9234
  23   2.0000      -0.612861       -16.6768
  24   2.0000      -0.580906       -15.8073
  25   2.0000      -0.575506       -15.6603
  26   2.0000      -0.565112       -15.3775
  27   2.0000      -0.481641       -13.1061
  28   2.0000      -0.478615       -13.0238
  29   2.0000      -0.469997       -12.7893
  30   2.0000      -0.374402       -10.1880
  31   2.0000      -0.335036        -9.1168
  32   0.0000       0.114199         3.1075
  33   0.0000       0.128550         3.4980
  34   0.0000       0.139117         3.7856
  35   0.0000       0.158310         4.3078
  36   0.0000       0.162488         4.4215

MULLIKEN ATOMIC CHARGES
-----------------------
   0 O :   -0.446192
   1 C :    0.139480
   2 C :    0.015317
   3 C :   -0.112513
   4 C :   -0.187485
   5 N :   -0.054916
   6 N :   -0.096329
   7 N :   -0.229797
   8 C :   -0.139473
   9 H :    0.342150
  10 H :    0.172177
  11 H :    0.185215
  12 H :    0.273984
  13 H :    0.138382
Sum of atomic charges:   -0.0000000

LOEWDIN ATOMIC CHARGES
----------------------
   0 O :    0.059923
   1 C :   -0.305776
   2 C :   -0.221424
   3 C :   -0.202569
   4 C :   -0.187290
   5 N :    0.063695
   6 N :    0.154246
   7 N :    0.024883
   8 C :   -0.273026
   9 H :    0.197282
  10 H :    0.176509
  11 H :    0.180835
  12 H :    0.198110
  13 H :    0.134602

  Mayer bond orders larger than 0.1
B(  0-O ,  1-C ) :   1.1290 B(  0-O ,  9-H ) :   0.8301 B(  1-C ,  2-C ) :   1.3840
B(  1-C ,  8-C ) :   1.2716 B(  2-C ,  3-C ) :   0.9040 B(  2-C ,  6-N ) :   1.1694
B(  2-C ,  7-N ) :   0.1305 B(  3-C ,  4-C ) :   0.9266 B(  3-C , 10-H ) :   0.8936
B(  3-C , 11-H ) :   0.9117 B(  4-C ,  5-N ) :   2.8467 B(  6-N ,  7-N ) :   1.0805
B(  6-N , 12-H ) :   0.8588 B(  7-N ,  8-C ) :   1.4838 B(  8-C , 13-H ) :   0.9385

MP2 TOTAL ENERGY:     -432.173041209 Eh
FINAL SINGLE POINT ENERGY      -432.173041208636

DIPOLE MOMENT
-------------
                                X             Y             Z
Electronic contribution:      1.14468      -1.31095      -1.01743
Nuclear contribution   :     -1.98580       2.32736       1.65471
                        -----------------------------------------
Total Dipole Moment    :     -0.84113       1.01641       0.63728
                        -----------------------------------------
Magnitude (a.u.)       :      1.46517
Magnitude (Debye)      :      3.72416

                             ****ORCA TERMINATED NORMALLY****
TOTAL RUN TIME: 0 days 0 hours 14 minutes 20 seconds 666 msec
