                         Program Version 3.0.3 - RELEASE   -
|  1> ! RI-MP2 RIJK def2-TZVP def2-TZVP/C def2-TZVP/JK TIGHTSCF
|  2> % maxcore 2000
|  3> % mp2 density relaxed end
|  4> *xyz 0 1
|  5>  N        0.6961154439     0.0759387170     1.2223080719
|  6>  C        0.1264967519    -0.0343729666    -0.0169317636
|  7>  O        0.6125809301     0.4979930104    -0.9982757791
|  8>  C       -1.1598783198    -0.8489530518    -0.0254227166
|  9>  C       -1.9216443173    -0.9634161215    -1.3926903179
| 10>  C       -0.8691481090    -2.0601067359    -1.7808867045
| 11>  C       -1.0247622052    -2.4120948200    -0.2625259615
| 12>  C       -2.5103503362    -2.8001012522    -0.2193190188
| 13>  C       -3.0956911337    -1.8537289134    -0.9597676061
| 14>  H        1.5903004423     0.5334027008     1.2940857340
| 15>  H        0.3506826982    -0.4343347293     2.0160936667
| 16>  H       -1.7762174974    -0.5798922201     0.8379364845
| 17>  H       -2.1057353167    -0.0887031365    -2.0127946477
| 18>  H       -1.1886652768    -2.8222565470    -2.4945176044
| 19>  H        0.1018327375    -1.6401844432    -2.0452007598
| 20>  H       -0.3022072182    -3.0201216095     0.2823621069
| 21>  H       -2.9355604769    -3.6477143681     0.2992148910
| 22>  H       -4.1361715065    -1.7114393633    -1.2145534750
| 23> *
| 24>
| 25>                          ****END OF INPUT****

CARTESIAN COORDINATES (ANGSTROEM)
---------------------------------
  N      0.696115    0.075939    1.222308
  C      0.126497   -0.034373   -0.016932
  O      0.612581    0.497993   -0.998276
  C     -1.159878   -0.848953   -0.025423
  C     -1.921644   -0.963416   -1.392690
  C     -0.869148   -2.060107   -1.780887
  C     -1.024762   -2.412095   -0.262526
  C     -2.510350   -2.800101   -0.219319
  C     -3.095691   -1.853729   -0.959768
  H      1.590300    0.533403    1.294086
  H      0.350683   -0.434335    2.016094
  H     -1.776217   -0.579892    0.837936
  H     -2.105735   -0.088703   -2.012795
  H     -1.188665   -2.822257   -2.494518
  H      0.101833   -1.640184   -2.045201
  H     -0.302207   -3.020122    0.282362
  H     -2.935560   -3.647714    0.299215
  H     -4.136172   -1.711439   -1.214553

 Total Charge           Charge          ....    0
 Multiplicity           Mult            ....    1
 Number of Electrons    NEL             ....   66
 Basis Dimension        Dim             ....  333

ORBITAL ENERGIES
----------------

  NO   OCC          E(Eh)            E(eV)
   0   2.0000     -20.515529      -558.2559
   1   2.0000     -15.581234      -423.9869
   2   2.0000     -11.348569      -308.8103
   3   2.0000     -11.251848      -306.1783
   4   2.0000     -11.248118      -306.0768
   5   2.0000     -11.242446      -305.9225
   6   2.0000     -11.230035      -305.5848
   7   2.0000     -11.228326      -305.5383
   8   2.0000     -11.224337      -305.4297
   9   2.0000      -1.379494       -37.5379
  10   2.0000      -1.210936       -32.9512
  11   2.0000      -1.197497       -32.5856
  12   2.0000      -1.000737       -27.2314
  13   2.0000      -0.932389       -25.3716
  14   2.0000      -0.920575       -25.0501
  15   2.0000      -0.814781       -22.1713
  16   2.0000      -0.755208       -20.5503
  17   2.0000      -0.724916       -19.7260
  18   2.0000      -0.709602       -19.3093
  19   2.0000      -0.692938       -18.8558
  20   2.0000      -0.666066       -18.1246
  21   2.0000      -0.630720       -17.1628
  22   2.0000      -0.585071       -15.9206
  23   2.0000      -0.572900       -15.5894
  24   2.0000      -0.558795       -15.2056
  25   2.0000      -0.504144       -13.7184
  26   2.0000      -0.495681       -13.4882
  27   2.0000      -0.476194       -12.9579
  28   2.0000      -0.468088       -12.7373
  29   2.0000      -0.436947       -11.8899
  30   2.0000      -0.419004       -11.4017
  31   2.0000      -0.413662       -11.2563
  32   2.0000      -0.337278        -9.1778
  33   0.0000       0.124701         3.3933
  34   0.0000       0.135321         3.6823
  35   0.0000       0.167031         4.5452
  36   0.0000       0.167160         4.5487
  37   0.0000       0.173868         4.7312

MULLIKEN ATOMIC CHARGES
-----------------------
   0 N :   -0.481628
   1 C :    0.255513
   2 O :   -0.347839
   3 C :   -0.134944
   4 C :   -0.025940
   5 C :   -0.226960
   6 C :   -0.060750
   7 C :   -0.217932
   8 C :   -0.212738
   9 H :    0.257313
  10 H :    0.258844
  11 H :    0.131150
  12 H :    0.143143
  13 H :    0.113918
  14 H :    0.148234
  15 H :    0.130717
  16 H :    0.134856
  17 H :    0.135041
Sum of atomic charges:    0.0000000

LOEWDIN ATOMIC CHARGES
----------------------
   0 N :   -0.020482
   1 C :   -0.457619
   2 O :    0.086120
   3 C :   -0.146922
   4 C :   -0.156709
   5 C :   -0.173078
   6 C :   -0.164606
   7 C :   -0.137361
   8 C :   -0.130732
   9 H :    0.172299
  10 H :    0.170545
  11 H :    0.152595
  12 H :    0.139619
  13 H :    0.127173
  14 H :    0.140175
  15 H :    0.132066
  16 H :    0.132928
  17 H :    0.133989

  Mayer bond orders larger than 0.1
B(  0-N ,  1-C ) :   1.1649 B(  0-N ,  9-H ) :   0.8585 B(  0-N , 10-H ) :   0.8716
B(  1-C ,  2-O ) :   1.9878 B(  1-C ,  3-C ) :   0.8973 B(  3-C ,  4-C ) :   0.9075
B(  3-C ,  6-C ) :   0.8707 B(  3-C , 11-H ) :   0.8941 B(  4-C ,  5-C ) :   0.9175
B(  4-C ,  8-C ) :   0.9176 B(  4-C , 12-H ) :   0.9060 B(  5-C ,  6-C ) :   0.9374
B(  5-C , 13-H ) :   0.9219 B(  5-C , 14-H ) :   0.9178 B(  6-C ,  7-C ) :   0.9145
B(  6-C , 15-H ) :   0.9065 B(  7-C ,  8-C ) :   1.7603 B(  7-C , 16-H ) :   0.9321
B(  8-C , 17-H ) :   0.9345

MP2 TOTAL ENERGY:     -401.255663046 Eh
FINAL SINGLE POINT ENERGY      -401.255663045922

DIPOLE MOMENT
-------------
                                X             Y             Z
Electronic contribution:      1.58291       2.65582       0.04700
Nuclear contribution   :     -1.73867      -3.20832       1.11842
                        -----------------------------------------
Total Dipole Moment    :     -0.15576      -0.55250       1.16542
                        -----------------------------------------
Magnitude (a.u.)       :      1.29912
Magnitude (Debye)      :      3.30210

                             ****ORCA TERMINATED NORMALLY****
TOTAL RUN TIME: 0 days 0 hours 19 minutes 8 seconds 602 msec
