                         Program Version 3.0.3 - RELEASE   -
|  1> ! RI-MP2 RIJK def2-TZVP def2-TZVP/C def2-TZVP/JK TIGHTSCF
|  2> % maxcore 2000
|  3> % mp2 density relaxed end
|  4> *xyz 0 1
|  5>  N        0.6463130437     0.4392493512    -1.0560810842
|  6>  C        0.1498158535    -0.1090336660     0.0671353287
|  7>  O        0.7624043121    -0.2307004380     1.1189254186
|  8>  C       -1.2799224544    -0.6271825604    -0.0223719315
|  9>  C       -1.4392575964    -2.0421627866     0.4657296099
| 10>  N       -1.9012107605    -0.9267553153     1.2769806832
| 11>  C       -2.2140869635    -0.1226807953    -1.1003217808
| 12>  N       -3.5155030708    -0.1255799289    -0.7394764465
| 13>  O       -1.8195539392     0.2256593104    -2.2080813707
| 14>  H        1.5856143488     0.8003077636    -1.0395092917
| 15>  H        0.0473768182     0.5117551405    -1.8718647816
| 16>  H       -2.2175747221    -2.6598472752     0.0275382870
| 17>  H       -0.5284835151    -2.5535035089     0.7622179185
| 18>  H       -1.1907206363    -0.7159776912     1.9807573138
| 19>  H       -3.7497023793    -0.2975805793     0.2265498747
| 20>  H       -4.1979030487     0.2289242292    -1.3883691875
| 21> *
| 22>
| 23>                          ****END OF INPUT****

CARTESIAN COORDINATES (ANGSTROEM)
---------------------------------
  N      0.646313    0.439249   -1.056081
  C      0.149816   -0.109034    0.067135
  O      0.762404   -0.230700    1.118925
  C     -1.279922   -0.627183   -0.022372
  C     -1.439258   -2.042163    0.465730
  N     -1.901211   -0.926755    1.276981
  C     -2.214087   -0.122681   -1.100322
  N     -3.515503   -0.125580   -0.739476
  O     -1.819554    0.225659   -2.208081
  H      1.585614    0.800308   -1.039509
  H      0.047377    0.511755   -1.871865
  H     -2.217575   -2.659847    0.027538
  H     -0.528484   -2.553504    0.762218
  H     -1.190721   -0.715978    1.980757
  H     -3.749702   -0.297581    0.226550
  H     -4.197903    0.228924   -1.388369

 Total Charge           Charge          ....    0
 Multiplicity           Mult            ....    1
 Number of Electrons    NEL             ....   68
 Basis Dimension        Dim             ....  321

ORBITAL ENERGIES
----------------

  NO   OCC          E(Eh)            E(eV)
   0   2.0000     -20.537621      -558.8571
   1   2.0000     -20.525592      -558.5298
   2   2.0000     -15.593482      -424.3202
   3   2.0000     -15.588236      -424.1775
   4   2.0000     -15.580403      -423.9643
   5   2.0000     -11.375119      -309.5327
   6   2.0000     -11.365210      -309.2631
   7   2.0000     -11.300361      -307.4985
   8   2.0000     -11.291427      -307.2554
   9   2.0000      -1.405511       -38.2459
  10   2.0000      -1.390503       -37.8375
  11   2.0000      -1.298370       -35.3304
  12   2.0000      -1.224972       -33.3332
  13   2.0000      -1.216059       -33.0906
  14   2.0000      -0.972505       -26.4632
  15   2.0000      -0.901576       -24.5331
  16   2.0000      -0.854955       -23.2645
  17   2.0000      -0.785525       -21.3752
  18   2.0000      -0.756934       -20.5972
  19   2.0000      -0.733066       -19.9477
  20   2.0000      -0.698210       -18.9993
  21   2.0000      -0.690602       -18.7922
  22   2.0000      -0.638294       -17.3689
  23   2.0000      -0.626809       -17.0563
  24   2.0000      -0.606411       -16.5013
  25   2.0000      -0.592618       -16.1260
  26   2.0000      -0.570340       -15.5197
  27   2.0000      -0.526919       -14.3382
  28   2.0000      -0.501995       -13.6600
  29   2.0000      -0.458047       -12.4641
  30   2.0000      -0.439159       -11.9501
  31   2.0000      -0.433729       -11.8024
  32   2.0000      -0.419373       -11.4117
  33   2.0000      -0.415642       -11.3102
  34   0.0000       0.138097         3.7578
  35   0.0000       0.141922         3.8619
  36   0.0000       0.153657         4.1812
  37   0.0000       0.172960         4.7065
  38   0.0000       0.176881         4.8132

MULLIKEN ATOMIC CHARGES
-----------------------
   0 N :   -0.444578
   1 C :    0.242439
   2 O :   -0.396575
   3 C :    0.117941
   4 C :   -0.157579
   5 N :   -0.421140
   6 C :    0.287220
   7 N :   -0.467326
   8 O :   -0.413924
   9 H :    0.255419
  10 H :    0.298496
  11 H :    0.140799
  12 H :    0.157261
  13 H :    0.251163
  14 H :    0.292197
  15 H :    0.258187
Sum of atomic charges:   -0.0000000

LOEWDIN ATOMIC CHARGES
----------------------
   0 N :    0.019178
   1 C :   -0.455412
   2 O :    0.062049
   3 C :   -0.233043
   4 C :   -0.215163
   5 N :    0.020064
   6 C :   -0.439466
   7 N :    0.015607
   8 O :    0.056890
   9 H :    0.175750
  10 H :    0.181728
  11 H :    0.131371
  12 H :    0.136252
  13 H :    0.183909
  14 H :    0.183717
  15 H :    0.176569

  Mayer bond orders larger than 0.1
B(  0-N ,  1-C ) :   1.2736 B(  0-N ,  9-H ) :   0.8553 B(  0-N , 10-H ) :   0.8133
B(  1-C ,  2-O ) :   1.8657 B(  1-C ,  3-C ) :   0.9051 B(  3-C ,  4-C ) :   0.8733
B(  3-C ,  5-N ) :   0.8740 B(  3-C ,  6-C ) :   0.8711 B(  4-C ,  5-N ) :   0.9020
B(  4-C , 11-H ) :   0.9179 B(  4-C , 12-H ) :   0.9135 B(  5-N , 13-H ) :   0.8485
B(  6-C ,  7-N ) :   1.2531 B(  6-C ,  8-O ) :   1.8123 B(  7-N , 14-H ) :   0.8380
B(  7-N , 15-H ) :   0.8600

MP2 TOTAL ENERGY:     -470.516146605 Eh
FINAL SINGLE POINT ENERGY      -470.516146605357

DIPOLE MOMENT
-------------
                                X             Y             Z
Electronic contribution:      1.20575       1.75957      -0.67235
Nuclear contribution   :     -1.89884      -1.92907       0.45355
                        -----------------------------------------
Total Dipole Moment    :     -0.69309      -0.16950      -0.21880
                        -----------------------------------------
Magnitude (a.u.)       :      0.74631
Magnitude (Debye)      :      1.89696

                             ****ORCA TERMINATED NORMALLY****
TOTAL RUN TIME: 0 days 0 hours 16 minutes 21 seconds 808 msec
