                         Program Version 3.0.3 - RELEASE   -
|  1> ! RI-MP2 RIJK def2-TZVP def2-TZVP/C def2-TZVP/JK TIGHTSCF
|  2> % maxcore 2000
|  3> % mp2 density relaxed end
|  4> *xyz 0 1
|  5>  C       -0.1139408806     1.4985015642    -0.0055611242
|  6>  C       -0.0000839701    -0.0090488039     0.0397204840
|  7>  C        1.3373702679    -0.6857447016    -0.1823845935
|  8>  C        0.6984981658    -0.6917737124     1.1776086819
|  9>  C        1.3001713136    -0.1019882340     2.4827487312
| 10>  C        0.8208029605    -1.3824981363     3.1933141872
| 11>  O       -0.5964054273    -1.4708957196     3.0150996579
| 12>  C        0.2541274973    -1.9214841495     1.9466461373
| 13>  H        0.7784298571     1.9755544867     0.4130819007
| 14>  H       -0.2282513646     1.8561921428    -1.0347882430
| 15>  H       -0.9779875287     1.8486324805     0.5695628687
| 16>  H       -0.8637884044    -0.5372464694    -0.3581378714
| 17>  H        1.3650506742    -1.6145278658    -0.7441924880
| 18>  H        2.2080110665    -0.0527726516    -0.3292163979
| 19>  H        2.3891593907    -0.0105867427     2.4448479788
| 20>  H        0.8628410255     0.8247732594     2.8631423971
| 21>  H        1.2487693507    -1.8849423614     4.0527156540
| 22>  H        0.1226647259    -2.9406954854     1.6004736092
| 23> *
| 24>
| 25>                          ****END OF INPUT****

CARTESIAN COORDINATES (ANGSTROEM)
---------------------------------
  C     -0.113941    1.498502   -0.005561
  C     -0.000084   -0.009049    0.039720
  C      1.337370   -0.685745   -0.182385
  C      0.698498   -0.691774    1.177609
  C      1.300171   -0.101988    2.482749
  C      0.820803   -1.382498    3.193314
  O     -0.596405   -1.470896    3.015100
  C      0.254127   -1.921484    1.946646
  H      0.778430    1.975554    0.413082
  H     -0.228251    1.856192   -1.034788
  H     -0.977988    1.848632    0.569563
  H     -0.863788   -0.537246   -0.358138
  H      1.365051   -1.614528   -0.744192
  H      2.208011   -0.052773   -0.329216
  H      2.389159   -0.010587    2.444848
  H      0.862841    0.824773    2.863142
  H      1.248769   -1.884942    4.052716
  H      0.122665   -2.940695    1.600474

 Total Charge           Charge          ....    0
 Multiplicity           Mult            ....    1
 Number of Electrons    NEL             ....   60
 Basis Dimension        Dim             ....  308

ORBITAL ENERGIES
----------------

  NO   OCC          E(Eh)            E(eV)
   0   2.0000     -20.562685      -559.5391
   1   2.0000     -11.284001      -307.0533
   2   2.0000     -11.282835      -307.0215
   3   2.0000     -11.242167      -305.9149
   4   2.0000     -11.233912      -305.6903
   5   2.0000     -11.231679      -305.6295
   6   2.0000     -11.226897      -305.4994
   7   2.0000     -11.217893      -305.2544
   8   2.0000      -1.412566       -38.4379
   9   2.0000      -1.158936       -31.5363
  10   2.0000      -1.041133       -28.3307
  11   2.0000      -0.958718       -26.0880
  12   2.0000      -0.890446       -24.2303
  13   2.0000      -0.836213       -22.7545
  14   2.0000      -0.792975       -21.5780
  15   2.0000      -0.731816       -19.9137
  16   2.0000      -0.698442       -19.0056
  17   2.0000      -0.656696       -17.8696
  18   2.0000      -0.608891       -16.5688
  19   2.0000      -0.593702       -16.1555
  20   2.0000      -0.575499       -15.6601
  21   2.0000      -0.555352       -15.1119
  22   2.0000      -0.537087       -14.6149
  23   2.0000      -0.530847       -14.4451
  24   2.0000      -0.505129       -13.7452
  25   2.0000      -0.489090       -13.3088
  26   2.0000      -0.445724       -12.1288
  27   2.0000      -0.417914       -11.3720
  28   2.0000      -0.406094       -11.0504
  29   2.0000      -0.377256       -10.2657
  30   0.0000       0.141066         3.8386
  31   0.0000       0.160792         4.3754
  32   0.0000       0.164270         4.4700
  33   0.0000       0.177446         4.8285
  34   0.0000       0.194240         5.2855

MULLIKEN ATOMIC CHARGES
-----------------------
   0 C :   -0.424111
   1 C :   -0.055916
   2 C :   -0.336505
   3 C :    0.066973
   4 C :   -0.188458
   5 C :   -0.016405
   6 O :   -0.320664
   7 C :   -0.021257
   8 H :    0.127192
   9 H :    0.134851
  10 H :    0.139303
  11 H :    0.121923
  12 H :    0.131136
  13 H :    0.128299
  14 H :    0.119107
  15 H :    0.119157
  16 H :    0.134992
  17 H :    0.140382
Sum of atomic charges:   -0.0000000

LOEWDIN ATOMIC CHARGES
----------------------
   0 C :   -0.291061
   1 C :   -0.212278
   2 C :   -0.187080
   3 C :   -0.195158
   4 C :   -0.175186
   5 C :   -0.237953
   6 O :    0.170211
   7 C :   -0.206090
   8 H :    0.126477
   9 H :    0.125246
  10 H :    0.127623
  11 H :    0.150823
  12 H :    0.134205
  13 H :    0.135809
  14 H :    0.138518
  15 H :    0.135125
  16 H :    0.128183
  17 H :    0.132588

  Mayer bond orders larger than 0.1
B(  0-C ,  1-C ) :   0.9013 B(  0-C ,  8-H ) :   0.9350 B(  0-C ,  9-H ) :   0.9387
B(  0-C , 10-H ) :   0.9408 B(  1-C ,  2-C ) :   0.9094 B(  1-C ,  3-C ) :   0.8312
B(  1-C , 11-H ) :   0.9227 B(  2-C ,  3-C ) :   0.8519 B(  2-C , 12-H ) :   0.9232
B(  2-C , 13-H ) :   0.9168 B(  3-C ,  4-C ) :   0.9351 B(  3-C ,  7-C ) :   0.8742
B(  4-C ,  5-C ) :   0.9269 B(  4-C , 14-H ) :   0.9072 B(  4-C , 15-H ) :   0.9058
B(  5-C ,  6-O ) :   0.9180 B(  5-C ,  7-C ) :   0.9536 B(  5-C , 16-H ) :   0.9283
B(  6-O ,  7-C ) :   0.9386 B(  7-C , 17-H ) :   0.9139

MP2 TOTAL ENERGY:     -347.136176186 Eh
FINAL SINGLE POINT ENERGY      -347.136176186093

DIPOLE MOMENT
-------------
                                X             Y             Z
Electronic contribution:     -1.63514      -4.91052       4.52316
Nuclear contribution   :      2.28692       4.90416      -4.85826
                        -----------------------------------------
Total Dipole Moment    :      0.65178      -0.00636      -0.33511
                        -----------------------------------------
Magnitude (a.u.)       :      0.73291
Magnitude (Debye)      :      1.86291

                             ****ORCA TERMINATED NORMALLY****
TOTAL RUN TIME: 0 days 0 hours 12 minutes 31 seconds 996 msec
