                         Program Version 3.0.3 - RELEASE   -
|  1> ! RI-MP2 RIJK def2-TZVP def2-TZVP/C def2-TZVP/JK TIGHTSCF
|  2> % maxcore 2000
|  3> % mp2 density relaxed end
|  4> *xyz 0 1
|  5>  O       -0.0713701980     1.4342556026    -0.2565200818
|  6>  C        0.0187447452     0.0508906527    -0.0173714721
|  7>  C       -1.3587572119    -0.6205964203    -0.0747020949
|  8>  C       -1.3537539737    -2.1349407220     0.2579429956
|  9>  O       -2.2550652514    -2.2539483437     1.3885798572
| 10>  C       -2.6403609781    -0.9972222939     1.6772282227
| 11>  C       -3.5489326477    -0.7913787080     2.8453445289
| 12>  O       -3.9585614008    -1.6795291396     3.5440528132
| 13>  N       -2.2307713876    -0.0279078906     0.9576381611
| 14>  H       -0.7537585925     1.7696884868     0.3379609904
| 15>  H        0.6687638191    -0.3687765659    -0.7933466627
| 16>  H        0.4788255424    -0.1722332143     0.9605600094
| 17>  H       -1.7969350211    -0.4109460009    -1.0569218621
| 18>  H       -1.7337368808    -2.7666550112    -0.5471909771
| 19>  H       -0.3707487069    -2.5036369709     0.5698251779
| 20>  H       -3.8039703163     0.2752959391     2.9947496844
| 21> *
| 22>
| 23>                          ****END OF INPUT****

CARTESIAN COORDINATES (ANGSTROEM)
---------------------------------
  O     -0.071370    1.434256   -0.256520
  C      0.018745    0.050891   -0.017371
  C     -1.358757   -0.620596   -0.074702
  C     -1.353754   -2.134941    0.257943
  O     -2.255065   -2.253948    1.388580
  C     -2.640361   -0.997222    1.677228
  C     -3.548933   -0.791379    2.845345
  O     -3.958561   -1.679529    3.544053
  N     -2.230771   -0.027908    0.957638
  H     -0.753759    1.769688    0.337961
  H      0.668764   -0.368777   -0.793347
  H      0.478826   -0.172233    0.960560
  H     -1.796935   -0.410946   -1.056922
  H     -1.733737   -2.766655   -0.547191
  H     -0.370749   -2.503637    0.569825
  H     -3.803970    0.275296    2.994750

 Total Charge           Charge          ....    0
 Multiplicity           Mult            ....    1
 Number of Electrons    NEL             ....   68
 Basis Dimension        Dim             ....  321

ORBITAL ENERGIES
----------------

  NO   OCC          E(Eh)            E(eV)
   0   2.0000     -20.617330      -561.0261
   1   2.0000     -20.589168      -560.2597
   2   2.0000     -20.563678      -559.5661
   3   2.0000     -15.585641      -424.1069
   4   2.0000     -11.362163      -309.1802
   5   2.0000     -11.359450      -309.1064
   6   2.0000     -11.313834      -307.8651
   7   2.0000     -11.292793      -307.2925
   8   2.0000     -11.287273      -307.1423
   9   2.0000      -1.467160       -39.9235
  10   2.0000      -1.421014       -38.6678
  11   2.0000      -1.373705       -37.3804
  12   2.0000      -1.245563       -33.8935
  13   2.0000      -1.077605       -29.3231
  14   2.0000      -0.954226       -25.9658
  15   2.0000      -0.922145       -25.0928
  16   2.0000      -0.842386       -22.9225
  17   2.0000      -0.787167       -21.4199
  18   2.0000      -0.730295       -19.8723
  19   2.0000      -0.728663       -19.8279
  20   2.0000      -0.682074       -18.5602
  21   2.0000      -0.675682       -18.3863
  22   2.0000      -0.638822       -17.3832
  23   2.0000      -0.631332       -17.1794
  24   2.0000      -0.612077       -16.6554
  25   2.0000      -0.585931       -15.9440
  26   2.0000      -0.573174       -15.5969
  27   2.0000      -0.558123       -15.1873
  28   2.0000      -0.528927       -14.3928
  29   2.0000      -0.504817       -13.7368
  30   2.0000      -0.479846       -13.0573
  31   2.0000      -0.461145       -12.5484
  32   2.0000      -0.455346       -12.3906
  33   2.0000      -0.403786       -10.9876
  34   0.0000       0.062626         1.7041
  35   0.0000       0.132624         3.6089
  36   0.0000       0.154036         4.1915
  37   0.0000       0.161940         4.4066
  38   0.0000       0.169767         4.6196

MULLIKEN ATOMIC CHARGES
-----------------------
   0 O :   -0.471960
   1 C :   -0.032597
   2 C :    0.031387
   3 C :   -0.082661
   4 O :   -0.241119
   5 C :    0.223571
   6 C :    0.069732
   7 O :   -0.229448
   8 N :   -0.301740
   9 H :    0.331410
  10 H :    0.117342
  11 H :    0.096605
  12 H :    0.119427
  13 H :    0.131523
  14 H :    0.123949
  15 H :    0.114579
Sum of atomic charges:   -0.0000000

LOEWDIN ATOMIC CHARGES
----------------------
   0 O :   -0.034361
   1 C :   -0.336978
   2 C :   -0.286139
   3 C :   -0.222591
   4 O :    0.259894
   5 C :   -0.386408
   6 C :   -0.253342
   7 O :    0.168667
   8 N :    0.117944
   9 H :    0.180232
  10 H :    0.131980
  11 H :    0.119989
  12 H :    0.152268
  13 H :    0.130205
  14 H :    0.131914
  15 H :    0.126727

  Mayer bond orders larger than 0.1
B(  0-O ,  1-C ) :   0.9448 B(  0-O ,  9-H ) :   0.8288 B(  1-C ,  2-C ) :   0.9354
B(  1-C , 10-H ) :   0.9318 B(  1-C , 11-H ) :   0.9019 B(  2-C ,  3-C ) :   0.9104
B(  2-C ,  8-N ) :   0.8501 B(  2-C , 12-H ) :   0.9178 B(  3-C ,  4-O ) :   0.8599
B(  3-C , 13-H ) :   0.9223 B(  3-C , 14-H ) :   0.9208 B(  4-O ,  5-C ) :   1.1221
B(  5-C ,  6-C ) :   0.8132 B(  5-C ,  8-N ) :   1.7705 B(  6-C ,  7-O ) :   2.0181
B(  6-C , 15-H ) :   0.9622

MP2 TOTAL ENERGY:     -474.283764193 Eh
FINAL SINGLE POINT ENERGY      -474.283764192691

DIPOLE MOMENT
-------------
                                X             Y             Z
Electronic contribution:     -5.26478      -1.30102       4.55966
Nuclear contribution   :      5.63573       1.09479      -5.14736
                        -----------------------------------------
Total Dipole Moment    :      0.37095      -0.20623      -0.58770
                        -----------------------------------------
Magnitude (a.u.)       :      0.72493
Magnitude (Debye)      :      1.84262

                             ****ORCA TERMINATED NORMALLY****
TOTAL RUN TIME: 0 days 0 hours 23 minutes 13 seconds 786 msec
