                         Program Version 3.0.3 - RELEASE   -
|  1> ! RI-MP2 RIJK def2-TZVP def2-TZVP/C def2-TZVP/JK TIGHTSCF
|  2> % maxcore 2000
|  3> % mp2 density relaxed end
|  4> *xyz 0 1
|  5>  C       -0.0959920298     1.5272350416     0.0933349556
|  6>  C        0.0208526542    -0.0072572794     0.0187849484
|  7>  C        0.8145262576    -0.5482492696     1.2241983598
|  8>  O       -1.2887840264    -0.5831445868     0.0209619493
|  9>  C        0.6740693181    -0.4295502780    -1.2754083186
| 10>  C        0.1518110244    -1.2461848653    -2.1919192440
| 11>  C        1.0538813864    -1.4264253713    -3.3882069038
| 12>  C        2.4012438435    -0.8393396577    -2.8983141841
| 13>  C        2.0315773477     0.0911271322    -1.7170617478
| 14>  H        0.8850664319     2.0106061268     0.0658749734
| 15>  H       -0.6937276178     1.8981113188    -0.7433731423
| 16>  H       -0.5862347170     1.8239911637     1.0281789648
| 17>  H        0.3332840739    -0.2456221444     2.1624074601
| 18>  H        0.8494342598    -1.6399358183     1.1867921006
| 19>  H        1.8388257723    -0.1649034168     1.2421831983
| 20>  H       -1.6979982866    -0.3656643532     0.8647400005
| 21>  H       -0.8275011263    -1.6997058691    -2.1128539678
| 22>  H        1.1428292207    -2.4718835212    -3.7054823312
| 23>  H        0.6604037005    -0.8778883678    -4.2568025768
| 24>  H        3.0371776619    -1.6517848938    -2.5319309349
| 25>  H        2.9573079678    -0.3240787499    -3.6858454010
| 26>  H        1.9543644096     1.1396020845    -2.0393305972
| 27>  H        2.7872450537     0.0733665051    -0.9232264314
| 28> *
| 29>
| 30>                          ****END OF INPUT****

CARTESIAN COORDINATES (ANGSTROEM)
---------------------------------
  C     -0.095992    1.527235    0.093335
  C      0.020853   -0.007257    0.018785
  C      0.814526   -0.548249    1.224198
  O     -1.288784   -0.583145    0.020962
  C      0.674069   -0.429550   -1.275408
  C      0.151811   -1.246185   -2.191919
  C      1.053881   -1.426425   -3.388207
  C      2.401244   -0.839340   -2.898314
  C      2.031577    0.091127   -1.717062
  H      0.885066    2.010606    0.065875
  H     -0.693728    1.898111   -0.743373
  H     -0.586235    1.823991    1.028179
  H      0.333284   -0.245622    2.162407
  H      0.849434   -1.639936    1.186792
  H      1.838826   -0.164903    1.242183
  H     -1.697998   -0.365664    0.864740
  H     -0.827501   -1.699706   -2.112854
  H      1.142829   -2.471884   -3.705482
  H      0.660404   -0.877888   -4.256803
  H      3.037178   -1.651785   -2.531931
  H      2.957308   -0.324079   -3.685845
  H      1.954364    1.139602   -2.039331
  H      2.787245    0.073367   -0.923226

 Total Charge           Charge          ....    0
 Multiplicity           Mult            ....    1
 Number of Electrons    NEL             ....   70
 Basis Dimension        Dim             ....  363

ORBITAL ENERGIES
----------------

  NO   OCC          E(Eh)            E(eV)
   0   2.0000     -20.548929      -559.1648
   1   2.0000     -11.289697      -307.2083
   2   2.0000     -11.220175      -305.3165
   3   2.0000     -11.217067      -305.2319
   4   2.0000     -11.216644      -305.2204
   5   2.0000     -11.215610      -305.1923
   6   2.0000     -11.215575      -305.1913
   7   2.0000     -11.214706      -305.1677
   8   2.0000     -11.205795      -304.9252
   9   2.0000      -1.358980       -36.9797
  10   2.0000      -1.128653       -30.7122
  11   2.0000      -1.047688       -28.5091
  12   2.0000      -0.957860       -26.0647
  13   2.0000      -0.944969       -25.7139
  14   2.0000      -0.939106       -25.5544
  15   2.0000      -0.820197       -22.3187
  16   2.0000      -0.777368       -21.1533
  17   2.0000      -0.699984       -19.0475
  18   2.0000      -0.667638       -18.1674
  19   2.0000      -0.653258       -17.7761
  20   2.0000      -0.629148       -17.1200
  21   2.0000      -0.605686       -16.4816
  22   2.0000      -0.582732       -15.8569
  23   2.0000      -0.567912       -15.4537
  24   2.0000      -0.556403       -15.1405
  25   2.0000      -0.535051       -14.5595
  26   2.0000      -0.524219       -14.2647
  27   2.0000      -0.509778       -13.8718
  28   2.0000      -0.488406       -13.2902
  29   2.0000      -0.478746       -13.0273
  30   2.0000      -0.476673       -12.9709
  31   2.0000      -0.471691       -12.8354
  32   2.0000      -0.455374       -12.3914
  33   2.0000      -0.438477       -11.9316
  34   2.0000      -0.327163        -8.9026
  35   0.0000       0.125188         3.4065
  36   0.0000       0.150618         4.0985
  37   0.0000       0.169341         4.6080
  38   0.0000       0.172706         4.6996
  39   0.0000       0.174478         4.7478

MULLIKEN ATOMIC CHARGES
-----------------------
   0 C :   -0.442221
   1 C :    0.214573
   2 C :   -0.434396
   3 O :   -0.461308
   4 C :    0.042488
   5 C :   -0.224398
   6 C :   -0.153030
   7 C :   -0.227214
   8 C :   -0.245479
   9 H :    0.130335
  10 H :    0.147601
  11 H :    0.121014
  12 H :    0.120775
  13 H :    0.148500
  14 H :    0.123229
  15 H :    0.308334
  16 H :    0.143095
  17 H :    0.115631
  18 H :    0.108982
  19 H :    0.106952
  20 H :    0.120120
  21 H :    0.117718
  22 H :    0.118698
Sum of atomic charges:   -0.0000000

LOEWDIN ATOMIC CHARGES
----------------------
   0 C :   -0.271687
   1 C :   -0.389540
   2 C :   -0.272498
   3 O :    0.012403
   4 C :   -0.136280
   5 C :   -0.127544
   6 C :   -0.244911
   7 C :   -0.238033
   8 C :   -0.215155
   9 H :    0.127085
  10 H :    0.130564
  11 H :    0.121274
  12 H :    0.120871
  13 H :    0.130527
  14 H :    0.125611
  15 H :    0.172819
  16 H :    0.143284
  17 H :    0.133883
  18 H :    0.137823
  19 H :    0.136582
  20 H :    0.129202
  21 H :    0.139651
  22 H :    0.134070

  Mayer bond orders larger than 0.1
B(  0-C ,  1-C ) :   0.9136 B(  0-C ,  9-H ) :   0.9265 B(  0-C , 10-H ) :   0.9437
B(  0-C , 11-H ) :   0.9253 B(  1-C ,  2-C ) :   0.9268 B(  1-C ,  3-O ) :   0.9669
B(  1-C ,  4-C ) :   0.8796 B(  2-C , 12-H ) :   0.9253 B(  2-C , 13-H ) :   0.9444
B(  2-C , 14-H ) :   0.9264 B(  3-O ,  4-C ) :  -0.1444 B(  3-O , 15-H ) :   0.8446
B(  4-C ,  5-C ) :   1.7501 B(  4-C ,  8-C ) :   0.8964 B(  5-C ,  6-C ) :   0.9293
B(  5-C , 16-H ) :   0.9204 B(  6-C ,  7-C ) :   0.9511 B(  6-C , 17-H ) :   0.9325
B(  6-C , 18-H ) :   0.9071 B(  7-C ,  8-C ) :   0.9544 B(  7-C , 19-H ) :   0.9290
B(  7-C , 20-H ) :   0.9407 B(  8-C , 21-H ) :   0.9111 B(  8-C , 22-H ) :   0.9276

MP2 TOTAL ENERGY:     -387.637971358 Eh
FINAL SINGLE POINT ENERGY      -387.637971358165

DIPOLE MOMENT
-------------
                                X             Y             Z
Electronic contribution:     -3.58624      -2.14610      -1.00945
Nuclear contribution   :      3.83533       2.48669       1.44389
                        -----------------------------------------
Total Dipole Moment    :      0.24909       0.34060       0.43444
                        -----------------------------------------
Magnitude (a.u.)       :      0.60563
Magnitude (Debye)      :      1.53939

                             ****ORCA TERMINATED NORMALLY****
TOTAL RUN TIME: 0 days 0 hours 21 minutes 29 seconds 182 msec
