                         Program Version 3.0.3 - RELEASE   -
|  1> ! RI-MP2 RIJK def2-TZVP def2-TZVP/C def2-TZVP/JK TIGHTSCF
|  2> % maxcore 2000
|  3> % mp2 density relaxed end
|  4> *xyz 0 1
|  5>  C       -0.0220323828     1.4928337837    -0.1095885059
|  6>  C        0.0867797045    -0.0293864431    -0.0662888525
|  7>  N        0.7446504422    -0.4857442977     1.1438531189
|  8>  C        2.2098030783    -0.2494233756     1.2712317582
|  9>  C        2.3393665009    -1.6820756664     1.7318916191
| 10>  C        0.9086537596    -1.9515516214     1.3244847129
| 11>  N        3.2920394209    -2.3074744173     2.2752212629
| 12>  O        2.9284556200    -3.6408283151     2.5429662928
| 13>  H        0.9682929412     1.9607617701    -0.1089892710
| 14>  H       -0.5409637913     1.8169036469    -1.0166643879
| 15>  H       -0.5709870410     1.8633022120     0.7607569944
| 16>  H       -0.9163117465    -0.4725841101    -0.0836788562
| 17>  H        0.6085622100    -0.3916195987    -0.9759216281
| 18>  H        2.7169584745    -0.0666124135     0.3089009824
| 19>  H        2.4939886437     0.5388901468     1.9755738736
| 20>  H        0.2500386379    -2.4046578549     2.0728322098
| 21>  H        0.8401704925    -2.5360237288     0.3920960646
| 22>  H        3.7225362354    -3.9867992070     2.9641757423
| 23> *
| 24>
| 25>                          ****END OF INPUT****

CARTESIAN COORDINATES (ANGSTROEM)
---------------------------------
  C     -0.022032    1.492834   -0.109589
  C      0.086780   -0.029386   -0.066289
  N      0.744650   -0.485744    1.143853
  C      2.209803   -0.249423    1.271232
  C      2.339367   -1.682076    1.731892
  C      0.908654   -1.951552    1.324485
  N      3.292039   -2.307474    2.275221
  O      2.928456   -3.640828    2.542966
  H      0.968293    1.960762   -0.108989
  H     -0.540964    1.816904   -1.016664
  H     -0.570987    1.863302    0.760757
  H     -0.916312   -0.472584   -0.083679
  H      0.608562   -0.391620   -0.975922
  H      2.716958   -0.066612    0.308901
  H      2.493989    0.538890    1.975574
  H      0.250039   -2.404658    2.072832
  H      0.840170   -2.536024    0.392096
  H      3.722536   -3.986799    2.964176

 Total Charge           Charge          ....    0
 Multiplicity           Mult            ....    1
 Number of Electrons    NEL             ....   62
 Basis Dimension        Dim             ....  308

ORBITAL ENERGIES
----------------

  NO   OCC          E(Eh)            E(eV)
   0   2.0000     -20.592115      -560.3399
   1   2.0000     -15.615940      -424.9313
   2   2.0000     -15.556484      -423.3135
   3   2.0000     -11.279688      -306.9359
   4   2.0000     -11.267020      -306.5912
   5   2.0000     -11.266602      -306.5798
   6   2.0000     -11.255847      -306.2872
   7   2.0000     -11.218349      -305.2668
   8   2.0000      -1.417578       -38.5742
   9   2.0000      -1.265671       -34.4406
  10   2.0000      -1.148103       -31.2415
  11   2.0000      -1.039492       -28.2860
  12   2.0000      -0.942667       -25.6513
  13   2.0000      -0.919043       -25.0084
  14   2.0000      -0.803361       -21.8606
  15   2.0000      -0.733316       -19.9545
  16   2.0000      -0.697792       -18.9879
  17   2.0000      -0.682129       -18.5617
  18   2.0000      -0.666020       -18.1233
  19   2.0000      -0.620655       -16.8889
  20   2.0000      -0.603449       -16.4207
  21   2.0000      -0.580883       -15.8066
  22   2.0000      -0.566574       -15.4173
  23   2.0000      -0.550043       -14.9674
  24   2.0000      -0.528241       -14.3742
  25   2.0000      -0.515389       -14.0244
  26   2.0000      -0.494056       -13.4439
  27   2.0000      -0.480094       -13.0640
  28   2.0000      -0.428884       -11.6705
  29   2.0000      -0.397478       -10.8159
  30   2.0000      -0.364042        -9.9061
  31   0.0000       0.133342         3.6284
  32   0.0000       0.146510         3.9867
  33   0.0000       0.149425         4.0661
  34   0.0000       0.166756         4.5377
  35   0.0000       0.171838         4.6760

MULLIKEN ATOMIC CHARGES
-----------------------
   0 C :   -0.370722
   1 C :   -0.153904
   2 N :   -0.133886
   3 C :   -0.157476
   4 C :   -0.004574
   5 C :   -0.154625
   6 N :   -0.078760
   7 O :   -0.362159
   8 H :    0.124030
   9 H :    0.129329
  10 H :    0.130539
  11 H :    0.119684
  12 H :    0.085652
  13 H :    0.111188
  14 H :    0.128864
  15 H :    0.132534
  16 H :    0.115822
  17 H :    0.338464
Sum of atomic charges:    0.0000000

LOEWDIN ATOMIC CHARGES
----------------------
   0 C :   -0.315579
   1 C :   -0.331521
   2 N :    0.090894
   3 C :   -0.209840
   4 C :   -0.281549
   5 C :   -0.219256
   6 N :    0.022842
   7 O :   -0.075363
   8 H :    0.120567
   9 H :    0.123113
  10 H :    0.124108
  11 H :    0.133756
  12 H :    0.116092
  13 H :    0.131665
  14 H :    0.131571
  15 H :    0.134134
  16 H :    0.134333
  17 H :    0.170033

  Mayer bond orders larger than 0.1
B(  0-C ,  1-C ) :   0.9354 B(  0-C ,  8-H ) :   0.9343 B(  0-C ,  9-H ) :   0.9362
B(  0-C , 10-H ) :   0.9354 B(  1-C ,  2-N ) :   0.9056 B(  1-C , 11-H ) :   0.9279
B(  1-C , 12-H ) :   0.9178 B(  2-N ,  3-C ) :   0.9474 B(  2-N ,  5-C ) :   0.9508
B(  3-C ,  4-C ) :   0.9789 B(  3-C , 13-H ) :   0.9042 B(  3-C , 14-H ) :   0.9006
B(  4-C ,  5-C ) :   0.9645 B(  4-C ,  6-N ) :   1.9068 B(  5-C , 15-H ) :   0.9008
B(  5-C , 16-H ) :   0.9071 B(  6-N ,  7-O ) :   0.8055 B(  7-O , 17-H ) :   0.8433

MP2 TOTAL ENERGY:     -380.406097535 Eh
FINAL SINGLE POINT ENERGY      -380.406097534858

DIPOLE MOMENT
-------------
                                X             Y             Z
Electronic contribution:      5.66343      -7.17151       5.59209
Nuclear contribution   :     -5.73723       7.20563      -5.97556
                        -----------------------------------------
Total Dipole Moment    :     -0.07380       0.03412      -0.38347
                        -----------------------------------------
Magnitude (a.u.)       :      0.39199
Magnitude (Debye)      :      0.99636

                             ****ORCA TERMINATED NORMALLY****
TOTAL RUN TIME: 0 days 0 hours 11 minutes 27 seconds 386 msec
