                         Program Version 3.0.3 - RELEASE   -
|  1> ! RI-MP2 RIJK def2-TZVP def2-TZVP/C def2-TZVP/JK TIGHTSCF
|  2> % maxcore 2000
|  3> % mp2 density relaxed end
|  4> *xyz 0 1
|  5>  O       -0.1417676725     1.4612205082    -0.0521551965
|  6>  C        0.0267722143     0.0793357219    -0.0408032349
|  7>  C       -1.2439283821    -0.6890244238     0.0903027507
|  8>  C       -0.5290685539    -0.6856869772    -1.2464185750
|  9>  C       -0.1063642307    -2.1137782083    -1.4921903975
| 10>  O        0.3818827112    -2.5515834157    -2.5031121877
| 11>  C       -0.5728487658    -2.9390060970    -0.3060087539
| 12>  C       -0.0116385631    -2.6565760902     1.0476109719
| 13>  N       -1.2824875637    -2.0599493016     0.6374741862
| 14>  H        0.5464190910     1.8455662027    -0.6063003880
| 15>  H        0.9444385725    -0.2624998892     0.4303191544
| 16>  H       -2.1512846057    -0.1203885192     0.2556647689
| 17>  H       -0.8445975910    -0.0985059131    -2.1000178043
| 18>  H       -0.9999139952    -3.9113041586    -0.5330020545
| 19>  H       -0.1003642263    -3.4209575255     1.8143525247
| 20>  H        0.8804567809    -2.0470900736     1.1374228156
| 21> *
| 22>
| 23>                          ****END OF INPUT****

CARTESIAN COORDINATES (ANGSTROEM)
---------------------------------
  O     -0.141768    1.461221   -0.052155
  C      0.026772    0.079336   -0.040803
  C     -1.243928   -0.689024    0.090303
  C     -0.529069   -0.685687   -1.246419
  C     -0.106364   -2.113778   -1.492190
  O      0.381883   -2.551583   -2.503112
  C     -0.572849   -2.939006   -0.306009
  C     -0.011639   -2.656576    1.047611
  N     -1.282488   -2.059949    0.637474
  H      0.546419    1.845566   -0.606300
  H      0.944439   -0.262500    0.430319
  H     -2.151285   -0.120389    0.255665
  H     -0.844598   -0.098506   -2.100018
  H     -0.999914   -3.911304   -0.533002
  H     -0.100364   -3.420958    1.814353
  H      0.880457   -2.047090    1.137423

 Total Charge           Charge          ....    0
 Multiplicity           Mult            ....    1
 Number of Electrons    NEL             ....   66
 Basis Dimension        Dim             ....  321

ORBITAL ENERGIES
----------------

  NO   OCC          E(Eh)            E(eV)
   0   2.0000     -20.588286      -560.2357
   1   2.0000     -20.557694      -559.4033
   2   2.0000     -15.588034      -424.1720
   3   2.0000     -11.346123      -308.7437
   4   2.0000     -11.317160      -307.9556
   5   2.0000     -11.283933      -307.0514
   6   2.0000     -11.283847      -307.0491
   7   2.0000     -11.278901      -306.9145
   8   2.0000     -11.252393      -306.1932
   9   2.0000      -1.403857       -38.2009
  10   2.0000      -1.398508       -38.0553
  11   2.0000      -1.311426       -35.6857
  12   2.0000      -1.147263       -31.2186
  13   2.0000      -0.976436       -26.5702
  14   2.0000      -0.925176       -25.1753
  15   2.0000      -0.854336       -23.2477
  16   2.0000      -0.800219       -21.7751
  17   2.0000      -0.786890       -21.4124
  18   2.0000      -0.733557       -19.9611
  19   2.0000      -0.693894       -18.8818
  20   2.0000      -0.664728       -18.0882
  21   2.0000      -0.643619       -17.5138
  22   2.0000      -0.629238       -17.1224
  23   2.0000      -0.602246       -16.3880
  24   2.0000      -0.580287       -15.7904
  25   2.0000      -0.564083       -15.3495
  26   2.0000      -0.541995       -14.7484
  27   2.0000      -0.524757       -14.2794
  28   2.0000      -0.497990       -13.5510
  29   2.0000      -0.449244       -12.2245
  30   2.0000      -0.430995       -11.7280
  31   2.0000      -0.404612       -11.0100
  32   2.0000      -0.387773       -10.5518
  33   0.0000       0.111673         3.0388
  34   0.0000       0.130592         3.5536
  35   0.0000       0.152043         4.1373
  36   0.0000       0.168835         4.5942
  37   0.0000       0.179841         4.8937

MULLIKEN ATOMIC CHARGES
-----------------------
   0 O :   -0.441852
   1 C :    0.029511
   2 C :   -0.062941
   3 C :   -0.141175
   4 C :    0.128010
   5 O :   -0.261637
   6 C :   -0.035993
   7 C :   -0.172320
   8 N :   -0.197893
   9 H :    0.330605
  10 H :    0.106660
  11 H :    0.146481
  12 H :    0.159900
  13 H :    0.149281
  14 H :    0.140766
  15 H :    0.122598
Sum of atomic charges:   -0.0000000

LOEWDIN ATOMIC CHARGES
----------------------
   0 O :    0.016391
   1 C :   -0.295651
   2 C :   -0.197107
   3 C :   -0.150850
   4 C :   -0.293270
   5 O :    0.163589
   6 C :   -0.198737
   7 C :   -0.224940
   8 N :    0.144194
   9 H :    0.186362
  10 H :    0.131507
  11 H :    0.152253
  12 H :    0.158739
  13 H :    0.150154
  14 H :    0.132933
  15 H :    0.124433

  Mayer bond orders larger than 0.1
B(  0-O ,  1-C ) :   1.0514 B(  0-O ,  9-H ) :   0.8362 B(  1-C ,  2-C ) :   0.8914
B(  1-C ,  3-C ) :   0.8242 B(  1-C , 10-H ) :   0.9392 B(  2-C ,  3-C ) :   0.8444
B(  2-C ,  8-N ) :   0.9419 B(  2-C , 11-H ) :   0.9306 B(  3-C ,  4-C ) :   0.8910
B(  3-C ,  6-C ) :  -0.1114 B(  3-C , 12-H ) :   0.9134 B(  4-C ,  5-O ) :   2.0169
B(  4-C ,  6-C ) :   0.9206 B(  6-C ,  7-C ) :   0.9045 B(  6-C ,  8-N ) :   0.8897
B(  6-C , 13-H ) :   0.9053 B(  7-C ,  8-N ) :   0.9040 B(  7-C , 14-H ) :   0.9266
B(  7-C , 15-H ) :   0.9080

MP2 TOTAL ENERGY:     -437.121687658 Eh
FINAL SINGLE POINT ENERGY      -437.121687657719

DIPOLE MOMENT
-------------
                                X             Y             Z
Electronic contribution:     -0.29902      -0.61065      -2.80709
Nuclear contribution   :      0.75970       1.02896       3.23856
                        -----------------------------------------
Total Dipole Moment    :      0.46068       0.41830       0.43148
                        -----------------------------------------
Magnitude (a.u.)       :      0.75721
Magnitude (Debye)      :      1.92469

                             ****ORCA TERMINATED NORMALLY****
TOTAL RUN TIME: 0 days 0 hours 16 minutes 3 seconds 637 msec
