                         Program Version 3.0.3 - RELEASE   -
|  1> ! RI-MP2 RIJK def2-TZVP def2-TZVP/C def2-TZVP/JK TIGHTSCF
|  2> % maxcore 2000
|  3> % mp2 density relaxed end
|  4> *xyz 0 1
|  5>  O       -0.3252536787     1.3827862544    -0.2041435224
|  6>  C       -0.0458462811     0.0130950908    -0.0454570069
|  7>  C        1.0950184792    -0.5012850646    -0.9031930993
|  8>  C        2.4432299948     0.1495239313    -0.5722721498
|  9>  C        3.5897008067    -0.3899792787    -1.4507321150
| 10>  C        4.8769520485     0.2245486581    -1.1496983612
| 11>  C        5.9256694353     0.7469379850    -0.8807058356
| 12>  C       -0.2999177656    -0.5893223009     1.3160013639
| 13>  C       -1.2620708541    -0.8330499724     0.1673077559
| 14>  H        0.3554224859     1.8811974382     0.2603166541
| 15>  H        1.1710469917    -1.5886545862    -0.7778609261
| 16>  H        0.8484373968    -0.3191181186    -1.9575076369
| 17>  H        2.3774840690     1.2343707945    -0.7145582580
| 18>  H        2.6917453523    -0.0177347306     0.4823269980
| 19>  H        3.6659707291    -1.4780158544    -1.3229714068
| 20>  H        3.3453218465    -0.2271574073    -2.5087042078
| 21>  H        6.8579005745     1.2010831833    -0.6531362085
| 22>  H        0.3263539702    -1.4096267699     1.6511013279
| 23>  H       -0.6287885356     0.0826866157     2.1008679792
| 24>  H       -2.2119076135    -0.3122950094     0.1973839717
| 25>  H       -1.2934100617    -1.8191615481    -0.2832309564
| 26> *
| 27>
| 28>                          ****END OF INPUT****

CARTESIAN COORDINATES (ANGSTROEM)
---------------------------------
  O     -0.325254    1.382786   -0.204144
  C     -0.045846    0.013095   -0.045457
  C      1.095018   -0.501285   -0.903193
  C      2.443230    0.149524   -0.572272
  C      3.589701   -0.389979   -1.450732
  C      4.876952    0.224549   -1.149698
  C      5.925669    0.746938   -0.880706
  C     -0.299918   -0.589322    1.316001
  C     -1.262071   -0.833050    0.167308
  H      0.355422    1.881197    0.260317
  H      1.171047   -1.588655   -0.777861
  H      0.848437   -0.319118   -1.957508
  H      2.377484    1.234371   -0.714558
  H      2.691745   -0.017735    0.482327
  H      3.665971   -1.478016   -1.322971
  H      3.345322   -0.227157   -2.508704
  H      6.857901    1.201083   -0.653136
  H      0.326354   -1.409627    1.651101
  H     -0.628789    0.082687    2.100868
  H     -2.211908   -0.312295    0.197384
  H     -1.293410   -1.819162   -0.283231

 Total Charge           Charge          ....    0
 Multiplicity           Mult            ....    1
 Number of Electrons    NEL             ....   68
 Basis Dimension        Dim             ....  351

ORBITAL ENERGIES
----------------

  NO   OCC          E(Eh)            E(eV)
   0   2.0000     -20.561075      -559.4953
   1   2.0000     -11.288200      -307.1675
   2   2.0000     -11.255027      -306.2649
   3   2.0000     -11.235222      -305.7259
   4   2.0000     -11.233599      -305.6818
   5   2.0000     -11.230548      -305.5988
   6   2.0000     -11.226610      -305.4916
   7   2.0000     -11.223995      -305.4204
   8   2.0000     -11.219724      -305.3042
   9   2.0000      -1.372068       -37.3359
  10   2.0000      -1.134788       -30.8792
  11   2.0000      -1.092975       -29.7414
  12   2.0000      -1.024200       -27.8699
  13   2.0000      -0.953956       -25.9585
  14   2.0000      -0.850681       -23.1482
  15   2.0000      -0.827503       -22.5175
  16   2.0000      -0.776857       -21.1394
  17   2.0000      -0.721373       -19.6295
  18   2.0000      -0.691560       -18.8183
  19   2.0000      -0.660999       -17.9867
  20   2.0000      -0.648601       -17.6493
  21   2.0000      -0.625464       -17.0197
  22   2.0000      -0.623380       -16.9630
  23   2.0000      -0.570042       -15.5116
  24   2.0000      -0.558787       -15.2054
  25   2.0000      -0.535242       -14.5647
  26   2.0000      -0.520108       -14.1528
  27   2.0000      -0.507827       -13.8187
  28   2.0000      -0.494971       -13.4689
  29   2.0000      -0.486915       -13.2496
  30   2.0000      -0.414534       -11.2800
  31   2.0000      -0.398204       -10.8357
  32   2.0000      -0.385577       -10.4921
  33   2.0000      -0.382711       -10.4141
  34   0.0000       0.128088         3.4855
  35   0.0000       0.147610         4.0167
  36   0.0000       0.160355         4.3635
  37   0.0000       0.167755         4.5648
  38   0.0000       0.169520         4.6129

MULLIKEN ATOMIC CHARGES
-----------------------
   0 O :   -0.473746
   1 C :    0.265522
   2 C :   -0.235081
   3 C :   -0.250035
   4 C :   -0.391316
   5 C :   -0.005882
   6 C :   -0.121072
   7 C :   -0.323689
   8 C :   -0.262927
   9 H :    0.323879
  10 H :    0.112536
  11 H :    0.120191
  12 H :    0.113140
  13 H :    0.127683
  14 H :    0.141717
  15 H :    0.144078
  16 H :    0.189599
  17 H :    0.125136
  18 H :    0.134528
  19 H :    0.134866
  20 H :    0.130874
Sum of atomic charges:    0.0000000

LOEWDIN ATOMIC CHARGES
----------------------
   0 O :    0.022312
   1 C :   -0.372508
   2 C :   -0.231667
   3 C :   -0.250300
   4 C :   -0.249641
   5 C :   -0.113083
   6 C :   -0.109793
   7 C :   -0.219840
   8 C :   -0.205687
   9 H :    0.178389
  10 H :    0.146629
  11 H :    0.146187
  12 H :    0.138798
  13 H :    0.142258
  14 H :    0.156292
  15 H :    0.157401
  16 H :    0.125727
  17 H :    0.131757
  18 H :    0.134565
  19 H :    0.139267
  20 H :    0.132936

  Mayer bond orders larger than 0.1
B(  0-O ,  1-C ) :   0.9346 B(  0-O ,  9-H ) :   0.8402 B(  1-C ,  2-C ) :   0.9220
B(  1-C ,  7-C ) :   0.8884 B(  1-C ,  8-C ) :   0.8731 B(  2-C ,  3-C ) :   0.9279
B(  2-C , 10-H ) :   0.9231 B(  2-C , 11-H ) :   0.9135 B(  3-C ,  4-C ) :   0.9453
B(  3-C , 12-H ) :   0.9212 B(  3-C , 13-H ) :   0.9261 B(  4-C ,  5-C ) :   1.1260
B(  4-C ,  6-C ) :  -0.1235 B(  4-C , 14-H ) :   0.9255 B(  4-C , 15-H ) :   0.9235
B(  5-C ,  6-C ) :   2.6117 B(  6-C , 16-H ) :   0.8952 B(  7-C ,  8-C ) :   0.9201
B(  7-C , 17-H ) :   0.9179 B(  7-C , 18-H ) :   0.9244 B(  8-C , 19-H ) :   0.9255
B(  8-C , 20-H ) :   0.9300

MP2 TOTAL ENERGY:     -386.359433908 Eh
FINAL SINGLE POINT ENERGY      -386.359433908235

DIPOLE MOMENT
-------------
                                X             Y             Z
Electronic contribution:      2.71389       2.76435      -0.87781
Nuclear contribution   :     -2.50788      -3.04909       1.14467
                        -----------------------------------------
Total Dipole Moment    :      0.20601      -0.28474       0.26686
                        -----------------------------------------
Magnitude (a.u.)       :      0.44128
Magnitude (Debye)      :      1.12165

                             ****ORCA TERMINATED NORMALLY****
TOTAL RUN TIME: 0 days 0 hours 16 minutes 2 seconds 854 msec
