                         Program Version 3.0.3 - RELEASE   -
|  1> ! RI-MP2 RIJK def2-TZVP def2-TZVP/C def2-TZVP/JK TIGHTSCF
|  2> % maxcore 2000
|  3> % mp2 density relaxed end
|  4> *xyz 0 1
|  5>  C       -0.3064288124     1.4917224777     0.0836441031
|  6>  C        0.1212872313     0.0264647837    -0.0743243720
|  7>  C        0.9004364989    -0.4752933347     1.1074124388
|  8>  C        2.3476703373    -0.0975022587     1.4742439924
|  9>  C        2.5384160795    -1.5567906269     2.0236264149
| 10>  O        2.7911418233    -1.7215469700     3.4038409819
| 11>  C        1.0893549216    -1.8671800136     1.6531943867
| 12>  N        0.1828974132    -0.9210680166     2.2977349512
| 13>  H        0.5617615662     2.1514400787     0.1896580427
| 14>  H       -0.8777588364     1.8311520589    -0.7855380703
| 15>  H       -0.9331408890     1.6152785420     0.9722048989
| 16>  H       -0.7644083288    -0.6060869740    -0.1973795056
| 17>  H        0.7281447250    -0.0886014939    -0.9817320498
| 18>  H        2.9873302169     0.1111228532     0.6119828832
| 19>  H        2.4571699536     0.7088450312     2.2075617423
| 20>  H        3.2541393722    -2.1245612235     1.4142807048
| 21>  H        3.6778053804    -1.3965036872     3.5900994062
| 22>  H        0.6956087229    -2.8223594109     1.3241878744
| 23>  H        0.5774971345    -0.5676439254     3.1678726463
| 24> *
| 25>
| 26>                          ****END OF INPUT****

CARTESIAN COORDINATES (ANGSTROEM)
---------------------------------
  C     -0.306429    1.491722    0.083644
  C      0.121287    0.026465   -0.074324
  C      0.900436   -0.475293    1.107412
  C      2.347670   -0.097502    1.474244
  C      2.538416   -1.556791    2.023626
  O      2.791142   -1.721547    3.403841
  C      1.089355   -1.867180    1.653194
  N      0.182897   -0.921068    2.297735
  H      0.561762    2.151440    0.189658
  H     -0.877759    1.831152   -0.785538
  H     -0.933141    1.615279    0.972205
  H     -0.764408   -0.606087   -0.197380
  H      0.728145   -0.088601   -0.981732
  H      2.987330    0.111123    0.611983
  H      2.457170    0.708845    2.207562
  H      3.254139   -2.124561    1.414281
  H      3.677805   -1.396504    3.590099
  H      0.695609   -2.822359    1.324188
  H      0.577497   -0.567644    3.167873

 Total Charge           Charge          ....    0
 Multiplicity           Mult            ....    1
 Number of Electrons    NEL             ....   62
 Basis Dimension        Dim             ....  314

ORBITAL ENERGIES
----------------

  NO   OCC          E(Eh)            E(eV)
   0   2.0000     -20.562486      -559.5337
   1   2.0000     -15.550328      -423.1459
   2   2.0000     -11.289755      -307.2098
   3   2.0000     -11.262825      -306.4771
   4   2.0000     -11.250484      -306.1412
   5   2.0000     -11.231327      -305.6200
   6   2.0000     -11.223015      -305.3938
   7   2.0000     -11.212635      -305.1113
   8   2.0000      -1.371609       -37.3234
   9   2.0000      -1.277745       -34.7692
  10   2.0000      -1.042447       -28.3664
  11   2.0000      -1.029821       -28.0229
  12   2.0000      -0.901289       -24.5253
  13   2.0000      -0.878805       -23.9135
  14   2.0000      -0.807608       -21.9761
  15   2.0000      -0.729988       -19.8640
  16   2.0000      -0.703979       -19.1563
  17   2.0000      -0.675422       -18.3792
  18   2.0000      -0.652781       -17.7631
  19   2.0000      -0.605285       -16.4707
  20   2.0000      -0.596493       -16.2314
  21   2.0000      -0.566463       -15.4142
  22   2.0000      -0.546787       -14.8788
  23   2.0000      -0.527281       -14.3480
  24   2.0000      -0.516113       -14.0442
  25   2.0000      -0.487970       -13.2783
  26   2.0000      -0.468123       -12.7383
  27   2.0000      -0.454112       -12.3570
  28   2.0000      -0.437203       -11.8969
  29   2.0000      -0.412848       -11.2342
  30   2.0000      -0.381024       -10.3682
  31   0.0000       0.129682         3.5288
  32   0.0000       0.142772         3.8850
  33   0.0000       0.158930         4.3247
  34   0.0000       0.182333         4.9615
  35   0.0000       0.192775         5.2457

MULLIKEN ATOMIC CHARGES
-----------------------
   0 C :   -0.413852
   1 C :   -0.185668
   2 C :    0.124057
   3 C :   -0.248856
   4 C :    0.050575
   5 O :   -0.454493
   6 C :   -0.113861
   7 N :   -0.373267
   8 H :    0.122594
   9 H :    0.133990
  10 H :    0.139844
  11 H :    0.121877
  12 H :    0.102988
  13 H :    0.113975
  14 H :    0.116702
  15 H :    0.087418
  16 H :    0.317646
  17 H :    0.130927
  18 H :    0.227403
Sum of atomic charges:    0.0000000

LOEWDIN ATOMIC CHARGES
----------------------
   0 C :   -0.310829
   1 C :   -0.258038
   2 C :   -0.269360
   3 C :   -0.195890
   4 C :   -0.317976
   5 O :   -0.023308
   6 C :   -0.204367
   7 N :    0.054389
   8 H :    0.119839
   9 H :    0.120762
  10 H :    0.125588
  11 H :    0.147601
  12 H :    0.139913
  13 H :    0.135268
  14 H :    0.129020
  15 H :    0.131238
  16 H :    0.175810
  17 H :    0.131931
  18 H :    0.168407

  Mayer bond orders larger than 0.1
B(  0-C ,  1-C ) :   0.9158 B(  0-C ,  8-H ) :   0.9374 B(  0-C ,  9-H ) :   0.9392
B(  0-C , 10-H ) :   0.9390 B(  1-C ,  2-C ) :   0.8967 B(  1-C , 11-H ) :   0.9329
B(  1-C , 12-H ) :   0.9362 B(  2-C ,  3-C ) :   0.9537 B(  2-C ,  6-C ) :   0.8187
B(  2-C ,  7-N ) :   0.8988 B(  3-C ,  4-C ) :   0.9264 B(  3-C , 13-H ) :   0.9105
B(  3-C , 14-H ) :   0.9050 B(  4-C ,  5-O ) :   1.0790 B(  4-C ,  6-C ) :   0.8879
B(  4-C , 15-H ) :   0.9381 B(  5-O , 16-H ) :   0.8428 B(  6-C ,  7-N ) :   0.9755
B(  6-C , 17-H ) :   0.9247 B(  7-N , 18-H ) :   0.8610

MP2 TOTAL ENERGY:     -364.408686123 Eh
FINAL SINGLE POINT ENERGY      -364.408686122868

DIPOLE MOMENT
-------------
                                X             Y             Z
Electronic contribution:      2.12748      -5.02356       4.54204
Nuclear contribution   :     -1.15467       5.38042      -4.99229
                        -----------------------------------------
Total Dipole Moment    :      0.97281       0.35686      -0.45025
                        -----------------------------------------
Magnitude (a.u.)       :      1.12979
Magnitude (Debye)      :      2.87170

                             ****ORCA TERMINATED NORMALLY****
TOTAL RUN TIME: 0 days 0 hours 12 minutes 18 seconds 198 msec
