                         Program Version 3.0.3 - RELEASE   -
|  1> ! RI-MP2 RIJK def2-TZVP def2-TZVP/C def2-TZVP/JK TIGHTSCF
|  2> % maxcore 2000
|  3> % mp2 density relaxed end
|  4> *xyz 0 1
|  5>  C        0.0560662026     1.4952180895    -0.0756126034
|  6>  C       -0.0535729416    -0.0347671453     0.0612741689
|  7>  C        0.6576165237    -0.5077044887     1.2515651097
|  8>  N        1.2256369681    -0.8507467275     2.1974095625
|  9>  C       -1.5247072721    -0.4962307358     0.1106633960
| 10>  O       -2.1582560462    -0.0801696372    -1.0767309632
| 11>  C       -3.0656826382    -1.1163826197    -1.4370609477
| 12>  C       -2.3268905973    -2.3675869677    -0.9677037435
| 13>  O       -1.6262568206    -1.9056222377     0.1845956755
| 14>  H        1.1026475574     1.8027643290    -0.1272631419
| 15>  H       -0.4566799876     1.8151919223    -0.9842436141
| 16>  H       -0.4035595974     1.9950416367     0.7819732396
| 17>  H        0.3942502620    -0.5181410525    -0.8147126693
| 18>  H       -2.0241235966    -0.0674123818     0.9954335890
| 19>  H       -4.0251838846    -0.9955055522    -0.9143524666
| 20>  H       -3.2312864593    -1.0686940430    -2.5150572196
| 21>  H       -2.9882020521    -3.1862515470    -0.6726056925
| 22>  H       -1.6243727001    -2.7302097315    -1.7302206195
| 23> *
| 24>
| 25>                          ****END OF INPUT****

CARTESIAN COORDINATES (ANGSTROEM)
---------------------------------
  C      0.056066    1.495218   -0.075613
  C     -0.053573   -0.034767    0.061274
  C      0.657617   -0.507704    1.251565
  N      1.225637   -0.850747    2.197410
  C     -1.524707   -0.496231    0.110663
  O     -2.158256   -0.080170   -1.076731
  C     -3.065683   -1.116383   -1.437061
  C     -2.326891   -2.367587   -0.967704
  O     -1.626257   -1.905622    0.184596
  H      1.102648    1.802764   -0.127263
  H     -0.456680    1.815192   -0.984244
  H     -0.403560    1.995042    0.781973
  H      0.394250   -0.518141   -0.814713
  H     -2.024124   -0.067412    0.995434
  H     -4.025184   -0.995506   -0.914352
  H     -3.231286   -1.068694   -2.515057
  H     -2.988202   -3.186252   -0.672606
  H     -1.624373   -2.730210   -1.730221

 Total Charge           Charge          ....    0
 Multiplicity           Mult            ....    1
 Number of Electrons    NEL             ....   68
 Basis Dimension        Dim             ....  333

ORBITAL ENERGIES
----------------

  NO   OCC          E(Eh)            E(eV)
   0   2.0000     -20.588284      -560.2357
   1   2.0000     -20.579967      -560.0094
   2   2.0000     -15.563886      -423.5149
   3   2.0000     -11.359570      -309.1096
   4   2.0000     -11.301766      -307.5367
   5   2.0000     -11.298604      -307.4506
   6   2.0000     -11.285491      -307.0938
   7   2.0000     -11.266598      -306.5797
   8   2.0000     -11.241854      -305.9064
   9   2.0000      -1.461680       -39.7743
  10   2.0000      -1.353580       -36.8328
  11   2.0000      -1.214364       -33.0445
  12   2.0000      -1.110321       -30.2134
  13   2.0000      -1.029017       -28.0010
  14   2.0000      -0.921974       -25.0882
  15   2.0000      -0.874397       -23.7936
  16   2.0000      -0.853018       -23.2118
  17   2.0000      -0.744411       -20.2565
  18   2.0000      -0.723885       -19.6979
  19   2.0000      -0.700175       -19.0527
  20   2.0000      -0.641336       -17.4516
  21   2.0000      -0.622013       -16.9258
  22   2.0000      -0.614301       -16.7160
  23   2.0000      -0.604258       -16.4427
  24   2.0000      -0.575806       -15.6685
  25   2.0000      -0.554457       -15.0875
  26   2.0000      -0.544263       -14.8101
  27   2.0000      -0.540221       -14.7001
  28   2.0000      -0.531834       -14.4719
  29   2.0000      -0.514803       -14.0085
  30   2.0000      -0.467306       -12.7161
  31   2.0000      -0.463049       -12.6002
  32   2.0000      -0.451344       -12.2817
  33   2.0000      -0.428233       -11.6528
  34   0.0000       0.127335         3.4650
  35   0.0000       0.142802         3.8858
  36   0.0000       0.150508         4.0955
  37   0.0000       0.174242         4.7414
  38   0.0000       0.183945         5.0054

MULLIKEN ATOMIC CHARGES
-----------------------
   0 C :   -0.402058
   1 C :    0.081372
   2 C :   -0.211186
   3 N :   -0.056584
   4 C :    0.196393
   5 O :   -0.308786
   6 C :   -0.074884
   7 C :   -0.047312
   8 O :   -0.305956
   9 H :    0.152004
  10 H :    0.159673
  11 H :    0.137803
  12 H :    0.118319
  13 H :    0.095043
  14 H :    0.108237
  15 H :    0.132688
  16 H :    0.124762
  17 H :    0.100473
Sum of atomic charges:   -0.0000000

LOEWDIN ATOMIC CHARGES
----------------------
   0 C :   -0.263049
   1 C :   -0.248664
   2 C :   -0.168744
   3 N :    0.064503
   4 C :   -0.359258
   5 O :    0.181685
   6 C :   -0.302241
   7 C :   -0.301412
   8 O :    0.179919
   9 H :    0.131909
  10 H :    0.132639
  11 H :    0.131547
  12 H :    0.178184
  13 H :    0.135761
  14 H :    0.123823
  15 H :    0.131486
  16 H :    0.129970
  17 H :    0.121941

  Mayer bond orders larger than 0.1
B(  0-C ,  1-C ) :   0.9072 B(  0-C ,  9-H ) :   0.9313 B(  0-C , 10-H ) :   0.9326
B(  0-C , 11-H ) :   0.9238 B(  1-C ,  2-C ) :   0.9197 B(  1-C ,  4-C ) :   0.9070
B(  1-C , 12-H ) :   0.8912 B(  2-C ,  3-N ) :   2.8735 B(  4-C ,  5-O ) :   0.9805
B(  4-C ,  8-O ) :   0.9452 B(  4-C , 13-H ) :   0.9174 B(  5-O ,  6-C ) :   0.9131
B(  6-C ,  7-C ) :   0.9633 B(  6-C , 14-H ) :   0.9345 B(  6-C , 15-H ) :   0.9199
B(  7-C ,  8-O ) :   0.9291 B(  7-C , 16-H ) :   0.9175 B(  7-C , 17-H ) :   0.9258

MP2 TOTAL ENERGY:     -438.382841487 Eh
FINAL SINGLE POINT ENERGY      -438.382841487252

DIPOLE MOMENT
-------------
                                X             Y             Z
Electronic contribution:      2.48672      -2.50234       3.90785
Nuclear contribution   :     -3.69038       2.73204      -5.46452
                        -----------------------------------------
Total Dipole Moment    :     -1.20365       0.22969      -1.55667
                        -----------------------------------------
Magnitude (a.u.)       :      1.98110
Magnitude (Debye)      :      5.03555

                             ****ORCA TERMINATED NORMALLY****
TOTAL RUN TIME: 0 days 0 hours 18 minutes 32 seconds 501 msec
