                         Program Version 3.0.3 - RELEASE   -
|  1> ! RI-MP2 RIJK def2-TZVP def2-TZVP/C def2-TZVP/JK TIGHTSCF
|  2> % maxcore 2000
|  3> % mp2 density relaxed end
|  4> *xyz 0 1
|  5>  C        0.1098500886    -1.1822136841    -0.0146826802
|  6>  C        0.1051043500     0.0135789227     0.0940882469
|  7>  C        0.0681829419     1.4606800016     0.2417096920
|  8>  O        1.2830329569     2.0182303691    -0.2562963088
|  9>  C        1.3631568748     3.4073457811    -0.0917946118
| 10>  C        1.8385993999     3.9165132633     1.2616919429
| 11>  C        2.7695391512     3.9197493579     0.0768768326
| 12>  C        0.4038346338     4.1836212222    -0.8375349967
| 13>  C       -0.4135387641     4.8110085326    -1.4583848559
| 14>  H        0.1178282901    -2.2393792937    -0.1148165269
| 15>  H       -0.7902378146     1.8753550921    -0.3065353823
| 16>  H       -0.0647441302     1.7283860366     1.3015719686
| 17>  H        1.4443214100     4.8594028639     1.6213261169
| 18>  H        1.9997956408     3.1577988284     2.0191107877
| 19>  H        3.5426613986     3.1612557463     0.0425523039
| 20>  H        3.0192873650     4.8644343105    -0.3902303273
| 21>  H       -1.1263434325     5.3694352096    -2.0133048514
| 22> *
| 23>
| 24>                          ****END OF INPUT****

CARTESIAN COORDINATES (ANGSTROEM)
---------------------------------
  C      0.109850   -1.182214   -0.014683
  C      0.105104    0.013579    0.094088
  C      0.068183    1.460680    0.241710
  O      1.283033    2.018230   -0.256296
  C      1.363157    3.407346   -0.091795
  C      1.838599    3.916513    1.261692
  C      2.769539    3.919749    0.076877
  C      0.403835    4.183621   -0.837535
  C     -0.413539    4.811009   -1.458385
  H      0.117828   -2.239379   -0.114817
  H     -0.790238    1.875355   -0.306535
  H     -0.064744    1.728386    1.301572
  H      1.444321    4.859403    1.621326
  H      1.999796    3.157799    2.019111
  H      3.542661    3.161256    0.042552
  H      3.019287    4.864434   -0.390230
  H     -1.126343    5.369435   -2.013305

 Total Charge           Charge          ....    0
 Multiplicity           Mult            ....    1
 Number of Electrons    NEL             ....   64
 Basis Dimension        Dim             ....  327

ORBITAL ENERGIES
----------------

  NO   OCC          E(Eh)            E(eV)
   0   2.0000     -20.578692      -559.9747
   1   2.0000     -11.319494      -308.0191
   2   2.0000     -11.308876      -307.7302
   3   2.0000     -11.244203      -305.9703
   4   2.0000     -11.242355      -305.9200
   5   2.0000     -11.242188      -305.9155
   6   2.0000     -11.236200      -305.7526
   7   2.0000     -11.233436      -305.6773
   8   2.0000     -11.227928      -305.5275
   9   2.0000      -1.402458       -38.1628
  10   2.0000      -1.157683       -31.5022
  11   2.0000      -1.051451       -28.6114
  12   2.0000      -1.034593       -28.1527
  13   2.0000      -0.952902       -25.9298
  14   2.0000      -0.863165       -23.4879
  15   2.0000      -0.844282       -22.9741
  16   2.0000      -0.741264       -20.1708
  17   2.0000      -0.730792       -19.8859
  18   2.0000      -0.703881       -19.1536
  19   2.0000      -0.684762       -18.6333
  20   2.0000      -0.661169       -17.9913
  21   2.0000      -0.637432       -17.3454
  22   2.0000      -0.613373       -16.6907
  23   2.0000      -0.549955       -14.9650
  24   2.0000      -0.534012       -14.5312
  25   2.0000      -0.503899       -13.7118
  26   2.0000      -0.467094       -12.7103
  27   2.0000      -0.439377       -11.9561
  28   2.0000      -0.409223       -11.1355
  29   2.0000      -0.395745       -10.7688
  30   2.0000      -0.388528       -10.5724
  31   2.0000      -0.367203        -9.9921
  32   0.0000       0.143459         3.9037
  33   0.0000       0.152233         4.1425
  34   0.0000       0.159469         4.3394
  35   0.0000       0.165343         4.4992
  36   0.0000       0.169651         4.6164

MULLIKEN ATOMIC CHARGES
-----------------------
   0 C :   -0.085708
   1 C :   -0.031818
   2 C :   -0.216056
   3 O :   -0.265303
   4 C :    0.082263
   5 C :   -0.275098
   6 C :   -0.257742
   7 C :   -0.041982
   8 C :   -0.143641
   9 H :    0.194191
  10 H :    0.143753
  11 H :    0.130379
  12 H :    0.141464
  13 H :    0.142851
  14 H :    0.143856
  15 H :    0.144895
  16 H :    0.193696
Sum of atomic charges:   -0.0000000

LOEWDIN ATOMIC CHARGES
----------------------
   0 C :   -0.085600
   1 C :   -0.103457
   2 C :   -0.286613
   3 O :    0.231959
   4 C :   -0.340035
   5 C :   -0.191137
   6 C :   -0.177867
   7 C :   -0.070827
   8 C :   -0.083136
   9 H :    0.127976
  10 H :    0.146662
  11 H :    0.141050
  12 H :    0.137899
  13 H :    0.140407
  14 H :    0.143980
  15 H :    0.140251
  16 H :    0.128487

  Mayer bond orders larger than 0.1
B(  0-C ,  1-C ) :   2.6221 B(  0-C ,  2-C ) :  -0.1045 B(  0-C ,  9-H ) :   0.8952
B(  1-C ,  2-C ) :   1.1165 B(  2-C ,  3-O ) :   0.9438 B(  2-C , 10-H ) :   0.9082
B(  2-C , 11-H ) :   0.9305 B(  3-O ,  4-C ) :   1.0095 B(  4-C ,  5-C ) :   0.8885
B(  4-C ,  6-C ) :   0.8453 B(  4-C ,  7-C ) :   1.1018 B(  4-C ,  8-C ) :  -0.1061
B(  5-C ,  6-C ) :   0.9347 B(  5-C , 12-H ) :   0.9207 B(  5-C , 13-H ) :   0.9151
B(  6-C , 14-H ) :   0.9147 B(  6-C , 15-H ) :   0.9271 B(  7-C ,  8-C ) :   2.5898
B(  8-C , 16-H ) :   0.8938

MP2 TOTAL ENERGY:     -383.889891648 Eh
FINAL SINGLE POINT ENERGY      -383.889891647560

DIPOLE MOMENT
-------------
                                X             Y             Z
Electronic contribution:     -1.36952      -2.16383      -2.35130
Nuclear contribution   :      1.16507       2.50650       2.69006
                        -----------------------------------------
Total Dipole Moment    :     -0.20445       0.34267       0.33877
                        -----------------------------------------
Magnitude (a.u.)       :      0.52344
Magnitude (Debye)      :      1.33047

                             ****ORCA TERMINATED NORMALLY****
TOTAL RUN TIME: 0 days 0 hours 14 minutes 37 seconds 683 msec
