                         Program Version 3.0.3 - RELEASE   -
|  1> ! RI-MP2 RIJK def2-TZVP def2-TZVP/C def2-TZVP/JK TIGHTSCF
|  2> % maxcore 2000
|  3> % mp2 density relaxed end
|  4> *xyz 0 1
|  5>  N       -0.0886188445     1.2399469709    -0.0970844843
|  6>  C       -0.4040548138    -0.0596528113     0.2829026605
|  7>  O       -0.3363069600    -0.4460515421     1.4356494779
|  8>  N       -0.7740754534    -0.8788732453    -0.7623333798
|  9>  C       -0.9187959327    -2.3126488062    -0.5282135119
| 10>  C       -2.2593755408    -2.6666709428     0.1084060824
| 11>  C       -3.4911267952    -2.5330325269    -0.8108247453
| 12>  O       -3.6427623359    -3.9664372970    -0.8913712465
| 13>  C       -2.6060362146    -4.1713212615     0.0913551292
| 14>  H       -0.0413334281     1.8683360924     0.6908002465
| 15>  H       -0.5721683276     1.6237026255    -0.8954373095
| 16>  H       -0.5057439321    -0.5923480763    -1.6895541589
| 17>  H       -0.8278019141    -2.8150341701    -1.4971261208
| 18>  H       -0.1064680446    -2.6677871282     0.1170750699
| 19>  H       -2.3384662753    -2.1749893174     1.0777529541
| 20>  H       -4.3674954957    -2.0549294232    -0.3543265007
| 21>  H       -3.3137423813    -2.0786449550    -1.7944102433
| 22>  H       -1.8202109928    -4.8468802179    -0.2722872894
| 23>  H       -3.0055434476    -4.5694552177     1.0327902400
| 24> *
| 25>
| 26>                          ****END OF INPUT****

CARTESIAN COORDINATES (ANGSTROEM)
---------------------------------
  N     -0.088619    1.239947   -0.097084
  C     -0.404055   -0.059653    0.282903
  O     -0.336307   -0.446052    1.435649
  N     -0.774075   -0.878873   -0.762333
  C     -0.918796   -2.312649   -0.528214
  C     -2.259376   -2.666671    0.108406
  C     -3.491127   -2.533033   -0.810825
  O     -3.642762   -3.966437   -0.891371
  C     -2.606036   -4.171321    0.091355
  H     -0.041333    1.868336    0.690800
  H     -0.572168    1.623703   -0.895437
  H     -0.505744   -0.592348   -1.689554
  H     -0.827802   -2.815034   -1.497126
  H     -0.106468   -2.667787    0.117075
  H     -2.338466   -2.174989    1.077753
  H     -4.367495   -2.054929   -0.354327
  H     -3.313742   -2.078645   -1.794410
  H     -1.820211   -4.846880   -0.272287
  H     -3.005543   -4.569455    1.032790

 Total Charge           Charge          ....    0
 Multiplicity           Mult            ....    1
 Number of Electrons    NEL             ....   70
 Basis Dimension        Dim             ....  339

ORBITAL ENERGIES
----------------

  NO   OCC          E(Eh)            E(eV)
   0   2.0000     -20.544686      -559.0493
   1   2.0000     -20.515653      -558.2593
   2   2.0000     -15.586382      -424.1270
   3   2.0000     -15.583925      -424.0602
   4   2.0000     -11.379007      -309.6385
   5   2.0000     -11.275979      -306.8350
   6   2.0000     -11.275096      -306.8110
   7   2.0000     -11.270152      -306.6764
   8   2.0000     -11.230521      -305.5980
   9   2.0000      -1.397128       -38.0178
  10   2.0000      -1.374084       -37.3907
  11   2.0000      -1.245194       -33.8834
  12   2.0000      -1.196646       -32.5624
  13   2.0000      -1.043799       -28.4032
  14   2.0000      -0.931689       -25.3526
  15   2.0000      -0.917050       -24.9542
  16   2.0000      -0.809538       -22.0286
  17   2.0000      -0.759536       -20.6680
  18   2.0000      -0.742914       -20.2157
  19   2.0000      -0.712995       -19.4016
  20   2.0000      -0.680728       -18.5236
  21   2.0000      -0.663884       -18.0652
  22   2.0000      -0.639544       -17.4029
  23   2.0000      -0.612852       -16.6766
  24   2.0000      -0.599745       -16.3199
  25   2.0000      -0.584825       -15.9139
  26   2.0000      -0.564195       -15.3525
  27   2.0000      -0.550809       -14.9883
  28   2.0000      -0.521860       -14.2005
  29   2.0000      -0.466362       -12.6903
  30   2.0000      -0.457139       -12.4394
  31   2.0000      -0.443401       -12.0656
  32   2.0000      -0.429740       -11.6938
  33   2.0000      -0.417086       -11.3495
  34   2.0000      -0.400292       -10.8925
  35   0.0000       0.112532         3.0621
  36   0.0000       0.143490         3.9046
  37   0.0000       0.158077         4.3015
  38   0.0000       0.175001         4.7620
  39   0.0000       0.180687         4.9167

MULLIKEN ATOMIC CHARGES
-----------------------
   0 N :   -0.527947
   1 C :    0.395088
   2 O :   -0.401193
   3 N :   -0.376931
   4 C :   -0.203873
   5 C :   -0.070094
   6 C :   -0.029708
   7 O :   -0.333778
   8 C :   -0.021997
   9 H :    0.267026
  10 H :    0.249456
  11 H :    0.237877
  12 H :    0.153894
  13 H :    0.137645
  14 H :    0.151460
  15 H :    0.094009
  16 H :    0.085514
  17 H :    0.094814
  18 H :    0.098737
Sum of atomic charges:   -0.0000000

LOEWDIN ATOMIC CHARGES
----------------------
   0 N :   -0.071006
   1 C :   -0.571699
   2 O :    0.057498
   3 N :    0.075398
   4 C :   -0.265389
   5 C :   -0.243217
   6 C :   -0.256683
   7 O :    0.105133
   8 C :   -0.252274
   9 H :    0.176065
  10 H :    0.165386
  11 H :    0.181833
  12 H :    0.140051
  13 H :    0.141159
  14 H :    0.151884
  15 H :    0.116756
  16 H :    0.114093
  17 H :    0.117264
  18 H :    0.117749

  Mayer bond orders larger than 0.1
B(  0-N ,  1-C ) :   1.0845 B(  0-N ,  9-H ) :   0.8686 B(  0-N , 10-H ) :   0.8721
B(  1-C ,  2-O ) :   1.9117 B(  1-C ,  3-N ) :   1.1171 B(  3-N ,  4-C ) :   0.9112
B(  3-N , 11-H ) :   0.8724 B(  4-C ,  5-C ) :   0.8972 B(  4-C , 12-H ) :   0.9371
B(  4-C , 13-H ) :   0.9380 B(  5-C ,  6-C ) :   0.9416 B(  5-C ,  8-C ) :   0.9458
B(  5-C , 14-H ) :   0.9232 B(  6-C ,  7-O ) :   0.9508 B(  6-C , 15-H ) :   0.9142
B(  6-C , 16-H ) :   0.9083 B(  7-O ,  8-C ) :   0.9500 B(  8-C , 17-H ) :   0.9084
B(  8-C , 18-H ) :   0.9167

MP2 TOTAL ENERGY:     -455.626315035 Eh
FINAL SINGLE POINT ENERGY      -455.626315035179

DIPOLE MOMENT
-------------
                                X             Y             Z
Electronic contribution:      1.02902       1.87689       1.20711
Nuclear contribution   :     -0.78391      -0.94693      -2.11242
                        -----------------------------------------
Total Dipole Moment    :      0.24511       0.92996      -0.90531
                        -----------------------------------------
Magnitude (a.u.)       :      1.32079
Magnitude (Debye)      :      3.35719

                             ****ORCA TERMINATED NORMALLY****
TOTAL RUN TIME: 0 days 0 hours 16 minutes 11 seconds 96 msec
