                         Program Version 3.0.3 - RELEASE   -
|  1> ! RI-MP2 RIJK def2-TZVP def2-TZVP/C def2-TZVP/JK TIGHTSCF
|  2> % maxcore 2000
|  3> % mp2 density relaxed end
|  4> *xyz 0 1
|  5>  O       -0.3206383401     0.4576164622     0.9705261710
|  6>  C       -0.0784401388     1.2109904102     0.0573537895
|  7>  C        1.2207493614     1.9416056602    -0.0746965589
|  8>  C        1.5496359584     2.5199665621    -1.4444029472
|  9>  C        1.5589834701     1.5052514547    -2.4940025434
| 10>  C        1.5430347196     0.6515122834    -3.3394018742
| 11>  C        1.6809051633     2.6282197367     1.1787500742
| 12>  N        2.3392221059     1.4136673465     0.7165863966
| 13>  H       -0.8206612467     1.4064590151    -0.7440630561
| 14>  H        0.8201842021     3.3022143842    -1.6945722976
| 15>  H        2.5275870230     3.0089562886    -1.3861059553
| 16>  H        1.5413919457    -0.0988578673    -4.0908332364
| 17>  H        2.2630360131     3.5412877161     1.0833767071
| 18>  H        1.0264151929     2.5744892135     2.0440500236
| 19>  H        1.9839612002     0.6207804138     1.2526222969
| 20> *
| 21>
| 22>                          ****END OF INPUT****

CARTESIAN COORDINATES (ANGSTROEM)
---------------------------------
  O     -0.320638    0.457616    0.970526
  C     -0.078440    1.210990    0.057354
  C      1.220749    1.941606   -0.074697
  C      1.549636    2.519967   -1.444403
  C      1.558983    1.505251   -2.494003
  C      1.543035    0.651512   -3.339402
  C      1.680905    2.628220    1.178750
  N      2.339222    1.413667    0.716586
  H     -0.820661    1.406459   -0.744063
  H      0.820184    3.302214   -1.694572
  H      2.527587    3.008956   -1.386106
  H      1.541392   -0.098858   -4.090833
  H      2.263036    3.541288    1.083377
  H      1.026415    2.574489    2.044050
  H      1.983961    0.620780    1.252622

 Total Charge           Charge          ....    0
 Multiplicity           Mult            ....    1
 Number of Electrons    NEL             ....   58
 Basis Dimension        Dim             ....  290

ORBITAL ENERGIES
----------------

  NO   OCC          E(Eh)            E(eV)
   0   2.0000     -20.567646      -559.6741
   1   2.0000     -15.576912      -423.8693
   2   2.0000     -11.345363      -308.7230
   3   2.0000     -11.291267      -307.2510
   4   2.0000     -11.280179      -306.9493
   5   2.0000     -11.274110      -306.7841
   6   2.0000     -11.244091      -305.9673
   7   2.0000     -11.232322      -305.6470
   8   2.0000      -1.409268       -38.3481
   9   2.0000      -1.287807       -35.0430
  10   2.0000      -1.087819       -29.6011
  11   2.0000      -1.000772       -27.2324
  12   2.0000      -0.921099       -25.0644
  13   2.0000      -0.895044       -24.3554
  14   2.0000      -0.780862       -21.2483
  15   2.0000      -0.738819       -20.1043
  16   2.0000      -0.722940       -19.6722
  17   2.0000      -0.673675       -18.3316
  18   2.0000      -0.646932       -17.6039
  19   2.0000      -0.638507       -17.3746
  20   2.0000      -0.605708       -16.4821
  21   2.0000      -0.578248       -15.7349
  22   2.0000      -0.547519       -14.8988
  23   2.0000      -0.512941       -13.9578
  24   2.0000      -0.486457       -13.2372
  25   2.0000      -0.440066       -11.9748
  26   2.0000      -0.416148       -11.3240
  27   2.0000      -0.397261       -10.8100
  28   2.0000      -0.391332       -10.6487
  29   0.0000       0.110400         3.0041
  30   0.0000       0.130883         3.5615
  31   0.0000       0.160479         4.3669
  32   0.0000       0.162681         4.4268
  33   0.0000       0.167514         4.5583

MULLIKEN ATOMIC CHARGES
-----------------------
   0 O :   -0.292205
   1 C :    0.103823
   2 C :    0.132094
   3 C :   -0.315881
   4 C :   -0.063756
   5 C :   -0.138802
   6 C :   -0.175457
   7 N :   -0.367330
   8 H :    0.099013
   9 H :    0.151705
  10 H :    0.157953
  11 H :    0.193942
  12 H :    0.129785
  13 H :    0.147921
  14 H :    0.237196
Sum of atomic charges:   -0.0000000

LOEWDIN ATOMIC CHARGES
----------------------
   0 O :    0.130290
   1 C :   -0.253776
   2 C :   -0.305915
   3 C :   -0.206724
   4 C :   -0.105973
   5 C :   -0.093964
   6 C :   -0.225231
   7 N :    0.035340
   8 H :    0.125258
   9 H :    0.164070
  10 H :    0.169977
  11 H :    0.128161
  12 H :    0.129712
  13 H :    0.130882
  14 H :    0.177894

  Mayer bond orders larger than 0.1
B(  0-O ,  1-C ) :   1.9211 B(  1-C ,  2-C ) :   0.9031 B(  1-C ,  8-H ) :   0.9403
B(  2-C ,  3-C ) :   0.8705 B(  2-C ,  6-C ) :   0.8877 B(  2-C ,  7-N ) :   0.9205
B(  3-C ,  4-C ) :   1.0996 B(  3-C ,  9-H ) :   0.9317 B(  3-C , 10-H ) :   0.9174
B(  4-C ,  5-C ) :   2.6122 B(  5-C , 11-H ) :   0.9013 B(  6-C ,  7-N ) :   0.9375
B(  6-C , 12-H ) :   0.9155 B(  6-C , 13-H ) :   0.9055 B(  7-N , 14-H ) :   0.8583

MP2 TOTAL ENERGY:     -361.980905383 Eh
FINAL SINGLE POINT ENERGY      -361.980905382676

DIPOLE MOMENT
-------------
                                X             Y             Z
Electronic contribution:     -1.28671      -2.59013      -0.07345
Nuclear contribution   :      1.11621       3.38942      -0.19206
                        -----------------------------------------
Total Dipole Moment    :     -0.17050       0.79929      -0.26551
                        -----------------------------------------
Magnitude (a.u.)       :      0.85932
Magnitude (Debye)      :      2.18422

                             ****ORCA TERMINATED NORMALLY****
TOTAL RUN TIME: 0 days 0 hours 11 minutes 5 seconds 738 msec
