                         Program Version 3.0.3 - RELEASE   -
|  1> ! RI-MP2 RIJK def2-TZVP def2-TZVP/C def2-TZVP/JK TIGHTSCF
|  2> % maxcore 2000
|  3> % mp2 density relaxed end
|  4> *xyz 0 1
|  5>  C        0.0799455924     1.4976441440     0.1638075148
|  6>  C       -0.0588152526    -0.0276216299     0.0267900217
|  7>  C       -1.5240019960    -0.4056393022    -0.0675292070
|  8>  O       -2.0953640992    -1.1732630229     0.6628014752
|  9>  C        0.6723353491    -0.5530305303    -1.2151932184
| 10>  C        2.2261830849    -0.4692041702    -1.2553381883
| 11>  C        2.2230052667    -1.8479517306    -1.9705063399
| 12>  O        3.2437389435    -2.7769902209    -1.7216884381
| 13>  C        0.7900745704    -2.0896965393    -1.4290067626
| 14>  H        1.1350657818     1.7849297226     0.1872898107
| 15>  H       -0.3871621818     2.0136902630    -0.6828843955
| 16>  H       -0.3914004528     1.8602427778     1.0820966532
| 17>  H        0.3421420204    -0.5238126034     0.9181132339
| 18>  H       -2.0636663061     0.0932506415    -0.9097583140
| 19>  H        0.2514688515    -0.0802733890    -2.1110295196
| 20>  H        2.6989338475     0.3771371468    -1.7583215211
| 21>  H        2.6473387962    -0.5620413420    -0.2466165259
| 22>  H        2.2081366959    -1.7157752739    -3.0566442574
| 23>  H        3.2693325397    -2.9464611704    -0.7739163255
| 24>  H        0.8214360237    -2.6144125503    -0.4664041661
| 25>  H        0.0659077846    -2.5907922305    -2.0749784601
| 26> *
| 27>
| 28>                          ****END OF INPUT****

CARTESIAN COORDINATES (ANGSTROEM)
---------------------------------
  C      0.079946    1.497644    0.163808
  C     -0.058815   -0.027622    0.026790
  C     -1.524002   -0.405639   -0.067529
  O     -2.095364   -1.173263    0.662801
  C      0.672335   -0.553031   -1.215193
  C      2.226183   -0.469204   -1.255338
  C      2.223005   -1.847952   -1.970506
  O      3.243739   -2.776990   -1.721688
  C      0.790075   -2.089697   -1.429007
  H      1.135066    1.784930    0.187290
  H     -0.387162    2.013690   -0.682884
  H     -0.391400    1.860243    1.082097
  H      0.342142   -0.523813    0.918113
  H     -2.063666    0.093251   -0.909758
  H      0.251469   -0.080273   -2.111030
  H      2.698934    0.377137   -1.758322
  H      2.647339   -0.562041   -0.246617
  H      2.208137   -1.715775   -3.056644
  H      3.269333   -2.946461   -0.773916
  H      0.821436   -2.614413   -0.466404
  H      0.065908   -2.590792   -2.074978

 Total Charge           Charge          ....    0
 Multiplicity           Mult            ....    1
 Number of Electrons    NEL             ....   70
 Basis Dimension        Dim             ....  351

ORBITAL ENERGIES
----------------

  NO   OCC          E(Eh)            E(eV)
   0   2.0000     -20.561734      -559.5132
   1   2.0000     -20.558665      -559.4297
   2   2.0000     -11.331157      -308.3365
   3   2.0000     -11.287536      -307.1495
   4   2.0000     -11.249761      -306.1216
   5   2.0000     -11.248667      -306.0918
   6   2.0000     -11.236939      -305.7726
   7   2.0000     -11.234161      -305.6971
   8   2.0000     -11.230933      -305.6092
   9   2.0000      -1.397218       -38.0202
  10   2.0000      -1.370315       -37.2882
  11   2.0000      -1.149684       -31.2845
  12   2.0000      -1.066432       -29.0191
  13   2.0000      -0.927069       -25.2268
  14   2.0000      -0.911123       -24.7929
  15   2.0000      -0.867089       -23.5947
  16   2.0000      -0.795034       -21.6340
  17   2.0000      -0.781292       -21.2600
  18   2.0000      -0.690866       -18.7994
  19   2.0000      -0.671181       -18.2638
  20   2.0000      -0.658383       -17.9155
  21   2.0000      -0.635067       -17.2811
  22   2.0000      -0.612100       -16.6561
  23   2.0000      -0.587187       -15.9782
  24   2.0000      -0.583045       -15.8655
  25   2.0000      -0.566829       -15.4242
  26   2.0000      -0.554579       -15.0909
  27   2.0000      -0.545194       -14.8355
  28   2.0000      -0.516194       -14.0463
  29   2.0000      -0.512648       -13.9499
  30   2.0000      -0.478936       -13.0325
  31   2.0000      -0.474442       -12.9102
  32   2.0000      -0.441225       -12.0064
  33   2.0000      -0.425577       -11.5805
  34   2.0000      -0.409793       -11.1510
  35   0.0000       0.123428         3.3586
  36   0.0000       0.129351         3.5198
  37   0.0000       0.130597         3.5537
  38   0.0000       0.152312         4.1446
  39   0.0000       0.168791         4.5930

MULLIKEN ATOMIC CHARGES
-----------------------
   0 C :   -0.420232
   1 C :    0.025966
   2 C :    0.088536
   3 O :   -0.259412
   4 C :   -0.157631
   5 C :   -0.239544
   6 C :    0.069654
   7 O :   -0.454115
   8 C :   -0.234229
   9 H :    0.143673
  10 H :    0.129305
  11 H :    0.149475
  12 H :    0.082514
  13 H :    0.066882
  14 H :    0.108272
  15 H :    0.128579
  16 H :    0.109596
  17 H :    0.101885
  18 H :    0.312184
  19 H :    0.118132
  20 H :    0.130508
Sum of atomic charges:   -0.0000000

LOEWDIN ATOMIC CHARGES
----------------------
   0 C :   -0.280911
   1 C :   -0.269804
   2 C :   -0.271599
   3 O :    0.135443
   4 C :   -0.210954
   5 C :   -0.207598
   6 C :   -0.335748
   7 O :   -0.014027
   8 C :   -0.205849
   9 H :    0.129519
  10 H :    0.126641
  11 H :    0.128162
  12 H :    0.157666
  13 H :    0.112304
  14 H :    0.154591
  15 H :    0.126041
  16 H :    0.138247
  17 H :    0.144739
  18 H :    0.174127
  19 H :    0.140947
  20 H :    0.128063

  Mayer bond orders larger than 0.1
B(  0-C ,  1-C ) :   0.9072 B(  0-C ,  9-H ) :   0.9352 B(  0-C , 10-H ) :   0.9243
B(  0-C , 11-H ) :   0.9386 B(  1-C ,  2-C ) :   0.8555 B(  1-C ,  4-C ) :   0.8882
B(  1-C , 12-H ) :   0.8922 B(  2-C ,  3-O ) :   2.0052 B(  2-C , 13-H ) :   0.9304
B(  4-C ,  5-C ) :   0.9230 B(  4-C ,  8-C ) :   0.9350 B(  4-C , 14-H ) :   0.9121
B(  5-C ,  6-C ) :   0.9158 B(  5-C , 15-H ) :   0.9232 B(  5-C , 16-H ) :   0.9174
B(  6-C ,  7-O ) :   0.9824 B(  6-C ,  8-C ) :   0.9237 B(  6-C , 17-H ) :   0.9314
B(  7-O , 18-H ) :   0.8392 B(  8-C , 19-H ) :   0.9157 B(  8-C , 20-H ) :   0.9270

MP2 TOTAL ENERGY:     -423.520928957 Eh
FINAL SINGLE POINT ENERGY      -423.520928956815

DIPOLE MOMENT
-------------
                                X             Y             Z
Electronic contribution:     -2.38535      -4.61361       0.74976
Nuclear contribution   :      2.73707       5.46228      -0.84787
                        -----------------------------------------
Total Dipole Moment    :      0.35172       0.84867      -0.09812
                        -----------------------------------------
Magnitude (a.u.)       :      0.92389
Magnitude (Debye)      :      2.34835

                             ****ORCA TERMINATED NORMALLY****
TOTAL RUN TIME: 0 days 0 hours 19 minutes 46 seconds 718 msec
