                         Program Version 3.0.3 - RELEASE   -
|  1> ! RI-MP2 RIJK def2-TZVP def2-TZVP/C def2-TZVP/JK TIGHTSCF
|  2> % maxcore 2000
|  3> % mp2 density relaxed end
|  4> *xyz 0 1
|  5>  O       -0.0702592892     1.4371878488     0.0429992769
|  6>  C        0.0174529180     0.0183485875     0.0177851904
|  7>  C        0.7728620459    -0.5346806034     1.2317605701
|  8>  C        0.7576906840    -2.0631998697     1.2544960349
|  9>  O        1.4415366617    -2.4698246243     2.4327522583
| 10>  C       -0.6811187718    -2.5908133235     1.2110529756
| 11>  C       -1.4412092496    -2.0511569888    -0.0002214061
| 12>  O       -2.7659767203    -2.5613520792     0.0777405009
| 13>  C       -1.4134030971    -0.5181830702    -0.0186826956
| 14>  H        0.8238019978     1.7884169063     0.1070670821
| 15>  H        0.5377965332    -0.3073706704    -0.9005064552
| 16>  H        1.8115631710    -0.1824043576     1.2321842554
| 17>  H        0.3005539109    -0.1598092284     2.1476036908
| 18>  H        1.2965798413    -2.4327187724     0.3638782545
| 19>  H        1.4040472859    -3.4306243579     2.4801323246
| 20>  H       -0.6883492372    -3.6872842927     1.1844817752
| 21>  H       -1.2023029332    -2.2828099013     2.1252971725
| 22>  H       -0.9508591426    -2.4242647186    -0.9169867609
| 23>  H       -3.2679633581    -2.1965320146    -0.6582710479
| 24>  H       -1.9581301361    -0.1402950894     0.8547346821
| 25>  H       -1.9217925645    -0.1344446303    -0.9115882285
| 26> *
| 27>
| 28>                          ****END OF INPUT****

CARTESIAN COORDINATES (ANGSTROEM)
---------------------------------
  O     -0.070259    1.437188    0.042999
  C      0.017453    0.018349    0.017785
  C      0.772862   -0.534681    1.231761
  C      0.757691   -2.063200    1.254496
  O      1.441537   -2.469825    2.432752
  C     -0.681119   -2.590813    1.211053
  C     -1.441209   -2.051157   -0.000221
  O     -2.765977   -2.561352    0.077741
  C     -1.413403   -0.518183   -0.018683
  H      0.823802    1.788417    0.107067
  H      0.537797   -0.307371   -0.900506
  H      1.811563   -0.182404    1.232184
  H      0.300554   -0.159809    2.147604
  H      1.296580   -2.432719    0.363878
  H      1.404047   -3.430624    2.480132
  H     -0.688349   -3.687284    1.184482
  H     -1.202303   -2.282810    2.125297
  H     -0.950859   -2.424265   -0.916987
  H     -3.267963   -2.196532   -0.658271
  H     -1.958130   -0.140295    0.854735
  H     -1.921793   -0.134445   -0.911588

 Total Charge           Charge          ....    0
 Multiplicity           Mult            ....    1
 Number of Electrons    NEL             ....   72
 Basis Dimension        Dim             ....  351

ORBITAL ENERGIES
----------------

  NO   OCC          E(Eh)            E(eV)
   0   2.0000     -20.558405      -559.4227
   1   2.0000     -20.558381      -559.4220
   2   2.0000     -20.558380      -559.4220
   3   2.0000     -11.286049      -307.1090
   4   2.0000     -11.286044      -307.1089
   5   2.0000     -11.286029      -307.1085
   6   2.0000     -11.222459      -305.3786
   7   2.0000     -11.222450      -305.3784
   8   2.0000     -11.222430      -305.3778
   9   2.0000      -1.367746       -37.2183
  10   2.0000      -1.363482       -37.1022
  11   2.0000      -1.363456       -37.1015
  12   2.0000      -1.107149       -30.1271
  13   2.0000      -0.998642       -27.1744
  14   2.0000      -0.998578       -27.1727
  15   2.0000      -0.838874       -22.8269
  16   2.0000      -0.838827       -22.8256
  17   2.0000      -0.777040       -21.1443
  18   2.0000      -0.719026       -19.5657
  19   2.0000      -0.683203       -18.5909
  20   2.0000      -0.683185       -18.5904
  21   2.0000      -0.655290       -17.8314
  22   2.0000      -0.620963       -16.8973
  23   2.0000      -0.612229       -16.6596
  24   2.0000      -0.612194       -16.6586
  25   2.0000      -0.557957       -15.1828
  26   2.0000      -0.557946       -15.1825
  27   2.0000      -0.530977       -14.4486
  28   2.0000      -0.529291       -14.4027
  29   2.0000      -0.529255       -14.4018
  30   2.0000      -0.473366       -12.8809
  31   2.0000      -0.473331       -12.8800
  32   2.0000      -0.471408       -12.8277
  33   2.0000      -0.448059       -12.1923
  34   2.0000      -0.434900       -11.8342
  35   2.0000      -0.434836       -11.8325
  36   0.0000       0.124788         3.3956
  37   0.0000       0.142001         3.8640
  38   0.0000       0.142002         3.8641
  39   0.0000       0.152452         4.1484
  40   0.0000       0.180313         4.9066

MULLIKEN ATOMIC CHARGES
-----------------------
   0 O :   -0.454969
   1 C :    0.045993
   2 C :   -0.224966
   3 C :    0.045861
   4 O :   -0.454914
   5 C :   -0.224772
   6 C :    0.045852
   7 O :   -0.454950
   8 C :   -0.225100
   9 H :    0.313526
  10 H :    0.076641
  11 H :    0.122799
  12 H :    0.121012
  13 H :    0.076649
  14 H :    0.313546
  15 H :    0.122757
  16 H :    0.121012
  17 H :    0.076634
  18 H :    0.313544
  19 H :    0.121048
  20 H :    0.122798
Sum of atomic charges:    0.0000000

LOEWDIN ATOMIC CHARGES
----------------------
   0 O :   -0.018361
   1 C :   -0.347390
   2 C :   -0.230755
   3 C :   -0.347340
   4 O :   -0.018342
   5 C :   -0.230821
   6 C :   -0.347314
   7 O :   -0.018368
   8 C :   -0.230755
   9 H :    0.173764
  10 H :    0.133960
  11 H :    0.139783
  12 H :    0.148963
  13 H :    0.133945
  14 H :    0.173789
  15 H :    0.139799
  16 H :    0.148981
  17 H :    0.133954
  18 H :    0.173771
  19 H :    0.148958
  20 H :    0.139779

  Mayer bond orders larger than 0.1
B(  0-O ,  1-C ) :   1.0035 B(  0-O ,  9-H ) :   0.8452 B(  1-C ,  2-C ) :   0.9199
B(  1-C ,  8-C ) :   0.8962 B(  1-C , 10-H ) :   0.9442 B(  2-C ,  3-C ) :   0.8961
B(  2-C , 11-H ) :   0.9231 B(  2-C , 12-H ) :   0.9148 B(  3-C ,  4-O ) :   1.0034
B(  3-C ,  5-C ) :   0.9198 B(  3-C , 13-H ) :   0.9442 B(  4-O , 14-H ) :   0.8452
B(  5-C ,  6-C ) :   0.8962 B(  5-C , 15-H ) :   0.9231 B(  5-C , 16-H ) :   0.9147
B(  6-C ,  7-O ) :   1.0036 B(  6-C ,  8-C ) :   0.9199 B(  6-C , 17-H ) :   0.9442
B(  7-O , 18-H ) :   0.8452 B(  8-C , 19-H ) :   0.9148 B(  8-C , 20-H ) :   0.9231

MP2 TOTAL ENERGY:     -460.660116666 Eh
FINAL SINGLE POINT ENERGY      -460.660116665612

DIPOLE MOMENT
-------------
                                X             Y             Z
Electronic contribution:     -0.25290       0.17384       0.44679
Nuclear contribution   :      0.67918      -0.46773      -1.19700
                        -----------------------------------------
Total Dipole Moment    :      0.42628      -0.29390      -0.75021
                        -----------------------------------------
Magnitude (a.u.)       :      0.91154
Magnitude (Debye)      :      2.31694

                             ****ORCA TERMINATED NORMALLY****
TOTAL RUN TIME: 0 days 0 hours 17 minutes 6 seconds 613 msec
