                         Program Version 3.0.3 - RELEASE   -
|  1> ! RI-MP2 RIJK def2-TZVP def2-TZVP/C def2-TZVP/JK TIGHTSCF
|  2> % maxcore 2000
|  3> % mp2 density relaxed end
|  4> *xyz 0 1
|  5>  N        0.0075660125     1.3603856485     0.0097325113
|  6>  C        1.1464259876     2.0850861999     0.0025264616
|  7>  C        2.3829737492     1.4699985013    -0.0131841501
|  8>  C        2.4713605758     0.0640974544    -0.0219753399
|  9>  C        1.3182839239    -0.6903166720    -0.0148080765
| 10>  C        0.9706614205    -2.0673070739    -0.0191848006
| 11>  N       -0.3487137968    -2.2302206560    -0.0069466469
| 12>  C       -0.9468123915    -0.9894526217     0.0060063416
| 13>  C        0.0195469570    -0.0110104462     0.0018948735
| 14>  H       -0.8788123961     1.8443561768     0.0212560703
| 15>  H        1.0240222122     3.1603585883     0.0097959487
| 16>  H        3.2723690215     2.0858886704    -0.0185362522
| 17>  H        3.4485554241    -0.4101351771    -0.0343495564
| 18>  H        1.6476393591    -2.9114667232    -0.0307029015
| 19>  H       -2.0226562489    -0.8881655296     0.0172862269
| 20> *
| 21>
| 22>                          ****END OF INPUT****

CARTESIAN COORDINATES (ANGSTROEM)
---------------------------------
  N      0.007566    1.360386    0.009733
  C      1.146426    2.085086    0.002526
  C      2.382974    1.469999   -0.013184
  C      2.471361    0.064097   -0.021975
  C      1.318284   -0.690317   -0.014808
  C      0.970661   -2.067307   -0.019185
  N     -0.348714   -2.230221   -0.006947
  C     -0.946812   -0.989453    0.006006
  C      0.019547   -0.011010    0.001895
  H     -0.878812    1.844356    0.021256
  H      1.024022    3.160359    0.009796
  H      3.272369    2.085889   -0.018536
  H      3.448555   -0.410135   -0.034350
  H      1.647639   -2.911467   -0.030703
  H     -2.022656   -0.888166    0.017286

 Total Charge           Charge          ....    0
 Multiplicity           Mult            ....    1
 Number of Electrons    NEL             ....   62
 Basis Dimension        Dim             ....  315

ORBITAL ENERGIES
----------------

  NO   OCC          E(Eh)            E(eV)
   0   2.0000     -15.648648      -425.8214
   1   2.0000     -15.538849      -422.8336
   2   2.0000     -11.320329      -308.0418
   3   2.0000     -11.278877      -306.9138
   4   2.0000     -11.269779      -306.6663
   5   2.0000     -11.244589      -305.9808
   6   2.0000     -11.230816      -305.6061
   7   2.0000     -11.229525      -305.5709
   8   2.0000     -11.217639      -305.2475
   9   2.0000      -1.321051       -35.9476
  10   2.0000      -1.235221       -33.6121
  11   2.0000      -1.109512       -30.1914
  12   2.0000      -1.041517       -28.3411
  13   2.0000      -0.958402       -26.0795
  14   2.0000      -0.900167       -24.4948
  15   2.0000      -0.842006       -22.9121
  16   2.0000      -0.806266       -21.9396
  17   2.0000      -0.718805       -19.5597
  18   2.0000      -0.702969       -19.1288
  19   2.0000      -0.687614       -18.7109
  20   2.0000      -0.645240       -17.5579
  21   2.0000      -0.605463       -16.4755
  22   2.0000      -0.604772       -16.4567
  23   2.0000      -0.559249       -15.2179
  24   2.0000      -0.543732       -14.7957
  25   2.0000      -0.506114       -13.7721
  26   2.0000      -0.500075       -13.6077
  27   2.0000      -0.431439       -11.7401
  28   2.0000      -0.407770       -11.0960
  29   2.0000      -0.319519        -8.6946
  30   2.0000      -0.264265        -7.1910
  31   0.0000       0.059272         1.6129
  32   0.0000       0.113668         3.0931
  33   0.0000       0.146117         3.9760
  34   0.0000       0.153858         4.1867
  35   0.0000       0.167488         4.5576

MULLIKEN ATOMIC CHARGES
-----------------------
   0 N :   -0.199194
   1 C :   -0.036889
   2 C :   -0.117524
   3 C :   -0.184591
   4 C :    0.086673
   5 C :   -0.142704
   6 N :   -0.240197
   7 C :   -0.163974
   8 C :    0.084107
   9 H :    0.256111
  10 H :    0.155562
  11 H :    0.143794
  12 H :    0.134753
  13 H :    0.115164
  14 H :    0.108910
Sum of atomic charges:   -0.0000000

LOEWDIN ATOMIC CHARGES
----------------------
   0 N :    0.244187
   1 C :   -0.192799
   2 C :   -0.173958
   3 C :   -0.081867
   4 C :   -0.128336
   5 C :   -0.249317
   6 N :    0.116897
   7 C :   -0.264896
   8 C :   -0.189884
   9 H :    0.212311
  10 H :    0.145146
  11 H :    0.152333
  12 H :    0.154158
  13 H :    0.129169
  14 H :    0.126858

  Mayer bond orders larger than 0.1
B(  0-N ,  1-C ) :   1.2468 B(  0-N ,  8-C ) :   1.0710 B(  0-N ,  9-H ) :   0.8621
B(  1-C ,  2-C ) :   1.3773 B(  1-C , 10-H ) :   0.9045 B(  2-C ,  3-C ) :   1.3065
B(  2-C , 11-H ) :   0.9193 B(  3-C ,  4-C ) :   1.3216 B(  3-C , 12-H ) :   0.9233
B(  4-C ,  5-C ) :   1.1997 B(  4-C ,  8-C ) :   0.9902 B(  5-C ,  6-N ) :   1.4738
B(  5-C , 13-H ) :   0.9498 B(  6-N ,  7-C ) :   1.2902 B(  7-C ,  8-C ) :   1.3746
B(  7-C , 14-H ) :   0.9653

MP2 TOTAL ENERGY:     -379.036431473 Eh
FINAL SINGLE POINT ENERGY      -379.036431472839

DIPOLE MOMENT
-------------
                                X             Y             Z
Electronic contribution:     -1.36725      -0.92420       0.00836
Nuclear contribution   :      1.78194       3.22062       0.00045
                        -----------------------------------------
Total Dipole Moment    :      0.41469       2.29643       0.00881
                        -----------------------------------------
Magnitude (a.u.)       :      2.33359
Magnitude (Debye)      :      5.93151

                             ****ORCA TERMINATED NORMALLY****
TOTAL RUN TIME: 0 days 0 hours 17 minutes 21 seconds 925 msec
