                         Program Version 3.0.3 - RELEASE   -
|  1> ! RI-MP2 RIJK def2-TZVP def2-TZVP/C def2-TZVP/JK TIGHTSCF
|  2> % maxcore 2000
|  3> % mp2 density relaxed end
|  4> *xyz 0 1
|  5>  C        0.0953854837     1.5866197214     0.1212292093
|  6>  C       -0.0186689217     0.0941634427     0.0596680848
|  7>  C       -1.3117731570    -0.7111224054    -0.1667961878
|  8>  C       -0.7715703926    -1.7855083124     0.8441666542
|  9>  N       -0.6786776008    -3.1740636471     0.4531369075
| 10>  C       -1.4140064441    -4.1642171103     1.0322942038
| 11>  O       -2.2409340925    -4.0030539342     1.9037954206
| 12>  C        0.5294577361    -0.9849928477     0.9609295586
| 13>  N        1.1358984190    -0.7016215173    -0.3417693515
| 14>  H        1.0968952456     1.8794656664     0.4461893211
| 15>  H       -0.0824730735     2.0328572837    -0.8643714724
| 16>  H       -0.6381528810     2.0089538970     0.8159574284
| 17>  H       -2.2221229386    -0.2268364750     0.1940848546
| 18>  H       -1.4760926784    -1.0471690618    -1.1964181142
| 19>  H       -1.3507537651    -1.7682836591     1.7676178135
| 20>  H       -0.0051284995    -3.4404341928    -0.2482998530
| 21>  H       -1.1678880874    -5.1582379029     0.6085034348
| 22>  H        1.1664009999    -0.9235628992     1.8367797162
| 23>  H        0.9217285979    -1.3917126660    -1.0604868985
| 24> *
| 25>
| 26>                          ****END OF INPUT****

CARTESIAN COORDINATES (ANGSTROEM)
---------------------------------
  C      0.095385    1.586620    0.121229
  C     -0.018669    0.094163    0.059668
  C     -1.311773   -0.711122   -0.166796
  C     -0.771570   -1.785508    0.844167
  N     -0.678678   -3.174064    0.453137
  C     -1.414006   -4.164217    1.032294
  O     -2.240934   -4.003054    1.903795
  C      0.529458   -0.984993    0.960930
  N      1.135898   -0.701622   -0.341769
  H      1.096895    1.879466    0.446189
  H     -0.082473    2.032857   -0.864371
  H     -0.638153    2.008954    0.815957
  H     -2.222123   -0.226836    0.194085
  H     -1.476093   -1.047169   -1.196418
  H     -1.350754   -1.768284    1.767618
  H     -0.005128   -3.440434   -0.248300
  H     -1.167888   -5.158238    0.608503
  H      1.166401   -0.923563    1.836780
  H      0.921729   -1.391713   -1.060487

 Total Charge           Charge          ....    0
 Multiplicity           Mult            ....    1
 Number of Electrons    NEL             ....   68
 Basis Dimension        Dim             ....  339

ORBITAL ENERGIES
----------------

  NO   OCC          E(Eh)            E(eV)
   0   2.0000     -20.525773      -558.5347
   1   2.0000     -15.593897      -424.3315
   2   2.0000     -15.567661      -423.6176
   3   2.0000     -11.352972      -308.9301
   4   2.0000     -11.281242      -306.9782
   5   2.0000     -11.275572      -306.8239
   6   2.0000     -11.265291      -306.5441
   7   2.0000     -11.239106      -305.8316
   8   2.0000     -11.225761      -305.4685
   9   2.0000      -1.386790       -37.7365
  10   2.0000      -1.299679       -35.3661
  11   2.0000      -1.234639       -33.5962
  12   2.0000      -1.049971       -28.5712
  13   2.0000      -0.998306       -27.1653
  14   2.0000      -0.908455       -24.7203
  15   2.0000      -0.871462       -23.7137
  16   2.0000      -0.801922       -21.8214
  17   2.0000      -0.762192       -20.7403
  18   2.0000      -0.727179       -19.7875
  19   2.0000      -0.674665       -18.3586
  20   2.0000      -0.657832       -17.9005
  21   2.0000      -0.645168       -17.5559
  22   2.0000      -0.608557       -16.5597
  23   2.0000      -0.589140       -16.0313
  24   2.0000      -0.584678       -15.9099
  25   2.0000      -0.566850       -15.4248
  26   2.0000      -0.537383       -14.6229
  27   2.0000      -0.509868       -13.8742
  28   2.0000      -0.492444       -13.4001
  29   2.0000      -0.461280       -12.5521
  30   2.0000      -0.440084       -11.9753
  31   2.0000      -0.435617       -11.8537
  32   2.0000      -0.396912       -10.8005
  33   2.0000      -0.386272       -10.5110
  34   0.0000       0.120264         3.2725
  35   0.0000       0.138822         3.7775
  36   0.0000       0.167779         4.5655
  37   0.0000       0.171028         4.6539
  38   0.0000       0.174414         4.7461

MULLIKEN ATOMIC CHARGES
-----------------------
   0 C :   -0.413096
   1 C :    0.142189
   2 C :   -0.225958
   3 C :    0.024428
   4 N :   -0.314734
   5 C :    0.192669
   6 O :   -0.363276
   7 C :   -0.154662
   8 N :   -0.342565
   9 H :    0.146094
  10 H :    0.133137
  11 H :    0.130505
  12 H :    0.130659
  13 H :    0.115986
  14 H :    0.153287
  15 H :    0.228753
  16 H :    0.081038
  17 H :    0.135977
  18 H :    0.199569
Sum of atomic charges:   -0.0000000

LOEWDIN ATOMIC CHARGES
----------------------
   0 C :   -0.272902
   1 C :   -0.286559
   2 C :   -0.180019
   3 C :   -0.236706
   4 N :    0.099191
   5 C :   -0.433549
   6 O :    0.057060
   7 C :   -0.204191
   8 N :    0.045212
   9 H :    0.135648
  10 H :    0.130834
  11 H :    0.129504
  12 H :    0.139713
  13 H :    0.129986
  14 H :    0.163809
  15 H :    0.182315
  16 H :    0.109641
  17 H :    0.134507
  18 H :    0.156507

  Mayer bond orders larger than 0.1
B(  0-C ,  1-C ) :   0.8924 B(  0-C ,  9-H ) :   0.9406 B(  0-C , 10-H ) :   0.9341
B(  0-C , 11-H ) :   0.9409 B(  1-C ,  2-C ) :   0.9474 B(  1-C ,  7-C ) :   0.8233
B(  1-C ,  8-N ) :   0.9041 B(  2-C ,  3-C ) :   0.9441 B(  2-C , 12-H ) :   0.9188
B(  2-C , 13-H ) :   0.9132 B(  3-C ,  4-N ) :   0.8309 B(  3-C ,  7-C ) :   0.8764
B(  3-C , 14-H ) :   0.8983 B(  4-N ,  5-C ) :   1.1550 B(  4-N , 15-H ) :   0.8668
B(  5-C ,  6-O ) :   1.8844 B(  5-C , 16-H ) :   0.9282 B(  7-C ,  8-N ) :   0.9712
B(  7-C , 17-H ) :   0.9309 B(  8-N , 18-H ) :   0.8639

MP2 TOTAL ENERGY:     -418.487609270 Eh
FINAL SINGLE POINT ENERGY      -418.487609269994

DIPOLE MOMENT
-------------
                                X             Y             Z
Electronic contribution:     -1.05226      -6.82958       2.03974
Nuclear contribution   :      1.51196       7.15168      -2.92824
                        -----------------------------------------
Total Dipole Moment    :      0.45970       0.32210      -0.88850
                        -----------------------------------------
Magnitude (a.u.)       :      1.05095
Magnitude (Debye)      :      2.67131

                             ****ORCA TERMINATED NORMALLY****
TOTAL RUN TIME: 0 days 0 hours 16 minutes 7 seconds 265 msec
