                         Program Version 3.0.3 - RELEASE   -
|  1> ! RI-MP2 RIJK def2-TZVP def2-TZVP/C def2-TZVP/JK TIGHTSCF
|  2> % maxcore 2000
|  3> % mp2 density relaxed end
|  4> *xyz 0 1
|  5>  C       -0.1016878526     1.5227028421     0.0131520869
|  6>  C        0.1159003868     0.0330541031    -0.1054393408
|  7>  C        0.8017053279    -0.6634651475    -1.2224423538
|  8>  C        1.9684639619     0.1027269199    -1.7706895098
|  9>  C        2.4815098781     0.1843241056    -0.3246845442
| 10>  N        1.3904045811    -0.6515126130     0.2107753373
| 11>  C        3.2716631183    -0.5536838014    -1.3728158878
| 12>  C        3.5237177137    -2.0418083952    -1.3518162794
| 13>  O        4.3404026921     0.2065646137    -1.8840869401
| 14>  H        0.6913284695     2.0995102896    -0.4652320604
| 15>  H       -1.0515725573     1.7976989081    -0.4574681954
| 16>  H       -0.1554102421     1.8181926938     1.0668168826
| 17>  H       -0.7037206459    -0.5525656363     0.3096773113
| 18>  H        0.3995609359    -1.5797234674    -1.6458032882
| 19>  H        1.9541672994     0.8461260887    -2.5594004645
| 20>  H        2.8958450573     1.0197128770     0.2284628290
| 21>  H        2.6893545579    -2.5797279130    -0.8989955623
| 22>  H        3.6911456904    -2.4172230045    -2.3663418078
| 23>  H        4.4191077233    -2.2640723648    -0.7573862695
| 24>  H        5.1043878343     0.0555414417    -1.3164964430
| 25> *
| 26>
| 27>                          ****END OF INPUT****

CARTESIAN COORDINATES (ANGSTROEM)
---------------------------------
  C     -0.101688    1.522703    0.013152
  C      0.115900    0.033054   -0.105439
  C      0.801705   -0.663465   -1.222442
  C      1.968464    0.102727   -1.770690
  C      2.481510    0.184324   -0.324685
  N      1.390405   -0.651513    0.210775
  C      3.271663   -0.553684   -1.372816
  C      3.523718   -2.041808   -1.351816
  O      4.340403    0.206565   -1.884087
  H      0.691328    2.099510   -0.465232
  H     -1.051573    1.797699   -0.457468
  H     -0.155410    1.818193    1.066817
  H     -0.703721   -0.552566    0.309677
  H      0.399561   -1.579723   -1.645803
  H      1.954167    0.846126   -2.559400
  H      2.895845    1.019713    0.228463
  H      2.689355   -2.579728   -0.898996
  H      3.691146   -2.417223   -2.366342
  H      4.419108   -2.264072   -0.757386
  H      5.104388    0.055541   -1.316496

 Total Charge           Charge          ....    0
 Multiplicity           Mult            ....    1
 Number of Electrons    NEL             ....   68
 Basis Dimension        Dim             ....  345

ORBITAL ENERGIES
----------------

  NO   OCC          E(Eh)            E(eV)
   0   2.0000     -20.563680      -559.5662
   1   2.0000     -15.563390      -423.5014
   2   2.0000     -11.292732      -307.2909
   3   2.0000     -11.265667      -306.5544
   4   2.0000     -11.264750      -306.5294
   5   2.0000     -11.259406      -306.3840
   6   2.0000     -11.234546      -305.7075
   7   2.0000     -11.222113      -305.3692
   8   2.0000     -11.215603      -305.1921
   9   2.0000      -1.377832       -37.4927
  10   2.0000      -1.300502       -35.3885
  11   2.0000      -1.102682       -30.0055
  12   2.0000      -0.990748       -26.9596
  13   2.0000      -0.969190       -26.3730
  14   2.0000      -0.926120       -25.2010
  15   2.0000      -0.818681       -22.2775
  16   2.0000      -0.755353       -20.5542
  17   2.0000      -0.745721       -20.2921
  18   2.0000      -0.695646       -18.9295
  19   2.0000      -0.668581       -18.1930
  20   2.0000      -0.639950       -17.4139
  21   2.0000      -0.624885       -17.0040
  22   2.0000      -0.584312       -15.8999
  23   2.0000      -0.573581       -15.6079
  24   2.0000      -0.569590       -15.4993
  25   2.0000      -0.543246       -14.7825
  26   2.0000      -0.535899       -14.5826
  27   2.0000      -0.506409       -13.7801
  28   2.0000      -0.489584       -13.3223
  29   2.0000      -0.487011       -13.2522
  30   2.0000      -0.438467       -11.9313
  31   2.0000      -0.412500       -11.2247
  32   2.0000      -0.393509       -10.7079
  33   2.0000      -0.353964        -9.6319
  34   0.0000       0.134059         3.6479
  35   0.0000       0.145809         3.9677
  36   0.0000       0.161393         4.3917
  37   0.0000       0.178896         4.8680
  38   0.0000       0.186476         5.0743

MULLIKEN ATOMIC CHARGES
-----------------------
   0 C :   -0.400538
   1 C :   -0.002755
   2 C :   -0.082471
   3 C :   -0.180991
   4 C :   -0.077505
   5 N :   -0.270023
   6 C :    0.213443
   7 C :   -0.410832
   8 O :   -0.464558
   9 H :    0.149792
  10 H :    0.135095
  11 H :    0.136684
  12 H :    0.110094
  13 H :    0.137184
  14 H :    0.138681
  15 H :    0.137551
  16 H :    0.154984
  17 H :    0.141218
  18 H :    0.113905
  19 H :    0.321043
Sum of atomic charges:    0.0000000

LOEWDIN ATOMIC CHARGES
----------------------
   0 C :   -0.292403
   1 C :   -0.261634
   2 C :   -0.172690
   3 C :   -0.152374
   4 C :   -0.197946
   5 N :    0.137961
   6 C :   -0.348386
   7 C :   -0.271609
   8 O :    0.028035
   9 H :    0.131683
  10 H :    0.130784
  11 H :    0.128907
  12 H :    0.150690
  13 H :    0.135760
  14 H :    0.143312
  15 H :    0.135209
  16 H :    0.138060
  17 H :    0.129402
  18 H :    0.125561
  19 H :    0.181678

  Mayer bond orders larger than 0.1
B(  0-C ,  1-C ) :   0.8946 B(  0-C ,  9-H ) :   0.9389 B(  0-C , 10-H ) :   0.9279
B(  0-C , 11-H ) :   0.9356 B(  1-C ,  2-C ) :   0.9349 B(  1-C ,  5-N ) :   0.9198
B(  1-C , 12-H ) :   0.9300 B(  2-C ,  3-C ) :   0.9245 B(  2-C ,  5-N ) :   0.7984
B(  2-C , 13-H ) :   0.9114 B(  3-C ,  4-C ) :   0.8579 B(  3-C ,  6-C ) :   0.8778
B(  3-C , 14-H ) :   0.9183 B(  4-C ,  5-N ) :   0.8617 B(  4-C ,  6-C ) :   0.8350
B(  4-C , 15-H ) :   0.9275 B(  6-C ,  7-C ) :   0.9439 B(  6-C ,  8-O ) :   0.9667
B(  7-C , 16-H ) :   0.9245 B(  7-C , 17-H ) :   0.9411 B(  7-C , 18-H ) :   0.9217
B(  8-O , 19-H ) :   0.8401

MP2 TOTAL ENERGY:     -402.395074308 Eh
FINAL SINGLE POINT ENERGY      -402.395074307747

DIPOLE MOMENT
-------------
                                X             Y             Z
Electronic contribution:      2.11721      -0.24531      -0.66322
Nuclear contribution   :     -2.19903       0.38378       0.73018
                        -----------------------------------------
Total Dipole Moment    :     -0.08182       0.13848       0.06696
                        -----------------------------------------
Magnitude (a.u.)       :      0.17422
Magnitude (Debye)      :      0.44284

                             ****ORCA TERMINATED NORMALLY****
TOTAL RUN TIME: 0 days 0 hours 19 minutes 15 seconds 476 msec
