                         Program Version 3.0.3 - RELEASE   -
|  1> ! RI-MP2 RIJK def2-TZVP def2-TZVP/C def2-TZVP/JK TIGHTSCF
|  2> % maxcore 2000
|  3> % mp2 density relaxed end
|  4> *xyz 0 1
|  5>  N        0.0413272452     1.4200732395     0.0368393275
|  6>  C       -0.0076926032    -0.0170403595    -0.0450271181
|  7>  C       -0.7230763588    -0.7894873884     1.0472635075
|  8>  C       -1.3077207146    -0.7663811382    -0.3398614716
|  9>  O       -2.3989092708     0.0833522300    -0.5964168872
| 10>  C       -3.6243392366    -0.3646364103    -0.2137207264
| 11>  O       -4.6138619366     0.2711681771    -0.3983099072
| 12>  C        1.1938814026    -0.6081807367    -0.5897712359
| 13>  N        2.1366040446    -1.0978651726    -1.0455395603
| 14>  H        0.1649273762     1.8111501093    -0.8936664823
| 15>  H       -0.8483387989     1.7708630715     0.3775861168
| 16>  H       -0.2796051906    -1.7099468707     1.4067987333
| 17>  H       -1.2086704455    -0.1839024648     1.8055970208
| 18>  H       -1.2770504525    -1.6603142415    -0.9551759925
| 19>  H       -3.5838327304    -1.3570964947     0.2706969156
| 20> *
| 21>
| 22>                          ****END OF INPUT****

CARTESIAN COORDINATES (ANGSTROEM)
---------------------------------
  N      0.041327    1.420073    0.036839
  C     -0.007693   -0.017040   -0.045027
  C     -0.723076   -0.789487    1.047264
  C     -1.307721   -0.766381   -0.339861
  O     -2.398909    0.083352   -0.596417
  C     -3.624339   -0.364636   -0.213721
  O     -4.613862    0.271168   -0.398310
  C      1.193881   -0.608181   -0.589771
  N      2.136604   -1.097865   -1.045540
  H      0.164927    1.811150   -0.893666
  H     -0.848339    1.770863    0.377586
  H     -0.279605   -1.709947    1.406799
  H     -1.208670   -0.183902    1.805597
  H     -1.277050   -1.660314   -0.955176
  H     -3.583833   -1.357096    0.270697

 Total Charge           Charge          ....    0
 Multiplicity           Mult            ....    1
 Number of Electrons    NEL             ....   66
 Basis Dimension        Dim             ....  315

ORBITAL ENERGIES
----------------

  NO   OCC          E(Eh)            E(eV)
   0   2.0000     -20.640454      -561.6553
   1   2.0000     -20.577458      -559.9411
   2   2.0000     -15.586930      -424.1419
   3   2.0000     -15.586401      -424.1275
   4   2.0000     -11.407861      -310.4237
   5   2.0000     -11.344641      -308.7034
   6   2.0000     -11.343527      -308.6731
   7   2.0000     -11.288631      -307.1793
   8   2.0000     -11.284370      -307.0633
   9   2.0000      -1.493335       -40.6357
  10   2.0000      -1.404701       -38.2239
  11   2.0000      -1.269264       -34.5384
  12   2.0000      -1.222238       -33.2588
  13   2.0000      -1.144073       -31.1318
  14   2.0000      -0.931268       -25.3411
  15   2.0000      -0.917666       -24.9710
  16   2.0000      -0.854278       -23.2461
  17   2.0000      -0.771289       -20.9878
  18   2.0000      -0.760910       -20.7054
  19   2.0000      -0.695507       -18.9257
  20   2.0000      -0.689824       -18.7711
  21   2.0000      -0.672099       -18.2887
  22   2.0000      -0.645795       -17.5730
  23   2.0000      -0.615257       -16.7420
  24   2.0000      -0.598403       -16.2834
  25   2.0000      -0.571104       -15.5405
  26   2.0000      -0.557294       -15.1647
  27   2.0000      -0.530700       -14.4411
  28   2.0000      -0.493909       -13.4400
  29   2.0000      -0.489570       -13.3219
  30   2.0000      -0.475765       -12.9462
  31   2.0000      -0.456887       -12.4325
  32   2.0000      -0.405377       -11.0309
  33   0.0000       0.111888         3.0446
  34   0.0000       0.121546         3.3074
  35   0.0000       0.132223         3.5980
  36   0.0000       0.151271         4.1163
  37   0.0000       0.158260         4.3065

MULLIKEN ATOMIC CHARGES
-----------------------
   0 N :   -0.502167
   1 C :    0.268237
   2 C :   -0.256713
   3 C :   -0.065365
   4 O :   -0.206850
   5 C :    0.191460
   6 O :   -0.247334
   7 C :   -0.227950
   8 N :   -0.041085
   9 H :    0.250164
  10 H :    0.247407
  11 H :    0.169165
  12 H :    0.166862
  13 H :    0.154678
  14 H :    0.099492
Sum of atomic charges:    0.0000000

LOEWDIN ATOMIC CHARGES
----------------------
   0 N :   -0.082379
   1 C :   -0.309942
   2 C :   -0.160651
   3 C :   -0.253048
   4 O :    0.261116
   5 C :   -0.428317
   6 O :    0.140319
   7 C :   -0.145403
   8 N :    0.079257
   9 H :    0.173254
  10 H :    0.167646
  11 H :    0.149486
  12 H :    0.150308
  13 H :    0.147424
  14 H :    0.110930

  Mayer bond orders larger than 0.1
B(  0-N ,  1-C ) :   0.9769 B(  0-N ,  9-H ) :   0.8777 B(  0-N , 10-H ) :   0.8721
B(  1-C ,  2-C ) :   0.8235 B(  1-C ,  3-C ) :   0.8440 B(  1-C ,  7-C ) :   0.9433
B(  2-C ,  3-C ) :   0.9023 B(  2-C , 11-H ) :   0.9157 B(  2-C , 12-H ) :   0.9157
B(  3-C ,  4-O ) :   0.9325 B(  3-C , 13-H ) :   0.9168 B(  4-O ,  5-C ) :   1.0130
B(  5-C ,  6-O ) :   2.0449 B(  5-C , 14-H ) :   0.9198 B(  7-C ,  8-N ) :   2.8535

MP2 TOTAL ENERGY:     -453.207378606 Eh
FINAL SINGLE POINT ENERGY      -453.207378606432

DIPOLE MOMENT
-------------
                                X             Y             Z
Electronic contribution:     -0.31525      -0.12921      -2.53616
Nuclear contribution   :     -0.28521      -0.26309       3.20286
                        -----------------------------------------
Total Dipole Moment    :     -0.60047      -0.39230       0.66671
                        -----------------------------------------
Magnitude (a.u.)       :      0.97926
Magnitude (Debye)      :      2.48909

                             ****ORCA TERMINATED NORMALLY****
TOTAL RUN TIME: 0 days 0 hours 14 minutes 11 seconds 919 msec
