                         Program Version 3.0.3 - RELEASE   -
|  1> ! RI-MP2 RIJK def2-TZVP def2-TZVP/C def2-TZVP/JK TIGHTSCF
|  2> % maxcore 2000
|  3> % mp2 density relaxed end
|  4> *xyz 0 1
|  5>  C       -0.1204117689     1.5182063953    -0.0773533220
|  6>  C        0.0309603250     0.0023970875    -0.0005371146
|  7>  C        1.2075732960    -0.5933992800    -0.8261859688
|  8>  C        2.1064357489    -0.4330256638     0.4314373923
|  9>  C        0.7851292340    -0.5763815104     1.2457170443
| 10>  C        0.6399451974     0.0803082257     2.6070375973
| 11>  C        0.4512754660    -2.0809728329     1.3032405627
| 12>  O        0.9507997796    -2.7985698403     0.1833511860
| 13>  C        0.9471053928    -2.0865487478    -1.0475846273
| 14>  H        0.8266918831     2.0423214845     0.0869477720
| 15>  H       -0.4900231503     1.8134181994    -1.0656511037
| 16>  H       -0.8361052058     1.8861817333     0.6657180586
| 17>  H       -0.9448035696    -0.4636837429    -0.1926562503
| 18>  H        1.4901386126    -0.0945359596    -1.7575044826
| 19>  H        2.8857260553    -1.1807773231     0.5971684975
| 20>  H        2.5357567476     0.5674856633     0.5154134140
| 21>  H        0.8209457223     1.1579343674     2.5544258553
| 22>  H       -0.3667843737    -0.0676935651     3.0171083007
| 23>  H        1.3535773442    -0.3421893860     3.3237619915
| 24>  H        0.9182180274    -2.5463588042     2.1796548387
| 25>  H       -0.6410586425    -2.2088316470     1.3974071478
| 26>  H       -0.0094774659    -2.2259452062    -1.5793729873
| 27>  H        1.7375471843    -2.5433217372    -1.6542999322
| 28> *
| 29>
| 30>                          ****END OF INPUT****

CARTESIAN COORDINATES (ANGSTROEM)
---------------------------------
  C     -0.120412    1.518206   -0.077353
  C      0.030960    0.002397   -0.000537
  C      1.207573   -0.593399   -0.826186
  C      2.106436   -0.433026    0.431437
  C      0.785129   -0.576382    1.245717
  C      0.639945    0.080308    2.607038
  C      0.451275   -2.080973    1.303241
  O      0.950800   -2.798570    0.183351
  C      0.947105   -2.086549   -1.047585
  H      0.826692    2.042321    0.086948
  H     -0.490023    1.813418   -1.065651
  H     -0.836105    1.886182    0.665718
  H     -0.944804   -0.463684   -0.192656
  H      1.490139   -0.094536   -1.757504
  H      2.885726   -1.180777    0.597168
  H      2.535757    0.567486    0.515413
  H      0.820946    1.157934    2.554426
  H     -0.366784   -0.067694    3.017108
  H      1.353577   -0.342189    3.323762
  H      0.918218   -2.546359    2.179655
  H     -0.641059   -2.208832    1.397407
  H     -0.009477   -2.225945   -1.579373
  H      1.737547   -2.543322   -1.654300

 Total Charge           Charge          ....    0
 Multiplicity           Mult            ....    1
 Number of Electrons    NEL             ....   70
 Basis Dimension        Dim             ....  363

ORBITAL ENERGIES
----------------

  NO   OCC          E(Eh)            E(eV)
   0   2.0000     -20.544612      -559.0473
   1   2.0000     -11.268579      -306.6336
   2   2.0000     -11.267638      -306.6080
   3   2.0000     -11.234098      -305.6954
   4   2.0000     -11.226922      -305.5001
   5   2.0000     -11.225142      -305.4516
   6   2.0000     -11.217042      -305.2312
   7   2.0000     -11.216044      -305.2041
   8   2.0000     -11.215859      -305.1990
   9   2.0000      -1.366935       -37.1962
  10   2.0000      -1.151078       -31.3224
  11   2.0000      -1.030123       -28.0311
  12   2.0000      -0.983296       -26.7568
  13   2.0000      -0.943525       -25.6746
  14   2.0000      -0.888095       -24.1663
  15   2.0000      -0.830992       -22.6124
  16   2.0000      -0.804810       -21.9000
  17   2.0000      -0.704068       -19.1587
  18   2.0000      -0.666138       -18.1265
  19   2.0000      -0.655924       -17.8486
  20   2.0000      -0.625285       -17.0149
  21   2.0000      -0.609655       -16.5896
  22   2.0000      -0.603833       -16.4311
  23   2.0000      -0.557025       -15.1574
  24   2.0000      -0.554867       -15.0987
  25   2.0000      -0.545407       -14.8413
  26   2.0000      -0.534417       -14.5422
  27   2.0000      -0.526184       -14.3182
  28   2.0000      -0.521097       -14.1798
  29   2.0000      -0.508352       -13.8330
  30   2.0000      -0.445896       -12.1334
  31   2.0000      -0.432855       -11.7786
  32   2.0000      -0.417043       -11.3483
  33   2.0000      -0.409707       -11.1487
  34   2.0000      -0.401436       -10.9236
  35   0.0000       0.131579         3.5804
  36   0.0000       0.155017         4.2182
  37   0.0000       0.161084         4.3833
  38   0.0000       0.172311         4.6888
  39   0.0000       0.188550         5.1307

MULLIKEN ATOMIC CHARGES
-----------------------
   0 C :   -0.462158
   1 C :   -0.138064
   2 C :   -0.014731
   3 C :   -0.345577
   4 C :    0.155407
   5 C :   -0.415972
   6 C :   -0.070745
   7 O :   -0.324651
   8 C :   -0.069563
   9 H :    0.130487
  10 H :    0.136944
  11 H :    0.137925
  12 H :    0.102719
  13 H :    0.114112
  14 H :    0.127088
  15 H :    0.122673
  16 H :    0.136176
  17 H :    0.132991
  18 H :    0.136853
  19 H :    0.109906
  20 H :    0.091288
  21 H :    0.092282
  22 H :    0.114611
Sum of atomic charges:   -0.0000000

LOEWDIN ATOMIC CHARGES
----------------------
   0 C :   -0.293030
   1 C :   -0.198592
   2 C :   -0.208701
   3 C :   -0.173678
   4 C :   -0.264702
   5 C :   -0.273086
   6 C :   -0.268506
   7 O :    0.151765
   8 C :   -0.289620
   9 H :    0.124465
  10 H :    0.125866
  11 H :    0.124802
  12 H :    0.142568
  13 H :    0.140183
  14 H :    0.133460
  15 H :    0.135331
  16 H :    0.127454
  17 H :    0.129050
  18 H :    0.128719
  19 H :    0.131700
  20 H :    0.123435
  21 H :    0.122020
  22 H :    0.129098

  Mayer bond orders larger than 0.1
B(  0-C ,  1-C ) :   0.8902 B(  0-C ,  9-H ) :   0.9365 B(  0-C , 10-H ) :   0.9397
B(  0-C , 11-H ) :   0.9431 B(  1-C ,  2-C ) :   0.8820 B(  1-C ,  4-C ) :   0.8481
B(  1-C , 12-H ) :   0.9268 B(  2-C ,  3-C ) :   0.9120 B(  2-C ,  8-C ) :   0.9102
B(  2-C , 13-H ) :   0.9146 B(  3-C ,  4-C ) :   0.9125 B(  3-C , 14-H ) :   0.9092
B(  3-C , 15-H ) :   0.9208 B(  4-C ,  5-C ) :   0.8745 B(  4-C ,  6-C ) :   0.8945
B(  5-C , 16-H ) :   0.9390 B(  5-C , 17-H ) :   0.9368 B(  5-C , 18-H ) :   0.9394
B(  6-C ,  7-O ) :   0.9504 B(  6-C , 19-H ) :   0.9266 B(  6-C , 20-H ) :   0.9266
B(  7-O ,  8-C ) :   0.9419 B(  8-C , 21-H ) :   0.9301 B(  8-C , 22-H ) :   0.9287

MP2 TOTAL ENERGY:     -387.616386159 Eh
FINAL SINGLE POINT ENERGY      -387.616386159016

DIPOLE MOMENT
-------------
                                X             Y             Z
Electronic contribution:      1.28651      -5.73354      -1.89901
Nuclear contribution   :     -1.40800       6.33759       1.88557
                        -----------------------------------------
Total Dipole Moment    :     -0.12149       0.60404      -0.01344
                        -----------------------------------------
Magnitude (a.u.)       :      0.61629
Magnitude (Debye)      :      1.56647

                             ****ORCA TERMINATED NORMALLY****
TOTAL RUN TIME: 0 days 0 hours 22 minutes 36 seconds 560 msec
