                         Program Version 3.0.3 - RELEASE   -
|  1> ! RI-MP2 RIJK def2-TZVP def2-TZVP/C def2-TZVP/JK TIGHTSCF
|  2> % maxcore 2000
|  3> % mp2 density relaxed end
|  4> *xyz 0 1
|  5>  C       -0.2488174269     1.4005824923     0.0522884716
|  6>  N       -0.0369247635    -0.0364942160    -0.0112993934
|  7>  C       -0.0161265568    -0.7168077112     1.2681388658
|  8>  C        0.1010799522    -0.6335513516    -1.2384990860
|  9>  O        0.0972353165     0.0091627424    -2.2760890083
| 10>  C        0.2884132142    -2.1560474406    -1.2677929953
| 11>  C        0.1610804460    -2.6998690571    -2.6711791409
| 12>  C       -0.0908045943    -4.1252951662    -2.9088958976
| 13>  O       -1.1363237842    -3.1633615714    -3.0532015753
| 14>  H        0.5530929834     1.8845614441     0.6240953285
| 15>  H       -0.2589853434     1.7911507568    -0.9633847570
| 16>  H       -1.2035093593     1.6278239239     0.5436216196
| 17>  H       -0.9998283223    -0.6788391045     1.7565875847
| 18>  H        0.2742001600    -1.7598601900     1.1625391508
| 19>  H        0.7063018921    -0.2338188668     1.9385433908
| 20>  H        1.2826979518    -2.3952863272    -0.8662187240
| 21>  H       -0.4457360757    -2.6618361186    -0.6339100348
| 22>  H        0.6685496142    -2.1182636667    -3.4365848907
| 23>  H        0.2533333548    -4.5896631886    -3.8321201082
| 24>  H       -0.1943875389    -4.8052713031    -2.0631100803
| 25> *
| 26>
| 27>                          ****END OF INPUT****

CARTESIAN COORDINATES (ANGSTROEM)
---------------------------------
  C     -0.248817    1.400582    0.052288
  N     -0.036925   -0.036494   -0.011299
  C     -0.016127   -0.716808    1.268139
  C      0.101080   -0.633551   -1.238499
  O      0.097235    0.009163   -2.276089
  C      0.288413   -2.156047   -1.267793
  C      0.161080   -2.699869   -2.671179
  C     -0.090805   -4.125295   -2.908896
  O     -1.136324   -3.163362   -3.053202
  H      0.553093    1.884561    0.624095
  H     -0.258985    1.791151   -0.963385
  H     -1.203509    1.627824    0.543622
  H     -0.999828   -0.678839    1.756588
  H      0.274200   -1.759860    1.162539
  H      0.706302   -0.233819    1.938543
  H      1.282698   -2.395286   -0.866219
  H     -0.445736   -2.661836   -0.633910
  H      0.668550   -2.118264   -3.436585
  H      0.253333   -4.589663   -3.832120
  H     -0.194388   -4.805271   -2.063110

 Total Charge           Charge          ....    0
 Multiplicity           Mult            ....    1
 Number of Electrons    NEL             ....   70
 Basis Dimension        Dim             ....  345

ORBITAL ENERGIES
----------------

  NO   OCC          E(Eh)            E(eV)
   0   2.0000     -20.563939      -559.5732
   1   2.0000     -20.512586      -558.1758
   2   2.0000     -15.588336      -424.1802
   3   2.0000     -11.350646      -308.8668
   4   2.0000     -11.285763      -307.1012
   5   2.0000     -11.280925      -306.9696
   6   2.0000     -11.273899      -306.7784
   7   2.0000     -11.253890      -306.2339
   8   2.0000     -11.249966      -306.1271
   9   2.0000      -1.408561       -38.3289
  10   2.0000      -1.380703       -37.5708
  11   2.0000      -1.246472       -33.9182
  12   2.0000      -1.046961       -28.4892
  13   2.0000      -0.976393       -26.5690
  14   2.0000      -0.941833       -25.6286
  15   2.0000      -0.906017       -24.6540
  16   2.0000      -0.824566       -22.4376
  17   2.0000      -0.742711       -20.2102
  18   2.0000      -0.711312       -19.3558
  19   2.0000      -0.677194       -18.4274
  20   2.0000      -0.662100       -18.0167
  21   2.0000      -0.654706       -17.8154
  22   2.0000      -0.635992       -17.3062
  23   2.0000      -0.604167       -16.4402
  24   2.0000      -0.580265       -15.7898
  25   2.0000      -0.562443       -15.3049
  26   2.0000      -0.561310       -15.2740
  27   2.0000      -0.539871       -14.6906
  28   2.0000      -0.535391       -14.5687
  29   2.0000      -0.519612       -14.1394
  30   2.0000      -0.506899       -13.7934
  31   2.0000      -0.447800       -12.1853
  32   2.0000      -0.440599       -11.9893
  33   2.0000      -0.418508       -11.3882
  34   2.0000      -0.374936       -10.2025
  35   0.0000       0.121945         3.3183
  36   0.0000       0.152064         4.1379
  37   0.0000       0.165457         4.5023
  38   0.0000       0.175400         4.7729
  39   0.0000       0.186594         5.0775

MULLIKEN ATOMIC CHARGES
-----------------------
   0 C :   -0.320979
   1 N :   -0.101959
   2 C :   -0.321618
   3 C :    0.232611
   4 O :   -0.387255
   5 C :   -0.276864
   6 C :    0.034221
   7 C :   -0.062329
   8 O :   -0.332451
   9 H :    0.130693
  10 H :    0.186275
  11 H :    0.131827
  12 H :    0.142143
  13 H :    0.151816
  14 H :    0.139933
  15 H :    0.139566
  16 H :    0.143071
  17 H :    0.144917
  18 H :    0.116738
  19 H :    0.109644
Sum of atomic charges:   -0.0000000

LOEWDIN ATOMIC CHARGES
----------------------
   0 C :   -0.288464
   1 N :    0.141633
   2 C :   -0.295661
   3 C :   -0.426146
   4 O :    0.080365
   5 C :   -0.226880
   6 C :   -0.284592
   7 C :   -0.272518
   8 O :    0.145022
   9 H :    0.116379
  10 H :    0.136060
  11 H :    0.117397
  12 H :    0.118659
  13 H :    0.125236
  14 H :    0.120390
  15 H :    0.155778
  16 H :    0.154935
  17 H :    0.146000
  18 H :    0.118968
  19 H :    0.117439

  Mayer bond orders larger than 0.1
B(  0-C ,  1-N ) :   0.8673 B(  0-C ,  9-H ) :   0.9340 B(  0-C , 10-H ) :   0.9213
B(  0-C , 11-H ) :   0.9315 B(  1-N ,  2-C ) :   0.8956 B(  1-N ,  3-C ) :   1.2139
B(  2-C , 12-H ) :   0.9311 B(  2-C , 13-H ) :   0.9308 B(  2-C , 14-H ) :   0.9310
B(  3-C ,  4-O ) :   1.8685 B(  3-C ,  5-C ) :   0.9203 B(  5-C ,  6-C ) :   0.9136
B(  5-C , 15-H ) :   0.8921 B(  5-C , 16-H ) :   0.9170 B(  6-C ,  7-C ) :   0.9692
B(  6-C ,  8-O ) :   0.9057 B(  6-C , 17-H ) :   0.9212 B(  7-C ,  8-O ) :   0.9097
B(  7-C , 18-H ) :   0.9164 B(  7-C , 19-H ) :   0.9159

MP2 TOTAL ENERGY:     -439.558666053 Eh
FINAL SINGLE POINT ENERGY      -439.558666052784

DIPOLE MOMENT
-------------
                                X             Y             Z
Electronic contribution:     -1.06434      -1.10968      -6.72577
Nuclear contribution   :      1.71616       0.68907       8.33796
                        -----------------------------------------
Total Dipole Moment    :      0.65182      -0.42061       1.61219
                        -----------------------------------------
Magnitude (a.u.)       :      1.78912
Magnitude (Debye)      :      4.54758

                             ****ORCA TERMINATED NORMALLY****
TOTAL RUN TIME: 0 days 0 hours 17 minutes 32 seconds 531 msec
