                         Program Version 3.0.3 - RELEASE   -
|  1> ! RI-MP2 RIJK def2-TZVP def2-TZVP/C def2-TZVP/JK TIGHTSCF
|  2> % maxcore 2000
|  3> % mp2 density relaxed end
|  4> *xyz 0 1
|  5>  C       -0.0065271813     1.5092229693     0.1177434877
|  6>  C       -0.0607927724     0.0236354014    -0.0028167039
|  7>  C       -0.0710948549    -0.7738318678    -1.0794207220
|  8>  C       -0.0319821138    -0.4566457387    -2.5362366240
|  9>  C        0.0065137212    -2.1933992906    -0.5168708296
| 10>  C        1.4728973053    -2.4107401034    -0.0173604062
| 11>  C        1.4852940628    -1.4838159845     1.2336655401
| 12>  C        0.0233417206    -0.9289372128     1.1901378306
| 13>  O       -0.6979090770    -2.0747664143     0.7241157421
| 14>  H        0.9095947334     1.8352102081     0.6285799013
| 15>  H       -0.0332146021     2.0014349769    -0.8584224102
| 16>  H       -0.8460970518     1.8928341457     0.7115458429
| 17>  H       -0.0498863988     0.6208249524    -2.7223056324
| 18>  H        0.8741019699    -0.8597359380    -3.0084930365
| 19>  H       -0.8830032553    -0.9041305451    -3.0655386316
| 20>  H       -0.4128895817    -2.9952588036    -1.1256309360
| 21>  H        1.6288738344    -3.4560445284     0.2596575746
| 22>  H        2.2174585386    -2.1405903310    -0.7702124694
| 23>  H        1.6477571553    -2.0547322839     2.1509349228
| 24>  H        2.2367643967    -0.6919498175     1.1848334469
| 25>  H       -0.3806404293    -0.5764272844     2.1398744727
| 26> *
| 27>
| 28>                          ****END OF INPUT****

CARTESIAN COORDINATES (ANGSTROEM)
---------------------------------
  C     -0.006527    1.509223    0.117743
  C     -0.060793    0.023635   -0.002817
  C     -0.071095   -0.773832   -1.079421
  C     -0.031982   -0.456646   -2.536237
  C      0.006514   -2.193399   -0.516871
  C      1.472897   -2.410740   -0.017360
  C      1.485294   -1.483816    1.233666
  C      0.023342   -0.928937    1.190138
  O     -0.697909   -2.074766    0.724116
  H      0.909595    1.835210    0.628580
  H     -0.033215    2.001435   -0.858422
  H     -0.846097    1.892834    0.711546
  H     -0.049886    0.620825   -2.722306
  H      0.874102   -0.859736   -3.008493
  H     -0.883003   -0.904131   -3.065539
  H     -0.412890   -2.995259   -1.125631
  H      1.628874   -3.456045    0.259658
  H      2.217459   -2.140590   -0.770212
  H      1.647757   -2.054732    2.150935
  H      2.236764   -0.691950    1.184833
  H     -0.380640   -0.576427    2.139874

 Total Charge           Charge          ....    0
 Multiplicity           Mult            ....    1
 Number of Electrons    NEL             ....   68
 Basis Dimension        Dim             ....  351

ORBITAL ENERGIES
----------------

  NO   OCC          E(Eh)            E(eV)
   0   2.0000     -20.543000      -559.0035
   1   2.0000     -11.275579      -306.8241
   2   2.0000     -11.275557      -306.8235
   3   2.0000     -11.226262      -305.4821
   4   2.0000     -11.226256      -305.4819
   5   2.0000     -11.222976      -305.3927
   6   2.0000     -11.221541      -305.3537
   7   2.0000     -11.221306      -305.3473
   8   2.0000     -11.220990      -305.3387
   9   2.0000      -1.384749       -37.6809
  10   2.0000      -1.103810       -30.0362
  11   2.0000      -1.030033       -28.0286
  12   2.0000      -1.014255       -27.5993
  13   2.0000      -0.950739       -25.8709
  14   2.0000      -0.922151       -25.0930
  15   2.0000      -0.795613       -21.6497
  16   2.0000      -0.783081       -21.3087
  17   2.0000      -0.694203       -18.8902
  18   2.0000      -0.689760       -18.7693
  19   2.0000      -0.654853       -17.8195
  20   2.0000      -0.610158       -16.6033
  21   2.0000      -0.588192       -16.0055
  22   2.0000      -0.568035       -15.4570
  23   2.0000      -0.562900       -15.3173
  24   2.0000      -0.555539       -15.1170
  25   2.0000      -0.535958       -14.5841
  26   2.0000      -0.529306       -14.4031
  27   2.0000      -0.521432       -14.1889
  28   2.0000      -0.496273       -13.5043
  29   2.0000      -0.487926       -13.2771
  30   2.0000      -0.467241       -12.7143
  31   2.0000      -0.440419       -11.9844
  32   2.0000      -0.413973       -11.2648
  33   2.0000      -0.326470        -8.8837
  34   0.0000       0.133529         3.6335
  35   0.0000       0.151511         4.1228
  36   0.0000       0.163150         4.4395
  37   0.0000       0.165609         4.5064
  38   0.0000       0.179527         4.8852

MULLIKEN ATOMIC CHARGES
-----------------------
   0 C :   -0.431711
   1 C :   -0.032493
   2 C :   -0.032147
   3 C :   -0.431714
   4 C :    0.077410
   5 C :   -0.234290
   6 C :   -0.234195
   7 C :    0.077465
   8 O :   -0.308062
   9 H :    0.138319
  10 H :    0.132529
  11 H :    0.147700
  12 H :    0.132525
  13 H :    0.138319
  14 H :    0.147706
  15 H :    0.129007
  16 H :    0.120785
  17 H :    0.106535
  18 H :    0.120774
  19 H :    0.106540
  20 H :    0.128999
Sum of atomic charges:   -0.0000000

LOEWDIN ATOMIC CHARGES
----------------------
   0 C :   -0.275131
   1 C :   -0.148395
   2 C :   -0.148387
   3 C :   -0.275128
   4 C :   -0.249442
   5 C :   -0.225533
   6 C :   -0.225522
   7 C :   -0.249451
   8 O :    0.199585
   9 H :    0.131880
  10 H :    0.128915
  11 H :    0.133001
  12 H :    0.128913
  13 H :    0.131881
  14 H :    0.133006
  15 H :    0.138613
  16 H :    0.133878
  17 H :    0.132414
  18 H :    0.133876
  19 H :    0.132416
  20 H :    0.138611

  Mayer bond orders larger than 0.1
B(  0-C ,  1-C ) :   0.8607 B(  0-C ,  9-H ) :   0.9226 B(  0-C , 10-H ) :   0.9508
B(  0-C , 11-H ) :   0.9433 B(  1-C ,  2-C ) :   1.7669 B(  1-C ,  7-C ) :   0.9473
B(  2-C ,  3-C ) :   0.8606 B(  2-C ,  4-C ) :   0.9472 B(  3-C , 12-H ) :   0.9508
B(  3-C , 13-H ) :   0.9226 B(  3-C , 14-H ) :   0.9433 B(  4-C ,  5-C ) :   0.9116
B(  4-C ,  8-O ) :   0.9545 B(  4-C , 15-H ) :   0.9048 B(  5-C ,  6-C ) :   0.9961
B(  5-C , 16-H ) :   0.9239 B(  5-C , 17-H ) :   0.9150 B(  6-C ,  7-C ) :   0.9116
B(  6-C , 18-H ) :   0.9239 B(  6-C , 19-H ) :   0.9150 B(  7-C ,  8-O ) :   0.9543
B(  7-C , 20-H ) :   0.9048

MP2 TOTAL ENERGY:     -386.429791856 Eh
FINAL SINGLE POINT ENERGY      -386.429791855972

DIPOLE MOMENT
-------------
                                X             Y             Z
Electronic contribution:     -3.24591      -3.67101       2.75123
Nuclear contribution   :      3.78066       4.09862      -3.07329
                        -----------------------------------------
Total Dipole Moment    :      0.53475       0.42761      -0.32206
                        -----------------------------------------
Magnitude (a.u.)       :      0.75665
Magnitude (Debye)      :      1.92326

                             ****ORCA TERMINATED NORMALLY****
TOTAL RUN TIME: 0 days 0 hours 19 minutes 21 seconds 752 msec
