                         Program Version 3.0.3 - RELEASE   -
|  1> ! RI-MP2 RIJK def2-TZVP def2-TZVP/C def2-TZVP/JK TIGHTSCF
|  2> % maxcore 2000
|  3> % mp2 density relaxed end
|  4> *xyz 0 1
|  5>  C       -0.0673320095     1.4957949920    -0.1119302840
|  6>  C        0.0522359115     0.0155470489     0.0941754038
|  7>  C        1.3043679848    -0.7888689671    -0.1271748490
|  8>  C        0.6629634173    -0.7695748017     1.2483992805
|  9>  C        1.3732134096    -0.2562307687     2.4738529110
| 10>  O        2.2098774300    -1.2504622464     3.0353572099
| 11>  N       -0.2546269801    -1.8676008343     1.5023170850
| 12>  C       -1.1915375701    -1.7396230195     0.6516476494
| 13>  O       -1.1599990212    -0.6923036448    -0.2060747275
| 14>  H        0.8595828149     1.9934750976     0.1849279536
| 15>  H       -0.2505241017     1.7275133126    -1.1662752658
| 16>  H       -0.8891939121     1.9109547303     0.4790875253
| 17>  H        1.2546776568    -1.7012991516    -0.7121894914
| 18>  H        2.2211084575    -0.2184339151    -0.2357791175
| 19>  H        2.0169006671     0.5913954819     2.2167795653
| 20>  H        0.6287916030     0.0971939831     3.2049954509
| 21>  H        1.6616968275    -2.0389865604     3.1292746875
| 22>  H       -2.0458862952    -2.3960842668     0.5389134231
| 23> *
| 24>
| 25>                          ****END OF INPUT****

CARTESIAN COORDINATES (ANGSTROEM)
---------------------------------
  C     -0.067332    1.495795   -0.111930
  C      0.052236    0.015547    0.094175
  C      1.304368   -0.788869   -0.127175
  C      0.662963   -0.769575    1.248399
  C      1.373213   -0.256231    2.473853
  O      2.209877   -1.250462    3.035357
  N     -0.254627   -1.867601    1.502317
  C     -1.191538   -1.739623    0.651648
  O     -1.159999   -0.692304   -0.206075
  H      0.859583    1.993475    0.184928
  H     -0.250524    1.727513   -1.166275
  H     -0.889194    1.910955    0.479088
  H      1.254678   -1.701299   -0.712189
  H      2.221108   -0.218434   -0.235779
  H      2.016901    0.591395    2.216780
  H      0.628792    0.097194    3.204995
  H      1.661697   -2.038987    3.129275
  H     -2.045886   -2.396084    0.538913

 Total Charge           Charge          ....    0
 Multiplicity           Mult            ....    1
 Number of Electrons    NEL             ....   68
 Basis Dimension        Dim             ....  333

ORBITAL ENERGIES
----------------

  NO   OCC          E(Eh)            E(eV)
   0   2.0000     -20.609021      -560.8000
   1   2.0000     -20.551156      -559.2254
   2   2.0000     -15.560584      -423.4250
   3   2.0000     -11.341602      -308.6207
   4   2.0000     -11.309646      -307.7511
   5   2.0000     -11.281234      -306.9780
   6   2.0000     -11.274159      -306.7855
   7   2.0000     -11.238152      -305.8057
   8   2.0000     -11.237647      -305.7919
   9   2.0000      -1.457168       -39.6515
  10   2.0000      -1.358452       -36.9654
  11   2.0000      -1.233120       -33.5549
  12   2.0000      -1.139924       -31.0189
  13   2.0000      -0.993110       -27.0239
  14   2.0000      -0.951195       -25.8833
  15   2.0000      -0.882984       -24.0272
  16   2.0000      -0.793942       -21.6043
  17   2.0000      -0.780364       -21.2348
  18   2.0000      -0.718647       -19.5554
  19   2.0000      -0.672055       -18.2875
  20   2.0000      -0.662001       -18.0140
  21   2.0000      -0.628916       -17.1137
  22   2.0000      -0.624565       -16.9953
  23   2.0000      -0.606387       -16.5006
  24   2.0000      -0.579648       -15.7730
  25   2.0000      -0.573922       -15.6172
  26   2.0000      -0.554238       -15.0816
  27   2.0000      -0.544191       -14.8082
  28   2.0000      -0.518860       -14.1189
  29   2.0000      -0.496039       -13.4979
  30   2.0000      -0.464343       -12.6354
  31   2.0000      -0.452695       -12.3185
  32   2.0000      -0.395282       -10.7562
  33   2.0000      -0.371748       -10.1158
  34   0.0000       0.133212         3.6249
  35   0.0000       0.150743         4.1019
  36   0.0000       0.171236         4.6596
  37   0.0000       0.171539         4.6678
  38   0.0000       0.180670         4.9163

MULLIKEN ATOMIC CHARGES
-----------------------
   0 C :   -0.401726
   1 C :    0.140147
   2 C :   -0.250165
   3 C :    0.058862
   4 C :    0.021688
   5 O :   -0.470297
   6 N :   -0.309450
   7 C :    0.088342
   8 O :   -0.253289
   9 H :    0.133252
  10 H :    0.148646
  11 H :    0.142352
  12 H :    0.141560
  13 H :    0.136101
  14 H :    0.093699
  15 H :    0.101069
  16 H :    0.329535
  17 H :    0.149674
Sum of atomic charges:    0.0000000

LOEWDIN ATOMIC CHARGES
----------------------
   0 C :   -0.262614
   1 C :   -0.275574
   2 C :   -0.161087
   3 C :   -0.272702
   4 C :   -0.306216
   5 O :   -0.039778
   6 N :    0.106149
   7 C :   -0.330960
   8 O :    0.276106
   9 H :    0.135577
  10 H :    0.135042
  11 H :    0.133366
  12 H :    0.143042
  13 H :    0.146753
  14 H :    0.132600
  15 H :    0.124735
  16 H :    0.180840
  17 H :    0.134724

  Mayer bond orders larger than 0.1
B(  0-C ,  1-C ) :   0.8995 B(  0-C ,  9-H ) :   0.9328 B(  0-C , 10-H ) :   0.9343
B(  0-C , 11-H ) :   0.9331 B(  1-C ,  2-C ) :   0.9037 B(  1-C ,  3-C ) :   0.8258
B(  1-C ,  8-O ) :   0.8812 B(  2-C ,  3-C ) :   0.8339 B(  2-C , 12-H ) :   0.8929
B(  2-C , 13-H ) :   0.9218 B(  3-C ,  4-C ) :   0.9574 B(  3-C ,  6-N ) :   0.9127
B(  4-C ,  5-O ) :   0.9582 B(  4-C , 14-H ) :   0.9107 B(  4-C , 15-H ) :   0.9223
B(  5-O , 16-H ) :   0.8332 B(  6-N ,  7-C ) :   1.8107 B(  7-C ,  8-O ) :   1.0879
B(  7-C , 17-H ) :   0.9225

MP2 TOTAL ENERGY:     -438.365239831 Eh
FINAL SINGLE POINT ENERGY      -438.365239830637

DIPOLE MOMENT
-------------
                                X             Y             Z
Electronic contribution:     -2.61902      -4.86568       0.52485
Nuclear contribution   :      2.17559       5.38471      -1.10514
                        -----------------------------------------
Total Dipole Moment    :     -0.44343       0.51903      -0.58029
                        -----------------------------------------
Magnitude (a.u.)       :      0.89596
Magnitude (Debye)      :      2.27735

                             ****ORCA TERMINATED NORMALLY****
TOTAL RUN TIME: 0 days 0 hours 16 minutes 38 seconds 361 msec
