                         Program Version 3.0.3 - RELEASE   -
|  1> ! RI-MP2 RIJK def2-TZVP def2-TZVP/C def2-TZVP/JK TIGHTSCF
|  2> % maxcore 2000
|  3> % mp2 density relaxed end
|  4> *xyz 0 1
|  5>  C       -0.0925315613     1.3815121340     0.5245314161
|  6>  C        0.0737694343    -0.0098809409    -0.1137311223
|  7>  C       -1.2664667700    -0.7241603285    -0.0905761176
|  8>  O       -1.5146578500    -1.6898056525     0.5855321512
|  9>  C        0.5944468009     0.0487033204    -1.5759108142
| 10>  O       -0.2261715122     0.8800623151    -2.3947831987
| 11>  C        2.0541711396     0.4383772182    -1.6581238844
| 12>  C        3.0996268614    -0.6082898336    -1.7855378212
| 13>  N        2.7786986887     0.2653916030    -2.9243079617
| 14>  H        0.8527516375     1.9315538686     0.5434038439
| 15>  H       -0.8276995865     1.9796263067    -0.0233236704
| 16>  H       -0.4404390181     1.2889862040     1.5569750565
| 17>  H        0.7681500082    -0.6137141095     0.4801208345
| 18>  H       -2.0312702604    -0.2759119253    -0.7628182681
| 19>  H        0.4900552012    -0.9529972079    -2.0141884605
| 20>  H        0.0355715148     1.7960127965    -2.2530955970
| 21>  H        2.3156204341     1.3611396972    -1.1411546063
| 22>  H        4.0813036803    -0.4520099198    -1.3482001460
| 23>  H        2.7769089704    -1.6463365277    -1.8115891389
| 24>  H        2.1856865370    -0.2246295578    -3.5910842451
| 25> *
| 26>
| 27>                          ****END OF INPUT****

CARTESIAN COORDINATES (ANGSTROEM)
---------------------------------
  C     -0.092532    1.381512    0.524531
  C      0.073769   -0.009881   -0.113731
  C     -1.266467   -0.724160   -0.090576
  O     -1.514658   -1.689806    0.585532
  C      0.594447    0.048703   -1.575911
  O     -0.226172    0.880062   -2.394783
  C      2.054171    0.438377   -1.658124
  C      3.099627   -0.608290   -1.785538
  N      2.778699    0.265392   -2.924308
  H      0.852752    1.931554    0.543404
  H     -0.827700    1.979626   -0.023324
  H     -0.440439    1.288986    1.556975
  H      0.768150   -0.613714    0.480121
  H     -2.031270   -0.275912   -0.762818
  H      0.490055   -0.952997   -2.014188
  H      0.035572    1.796013   -2.253096
  H      2.315620    1.361140   -1.141155
  H      4.081304   -0.452010   -1.348200
  H      2.776909   -1.646337   -1.811589
  H      2.185687   -0.224630   -3.591084

 Total Charge           Charge          ....    0
 Multiplicity           Mult            ....    1
 Number of Electrons    NEL             ....   70
 Basis Dimension        Dim             ....  345

ORBITAL ENERGIES
----------------

  NO   OCC          E(Eh)            E(eV)
   0   2.0000     -20.575708      -559.8935
   1   2.0000     -20.558866      -559.4352
   2   2.0000     -15.570055      -423.6827
   3   2.0000     -11.330323      -308.3138
   4   2.0000     -11.309091      -307.7360
   5   2.0000     -11.274443      -306.7932
   6   2.0000     -11.270036      -306.6733
   7   2.0000     -11.254322      -306.2457
   8   2.0000     -11.243349      -305.9471
   9   2.0000      -1.397411       -38.0255
  10   2.0000      -1.383697       -37.6523
  11   2.0000      -1.273974       -34.6666
  12   2.0000      -1.094913       -29.7941
  13   2.0000      -0.974794       -26.5255
  14   2.0000      -0.911812       -24.8117
  15   2.0000      -0.889363       -24.2008
  16   2.0000      -0.824067       -22.4240
  17   2.0000      -0.790578       -21.5127
  18   2.0000      -0.719509       -19.5788
  19   2.0000      -0.697549       -18.9813
  20   2.0000      -0.664561       -18.0836
  21   2.0000      -0.643450       -17.5092
  22   2.0000      -0.633763       -17.2456
  23   2.0000      -0.620112       -16.8741
  24   2.0000      -0.602140       -16.3851
  25   2.0000      -0.568822       -15.4784
  26   2.0000      -0.555191       -15.1075
  27   2.0000      -0.531853       -14.4725
  28   2.0000      -0.516310       -14.0495
  29   2.0000      -0.509139       -13.8544
  30   2.0000      -0.499262       -13.5856
  31   2.0000      -0.479267       -13.0415
  32   2.0000      -0.459041       -12.4911
  33   2.0000      -0.418178       -11.3792
  34   2.0000      -0.400030       -10.8854
  35   0.0000       0.118940         3.2365
  36   0.0000       0.134190         3.6515
  37   0.0000       0.139266         3.7896
  38   0.0000       0.152342         4.1454
  39   0.0000       0.172304         4.6886

MULLIKEN ATOMIC CHARGES
-----------------------
   0 C :   -0.499882
   1 C :    0.073803
   2 C :    0.061222
   3 O :   -0.261738
   4 C :    0.034455
   5 O :   -0.469238
   6 C :   -0.107518
   7 C :   -0.181578
   8 N :   -0.340999
   9 H :    0.145216
  10 H :    0.142305
  11 H :    0.156915
  12 H :    0.098382
  13 H :    0.097855
  14 H :    0.108124
  15 H :    0.324111
  16 H :    0.130770
  17 H :    0.127587
  18 H :    0.132833
  19 H :    0.227375
Sum of atomic charges:   -0.0000000

LOEWDIN ATOMIC CHARGES
----------------------
   0 C :   -0.289532
   1 C :   -0.258467
   2 C :   -0.270537
   3 O :    0.133268
   4 C :   -0.320423
   5 O :   -0.011033
   6 C :   -0.277115
   7 C :   -0.259715
   8 N :   -0.009352
   9 H :    0.125527
  10 H :    0.126544
  11 H :    0.132935
  12 H :    0.163115
  13 H :    0.119225
  14 H :    0.154419
  15 H :    0.177942
  16 H :    0.143076
  17 H :    0.126197
  18 H :    0.123987
  19 H :    0.169938

  Mayer bond orders larger than 0.1
B(  0-C ,  1-C ) :   0.8626 B(  0-C ,  9-H ) :   0.9320 B(  0-C , 10-H ) :   0.9350
B(  0-C , 11-H ) :   0.9341 B(  1-C ,  2-C ) :   0.8463 B(  1-C ,  4-C ) :   0.8695
B(  1-C , 12-H ) :   0.8985 B(  2-C ,  3-O ) :   1.9979 B(  2-C , 13-H ) :   0.9335
B(  4-C ,  5-O ) :   0.9085 B(  4-C ,  6-C ) :   0.9682 B(  4-C , 14-H ) :   0.9215
B(  5-O , 15-H ) :   0.8397 B(  6-C ,  7-C ) :   0.9672 B(  6-C ,  8-N ) :   0.9472
B(  6-C , 16-H ) :   0.8891 B(  7-C ,  8-N ) :   0.9314 B(  7-C , 17-H ) :   0.9183
B(  7-C , 18-H ) :   0.9144 B(  8-N , 19-H ) :   0.8730

MP2 TOTAL ENERGY:     -439.540723099 Eh
FINAL SINGLE POINT ENERGY      -439.540723098792

DIPOLE MOMENT
-------------
                                X             Y             Z
Electronic contribution:     -3.08713      -3.19282      -1.07391
Nuclear contribution   :      3.55518       3.81716       1.20051
                        -----------------------------------------
Total Dipole Moment    :      0.46804       0.62434       0.12659
                        -----------------------------------------
Magnitude (a.u.)       :      0.79050
Magnitude (Debye)      :      2.00929

                             ****ORCA TERMINATED NORMALLY****
TOTAL RUN TIME: 0 days 0 hours 18 minutes 18 seconds 904 msec
