                         Program Version 3.0.3 - RELEASE   -
|  1> ! RI-MP2 RIJK def2-TZVP def2-TZVP/C def2-TZVP/JK TIGHTSCF
|  2> % maxcore 2000
|  3> % mp2 density relaxed end
|  4> *xyz 0 1
|  5>  C       -0.2054053096     1.5009860761    -0.0512133301
|  6>  N        0.0837280950     0.0726837387    -0.0210291502
|  7>  C        0.7212042336    -0.5396577722    -1.1791509544
|  8>  C        2.2521382030    -0.3337747903    -1.1354400467
|  9>  O        2.7611630651     0.7269246665    -0.3547056814
| 10>  C        2.3427373037     0.4839627340     0.9985906449
| 11>  C        1.1612953495    -0.4723388931     0.8659165394
| 12>  C        1.6066396647    -1.3962094422    -0.3111324710
| 13>  O        1.8017839124    -2.7569021051    -0.3008294368
| 14>  H        0.6516334583     2.1371806599    -0.3147648256
| 15>  H       -0.9966991392     1.6746436148    -0.7885387236
| 16>  H       -0.5944621572     1.8122076387     0.9241806676
| 17>  H        0.1775421396    -0.7673801915    -2.0908094313
| 18>  H        2.8431822062    -0.5688129608    -2.0133699232
| 19>  H        3.1563274971     0.0246525691     1.5845725463
| 20>  H        2.0903863605     1.4471141612     1.4528396103
| 21>  H        0.8066520555    -0.9203930239     1.7967075294
| 22>  H        2.7326865217    -2.9326089898    -0.1238226137
| 23> *
| 24>
| 25>                          ****END OF INPUT****

CARTESIAN COORDINATES (ANGSTROEM)
---------------------------------
  C     -0.205405    1.500986   -0.051213
  N      0.083728    0.072684   -0.021029
  C      0.721204   -0.539658   -1.179151
  C      2.252138   -0.333775   -1.135440
  O      2.761163    0.726925   -0.354706
  C      2.342737    0.483963    0.998591
  C      1.161295   -0.472339    0.865917
  C      1.606640   -1.396209   -0.311132
  O      1.801784   -2.756902   -0.300829
  H      0.651633    2.137181   -0.314765
  H     -0.996699    1.674644   -0.788539
  H     -0.594462    1.812208    0.924181
  H      0.177542   -0.767380   -2.090809
  H      2.843182   -0.568813   -2.013370
  H      3.156327    0.024653    1.584573
  H      2.090386    1.447114    1.452840
  H      0.806652   -0.920393    1.796708
  H      2.732687   -2.932609   -0.123823

 Total Charge           Charge          ....    0
 Multiplicity           Mult            ....    1
 Number of Electrons    NEL             ....   68
 Basis Dimension        Dim             ....  333

ORBITAL ENERGIES
----------------

  NO   OCC          E(Eh)            E(eV)
   0   2.0000     -20.581785      -560.0588
   1   2.0000     -20.561774      -559.5143
   2   2.0000     -15.553940      -423.2442
   3   2.0000     -11.292715      -307.2904
   4   2.0000     -11.286478      -307.1207
   5   2.0000     -11.282197      -307.0042
   6   2.0000     -11.268601      -306.6342
   7   2.0000     -11.262293      -306.4626
   8   2.0000     -11.238523      -305.8158
   9   2.0000      -1.404793       -38.2264
  10   2.0000      -1.381065       -37.5807
  11   2.0000      -1.257848       -34.2278
  12   2.0000      -1.086589       -29.5676
  13   2.0000      -1.012942       -27.5636
  14   2.0000      -0.905537       -24.6409
  15   2.0000      -0.860163       -23.4062
  16   2.0000      -0.808199       -21.9922
  17   2.0000      -0.744099       -20.2480
  18   2.0000      -0.731784       -19.9129
  19   2.0000      -0.685026       -18.6405
  20   2.0000      -0.664495       -18.0818
  21   2.0000      -0.635289       -17.2871
  22   2.0000      -0.618933       -16.8420
  23   2.0000      -0.583744       -15.8845
  24   2.0000      -0.576944       -15.6995
  25   2.0000      -0.569997       -15.5104
  26   2.0000      -0.561148       -15.2696
  27   2.0000      -0.520236       -14.1563
  28   2.0000      -0.506447       -13.7811
  29   2.0000      -0.482728       -13.1357
  30   2.0000      -0.461001       -12.5445
  31   2.0000      -0.422785       -11.5046
  32   2.0000      -0.399513       -10.8713
  33   2.0000      -0.330938        -9.0053
  34   0.0000       0.128906         3.5077
  35   0.0000       0.150552         4.0967
  36   0.0000       0.173839         4.7304
  37   0.0000       0.179781         4.8921
  38   0.0000       0.190846         5.1932

MULLIKEN ATOMIC CHARGES
-----------------------
   0 C :   -0.346974
   1 N :   -0.126384
   2 C :   -0.112934
   3 C :    0.006361
   4 O :   -0.322429
   5 C :   -0.043842
   6 C :   -0.057128
   7 C :    0.072576
   8 O :   -0.439883
   9 H :    0.135968
  10 H :    0.139361
  11 H :    0.136435
  12 H :    0.138021
  13 H :    0.134569
  14 H :    0.093624
  15 H :    0.124359
  16 H :    0.136388
  17 H :    0.331910
Sum of atomic charges:   -0.0000000

LOEWDIN ATOMIC CHARGES
----------------------
   0 C :   -0.331160
   1 N :    0.116351
   2 C :   -0.176484
   3 C :   -0.251005
   4 O :    0.166311
   5 C :   -0.278046
   6 C :   -0.196639
   7 C :   -0.304516
   8 O :    0.039780
   9 H :    0.110414
  10 H :    0.120519
  11 H :    0.117667
  12 H :    0.136475
  13 H :    0.144449
  14 H :    0.123904
  15 H :    0.129162
  16 H :    0.143855
  17 H :    0.188964

  Mayer bond orders larger than 0.1
B(  0-C ,  1-N ) :   0.8772 B(  0-C ,  9-H ) :   0.9185 B(  0-C , 10-H ) :   0.9366
B(  0-C , 11-H ) :   0.9373 B(  1-N ,  2-C ) :   0.9935 B(  1-N ,  6-C ) :   0.9757
B(  2-C ,  3-C ) :   0.8341 B(  2-C ,  7-C ) :   0.8579 B(  2-C , 12-H ) :   0.8992
B(  3-C ,  4-O ) :   0.9438 B(  3-C ,  7-C ) :   0.8934 B(  3-C , 13-H ) :   0.9274
B(  4-O ,  5-C ) :   0.9158 B(  5-C ,  6-C ) :   0.9548 B(  5-C , 14-H ) :   0.9127
B(  5-C , 15-H ) :   0.9144 B(  6-C ,  7-C ) :   0.8865 B(  6-C , 16-H ) :   0.8947
B(  7-C ,  8-O ) :   1.0500 B(  8-O , 17-H ) :   0.8312

MP2 TOTAL ENERGY:     -438.300345376 Eh
FINAL SINGLE POINT ENERGY      -438.300345376470

DIPOLE MOMENT
-------------
                                X             Y             Z
Electronic contribution:      2.18481      -4.32982      -1.47149
Nuclear contribution   :     -1.72412       4.33522       1.73185
                        -----------------------------------------
Total Dipole Moment    :      0.46068       0.00539       0.26036
                        -----------------------------------------
Magnitude (a.u.)       :      0.52919
Magnitude (Debye)      :      1.34511

                             ****ORCA TERMINATED NORMALLY****
TOTAL RUN TIME: 0 days 0 hours 16 minutes 34 seconds 732 msec
