                         Program Version 3.0.3 - RELEASE   -
|  1> ! RI-MP2 RIJK def2-TZVP def2-TZVP/C def2-TZVP/JK TIGHTSCF
|  2> % maxcore 2000
|  3> % mp2 density relaxed end
|  4> *xyz 0 1
|  5>  C       -0.2047058628     1.4919782915     0.1207350577
|  6>  C        0.0773338319     0.0055500847     0.1736224206
|  7>  O        0.9909720931    -0.4529309422    -0.8760833795
|  8>  C        1.7929730961    -1.1295486544     0.0988884773
|  9>  C        2.4175905757    -0.1601489431     1.0468023539
| 10>  C        0.9767073175    -0.5956369453     1.2559153568
| 11>  C        2.2955469748    -2.4812219909    -0.2478425532
| 12>  C        3.7061192782    -2.7155336700    -0.5940302699
| 13>  O        3.1952028143    -3.0671613544     0.6933795872
| 14>  H        0.7066191941     2.0791420107     0.2596413821
| 15>  H       -0.6418988279     1.7596789831    -0.8464735701
| 16>  H       -0.9190973082     1.7660840397     0.9044563396
| 17>  H       -0.8581083886    -0.5629451027     0.0900767633
| 18>  H        3.1111910318    -0.6010391948     1.7550050099
| 19>  H        2.6632949729     0.8420806236     0.7081274625
| 20>  H        0.6404074006    -1.0857807930     2.1594524023
| 21>  H        1.5455237716    -3.1624706115    -0.6509670010
| 22>  H        3.9693236727    -3.5545500525    -1.2357811994
| 23>  H        4.3943290023    -1.8726456487    -0.6064973401
| 24> *
| 25>
| 26>                          ****END OF INPUT****

CARTESIAN COORDINATES (ANGSTROEM)
---------------------------------
  C     -0.204706    1.491978    0.120735
  C      0.077334    0.005550    0.173622
  O      0.990972   -0.452931   -0.876083
  C      1.792973   -1.129549    0.098888
  C      2.417591   -0.160149    1.046802
  C      0.976707   -0.595637    1.255915
  C      2.295547   -2.481222   -0.247843
  C      3.706119   -2.715534   -0.594030
  O      3.195203   -3.067161    0.693380
  H      0.706619    2.079142    0.259641
  H     -0.641899    1.759679   -0.846474
  H     -0.919097    1.766084    0.904456
  H     -0.858108   -0.562945    0.090077
  H      3.111191   -0.601039    1.755005
  H      2.663295    0.842081    0.708127
  H      0.640407   -1.085781    2.159452
  H      1.545524   -3.162471   -0.650967
  H      3.969324   -3.554550   -1.235781
  H      4.394329   -1.872646   -0.606497

 Total Charge           Charge          ....    0
 Multiplicity           Mult            ....    1
 Number of Electrons    NEL             ....   68
 Basis Dimension        Dim             ....  339

ORBITAL ENERGIES
----------------

  NO   OCC          E(Eh)            E(eV)
   0   2.0000     -20.575389      -559.8848
   1   2.0000     -20.555565      -559.3454
   2   2.0000     -11.295319      -307.3612
   3   2.0000     -11.294254      -307.3323
   4   2.0000     -11.292159      -307.2753
   5   2.0000     -11.286782      -307.1289
   6   2.0000     -11.238696      -305.8205
   7   2.0000     -11.233194      -305.6708
   8   2.0000     -11.219395      -305.2953
   9   2.0000      -1.419697       -38.6319
  10   2.0000      -1.392672       -37.8965
  11   2.0000      -1.119987       -30.4764
  12   2.0000      -1.028330       -27.9823
  13   2.0000      -0.953557       -25.9476
  14   2.0000      -0.894244       -24.3336
  15   2.0000      -0.880341       -23.9553
  16   2.0000      -0.783796       -21.3282
  17   2.0000      -0.742845       -20.2138
  18   2.0000      -0.717362       -19.5204
  19   2.0000      -0.686041       -18.6681
  20   2.0000      -0.656529       -17.8651
  21   2.0000      -0.634061       -17.2537
  22   2.0000      -0.606611       -16.5067
  23   2.0000      -0.568503       -15.4698
  24   2.0000      -0.563090       -15.3225
  25   2.0000      -0.554359       -15.0849
  26   2.0000      -0.538003       -14.6398
  27   2.0000      -0.513080       -13.9616
  28   2.0000      -0.495325       -13.4785
  29   2.0000      -0.477627       -12.9969
  30   2.0000      -0.465623       -12.6702
  31   2.0000      -0.455660       -12.3991
  32   2.0000      -0.404078       -10.9955
  33   2.0000      -0.370604       -10.0846
  34   0.0000       0.144445         3.9306
  35   0.0000       0.157190         4.2774
  36   0.0000       0.165850         4.5130
  37   0.0000       0.176472         4.8020
  38   0.0000       0.189587         5.1589

MULLIKEN ATOMIC CHARGES
-----------------------
   0 C :   -0.387681
   1 C :    0.112893
   2 O :   -0.336150
   3 C :    0.203762
   4 C :   -0.280584
   5 C :   -0.194364
   6 C :   -0.019112
   7 C :   -0.063635
   8 O :   -0.330763
   9 H :    0.125110
  10 H :    0.139848
  11 H :    0.128363
  12 H :    0.095015
  13 H :    0.148746
  14 H :    0.134027
  15 H :    0.145599
  16 H :    0.133200
  17 H :    0.121034
  18 H :    0.124693
Sum of atomic charges:    0.0000000

LOEWDIN ATOMIC CHARGES
----------------------
   0 C :   -0.292144
   1 C :   -0.269586
   2 O :    0.184757
   3 C :   -0.279923
   4 C :   -0.180326
   5 C :   -0.152170
   6 C :   -0.254792
   7 C :   -0.250296
   8 O :    0.155243
   9 H :    0.124800
  10 H :    0.129836
  11 H :    0.129623
  12 H :    0.142431
  13 H :    0.149946
  14 H :    0.132697
  15 H :    0.139978
  16 H :    0.145157
  17 H :    0.120829
  18 H :    0.123939

  Mayer bond orders larger than 0.1
B(  0-C ,  1-C ) :   0.9287 B(  0-C ,  9-H ) :   0.9364 B(  0-C , 10-H ) :   0.9325
B(  0-C , 11-H ) :   0.9288 B(  1-C ,  2-O ) :   0.8866 B(  1-C ,  5-C ) :   0.9220
B(  1-C , 12-H ) :   0.9124 B(  2-O ,  3-C ) :   0.9796 B(  3-C ,  4-C ) :   0.8635
B(  3-C ,  5-C ) :   0.8778 B(  3-C ,  6-C ) :   0.9353 B(  4-C ,  5-C ) :   0.8895
B(  4-C , 13-H ) :   0.9163 B(  4-C , 14-H ) :   0.9043 B(  5-C , 15-H ) :   0.9035
B(  6-C ,  7-C ) :   0.9734 B(  6-C ,  8-O ) :   0.9099 B(  6-C , 16-H ) :   0.9174
B(  7-C ,  8-O ) :   0.8938 B(  7-C , 17-H ) :   0.9215 B(  7-C , 18-H ) :   0.9086

MP2 TOTAL ENERGY:     -422.250693036 Eh
FINAL SINGLE POINT ENERGY      -422.250693035596

DIPOLE MOMENT
-------------
                                X             Y             Z
Electronic contribution:      2.05689      -5.14985      -0.68406
Nuclear contribution   :     -2.23659       5.36273       0.74344
                        -----------------------------------------
Total Dipole Moment    :     -0.17970       0.21289       0.05938
                        -----------------------------------------
Magnitude (a.u.)       :      0.28485
Magnitude (Debye)      :      0.72403

                             ****ORCA TERMINATED NORMALLY****
TOTAL RUN TIME: 0 days 0 hours 17 minutes 10 seconds 263 msec
