                         Program Version 3.0.3 - RELEASE   -
|  1> ! RI-MP2 RIJK def2-TZVP def2-TZVP/C def2-TZVP/JK TIGHTSCF
|  2> % maxcore 2000
|  3> % mp2 density relaxed end
|  4> *xyz 0 1
|  5>  C       -0.2642204922     1.5627399053    -0.1067820639
|  6>  C        0.0101205828     0.0684033853    -0.0685661409
|  7>  O       -1.1828996541    -0.6407673217    -0.3515206470
|  8>  C        1.3099609697    -0.5467319783    -0.7460554829
|  9>  C        2.1219777842    -0.1187858972     0.5147092403
| 10>  O        2.5104574828     1.2276039442     0.5890435045
| 11>  C        0.7517645023    -0.6146985133     1.1316538854
| 12>  C        0.9613487838    -1.7680532303     0.1297614103
| 13>  O        0.9471344012    -2.9558338409     0.0807450061
| 14>  H       -0.6006190110     1.8443258749    -1.1132550441
| 15>  H       -1.0763455090     1.7936438164     0.5898904918
| 16>  H        0.6106296084     2.1575576306     0.1381412130
| 17>  H       -1.5964917803    -0.2444374193    -1.1257327529
| 18>  H        1.6261229119    -0.5012240499    -1.7862396294
| 19>  H        2.9708184706    -0.7717608808     0.7463641971
| 20>  H        2.8786839730     1.3803712540     1.4652228339
| 21>  H        0.4462833661    -0.6489685490     2.1755278188
| 22> *
| 23>
| 24>                          ****END OF INPUT****

CARTESIAN COORDINATES (ANGSTROEM)
---------------------------------
  C     -0.264220    1.562740   -0.106782
  C      0.010121    0.068403   -0.068566
  O     -1.182900   -0.640767   -0.351521
  C      1.309961   -0.546732   -0.746055
  C      2.121978   -0.118786    0.514709
  O      2.510457    1.227604    0.589044
  C      0.751765   -0.614699    1.131654
  C      0.961349   -1.768053    0.129761
  O      0.947134   -2.955834    0.080745
  H     -0.600619    1.844326   -1.113255
  H     -1.076346    1.793644    0.589890
  H      0.610630    2.157558    0.138141
  H     -1.596492   -0.244437   -1.125733
  H      1.626123   -0.501224   -1.786240
  H      2.970818   -0.771761    0.746364
  H      2.878684    1.380371    1.465223
  H      0.446283   -0.648969    2.175528

 Total Charge           Charge          ....    0
 Multiplicity           Mult            ....    1
 Number of Electrons    NEL             ....   68
 Basis Dimension        Dim             ....  327

ORBITAL ENERGIES
----------------

  NO   OCC          E(Eh)            E(eV)
   0   2.0000     -20.583426      -560.1035
   1   2.0000     -20.569503      -559.7246
   2   2.0000     -20.549736      -559.1868
   3   2.0000     -11.343904      -308.6833
   4   2.0000     -11.321955      -308.0860
   5   2.0000     -11.320277      -308.0404
   6   2.0000     -11.261005      -306.4275
   7   2.0000     -11.260399      -306.4110
   8   2.0000     -11.226499      -305.4886
   9   2.0000      -1.405599       -38.2483
  10   2.0000      -1.392710       -37.8976
  11   2.0000      -1.381394       -37.5896
  12   2.0000      -1.210597       -32.9420
  13   2.0000      -1.004471       -27.3331
  14   2.0000      -0.905633       -24.6435
  15   2.0000      -0.887745       -24.1568
  16   2.0000      -0.809337       -22.0232
  17   2.0000      -0.740509       -20.1503
  18   2.0000      -0.713051       -19.4031
  19   2.0000      -0.702985       -19.1292
  20   2.0000      -0.668881       -18.2012
  21   2.0000      -0.633670       -17.2430
  22   2.0000      -0.628737       -17.1088
  23   2.0000      -0.607525       -16.5316
  24   2.0000      -0.590168       -16.0593
  25   2.0000      -0.584649       -15.9091
  26   2.0000      -0.553208       -15.0536
  27   2.0000      -0.532782       -14.4977
  28   2.0000      -0.513439       -13.9714
  29   2.0000      -0.489986       -13.3332
  30   2.0000      -0.472864       -12.8673
  31   2.0000      -0.447905       -12.1881
  32   2.0000      -0.432847       -11.7784
  33   2.0000      -0.384814       -10.4713
  34   0.0000       0.120556         3.2805
  35   0.0000       0.130460         3.5500
  36   0.0000       0.163222         4.4415
  37   0.0000       0.174892         4.7591
  38   0.0000       0.182073         4.9545

MULLIKEN ATOMIC CHARGES
-----------------------
   0 C :   -0.440062
   1 C :    0.130690
   2 O :   -0.458455
   3 C :   -0.043869
   4 C :   -0.038194
   5 O :   -0.474377
   6 C :   -0.015217
   7 C :    0.053134
   8 O :   -0.241786
   9 H :    0.119889
  10 H :    0.145965
  11 H :    0.167947
  12 H :    0.318931
  13 H :    0.159245
  14 H :    0.122798
  15 H :    0.331447
  16 H :    0.161913
Sum of atomic charges:    0.0000000

LOEWDIN ATOMIC CHARGES
----------------------
   0 C :   -0.280483
   1 C :   -0.321203
   2 O :    0.030087
   3 C :   -0.100253
   4 C :   -0.278695
   5 O :   -0.001378
   6 C :   -0.102573
   7 C :   -0.280956
   8 O :    0.176930
   9 H :    0.126111
  10 H :    0.131294
  11 H :    0.133711
  12 H :    0.179093
  13 H :    0.133242
  14 H :    0.139013
  15 H :    0.183309
  16 H :    0.132751

  Mayer bond orders larger than 0.1
B(  0-C ,  1-C ) :   0.9077 B(  0-C ,  9-H ) :   0.9216 B(  0-C , 10-H ) :   0.9425
B(  0-C , 11-H ) :   0.9222 B(  1-C ,  2-O ) :   1.0302 B(  1-C ,  3-C ) :   0.8542
B(  1-C ,  6-C ) :   0.8625 B(  2-O , 12-H ) :   0.8362 B(  3-C ,  4-C ) :   0.8654
B(  3-C ,  7-C ) :   0.7928 B(  3-C , 13-H ) :   0.8607 B(  4-C ,  5-O ) :   1.0384
B(  4-C ,  6-C ) :   0.8476 B(  4-C , 14-H ) :   0.9580 B(  5-O , 15-H ) :   0.8362
B(  6-C ,  7-C ) :   0.7756 B(  6-C , 16-H ) :   0.8692 B(  7-C ,  8-O ) :   2.0664

MP2 TOTAL ENERGY:     -458.186049867 Eh
FINAL SINGLE POINT ENERGY      -458.186049866571

DIPOLE MOMENT
-------------
                                X             Y             Z
Electronic contribution:      1.21952      -6.23752       0.15003
Nuclear contribution   :     -0.95071       7.60350       0.05755
                        -----------------------------------------
Total Dipole Moment    :      0.26881       1.36598       0.20758
                        -----------------------------------------
Magnitude (a.u.)       :      1.40757
Magnitude (Debye)      :      3.57775

                             ****ORCA TERMINATED NORMALLY****
TOTAL RUN TIME: 0 days 0 hours 16 minutes 30 seconds 6 msec
