                         Program Version 3.0.3 - RELEASE   -
|  1> ! RI-MP2 RIJK def2-TZVP def2-TZVP/C def2-TZVP/JK TIGHTSCF
|  2> % maxcore 2000
|  3> % mp2 density relaxed end
|  4> *xyz 0 1
|  5>  C        0.1247980331     1.4168781023    -0.4354725458
|  6>  C        0.0454439637     0.0038061892    -0.0914404338
|  7>  C       -0.0083702524    -1.1650195735     0.1944169438
|  8>  C       -0.0942042609    -2.5837711014     0.5336080678
|  9>  C       -1.4585730685    -3.1961399033     0.2158439966
| 10>  C       -2.6059615887    -2.6640352393     1.0498845225
| 11>  C       -1.7354965972    -3.5752922025    -1.2277573225
| 12>  C       -1.4915346165    -4.6452558539    -0.1894728555
| 13>  O       -0.2824254278    -5.3511680260    -0.1897190853
| 14>  H        1.1075290852     1.6730513707    -0.8472878024
| 15>  H       -0.6266442588     1.6879999474    -1.1856536872
| 16>  H       -0.0408754895     2.0532304178     0.4412043460
| 17>  H        0.6822825262    -3.1477399669     0.0078132476
| 18>  H        0.1134535481    -2.7180765544     1.6044883878
| 19>  H       -2.7180956502    -1.5843118380     0.9065005181
| 20>  H       -3.5525457761    -3.1409695437     0.7773601090
| 21>  H       -2.4338037106    -2.8455465328     2.1175127450
| 22>  H       -2.7380088290    -3.4440468903    -1.6219505455
| 23>  H       -0.9399422461    -3.4012842506    -1.9453311123
| 24>  H       -2.3498540616    -5.2277029621     0.1479865766
| 25>  H       -0.2643701425    -5.9089996888    -0.9740332504
| 26> *
| 27>
| 28>                          ****END OF INPUT****

CARTESIAN COORDINATES (ANGSTROEM)
---------------------------------
  C      0.124798    1.416878   -0.435473
  C      0.045444    0.003806   -0.091440
  C     -0.008370   -1.165020    0.194417
  C     -0.094204   -2.583771    0.533608
  C     -1.458573   -3.196140    0.215844
  C     -2.605962   -2.664035    1.049885
  C     -1.735497   -3.575292   -1.227757
  C     -1.491535   -4.645256   -0.189473
  O     -0.282425   -5.351168   -0.189719
  H      1.107529    1.673051   -0.847288
  H     -0.626644    1.688000   -1.185654
  H     -0.040875    2.053230    0.441204
  H      0.682283   -3.147740    0.007813
  H      0.113454   -2.718077    1.604488
  H     -2.718096   -1.584312    0.906501
  H     -3.552546   -3.140970    0.777360
  H     -2.433804   -2.845547    2.117513
  H     -2.738009   -3.444047   -1.621951
  H     -0.939942   -3.401284   -1.945331
  H     -2.349854   -5.227703    0.147987
  H     -0.264370   -5.909000   -0.974033

 Total Charge           Charge          ....    0
 Multiplicity           Mult            ....    1
 Number of Electrons    NEL             ....   68
 Basis Dimension        Dim             ....  351

ORBITAL ENERGIES
----------------

  NO   OCC          E(Eh)            E(eV)
   0   2.0000     -20.563722      -559.5673
   1   2.0000     -11.280786      -306.9658
   2   2.0000     -11.240425      -305.8675
   3   2.0000     -11.240393      -305.8666
   4   2.0000     -11.239335      -305.8379
   5   2.0000     -11.221942      -305.3646
   6   2.0000     -11.214819      -305.1707
   7   2.0000     -11.212871      -305.1177
   8   2.0000     -11.208713      -305.0046
   9   2.0000      -1.372710       -37.3533
  10   2.0000      -1.149931       -31.2912
  11   2.0000      -1.055760       -28.7287
  12   2.0000      -1.000982       -27.2381
  13   2.0000      -0.955843       -26.0098
  14   2.0000      -0.913605       -24.8605
  15   2.0000      -0.828360       -22.5408
  16   2.0000      -0.752446       -20.4751
  17   2.0000      -0.701819       -19.0975
  18   2.0000      -0.650744       -17.7077
  19   2.0000      -0.646868       -17.6022
  20   2.0000      -0.626953       -17.0603
  21   2.0000      -0.604429       -16.4473
  22   2.0000      -0.585729       -15.9385
  23   2.0000      -0.578881       -15.7521
  24   2.0000      -0.572607       -15.5814
  25   2.0000      -0.560367       -15.2484
  26   2.0000      -0.543933       -14.8012
  27   2.0000      -0.529684       -14.4134
  28   2.0000      -0.499554       -13.5935
  29   2.0000      -0.491055       -13.3623
  30   2.0000      -0.403444       -10.9783
  31   2.0000      -0.394423       -10.7328
  32   2.0000      -0.358331        -9.7507
  33   2.0000      -0.357182        -9.7194
  34   0.0000       0.134613         3.6630
  35   0.0000       0.143688         3.9099
  36   0.0000       0.158342         4.3087
  37   0.0000       0.174566         4.7502
  38   0.0000       0.184668         5.0251

MULLIKEN ATOMIC CHARGES
-----------------------
   0 C :   -0.489045
   1 C :    0.016516
   2 C :   -0.022145
   3 C :   -0.330416
   4 C :    0.178354
   5 C :   -0.417922
   6 C :   -0.341805
   7 C :   -0.012969
   8 O :   -0.473695
   9 H :    0.160422
  10 H :    0.159180
  11 H :    0.159718
  12 H :    0.170759
  13 H :    0.139314
  14 H :    0.151284
  15 H :    0.123364
  16 H :    0.130178
  17 H :    0.125409
  18 H :    0.140284
  19 H :    0.107234
  20 H :    0.325979
Sum of atomic charges:   -0.0000000

LOEWDIN ATOMIC CHARGES
----------------------
   0 C :   -0.298728
   1 C :   -0.113753
   2 C :   -0.080956
   3 C :   -0.204605
   4 C :   -0.250180
   5 C :   -0.261037
   6 C :   -0.199606
   7 C :   -0.302013
   8 O :   -0.005792
   9 H :    0.139628
  10 H :    0.139078
  11 H :    0.139064
  12 H :    0.164331
  13 H :    0.160859
  14 H :    0.132730
  15 H :    0.126597
  16 H :    0.128121
  17 H :    0.133126
  18 H :    0.140459
  19 H :    0.132099
  20 H :    0.180576

  Mayer bond orders larger than 0.1
B(  0-C ,  1-C ) :   0.8549 B(  0-C ,  9-H ) :   0.9506 B(  0-C , 10-H ) :   0.9481
B(  0-C , 11-H ) :   0.9497 B(  1-C ,  2-C ) :   2.6864 B(  2-C ,  3-C ) :   1.0255
B(  3-C ,  4-C ) :   0.8842 B(  3-C , 12-H ) :   0.9344 B(  3-C , 13-H ) :   0.9321
B(  4-C ,  5-C ) :   0.9136 B(  4-C ,  6-C ) :   0.8618 B(  4-C ,  7-C ) :   0.8320
B(  5-C , 14-H ) :   0.9410 B(  5-C , 15-H ) :   0.9282 B(  5-C , 16-H ) :   0.9371
B(  6-C ,  7-C ) :   0.9096 B(  6-C , 17-H ) :   0.9189 B(  6-C , 18-H ) :   0.9208
B(  7-C ,  8-O ) :   1.0215 B(  7-C , 19-H ) :   0.9578 B(  8-O , 20-H ) :   0.8394

MP2 TOTAL ENERGY:     -386.368136541 Eh
FINAL SINGLE POINT ENERGY      -386.368136541119

DIPOLE MOMENT
-------------
                                X             Y             Z
Electronic contribution:      2.98870      -3.60550      -0.19480
Nuclear contribution   :     -3.36863       3.56614      -0.26514
                        -----------------------------------------
Total Dipole Moment    :     -0.37993      -0.03936      -0.45994
                        -----------------------------------------
Magnitude (a.u.)       :      0.59786
Magnitude (Debye)      :      1.51965

                             ****ORCA TERMINATED NORMALLY****
TOTAL RUN TIME: 0 days 0 hours 18 minutes 22 seconds 725 msec
