                         Program Version 3.0.3 - RELEASE   -
|  1> ! RI-MP2 RIJK def2-TZVP def2-TZVP/C def2-TZVP/JK TIGHTSCF
|  2> % maxcore 2000
|  3> % mp2 density relaxed end
|  4> *xyz 0 1
|  5>  O        0.5495060932     0.7520867902    -0.8603367997
|  6>  C       -0.0776838560    -0.2024471158    -0.0412046881
|  7>  C        0.2999543351    -0.2455204659     1.4742246201
|  8>  C       -1.2011874735    -0.2794614297     1.7683441115
|  9>  C       -1.9632771519    -1.3005460254     2.5575127522
| 10>  N       -1.8482028444     0.0722956700     3.0090404049
| 11>  C       -2.9241861905     0.9284804125     3.1644209200
| 12>  O       -3.9980593754     0.6156318025     3.6172129418
| 13>  C       -1.5239498315     0.1931200483     0.3448864356
| 14>  H        1.4426070076     0.4496248454    -1.0539644712
| 15>  H       -0.0425669180    -1.2049980343    -0.4882363798
| 16>  H        0.9113949746    -1.0745027073     1.8377811837
| 17>  H        0.7469378481     0.7057941754     1.7776562477
| 18>  H       -2.9384106903    -1.6155011932     2.1930951145
| 19>  H       -1.4257455783    -2.0390775866     3.1469475413
| 20>  H       -2.6631389740     1.9674275338     2.8855832509
| 21>  H       -1.6261167993     1.2806313457     0.2847807638
| 22>  H       -2.3523008355    -0.2817110754    -0.1842352992
| 23> *
| 24>
| 25>                          ****END OF INPUT****

CARTESIAN COORDINATES (ANGSTROEM)
---------------------------------
  O      0.549506    0.752087   -0.860337
  C     -0.077684   -0.202447   -0.041205
  C      0.299954   -0.245520    1.474225
  C     -1.201187   -0.279461    1.768344
  C     -1.963277   -1.300546    2.557513
  N     -1.848203    0.072296    3.009040
  C     -2.924186    0.928480    3.164421
  O     -3.998059    0.615632    3.617213
  C     -1.523950    0.193120    0.344886
  H      1.442607    0.449625   -1.053964
  H     -0.042567   -1.204998   -0.488236
  H      0.911395   -1.074503    1.837781
  H      0.746938    0.705794    1.777656
  H     -2.938411   -1.615501    2.193095
  H     -1.425746   -2.039078    3.146948
  H     -2.663139    1.967428    2.885583
  H     -1.626117    1.280631    0.284781
  H     -2.352301   -0.281711   -0.184235

 Total Charge           Charge          ....    0
 Multiplicity           Mult            ....    1
 Number of Electrons    NEL             ....   68
 Basis Dimension        Dim             ....  333

ORBITAL ENERGIES
----------------

  NO   OCC          E(Eh)            E(eV)
   0   2.0000     -20.572315      -559.8011
   1   2.0000     -20.539875      -558.9184
   2   2.0000     -15.586105      -424.1195
   3   2.0000     -11.352781      -308.9249
   4   2.0000     -11.300175      -307.4934
   5   2.0000     -11.295731      -307.3725
   6   2.0000     -11.274862      -306.8046
   7   2.0000     -11.242019      -305.9109
   8   2.0000     -11.239591      -305.8448
   9   2.0000      -1.396339       -37.9963
  10   2.0000      -1.380648       -37.5693
  11   2.0000      -1.299391       -35.3582
  12   2.0000      -1.126575       -30.6557
  13   2.0000      -0.982029       -26.7224
  14   2.0000      -0.931594       -25.3500
  15   2.0000      -0.859868       -23.3982
  16   2.0000      -0.799858       -21.7652
  17   2.0000      -0.754464       -20.5300
  18   2.0000      -0.727325       -19.7915
  19   2.0000      -0.698567       -19.0090
  20   2.0000      -0.671369       -18.2689
  21   2.0000      -0.651185       -17.7196
  22   2.0000      -0.633604       -17.2412
  23   2.0000      -0.592103       -16.1119
  24   2.0000      -0.574871       -15.6430
  25   2.0000      -0.566145       -15.4056
  26   2.0000      -0.540770       -14.7151
  27   2.0000      -0.513125       -13.9628
  28   2.0000      -0.500399       -13.6166
  29   2.0000      -0.485877       -13.2214
  30   2.0000      -0.465131       -12.6568
  31   2.0000      -0.436417       -11.8755
  32   2.0000      -0.428166       -11.6510
  33   2.0000      -0.392188       -10.6720
  34   0.0000       0.123396         3.3578
  35   0.0000       0.133875         3.6429
  36   0.0000       0.156407         4.2561
  37   0.0000       0.158132         4.3030
  38   0.0000       0.167995         4.5714

MULLIKEN ATOMIC CHARGES
-----------------------
   0 O :   -0.443550
   1 C :   -0.029879
   2 C :   -0.091774
   3 C :   -0.044175
   4 C :   -0.195909
   5 N :   -0.176383
   6 C :    0.151610
   7 O :   -0.304883
   8 C :   -0.132527
   9 H :    0.320490
  10 H :    0.085803
  11 H :    0.127834
  12 H :    0.107229
  13 H :    0.141507
  14 H :    0.133719
  15 H :    0.090148
  16 H :    0.125307
  17 H :    0.135434
Sum of atomic charges:   -0.0000000

LOEWDIN ATOMIC CHARGES
----------------------
   0 O :   -0.015034
   1 C :   -0.321662
   2 C :   -0.182970
   3 C :   -0.252311
   4 C :   -0.190611
   5 N :    0.182415
   6 C :   -0.393748
   7 O :    0.100439
   8 C :   -0.175032
   9 H :    0.178636
  10 H :    0.131035
  11 H :    0.130030
  12 H :    0.146369
  13 H :    0.133984
  14 H :    0.131070
  15 H :    0.112866
  16 H :    0.150062
  17 H :    0.134462

  Mayer bond orders larger than 0.1
B(  0-O ,  1-C ) :   1.1412 B(  0-O ,  2-C ) :  -0.1003 B(  0-O ,  9-H ) :   0.8430
B(  1-C ,  2-C ) :   0.9232 B(  1-C ,  8-C ) :   0.9158 B(  1-C , 10-H ) :   0.9584
B(  2-C ,  3-C ) :   0.8753 B(  2-C , 11-H ) :   0.9148 B(  2-C , 12-H ) :   0.8863
B(  3-C ,  4-C ) :   0.9214 B(  3-C ,  5-N ) :   0.8207 B(  3-C ,  8-C ) :   0.8882
B(  4-C ,  5-N ) :   0.8964 B(  4-C , 13-H ) :   0.9242 B(  4-C , 14-H ) :   0.9117
B(  5-N ,  6-C ) :   1.0317 B(  6-C ,  7-O ) :   1.9646 B(  6-C , 15-H ) :   0.9331
B(  8-C , 16-H ) :   0.9030 B(  8-C , 17-H ) :   0.9188

MP2 TOTAL ENERGY:     -438.337055207 Eh
FINAL SINGLE POINT ENERGY      -438.337055206513

DIPOLE MOMENT
-------------
                                X             Y             Z
Electronic contribution:     -2.99749       1.68419       3.19254
Nuclear contribution   :      4.34210      -2.35861      -4.06074
                        -----------------------------------------
Total Dipole Moment    :      1.34461      -0.67442      -0.86820
                        -----------------------------------------
Magnitude (a.u.)       :      1.73683
Magnitude (Debye)      :      4.41467

                             ****ORCA TERMINATED NORMALLY****
TOTAL RUN TIME: 0 days 0 hours 17 minutes 15 seconds 303 msec
