                         Program Version 3.0.3 - RELEASE   -
|  1> ! RI-MP2 RIJK def2-TZVP def2-TZVP/C def2-TZVP/JK TIGHTSCF
|  2> % maxcore 2000
|  3> % mp2 density relaxed end
|  4> *xyz 0 1
|  5>  C       -0.0110112305     1.5261638604    -0.0962967621
|  6>  C       -0.0036128805     0.0090355798    -0.0399911401
|  7>  O        0.6694888288    -0.4752756018    -1.1898264641
|  8>  C        0.7633424362    -1.8280794100    -1.2950325082
|  9>  C        0.3004441345    -2.8093329405    -0.4431522440
| 10>  N        0.6536086825    -4.0185744805    -1.0081728920
| 11>  C        1.3212871527    -3.8063279080    -2.1839472922
| 12>  C        1.4130718223    -2.4500939495    -2.4035331780
| 13>  C        2.0547780496    -1.7429881766    -3.5560837741
| 14>  H        1.0108672460     1.9153761450    -0.1131760732
| 15>  H       -0.5259166522     1.8751071492    -0.9958061945
| 16>  H       -0.5243964448     1.9353064979     0.7789519490
| 17>  H        0.5080806576    -0.3486170965     0.8670611368
| 18>  H       -1.0299881778    -0.3890185634    -0.0163670432
| 19>  H       -0.2344755439    -2.7595985820     0.4888728464
| 20>  H        0.4497757621    -4.9170080265    -0.6111289927
| 21>  H        1.6819872716    -4.6310069000    -2.7784299481
| 22>  H        1.3363587009    -1.1171696392    -4.0982977182
| 23>  H        2.8617528815    -1.0787613766    -3.2254003968
| 24>  H        2.4795275936    -2.4577645611    -4.2669126906
| 25> *
| 26>
| 27>                          ****END OF INPUT****

CARTESIAN COORDINATES (ANGSTROEM)
---------------------------------
  C     -0.011011    1.526164   -0.096297
  C     -0.003613    0.009036   -0.039991
  O      0.669489   -0.475276   -1.189826
  C      0.763342   -1.828079   -1.295033
  C      0.300444   -2.809333   -0.443152
  N      0.653609   -4.018574   -1.008173
  C      1.321287   -3.806328   -2.183947
  C      1.413072   -2.450094   -2.403533
  C      2.054778   -1.742988   -3.556084
  H      1.010867    1.915376   -0.113176
  H     -0.525917    1.875107   -0.995806
  H     -0.524396    1.935306    0.778952
  H      0.508081   -0.348617    0.867061
  H     -1.029988   -0.389019   -0.016367
  H     -0.234476   -2.759599    0.488873
  H      0.449776   -4.917008   -0.611129
  H      1.681987   -4.631007   -2.778430
  H      1.336359   -1.117170   -4.098298
  H      2.861753   -1.078761   -3.225400
  H      2.479528   -2.457765   -4.266913

 Total Charge           Charge          ....    0
 Multiplicity           Mult            ....    1
 Number of Electrons    NEL             ....   68
 Basis Dimension        Dim             ....  345

ORBITAL ENERGIES
----------------

  NO   OCC          E(Eh)            E(eV)
   0   2.0000     -20.565971      -559.6285
   1   2.0000     -15.592467      -424.2926
   2   2.0000     -11.276913      -306.8604
   3   2.0000     -11.263949      -306.5076
   4   2.0000     -11.245816      -306.0142
   5   2.0000     -11.237744      -305.7946
   6   2.0000     -11.214879      -305.1724
   7   2.0000     -11.209551      -305.0274
   8   2.0000     -11.206384      -304.9412
   9   2.0000      -1.393402       -37.9164
  10   2.0000      -1.278840       -34.7990
  11   2.0000      -1.061514       -28.8853
  12   2.0000      -1.015909       -27.6443
  13   2.0000      -0.972913       -26.4743
  14   2.0000      -0.921713       -25.0811
  15   2.0000      -0.855641       -23.2832
  16   2.0000      -0.766998       -20.8711
  17   2.0000      -0.749664       -20.3994
  18   2.0000      -0.720128       -19.5957
  19   2.0000      -0.659860       -17.9557
  20   2.0000      -0.647943       -17.6314
  21   2.0000      -0.608947       -16.5703
  22   2.0000      -0.581438       -15.8217
  23   2.0000      -0.579119       -15.7586
  24   2.0000      -0.554484       -15.0883
  25   2.0000      -0.539911       -14.6917
  26   2.0000      -0.537357       -14.6222
  27   2.0000      -0.529954       -14.4208
  28   2.0000      -0.526175       -14.3179
  29   2.0000      -0.493279       -13.4228
  30   2.0000      -0.476921       -12.9777
  31   2.0000      -0.464628       -12.6432
  32   2.0000      -0.311967        -8.4891
  33   2.0000      -0.286630        -7.7996
  34   0.0000       0.135503         3.6872
  35   0.0000       0.143388         3.9018
  36   0.0000       0.160795         4.3755
  37   0.0000       0.173796         4.7292
  38   0.0000       0.177152         4.8206

MULLIKEN ATOMIC CHARGES
-----------------------
   0 C :   -0.372072
   1 C :   -0.056971
   2 O :   -0.282745
   3 C :    0.178324
   4 C :   -0.187730
   5 N :   -0.257809
   6 C :   -0.093137
   7 C :   -0.028505
   8 C :   -0.424664
   9 H :    0.132203
  10 H :    0.132192
  11 H :    0.124470
  12 H :    0.101103
  13 H :    0.101125
  14 H :    0.149815
  15 H :    0.241292
  16 H :    0.137608
  17 H :    0.138479
  18 H :    0.138502
  19 H :    0.128521
Sum of atomic charges:    0.0000000

LOEWDIN ATOMIC CHARGES
----------------------
   0 C :   -0.315223
   1 C :   -0.331663
   2 O :    0.243668
   3 C :   -0.276387
   4 C :   -0.252340
   5 N :    0.166841
   6 C :   -0.224451
   7 C :   -0.195001
   8 C :   -0.273632
   9 H :    0.124888
  10 H :    0.124885
  11 H :    0.124992
  12 H :    0.121407
  13 H :    0.121426
  14 H :    0.131641
  15 H :    0.188053
  16 H :    0.132427
  17 H :    0.130184
  18 H :    0.130191
  19 H :    0.128094

  Mayer bond orders larger than 0.1
B(  0-C ,  1-C ) :   0.9517 B(  0-C ,  9-H ) :   0.9372 B(  0-C , 10-H ) :   0.9372
B(  0-C , 11-H ) :   0.9348 B(  1-C ,  2-O ) :   0.8816 B(  1-C , 12-H ) :   0.9200
B(  1-C , 13-H ) :   0.9199 B(  2-O ,  3-C ) :   1.0964 B(  3-C ,  4-C ) :   1.4311
B(  3-C ,  7-C ) :   1.2520 B(  4-C ,  5-N ) :   1.0805 B(  4-C , 14-H ) :   0.9084
B(  5-N ,  6-C ) :   1.1520 B(  5-N , 15-H ) :   0.8786 B(  6-C ,  7-C ) :   1.4811
B(  6-C , 16-H ) :   0.9145 B(  7-C ,  8-C ) :   0.8746 B(  8-C , 17-H ) :   0.9348
B(  8-C , 18-H ) :   0.9348 B(  8-C , 19-H ) :   0.9526

MP2 TOTAL ENERGY:     -402.481885740 Eh
FINAL SINGLE POINT ENERGY      -402.481885740456

DIPOLE MOMENT
-------------
                                X             Y             Z
Electronic contribution:      0.25001      -6.58861      -0.13106
Nuclear contribution   :     -0.56962       6.02817       0.71242
                        -----------------------------------------
Total Dipole Moment    :     -0.31961      -0.56045       0.58136
                        -----------------------------------------
Magnitude (a.u.)       :      0.86846
Magnitude (Debye)      :      2.20745

                             ****ORCA TERMINATED NORMALLY****
TOTAL RUN TIME: 0 days 0 hours 16 minutes 8 seconds 52 msec
