                         Program Version 3.0.3 - RELEASE   -
|  1> ! RI-MP2 RIJK def2-TZVP def2-TZVP/C def2-TZVP/JK TIGHTSCF
|  2> % maxcore 2000
|  3> % mp2 density relaxed end
|  4> *xyz 0 1
|  5>  O       -0.0498264372     1.4688950656    -0.1308271972
|  6>  C        0.0004570970     0.0552048260    -0.0359216544
|  7>  C       -0.0056112337    -0.6295714167     1.3748484097
|  8>  C       -1.5133759827    -0.1694505420     1.5163651962
|  9>  O       -1.8524094232     1.1376542747     1.8316021154
| 10>  C       -1.3800349233    -0.6562739792     0.0167688008
| 11>  C       -0.5886638038    -1.8246691287     0.6163005061
| 12>  C       -0.0856382428    -3.0984731878     0.1281171886
| 13>  O       -1.1032611907    -3.0107742480     1.1588106557
| 14>  H        0.8306166332     1.8138718003     0.0511234401
| 15>  H        0.7197347682    -0.3495275647    -0.7584759671
| 16>  H        0.7824317233    -0.6286314812     2.1279889402
| 17>  H       -2.1201231213    -0.8227142719     2.1457520940
| 18>  H       -1.3450621262     1.7097594340     1.2385570169
| 19>  H       -2.1411803061    -0.6836991928    -0.7618499598
| 20>  H       -0.4321522716    -3.4978231448    -0.8236368502
| 21>  H        0.8773236710    -3.4763748727     0.4678749248
| 22> *
| 23>
| 24>                          ****END OF INPUT****

CARTESIAN COORDINATES (ANGSTROEM)
---------------------------------
  O     -0.049826    1.468895   -0.130827
  C      0.000457    0.055205   -0.035922
  C     -0.005611   -0.629571    1.374848
  C     -1.513376   -0.169451    1.516365
  O     -1.852409    1.137654    1.831602
  C     -1.380035   -0.656274    0.016769
  C     -0.588664   -1.824669    0.616301
  C     -0.085638   -3.098473    0.128117
  O     -1.103261   -3.010774    1.158811
  H      0.830617    1.813872    0.051123
  H      0.719735   -0.349528   -0.758476
  H      0.782432   -0.628631    2.127989
  H     -2.120123   -0.822714    2.145752
  H     -1.345062    1.709759    1.238557
  H     -2.141180   -0.683699   -0.761850
  H     -0.432152   -3.497823   -0.823637
  H      0.877324   -3.476375    0.467875

 Total Charge           Charge          ....    0
 Multiplicity           Mult            ....    1
 Number of Electrons    NEL             ....   68
 Basis Dimension        Dim             ....  327

ORBITAL ENERGIES
----------------

  NO   OCC          E(Eh)            E(eV)
   0   2.0000     -20.587860      -560.2241
   1   2.0000     -20.574096      -559.8496
   2   2.0000     -20.546127      -559.0885
   3   2.0000     -11.310906      -307.7854
   4   2.0000     -11.308832      -307.7290
   5   2.0000     -11.296038      -307.3808
   6   2.0000     -11.291296      -307.2518
   7   2.0000     -11.253336      -306.2188
   8   2.0000     -11.252823      -306.2049
   9   2.0000      -1.422804       -38.7165
  10   2.0000      -1.399655       -38.0866
  11   2.0000      -1.359452       -36.9926
  12   2.0000      -1.204034       -32.7634
  13   2.0000      -0.936211       -25.4756
  14   2.0000      -0.900065       -24.4920
  15   2.0000      -0.887870       -24.1602
  16   2.0000      -0.842685       -22.9306
  17   2.0000      -0.768389       -20.9089
  18   2.0000      -0.730170       -19.8689
  19   2.0000      -0.696585       -18.9550
  20   2.0000      -0.678148       -18.4533
  21   2.0000      -0.663033       -18.0420
  22   2.0000      -0.633511       -17.2387
  23   2.0000      -0.596493       -16.2314
  24   2.0000      -0.575253       -15.6534
  25   2.0000      -0.566308       -15.4100
  26   2.0000      -0.560518       -15.2525
  27   2.0000      -0.519283       -14.1304
  28   2.0000      -0.505807       -13.7637
  29   2.0000      -0.472139       -12.8475
  30   2.0000      -0.454922       -12.3790
  31   2.0000      -0.428588       -11.6625
  32   2.0000      -0.419324       -11.4104
  33   2.0000      -0.403717       -10.9857
  34   0.0000       0.122869         3.3434
  35   0.0000       0.146629         3.9900
  36   0.0000       0.168873         4.5953
  37   0.0000       0.173863         4.7311
  38   0.0000       0.192110         5.2276

MULLIKEN ATOMIC CHARGES
-----------------------
   0 O :   -0.506332
   1 C :   -0.012331
   2 C :   -0.021073
   3 C :    0.031795
   4 O :   -0.466547
   5 C :   -0.039582
   6 C :    0.000566
   7 C :   -0.106558
   8 O :   -0.341884
   9 H :    0.335925
  10 H :    0.107696
  11 H :    0.152044
  12 H :    0.128938
  13 H :    0.339801
  14 H :    0.145899
  15 H :    0.126750
  16 H :    0.124891
Sum of atomic charges:   -0.0000000

LOEWDIN ATOMIC CHARGES
----------------------
   0 O :   -0.016676
   1 C :   -0.273023
   2 C :   -0.124432
   3 C :   -0.274701
   4 O :    0.000329
   5 C :   -0.112249
   6 C :   -0.299395
   7 C :   -0.219059
   8 O :    0.174862
   9 H :    0.182837
  10 H :    0.132895
  11 H :    0.129234
  12 H :    0.145646
  13 H :    0.172619
  14 H :    0.132909
  15 H :    0.124407
  16 H :    0.123796

  Mayer bond orders larger than 0.1
B(  0-O ,  1-C ) :   0.9872 B(  0-O ,  9-H ) :   0.8342 B(  1-C ,  2-C ) :   0.8695
B(  1-C ,  5-C ) :   0.8912 B(  1-C , 10-H ) :   0.9541 B(  2-C ,  3-C ) :   0.8463
B(  2-C ,  6-C ) :   0.8211 B(  2-C , 11-H ) :   0.8751 B(  3-C ,  4-O ) :   1.0252
B(  3-C ,  5-C ) :   0.8603 B(  3-C , 12-H ) :   0.9490 B(  4-O , 13-H ) :   0.8055
B(  5-C ,  6-C ) :   0.8418 B(  5-C , 14-H ) :   0.8801 B(  6-C ,  7-C ) :   1.0015
B(  6-C ,  8-O ) :   0.9059 B(  7-C ,  8-O ) :   0.8900 B(  7-C , 15-H ) :   0.9145
B(  7-C , 16-H ) :   0.9148

MP2 TOTAL ENERGY:     -458.145870789 Eh
FINAL SINGLE POINT ENERGY      -458.145870789496

DIPOLE MOMENT
-------------
                                X             Y             Z
Electronic contribution:     -1.41508       0.36785       1.16512
Nuclear contribution   :      2.83202      -0.36540      -1.97268
                        -----------------------------------------
Total Dipole Moment    :      1.41694       0.00245      -0.80756
                        -----------------------------------------
Magnitude (a.u.)       :      1.63091
Magnitude (Debye)      :      4.14545

                             ****ORCA TERMINATED NORMALLY****
TOTAL RUN TIME: 0 days 0 hours 15 minutes 32 seconds 755 msec
