                         Program Version 3.0.3 - RELEASE   -
|  1> ! RI-MP2 RIJK def2-TZVP def2-TZVP/C def2-TZVP/JK TIGHTSCF
|  2> % maxcore 2000
|  3> % mp2 density relaxed end
|  4> *xyz 0 1
|  5>  C       -0.0143514438     1.4567313931    -0.0089688982
|  6>  O       -0.0078022759     0.0268067058    -0.0587053527
|  7>  C        0.6293502606    -0.5138177905    -1.0935957788
|  8>  N        1.2027350353     0.1782982129    -1.9928441651
|  9>  N        0.5818467489    -1.9194387020    -1.0558957228
| 10>  C       -0.0034121049    -2.7841544992    -0.1420357436
| 11>  O       -0.6175293906    -2.4998046782     0.8497717315
| 12>  H        1.0057009134     1.8450287040     0.0445256987
| 13>  H       -0.5010264363     1.8708053630    -0.8954528456
| 14>  H       -0.5726081137     1.7081477310     0.8927203547
| 15>  H        1.6397030209    -0.3965642215    -2.7080549373
| 16>  H        1.0547895119    -2.3670050491    -1.8258677710
| 17>  H        0.1795754943    -3.8302308393    -0.4640524499
| 18> *
| 19>
| 20>                          ****END OF INPUT****

CARTESIAN COORDINATES (ANGSTROEM)
---------------------------------
  C     -0.014351    1.456731   -0.008969
  O     -0.007802    0.026807   -0.058705
  C      0.629350   -0.513818   -1.093596
  N      1.202735    0.178298   -1.992844
  N      0.581847   -1.919439   -1.055896
  C     -0.003412   -2.784154   -0.142036
  O     -0.617529   -2.499805    0.849772
  H      1.005701    1.845029    0.044526
  H     -0.501026    1.870805   -0.895453
  H     -0.572608    1.708148    0.892720
  H      1.639703   -0.396564   -2.708055
  H      1.054790   -2.367005   -1.825868
  H      0.179575   -3.830231   -0.464052

 Total Charge           Charge          ....    0
 Multiplicity           Mult            ....    1
 Number of Electrons    NEL             ....   54
 Basis Dimension        Dim             ....  253

ORBITAL ENERGIES
----------------

  NO   OCC          E(Eh)            E(eV)
   0   2.0000     -20.599992      -560.5543
   1   2.0000     -20.547830      -559.1349
   2   2.0000     -15.624768      -425.1715
   3   2.0000     -15.537227      -422.7895
   4   2.0000     -11.390154      -309.9418
   5   2.0000     -11.374571      -309.5178
   6   2.0000     -11.280166      -306.9489
   7   2.0000      -1.452201       -39.5164
   8   2.0000      -1.404303       -38.2130
   9   2.0000      -1.275316       -34.7031
  10   2.0000      -1.183270       -32.1984
  11   2.0000      -0.979632       -26.6571
  12   2.0000      -0.891352       -24.2549
  13   2.0000      -0.799491       -21.7553
  14   2.0000      -0.759179       -20.6583
  15   2.0000      -0.715487       -19.4694
  16   2.0000      -0.676047       -18.3962
  17   2.0000      -0.675139       -18.3715
  18   2.0000      -0.635467       -17.2919
  19   2.0000      -0.598661       -16.2904
  20   2.0000      -0.597804       -16.2671
  21   2.0000      -0.527100       -14.3431
  22   2.0000      -0.527018       -14.3409
  23   2.0000      -0.471306       -12.8249
  24   2.0000      -0.457676       -12.4540
  25   2.0000      -0.436730       -11.8840
  26   2.0000      -0.392328       -10.6758
  27   0.0000       0.111923         3.0456
  28   0.0000       0.137263         3.7351
  29   0.0000       0.156788         4.2664
  30   0.0000       0.173667         4.7257
  31   0.0000       0.203510         5.5378

MULLIKEN ATOMIC CHARGES
-----------------------
   0 C :   -0.203195
   1 O :   -0.224195
   2 C :    0.332559
   3 N :   -0.435997
   4 N :   -0.319360
   5 C :    0.184080
   6 O :   -0.284454
   7 H :    0.137798
   8 H :    0.137761
   9 H :    0.149069
  10 H :    0.202493
  11 H :    0.240974
  12 H :    0.082468
Sum of atomic charges:   -0.0000000

LOEWDIN ATOMIC CHARGES
----------------------
   0 C :   -0.302011
   1 O :    0.259012
   2 C :   -0.492860
   3 N :   -0.094774
   4 N :    0.112462
   5 C :   -0.407127
   6 O :    0.113669
   7 H :    0.114547
   8 H :    0.114541
   9 H :    0.116302
  10 H :    0.159679
  11 H :    0.195469
  12 H :    0.111091

  Mayer bond orders larger than 0.1
B(  0-C ,  1-O ) :   0.8402 B(  0-C ,  7-H ) :   0.9371 B(  0-C ,  8-H ) :   0.9371
B(  0-C ,  9-H ) :   0.9315 B(  1-O ,  2-C ) :   1.1487 B(  2-C ,  3-N ) :   1.8825
B(  2-C ,  4-N ) :   0.9928 B(  3-N , 10-H ) :   0.8647 B(  4-N ,  5-C ) :   1.0263
B(  4-N , 11-H ) :   0.8731 B(  5-C ,  6-O ) :   1.9838 B(  5-C , 12-H ) :   0.9256

MP2 TOTAL ENERGY:     -377.200626811 Eh
FINAL SINGLE POINT ENERGY      -377.200626810699

DIPOLE MOMENT
-------------
                                X             Y             Z
Electronic contribution:     -0.66705      -4.08532       0.95716
Nuclear contribution   :      1.23564       3.70159      -1.87859
                        -----------------------------------------
Total Dipole Moment    :      0.56859      -0.38374      -0.92143
                        -----------------------------------------
Magnitude (a.u.)       :      1.14873
Magnitude (Debye)      :      2.91984

                             ****ORCA TERMINATED NORMALLY****
TOTAL RUN TIME: 0 days 0 hours 6 minutes 4 seconds 275 msec
