                         Program Version 3.0.3 - RELEASE   -
|  1> ! RI-MP2 RIJK def2-TZVP def2-TZVP/C def2-TZVP/JK TIGHTSCF
|  2> % maxcore 2000
|  3> % mp2 density relaxed end
|  4> *xyz 0 1
|  5>  C       -0.1789125019     1.6056436456     0.0290440776
|  6>  C        0.0351219023     0.0968702117     0.0709721962
|  7>  C        1.1617209718    -0.4847509062    -0.8885296196
|  8>  N        1.8361684418    -0.9135591329     0.3405679539
|  9>  N        2.8102639583    -1.6576830160     0.8571261283
| 10>  C        2.4793357106    -1.6666914814     2.1633819521
| 11>  C        1.2777654324    -0.9598391410     2.4441096612
| 12>  O        0.7339998139    -0.8423264254     3.6888527961
| 13>  C        0.8918119792    -0.4821125903     1.2017459251
| 14>  H        0.7689803082     2.1398471450     0.1457621107
| 15>  H       -0.6321308558     1.9084516052    -0.9207699661
| 16>  H       -0.8477169073     1.9276685172     0.8337204423
| 17>  H       -0.9157642932    -0.4283545009    -0.0649311162
| 18>  H        0.8452174438    -1.3096989574    -1.5325185233
| 19>  H        1.7173272192     0.2563808359    -1.4704687189
| 20>  H        3.1097001097    -2.1718403771     2.8799769972
| 21>  H       -0.0780992929    -0.3319865621     3.6288852534
| 22> *
| 23>
| 24>                          ****END OF INPUT****

CARTESIAN COORDINATES (ANGSTROEM)
---------------------------------
  C     -0.178913    1.605644    0.029044
  C      0.035122    0.096870    0.070972
  C      1.161721   -0.484751   -0.888530
  N      1.836168   -0.913559    0.340568
  N      2.810264   -1.657683    0.857126
  C      2.479336   -1.666691    2.163382
  C      1.277765   -0.959839    2.444110
  O      0.734000   -0.842326    3.688853
  C      0.891812   -0.482113    1.201746
  H      0.768980    2.139847    0.145762
  H     -0.632131    1.908452   -0.920770
  H     -0.847717    1.927669    0.833720
  H     -0.915764   -0.428355   -0.064931
  H      0.845217   -1.309699   -1.532519
  H      1.717327    0.256381   -1.470469
  H      3.109700   -2.171840    2.879977
  H     -0.078099   -0.331987    3.628885

 Total Charge           Charge          ....    0
 Multiplicity           Mult            ....    1
 Number of Electrons    NEL             ....   66
 Basis Dimension        Dim             ....  327

ORBITAL ENERGIES
----------------

  NO   OCC          E(Eh)            E(eV)
   0   2.0000     -20.583708      -560.1112
   1   2.0000     -15.623898      -425.1479
   2   2.0000     -15.583386      -424.0455
   3   2.0000     -11.294102      -307.3281
   4   2.0000     -11.284045      -307.0545
   5   2.0000     -11.277121      -306.8661
   6   2.0000     -11.261154      -306.4316
   7   2.0000     -11.243950      -305.9634
   8   2.0000     -11.238348      -305.8110
   9   2.0000      -1.402411       -38.1616
  10   2.0000      -1.379456       -37.5369
  11   2.0000      -1.178347       -32.0645
  12   2.0000      -1.040926       -28.3250
  13   2.0000      -1.020167       -27.7602
  14   2.0000      -0.929602       -25.2958
  15   2.0000      -0.864449       -23.5228
  16   2.0000      -0.794886       -21.6300
  17   2.0000      -0.772594       -21.0234
  18   2.0000      -0.701002       -19.0752
  19   2.0000      -0.676822       -18.4173
  20   2.0000      -0.659288       -17.9401
  21   2.0000      -0.608046       -16.5458
  22   2.0000      -0.601807       -16.3760
  23   2.0000      -0.584056       -15.8930
  24   2.0000      -0.571420       -15.5491
  25   2.0000      -0.562358       -15.3025
  26   2.0000      -0.539190       -14.6721
  27   2.0000      -0.528335       -14.3767
  28   2.0000      -0.512071       -13.9342
  29   2.0000      -0.486421       -13.2362
  30   2.0000      -0.439722       -11.9655
  31   2.0000      -0.340667        -9.2700
  32   2.0000      -0.313460        -8.5297
  33   0.0000       0.109145         2.9700
  34   0.0000       0.143588         3.9072
  35   0.0000       0.151590         4.1250
  36   0.0000       0.171016         4.6536
  37   0.0000       0.179771         4.8918

MULLIKEN ATOMIC CHARGES
-----------------------
   0 C :   -0.411409
   1 C :   -0.003504
   2 C :   -0.156495
   3 N :    0.131006
   4 N :   -0.306508
   5 C :   -0.105555
   6 C :    0.071293
   7 O :   -0.438436
   8 C :   -0.049801
   9 H :    0.142001
  10 H :    0.139695
  11 H :    0.130515
  12 H :    0.121127
  13 H :    0.134088
  14 H :    0.134284
  15 H :    0.138140
  16 H :    0.329558
Sum of atomic charges:    0.0000000

LOEWDIN ATOMIC CHARGES
----------------------
   0 C :   -0.292771
   1 C :   -0.213087
   2 C :   -0.163937
   3 N :    0.212547
   4 N :    0.023385
   5 C :   -0.250182
   6 C :   -0.306440
   7 O :    0.053841
   8 C :   -0.186263
   9 H :    0.129602
  10 H :    0.126292
  11 H :    0.126501
  12 H :    0.150572
  13 H :    0.131611
  14 H :    0.131096
  15 H :    0.135685
  16 H :    0.191548

  Mayer bond orders larger than 0.1
B(  0-C ,  1-C ) :   0.8869 B(  0-C ,  9-H ) :   0.9340 B(  0-C , 10-H ) :   0.9360
B(  0-C , 11-H ) :   0.9353 B(  1-C ,  2-C ) :   0.9195 B(  1-C ,  8-C ) :   0.9295
B(  1-C , 12-H ) :   0.9102 B(  2-C ,  3-N ) :   0.8715 B(  2-C , 13-H ) :   0.9165
B(  2-C , 14-H ) :   0.9143 B(  3-N ,  4-N ) :   1.0505 B(  3-N ,  8-C ) :   1.1380
B(  4-N ,  5-C ) :   1.4337 B(  4-N ,  8-C ) :   0.1105 B(  5-C ,  6-C ) :   1.3410
B(  5-C , 15-H ) :   0.9335 B(  6-C ,  7-O ) :   1.1383 B(  6-C ,  8-C ) :   1.2689
B(  7-O , 16-H ) :   0.8361

MP2 TOTAL ENERGY:     -417.275960444 Eh
FINAL SINGLE POINT ENERGY      -417.275960443794

DIPOLE MOMENT
-------------
                                X             Y             Z
Electronic contribution:      3.87038      -5.18315       4.44415
Nuclear contribution   :     -5.27381       6.09932      -5.12603
                        -----------------------------------------
Total Dipole Moment    :     -1.40343       0.91617      -0.68189
                        -----------------------------------------
Magnitude (a.u.)       :      1.80940
Magnitude (Debye)      :      4.59914

                             ****ORCA TERMINATED NORMALLY****
TOTAL RUN TIME: 0 days 0 hours 16 minutes 17 seconds 794 msec
