                         Program Version 3.0.3 - RELEASE   -
|  1> ! RI-MP2 RIJK def2-TZVP def2-TZVP/C def2-TZVP/JK TIGHTSCF
|  2> % maxcore 2000
|  3> % mp2 density relaxed end
|  4> *xyz 0 1
|  5>  C       -1.4098766039     1.3373373609     0.4099526107
|  6>  N       -1.5645935686     0.0991248506    -0.5169414085
|  7>  C       -0.8328987002    -0.7075502499     0.6042954267
|  8>  C        0.2710295071    -1.6186138429     0.1448045117
|  9>  C        1.5284535968    -0.7551229418     0.3395081289
| 10>  O        1.2502128073     0.4586399968     1.0471189507
| 11>  C       -0.0573999238     0.6112101834     0.5411015062
| 12>  C       -0.0959285633     0.3804239493    -0.9720975179
| 13>  C        0.8166944813    -0.8130667666    -1.0223596478
| 14>  H       -2.0904360778     1.3270660878     1.2636607576
| 15>  H       -1.4400420103     2.2872179783    -0.1275429128
| 16>  H       -1.4540044954    -0.9673087774     1.4592464484
| 17>  H        0.2777789004    -2.6978723974     0.1957699995
| 18>  H        2.5158540612    -1.1517837735     0.5273692559
| 19>  H        0.0136988019     1.1994305695    -1.6801923032
| 20>  H        1.2607453273    -1.2467536470    -1.9067671561
| 21> *
| 22>
| 23>                          ****END OF INPUT****

CARTESIAN COORDINATES (ANGSTROEM)
---------------------------------
  C     -1.409877    1.337337    0.409953
  N     -1.564594    0.099125   -0.516941
  C     -0.832899   -0.707550    0.604295
  C      0.271030   -1.618614    0.144805
  C      1.528454   -0.755123    0.339508
  O      1.250213    0.458640    1.047119
  C     -0.057400    0.611210    0.541102
  C     -0.095929    0.380424   -0.972098
  C      0.816694   -0.813067   -1.022360
  H     -2.090436    1.327066    1.263661
  H     -1.440042    2.287218   -0.127543
  H     -1.454004   -0.967309    1.459246
  H      0.277779   -2.697872    0.195770
  H      2.515854   -1.151784    0.527369
  H      0.013699    1.199431   -1.680192
  H      1.260745   -1.246754   -1.906767

 Total Charge           Charge          ....    0
 Multiplicity           Mult            ....    1
 Number of Electrons    NEL             ....   64
 Basis Dimension        Dim             ....  321

ORBITAL ENERGIES
----------------

  NO   OCC          E(Eh)            E(eV)
   0   2.0000     -20.576357      -559.9111
   1   2.0000     -15.581549      -423.9955
   2   2.0000     -11.301068      -307.5177
   3   2.0000     -11.298498      -307.4478
   4   2.0000     -11.280274      -306.9519
   5   2.0000     -11.263009      -306.4821
   6   2.0000     -11.263004      -306.4819
   7   2.0000     -11.245464      -306.0046
   8   2.0000     -11.244821      -305.9871
   9   2.0000      -1.416214       -38.5371
  10   2.0000      -1.293469       -35.1971
  11   2.0000      -1.146104       -31.1871
  12   2.0000      -0.967437       -26.3253
  13   2.0000      -0.933681       -25.4068
  14   2.0000      -0.914594       -24.8874
  15   2.0000      -0.807239       -21.9661
  16   2.0000      -0.783697       -21.3255
  17   2.0000      -0.753137       -20.4939
  18   2.0000      -0.713410       -19.4129
  19   2.0000      -0.659635       -17.9496
  20   2.0000      -0.629604       -17.1324
  21   2.0000      -0.607426       -16.5289
  22   2.0000      -0.602275       -16.3887
  23   2.0000      -0.592556       -16.1243
  24   2.0000      -0.517773       -14.0893
  25   2.0000      -0.499772       -13.5995
  26   2.0000      -0.477087       -12.9822
  27   2.0000      -0.469439       -12.7741
  28   2.0000      -0.430911       -11.7257
  29   2.0000      -0.429484       -11.6869
  30   2.0000      -0.395285       -10.7562
  31   2.0000      -0.370182       -10.0732
  32   0.0000       0.147150         4.0042
  33   0.0000       0.155887         4.2419
  34   0.0000       0.171441         4.6651
  35   0.0000       0.174311         4.7432
  36   0.0000       0.192437         5.2365

MULLIKEN ATOMIC CHARGES
-----------------------
   0 C :   -0.100748
   1 N :   -0.194104
   2 C :   -0.101165
   3 C :   -0.152796
   4 C :   -0.013052
   5 O :   -0.300237
   6 C :    0.185766
   7 C :   -0.101167
   8 C :   -0.152796
   9 H :    0.126475
  10 H :    0.126476
  11 H :    0.119033
  12 H :    0.149362
  13 H :    0.140560
  14 H :    0.119032
  15 H :    0.149362
Sum of atomic charges:   -0.0000000

LOEWDIN ATOMIC CHARGES
----------------------
   0 C :   -0.185551
   1 N :    0.134489
   2 C :   -0.162927
   3 C :   -0.152639
   4 C :   -0.198138
   5 O :    0.213770
   6 C :   -0.300911
   7 C :   -0.162928
   8 C :   -0.152640
   9 H :    0.127189
  10 H :    0.127190
  11 H :    0.141762
  12 H :    0.144798
  13 H :    0.139976
  14 H :    0.141762
  15 H :    0.144797

  Mayer bond orders larger than 0.1
B(  0-C ,  1-N ) :   0.9111 B(  0-C ,  6-C ) :   0.9314 B(  0-C ,  9-H ) :   0.9230
B(  0-C , 10-H ) :   0.9230 B(  1-N ,  2-C ) :   0.9229 B(  1-N ,  7-C ) :   0.9229
B(  2-C ,  3-C ) :   0.9650 B(  2-C ,  6-C ) :   0.9420 B(  2-C , 11-H ) :   0.9275
B(  3-C ,  4-C ) :   0.8338 B(  3-C ,  8-C ) :   0.8532 B(  3-C , 12-H ) :   0.9203
B(  4-C ,  5-O ) :   0.9562 B(  4-C ,  8-C ) :   0.8338 B(  4-C , 13-H ) :   0.9306
B(  5-O ,  6-C ) :   0.9715 B(  6-C ,  7-C ) :   0.9420 B(  7-C ,  8-C ) :   0.9650
B(  7-C , 14-H ) :   0.9275 B(  8-C , 15-H ) :   0.9203

MP2 TOTAL ENERGY:     -399.951478969 Eh
FINAL SINGLE POINT ENERGY      -399.951478968624

DIPOLE MOMENT
-------------
                                X             Y             Z
Electronic contribution:      1.10116       0.32446       0.73875
Nuclear contribution   :     -0.83935      -0.54897      -0.77130
                        -----------------------------------------
Total Dipole Moment    :      0.26180      -0.22451      -0.03255
                        -----------------------------------------
Magnitude (a.u.)       :      0.34642
Magnitude (Debye)      :      0.88052

                             ****ORCA TERMINATED NORMALLY****
TOTAL RUN TIME: 0 days 0 hours 20 minutes 8 seconds 784 msec
