                         Program Version 3.0.3 - RELEASE   -
|  1> ! RI-MP2 RIJK def2-TZVP def2-TZVP/C def2-TZVP/JK TIGHTSCF
|  2> % maxcore 2000
|  3> % mp2 density relaxed end
|  4> *xyz 0 1
|  5>  C        0.0502729656     1.3682849689    -0.3802691277
|  6>  C        0.2556983339    -0.0952237568    -0.0717360526
|  7>  N        1.6316223256    -0.5181028638     0.2649048433
|  8>  C        0.5866167943    -0.5891429449     1.2825082877
|  9>  C        0.7343000480     0.0883996387     2.6484124832
| 10>  C        0.6812786994    -1.3280674158     3.2985471890
| 11>  C        0.1663492972    -1.9158835212     1.9439834922
| 12>  C       -1.3348068544    -2.1833949706     1.9165168198
| 13>  O        0.8923599822    -3.0050653013     1.4033541264
| 14>  H        0.6602336898     1.9897488345     0.2806206086
| 15>  H        0.3371274708     1.5940829787    -1.4130672802
| 16>  H       -1.0002945478     1.6523502686    -0.2522386476
| 17>  H       -0.3238567910    -0.7794557532    -0.6927539164
| 18>  H        1.8086469969    -1.4596797344    -0.0813519660
| 19>  H        1.6553555878     0.6556629113     2.7906636212
| 20>  H       -0.1189962484     0.7186636799     2.9165179627
| 21>  H        1.6790083756    -1.7128690767     3.5192448910
| 22>  H        0.0381675188    -1.4587489923     4.1728693007
| 23>  H       -1.8979676994    -1.3193065076     2.2815716098
| 24>  H       -1.6695191729    -2.4057785750     0.8984788177
| 25>  H       -1.5886510144    -3.0365962233     2.5593418803
| 26>  H        0.5010276823    -3.8257507338     1.7193500770
| 27> *
| 28>
| 29>                          ****END OF INPUT****

CARTESIAN COORDINATES (ANGSTROEM)
---------------------------------
  C      0.050273    1.368285   -0.380269
  C      0.255698   -0.095224   -0.071736
  N      1.631622   -0.518103    0.264905
  C      0.586617   -0.589143    1.282508
  C      0.734300    0.088400    2.648412
  C      0.681279   -1.328067    3.298547
  C      0.166349   -1.915884    1.943983
  C     -1.334807   -2.183395    1.916517
  O      0.892360   -3.005065    1.403354
  H      0.660234    1.989749    0.280621
  H      0.337127    1.594083   -1.413067
  H     -1.000295    1.652350   -0.252239
  H     -0.323857   -0.779456   -0.692754
  H      1.808647   -1.459680   -0.081352
  H      1.655356    0.655663    2.790664
  H     -0.118996    0.718664    2.916518
  H      1.679008   -1.712869    3.519245
  H      0.038168   -1.458749    4.172869
  H     -1.897968   -1.319307    2.281572
  H     -1.669519   -2.405779    0.898479
  H     -1.588651   -3.036596    2.559342
  H      0.501028   -3.825751    1.719350

 Total Charge           Charge          ....    0
 Multiplicity           Mult            ....    1
 Number of Electrons    NEL             ....   70
 Basis Dimension        Dim             ....  357

ORBITAL ENERGIES
----------------

  NO   OCC          E(Eh)            E(eV)
   0   2.0000     -20.561887      -559.5174
   1   2.0000     -15.541284      -422.8998
   2   2.0000     -11.288773      -307.1831
   3   2.0000     -11.251090      -306.1577
   4   2.0000     -11.250316      -306.1367
   5   2.0000     -11.226552      -305.4900
   6   2.0000     -11.220578      -305.3274
   7   2.0000     -11.219886      -305.3086
   8   2.0000     -11.211940      -305.0924
   9   2.0000      -1.372241       -37.3406
  10   2.0000      -1.254438       -34.1350
  11   2.0000      -1.104474       -30.0543
  12   2.0000      -0.986041       -26.8315
  13   2.0000      -0.981157       -26.6986
  14   2.0000      -0.870377       -23.6842
  15   2.0000      -0.855500       -23.2793
  16   2.0000      -0.807795       -21.9812
  17   2.0000      -0.726873       -19.7792
  18   2.0000      -0.690902       -18.8004
  19   2.0000      -0.671956       -18.2849
  20   2.0000      -0.631020       -17.1709
  21   2.0000      -0.615545       -16.7498
  22   2.0000      -0.585224       -15.9248
  23   2.0000      -0.565485       -15.3876
  24   2.0000      -0.561322       -15.2744
  25   2.0000      -0.548402       -14.9228
  26   2.0000      -0.539506       -14.6807
  27   2.0000      -0.511263       -13.9122
  28   2.0000      -0.505682       -13.7603
  29   2.0000      -0.499252       -13.5853
  30   2.0000      -0.464208       -12.6317
  31   2.0000      -0.440709       -11.9923
  32   2.0000      -0.431653       -11.7459
  33   2.0000      -0.412553       -11.2261
  34   2.0000      -0.367192        -9.9918
  35   0.0000       0.123912         3.3718
  36   0.0000       0.147131         4.0036
  37   0.0000       0.165870         4.5135
  38   0.0000       0.176664         4.8073
  39   0.0000       0.179236         4.8773

MULLIKEN ATOMIC CHARGES
-----------------------
   0 C :   -0.404811
   1 C :   -0.031403
   2 N :   -0.393119
   3 C :    0.032159
   4 C :   -0.227891
   5 C :   -0.238096
   6 C :    0.277138
   7 C :   -0.475695
   8 O :   -0.471872
   9 H :    0.140163
  10 H :    0.131878
  11 H :    0.119884
  12 H :    0.117020
  13 H :    0.234234
  14 H :    0.116903
  15 H :    0.120627
  16 H :    0.115514
  17 H :    0.112183
  18 H :    0.138173
  19 H :    0.140231
  20 H :    0.130397
  21 H :    0.316385
Sum of atomic charges:   -0.0000000

LOEWDIN ATOMIC CHARGES
----------------------
   0 C :   -0.294417
   1 C :   -0.264380
   2 N :    0.036790
   3 C :   -0.246584
   4 C :   -0.195618
   5 C :   -0.196385
   6 C :   -0.354197
   7 C :   -0.277766
   8 O :    0.006559
   9 H :    0.130524
  10 H :    0.125892
  11 H :    0.123945
  12 H :    0.139055
  13 H :    0.171767
  14 H :    0.134283
  15 H :    0.134631
  16 H :    0.139907
  17 H :    0.124808
  18 H :    0.134289
  19 H :    0.126870
  20 H :    0.123343
  21 H :    0.176684

  Mayer bond orders larger than 0.1
B(  0-C ,  1-C ) :   0.8751 B(  0-C ,  9-H ) :   0.9448 B(  0-C , 10-H ) :   0.9372
B(  0-C , 11-H ) :   0.9349 B(  1-C ,  2-N ) :   0.9605 B(  1-C ,  3-C ) :   0.8851
B(  1-C , 12-H ) :   0.9170 B(  2-N ,  3-C ) :   0.9272 B(  2-N , 13-H ) :   0.8653
B(  3-C ,  4-C ) :   0.8954 B(  3-C ,  6-C ) :   0.8433 B(  3-C ,  8-O ) :  -0.1128
B(  4-C ,  5-C ) :   0.9763 B(  4-C , 14-H ) :   0.9097 B(  4-C , 15-H ) :   0.9240
B(  5-C ,  6-C ) :   0.9083 B(  5-C , 16-H ) :   0.9061 B(  5-C , 17-H ) :   0.9232
B(  6-C ,  7-C ) :   0.9119 B(  6-C ,  8-O ) :   1.0588 B(  7-C , 18-H ) :   0.9266
B(  7-C , 19-H ) :   0.9424 B(  7-C , 20-H ) :   0.9261 B(  8-O , 21-H ) :   0.8396

MP2 TOTAL ENERGY:     -403.634606770 Eh
FINAL SINGLE POINT ENERGY      -403.634606770011

DIPOLE MOMENT
-------------
                                X             Y             Z
Electronic contribution:      3.83128      -3.24401      -0.61756
Nuclear contribution   :     -4.79165       2.73981       0.96911
                        -----------------------------------------
Total Dipole Moment    :     -0.96037      -0.50420       0.35155
                        -----------------------------------------
Magnitude (a.u.)       :      1.14022
Magnitude (Debye)      :      2.89822

                             ****ORCA TERMINATED NORMALLY****
TOTAL RUN TIME: 0 days 0 hours 19 minutes 20 seconds 712 msec
