                         Program Version 3.0.3 - RELEASE   -
|  1> ! RI-MP2 RIJK def2-TZVP def2-TZVP/C def2-TZVP/JK TIGHTSCF
|  2> % maxcore 2000
|  3> % mp2 density relaxed end
|  4> *xyz 0 1
|  5>  C        0.5440203448     1.6279301119     0.0332198371
|  6>  C       -0.1004562433     0.2331436374    -0.0895132418
|  7>  C        0.4253495389    -0.4904996754    -1.3410515353
|  8>  N       -0.0777155397    -1.8329060544    -1.5734014246
|  9>  C        0.6221158906    -2.9012747088    -0.8923864294
| 10>  C        0.6887339541    -2.9447666656     0.6424031091
| 11>  O        1.0366014144    -3.9831818342     1.1743334235
| 12>  C        0.3497963004    -1.7827486815     1.4997811216
| 13>  C        0.0279480090    -0.5135376500     1.2099094697
| 14>  H        1.6215156097     1.5449221592     0.2112106291
| 15>  H        0.3964787372     2.2025354110    -0.8864395017
| 16>  H        0.1103049459     2.1983908891     0.8599489557
| 17>  H       -1.1826771487     0.3951407125    -0.2362168878
| 18>  H        0.1868337518     0.1374453911    -2.2100857384
| 19>  H        1.5205457991    -0.5476391734    -1.2946799978
| 20>  H       -1.0773249576    -1.8844628235    -1.4143719623
| 21>  H        0.2047819373    -3.8655037581    -1.2004443611
| 22>  H        1.6657958304    -2.9106971489    -1.2374907617
| 23>  H        0.3835357373    -2.0664063008     2.5493246813
| 24>  H       -0.1915250716     0.1166436724     2.0730637749
| 25> *
| 26>
| 27>                          ****END OF INPUT****

CARTESIAN COORDINATES (ANGSTROEM)
---------------------------------
  C      0.544020    1.627930    0.033220
  C     -0.100456    0.233144   -0.089513
  C      0.425350   -0.490500   -1.341052
  N     -0.077716   -1.832906   -1.573401
  C      0.622116   -2.901275   -0.892386
  C      0.688734   -2.944767    0.642403
  O      1.036601   -3.983182    1.174333
  C      0.349796   -1.782749    1.499781
  C      0.027948   -0.513538    1.209909
  H      1.621516    1.544922    0.211211
  H      0.396479    2.202535   -0.886440
  H      0.110305    2.198391    0.859949
  H     -1.182677    0.395141   -0.236217
  H      0.186834    0.137445   -2.210086
  H      1.520546   -0.547639   -1.294680
  H     -1.077325   -1.884463   -1.414372
  H      0.204782   -3.865504   -1.200444
  H      1.665796   -2.910697   -1.237491
  H      0.383536   -2.066406    2.549325
  H     -0.191525    0.116644    2.073064

 Total Charge           Charge          ....    0
 Multiplicity           Mult            ....    1
 Number of Electrons    NEL             ....   68
 Basis Dimension        Dim             ....  345

ORBITAL ENERGIES
----------------

  NO   OCC          E(Eh)            E(eV)
   0   2.0000     -20.537203      -558.8457
   1   2.0000     -15.554733      -423.2658
   2   2.0000     -11.325764      -308.1897
   3   2.0000     -11.265839      -306.5591
   4   2.0000     -11.263005      -306.4819
   5   2.0000     -11.262802      -306.4764
   6   2.0000     -11.253569      -306.2252
   7   2.0000     -11.239161      -305.8331
   8   2.0000     -11.234663      -305.7107
   9   2.0000      -1.380024       -37.5524
  10   2.0000      -1.225411       -33.3451
  11   2.0000      -1.109145       -30.1814
  12   2.0000      -1.044745       -28.4290
  13   2.0000      -0.969113       -26.3709
  14   2.0000      -0.898955       -24.4618
  15   2.0000      -0.884518       -24.0690
  16   2.0000      -0.801552       -21.8113
  17   2.0000      -0.712583       -19.3904
  18   2.0000      -0.697727       -18.9861
  19   2.0000      -0.674852       -18.3637
  20   2.0000      -0.645940       -17.5769
  21   2.0000      -0.607456       -16.5297
  22   2.0000      -0.595190       -16.1960
  23   2.0000      -0.590032       -16.0556
  24   2.0000      -0.578374       -15.7384
  25   2.0000      -0.556416       -15.1409
  26   2.0000      -0.541280       -14.7290
  27   2.0000      -0.528469       -14.3804
  28   2.0000      -0.509637       -13.8679
  29   2.0000      -0.494985       -13.4692
  30   2.0000      -0.482526       -13.1302
  31   2.0000      -0.432375       -11.7655
  32   2.0000      -0.379043       -10.3143
  33   2.0000      -0.366658        -9.9773
  34   0.0000       0.085040         2.3141
  35   0.0000       0.125392         3.4121
  36   0.0000       0.144238         3.9249
  37   0.0000       0.154764         4.2113
  38   0.0000       0.170011         4.6262

MULLIKEN ATOMIC CHARGES
-----------------------
   0 C :   -0.426053
   1 C :    0.012299
   2 C :   -0.150208
   3 N :   -0.337503
   4 C :   -0.195209
   5 C :    0.214471
   6 O :   -0.296666
   7 C :   -0.217614
   8 C :   -0.135013
   9 H :    0.136728
  10 H :    0.138460
  11 H :    0.137914
  12 H :    0.103906
  13 H :    0.132700
  14 H :    0.116716
  15 H :    0.206330
  16 H :    0.157726
  17 H :    0.139008
  18 H :    0.134134
  19 H :    0.127873
Sum of atomic charges:   -0.0000000

LOEWDIN ATOMIC CHARGES
----------------------
   0 C :   -0.284021
   1 C :   -0.283864
   2 C :   -0.286213
   3 N :   -0.009436
   4 C :   -0.291452
   5 C :   -0.328618
   6 O :    0.143992
   7 C :   -0.148714
   8 C :   -0.117552
   9 H :    0.126965
  10 H :    0.126196
  11 H :    0.124756
  12 H :    0.163553
  13 H :    0.136353
  14 H :    0.141008
  15 H :    0.170939
  16 H :    0.149980
  17 H :    0.150878
  18 H :    0.159408
  19 H :    0.155841

  Mayer bond orders larger than 0.1
B(  0-C ,  1-C ) :   0.8956 B(  0-C ,  9-H ) :   0.9316 B(  0-C , 10-H ) :   0.9358
B(  0-C , 11-H ) :   0.9357 B(  1-C ,  2-C ) :   0.9455 B(  1-C ,  8-C ) :   0.8975
B(  1-C , 12-H ) :   0.9049 B(  2-C ,  3-N ) :   0.9347 B(  2-C , 13-H ) :   0.9343
B(  2-C , 14-H ) :   0.9260 B(  3-N ,  4-C ) :   0.9866 B(  3-N , 15-H ) :   0.8847
B(  4-C ,  5-C ) :   0.8306 B(  4-C , 16-H ) :   0.9359 B(  4-C , 17-H ) :   0.9285
B(  5-C ,  6-O ) :   1.9056 B(  5-C ,  7-C ) :   1.0218 B(  7-C ,  8-C ) :   1.6791
B(  7-C , 18-H ) :   0.9242 B(  8-C , 19-H ) :   0.9198

MP2 TOTAL ENERGY:     -402.466159324 Eh
FINAL SINGLE POINT ENERGY      -402.466159324361

DIPOLE MOMENT
-------------
                                X             Y             Z
Electronic contribution:      0.19463      -8.68397       2.93299
Nuclear contribution   :     -0.69243      10.03466      -3.15880
                        -----------------------------------------
Total Dipole Moment    :     -0.49780       1.35069      -0.22580
                        -----------------------------------------
Magnitude (a.u.)       :      1.45710
Magnitude (Debye)      :      3.70367

                             ****ORCA TERMINATED NORMALLY****
TOTAL RUN TIME: 0 days 0 hours 18 minutes 48 seconds 333 msec
