                         Program Version 3.0.3 - RELEASE   -
|  1> ! RI-MP2 RIJK def2-TZVP def2-TZVP/C def2-TZVP/JK TIGHTSCF
|  2> % maxcore 2000
|  3> % mp2 density relaxed end
|  4> *xyz 0 1
|  5>  N       -0.0738198098     1.4648704631    -0.2354956922
|  6>  C       -0.0292818929     0.0652208367    -0.0677802500
|  7>  C       -0.3686834733    -0.8375122836    -1.2192282346
|  8>  C       -1.1936895859    -0.9589362077     0.0365366786
|  9>  N       -0.4272396330    -1.7937638876     0.9936809307
| 10>  C        0.6454805502    -0.7415949310     1.0540809894
| 11>  C       -2.6004550499    -0.7794517386     0.1139422212
| 12>  N       -3.7447656857    -0.6289964830     0.2150650772
| 13>  H       -0.0522922107     1.9646498611     0.6459934508
| 14>  H        0.6765111114     1.8072587849    -0.8259914487
| 15>  H       -0.8573452959    -0.3256722769    -2.0408771358
| 16>  H        0.2639193114    -1.6801094092    -1.4841252681
| 17>  H       -0.9162499178    -1.8553132767     1.8814536446
| 18>  H        1.6542845103    -1.1238187354     0.8631461680
| 19>  H        0.6421979016    -0.1893039163     2.0006586090
| 20> *
| 21>
| 22>                          ****END OF INPUT****

CARTESIAN COORDINATES (ANGSTROEM)
---------------------------------
  N     -0.073820    1.464870   -0.235496
  C     -0.029282    0.065221   -0.067780
  C     -0.368683   -0.837512   -1.219228
  C     -1.193690   -0.958936    0.036537
  N     -0.427240   -1.793764    0.993681
  C      0.645481   -0.741595    1.054081
  C     -2.600455   -0.779452    0.113942
  N     -3.744766   -0.628996    0.215065
  H     -0.052292    1.964650    0.645993
  H      0.676511    1.807259   -0.825991
  H     -0.857345   -0.325672   -2.040877
  H      0.263919   -1.680109   -1.484125
  H     -0.916250   -1.855313    1.881454
  H      1.654285   -1.123819    0.863146
  H      0.642198   -0.189304    2.000659

 Total Charge           Charge          ....    0
 Multiplicity           Mult            ....    1
 Number of Electrons    NEL             ....   58
 Basis Dimension        Dim             ....  290

ORBITAL ENERGIES
----------------

  NO   OCC          E(Eh)            E(eV)
   0   2.0000     -15.574994      -423.8171
   1   2.0000     -15.573544      -423.7777
   2   2.0000     -15.570512      -423.6952
   3   2.0000     -11.308033      -307.7072
   4   2.0000     -11.301777      -307.5370
   5   2.0000     -11.279499      -306.9308
   6   2.0000     -11.274525      -306.7954
   7   2.0000     -11.257446      -306.3307
   8   2.0000      -1.299448       -35.3598
   9   2.0000      -1.213928       -33.0327
  10   2.0000      -1.201743       -32.7011
  11   2.0000      -1.082561       -29.4580
  12   2.0000      -0.967188       -26.3185
  13   2.0000      -0.879262       -23.9259
  14   2.0000      -0.802387       -21.8341
  15   2.0000      -0.750860       -20.4319
  16   2.0000      -0.689300       -18.7568
  17   2.0000      -0.661035       -17.9877
  18   2.0000      -0.630288       -17.1510
  19   2.0000      -0.600231       -16.3331
  20   2.0000      -0.588560       -16.0155
  21   2.0000      -0.559597       -15.2274
  22   2.0000      -0.548542       -14.9266
  23   2.0000      -0.532014       -14.4768
  24   2.0000      -0.482442       -13.1279
  25   2.0000      -0.460105       -12.5201
  26   2.0000      -0.436784       -11.8855
  27   2.0000      -0.419290       -11.4095
  28   2.0000      -0.356255        -9.6942
  29   0.0000       0.115298         3.1374
  30   0.0000       0.132246         3.5986
  31   0.0000       0.147631         4.0172
  32   0.0000       0.163969         4.4618
  33   0.0000       0.172986         4.7072

MULLIKEN ATOMIC CHARGES
-----------------------
   0 N :   -0.534870
   1 C :    0.073456
   2 C :   -0.275190
   3 C :    0.223761
   4 N :   -0.307343
   5 C :   -0.148624
   6 C :   -0.242507
   7 N :   -0.051896
   8 H :    0.242768
   9 H :    0.252605
  10 H :    0.162098
  11 H :    0.146859
  12 H :    0.218442
  13 H :    0.117523
  14 H :    0.122919
Sum of atomic charges:   -0.0000000

LOEWDIN ATOMIC CHARGES
----------------------
   0 N :   -0.095928
   1 C :   -0.291482
   2 C :   -0.138115
   3 C :   -0.241565
   4 N :    0.025452
   5 C :   -0.220766
   6 C :   -0.160623
   7 N :    0.072776
   8 H :    0.163938
   9 H :    0.167246
  10 H :    0.154564
  11 H :    0.142761
  12 H :    0.169948
  13 H :    0.124208
  14 H :    0.127586

  Mayer bond orders larger than 0.1
B(  0-N ,  1-C ) :   1.0403 B(  0-N ,  8-H ) :   0.8822 B(  0-N ,  9-H ) :   0.8713
B(  1-C ,  2-C ) :   0.9062 B(  1-C ,  3-C ) :   0.7367 B(  1-C ,  5-C ) :   0.9819
B(  2-C ,  3-C ) :   0.8420 B(  2-C , 10-H ) :   0.9297 B(  2-C , 11-H ) :   0.9064
B(  3-C ,  4-N ) :   1.0600 B(  3-C ,  6-C ) :   0.8994 B(  4-N ,  5-C ) :   0.9649
B(  4-N , 12-H ) :   0.8708 B(  5-C , 13-H ) :   0.9138 B(  5-C , 14-H ) :   0.9207
B(  6-C ,  7-N ) :   2.8565

MP2 TOTAL ENERGY:     -358.183247825 Eh
FINAL SINGLE POINT ENERGY      -358.183247824501

DIPOLE MOMENT
-------------
                                X             Y             Z
Electronic contribution:     -5.45749      -1.32385       0.10034
Nuclear contribution   :      7.37231       1.93043       0.15537
                        -----------------------------------------
Total Dipole Moment    :      1.91482       0.60658       0.25571
                        -----------------------------------------
Magnitude (a.u.)       :      2.02481
Magnitude (Debye)      :      5.14666

                             ****ORCA TERMINATED NORMALLY****
TOTAL RUN TIME: 0 days 0 hours 12 minutes 22 seconds 104 msec
