                         Program Version 3.0.3 - RELEASE   -
|  1> ! RI-MP2 RIJK def2-TZVP def2-TZVP/C def2-TZVP/JK TIGHTSCF
|  2> % maxcore 2000
|  3> % mp2 density relaxed end
|  4> *xyz 0 1
|  5>  C        0.0123868317     1.4941919319     0.0332974161
|  6>  C       -0.0051998386     0.0039575410    -0.0224082054
|  7>  C       -0.1192222364    -0.8267380217    -1.0990219834
|  8>  O       -0.0866450331    -2.1119994943    -0.6687196925
|  9>  C        0.0481458871    -2.0108097375     0.6754887719
| 10>  C        0.1204813477    -3.2242929200     1.4990688389
| 11>  O        0.0684438290    -4.3503091762     1.0678228190
| 12>  N        0.1012799864    -0.7827785968     1.1093324645
| 13>  H        0.9455463412     1.8549094366     0.4773387415
| 14>  H       -0.0837893413     1.9258376999    -0.9658610879
| 15>  H       -0.8087711794     1.8690416978     0.6523666863
| 16>  H       -0.2237723273    -0.6749568958    -2.1603113802
| 17>  H        0.2297094330    -2.9885687648     2.5758685412
| 18> *
| 19>
| 20>                          ****END OF INPUT****

CARTESIAN COORDINATES (ANGSTROEM)
---------------------------------
  C      0.012387    1.494192    0.033297
  C     -0.005200    0.003958   -0.022408
  C     -0.119222   -0.826738   -1.099022
  O     -0.086645   -2.111999   -0.668720
  C      0.048146   -2.010810    0.675489
  C      0.120481   -3.224293    1.499069
  O      0.068444   -4.350309    1.067823
  N      0.101280   -0.782779    1.109332
  H      0.945546    1.854909    0.477339
  H     -0.083789    1.925838   -0.965861
  H     -0.808771    1.869042    0.652367
  H     -0.223772   -0.674957   -2.160311
  H      0.229709   -2.988569    2.575869

 Total Charge           Charge          ....    0
 Multiplicity           Mult            ....    1
 Number of Electrons    NEL             ....   58
 Basis Dimension        Dim             ....  278

ORBITAL ENERGIES
----------------

  NO   OCC          E(Eh)            E(eV)
   0   2.0000     -20.655756      -562.0717
   1   2.0000     -20.577672      -559.9469
   2   2.0000     -15.594515      -424.3483
   3   2.0000     -11.355144      -308.9892
   4   2.0000     -11.349865      -308.8455
   5   2.0000     -11.310569      -307.7762
   6   2.0000     -11.284283      -307.0609
   7   2.0000     -11.243709      -305.9569
   8   2.0000      -1.507644       -41.0251
   9   2.0000      -1.411605       -38.4117
  10   2.0000      -1.259414       -34.2704
  11   2.0000      -1.084023       -29.4978
  12   2.0000      -0.985887       -26.8273
  13   2.0000      -0.917464       -24.9655
  14   2.0000      -0.837651       -22.7937
  15   2.0000      -0.788188       -21.4477
  16   2.0000      -0.739391       -20.1198
  17   2.0000      -0.684292       -18.6205
  18   2.0000      -0.670054       -18.2331
  19   2.0000      -0.654958       -17.8223
  20   2.0000      -0.618100       -16.8194
  21   2.0000      -0.588204       -16.0058
  22   2.0000      -0.576574       -15.6894
  23   2.0000      -0.554099       -15.0778
  24   2.0000      -0.550379       -14.9766
  25   2.0000      -0.487091       -13.2544
  26   2.0000      -0.461710       -12.5638
  27   2.0000      -0.455603       -12.3976
  28   2.0000      -0.350324        -9.5328
  29   0.0000       0.056492         1.5372
  30   0.0000       0.137803         3.7498
  31   0.0000       0.164049         4.4640
  32   0.0000       0.169137         4.6025
  33   0.0000       0.174407         4.7459

MULLIKEN ATOMIC CHARGES
-----------------------
   0 C :   -0.401524
   1 C :    0.092917
   2 C :   -0.031152
   3 O :   -0.173409
   4 C :    0.275986
   5 C :    0.045131
   6 O :   -0.254569
   7 N :   -0.273397
   8 H :    0.153116
   9 H :    0.137273
  10 H :    0.153117
  11 H :    0.164797
  12 H :    0.111713
Sum of atomic charges:   -0.0000000

LOEWDIN ATOMIC CHARGES
----------------------
   0 C :   -0.265958
   1 C :   -0.273596
   2 C :   -0.206620
   3 O :    0.384803
   4 C :   -0.352836
   5 C :   -0.274149
   6 O :    0.146948
   7 N :    0.164945
   8 H :    0.137653
   9 H :    0.133366
  10 H :    0.137652
  11 H :    0.139934
  12 H :    0.127858

  Mayer bond orders larger than 0.1
B(  0-C ,  1-C ) :   0.8804 B(  0-C ,  8-H ) :   0.9315 B(  0-C ,  9-H ) :   0.9469
B(  0-C , 10-H ) :   0.9315 B(  1-C ,  2-C ) :   1.5291 B(  1-C ,  7-N ) :   1.1971
B(  2-C ,  3-O ) :   1.0671 B(  2-C , 11-H ) :   0.9207 B(  3-O ,  4-C ) :   1.0781
B(  4-C ,  5-C ) :   0.8224 B(  4-C ,  7-N ) :   1.5565 B(  5-C ,  6-O ) :   2.0088
B(  5-C , 12-H ) :   0.9787

MP2 TOTAL ENERGY:     -397.985151218 Eh
FINAL SINGLE POINT ENERGY      -397.985151218065

DIPOLE MOMENT
-------------
                                X             Y             Z
Electronic contribution:     -0.01793      -7.58182       0.43349
Nuclear contribution   :     -0.02383       8.87453      -0.95692
                        -----------------------------------------
Total Dipole Moment    :     -0.04176       1.29271      -0.52343
                        -----------------------------------------
Magnitude (a.u.)       :      1.39528
Magnitude (Debye)      :      3.54653

                             ****ORCA TERMINATED NORMALLY****
TOTAL RUN TIME: 0 days 0 hours 9 minutes 59 seconds 779 msec
