                         Program Version 3.0.3 - RELEASE   -
|  1> ! RI-MP2 RIJK def2-TZVP def2-TZVP/C def2-TZVP/JK TIGHTSCF
|  2> % maxcore 2000
|  3> % mp2 density relaxed end
|  4> *xyz 0 1
|  5>  C       -0.0791633499     1.5433052037    -0.0051068058
|  6>  C       -0.0010036241     0.0264294471     0.0030635359
|  7>  C       -1.2409321096    -0.6258387178    -0.5858171925
|  8>  C        1.3332252150    -0.6400667673    -0.2479154900
|  9>  C        0.7351884325    -0.6797514507     1.1398701278
| 10>  C        1.4040388310     0.0774263296     2.2740047861
| 11>  N        0.1852750647    -1.9476759707     1.5623573871
| 12>  C        0.9481259872    -3.0402796498     1.8452946428
| 13>  O        2.1488521157    -3.1166035174     1.6993309854
| 14>  H        0.8410122843     2.0162068728     0.3431482471
| 15>  H       -0.2644723637     1.9020436921    -1.0240600146
| 16>  H       -0.9016921516     1.9041647055     0.6241184689
| 17>  H       -1.3909527460    -0.2846871911    -1.6162727916
| 18>  H       -1.1651475051    -1.7148749885    -0.6046184853
| 19>  H       -2.1428713213    -0.3549747975    -0.0216104582
| 20>  H        1.3514022922    -1.5662327071    -0.8102670135
| 21>  H        2.2080744992    -0.0140054390    -0.3897127171
| 22>  H        1.8796011922     0.9981303483     1.9309718252
| 23>  H        0.6834076962     0.3381879893     3.0577256492
| 24>  H        2.1795209826    -0.5554117018     2.7150137609
| 25>  H       -0.7864193939    -1.9830703015     1.8315140740
| 26>  H        0.3289657725    -3.8807884083     2.2226732479
| 27> *
| 28>
| 29>                          ****END OF INPUT****

CARTESIAN COORDINATES (ANGSTROEM)
---------------------------------
  C     -0.079163    1.543305   -0.005107
  C     -0.001004    0.026429    0.003064
  C     -1.240932   -0.625839   -0.585817
  C      1.333225   -0.640067   -0.247915
  C      0.735188   -0.679751    1.139870
  C      1.404039    0.077426    2.274005
  N      0.185275   -1.947676    1.562357
  C      0.948126   -3.040280    1.845295
  O      2.148852   -3.116604    1.699331
  H      0.841012    2.016207    0.343148
  H     -0.264472    1.902044   -1.024060
  H     -0.901692    1.904165    0.624118
  H     -1.390953   -0.284687   -1.616273
  H     -1.165148   -1.714875   -0.604618
  H     -2.142871   -0.354975   -0.021610
  H      1.351402   -1.566233   -0.810267
  H      2.208074   -0.014005   -0.389713
  H      1.879601    0.998130    1.930972
  H      0.683408    0.338188    3.057726
  H      2.179521   -0.555412    2.715014
  H     -0.786419   -1.983070    1.831514
  H      0.328966   -3.880788    2.222673

 Total Charge           Charge          ....    0
 Multiplicity           Mult            ....    1
 Number of Electrons    NEL             ....   70
 Basis Dimension        Dim             ....  357

ORBITAL ENERGIES
----------------

  NO   OCC          E(Eh)            E(eV)
   0   2.0000     -20.519928      -558.3756
   1   2.0000     -15.586052      -424.1180
   2   2.0000     -11.345494      -308.7266
   3   2.0000     -11.274382      -306.7915
   4   2.0000     -11.245792      -306.0136
   5   2.0000     -11.223514      -305.4073
   6   2.0000     -11.221944      -305.3646
   7   2.0000     -11.220766      -305.3326
   8   2.0000     -11.216698      -305.2219
   9   2.0000      -1.380184       -37.5567
  10   2.0000      -1.247286       -33.9404
  11   2.0000      -1.141369       -31.0582
  12   2.0000      -1.005266       -27.3547
  13   2.0000      -0.955030       -25.9877
  14   2.0000      -0.938445       -25.5364
  15   2.0000      -0.858511       -23.3613
  16   2.0000      -0.774753       -21.0821
  17   2.0000      -0.757611       -20.6156
  18   2.0000      -0.701295       -19.0832
  19   2.0000      -0.657152       -17.8820
  20   2.0000      -0.641702       -17.4616
  21   2.0000      -0.614305       -16.7161
  22   2.0000      -0.599899       -16.3241
  23   2.0000      -0.575600       -15.6629
  24   2.0000      -0.568117       -15.4592
  25   2.0000      -0.554208       -15.0808
  26   2.0000      -0.545190       -14.8354
  27   2.0000      -0.539411       -14.6781
  28   2.0000      -0.530619       -14.4389
  29   2.0000      -0.519664       -14.1408
  30   2.0000      -0.485072       -13.1995
  31   2.0000      -0.437643       -11.9089
  32   2.0000      -0.423897       -11.5348
  33   2.0000      -0.393618       -10.7109
  34   2.0000      -0.377979       -10.2853
  35   0.0000       0.117698         3.2027
  36   0.0000       0.151199         4.1143
  37   0.0000       0.167393         4.5550
  38   0.0000       0.171640         4.6705
  39   0.0000       0.180568         4.9135

MULLIKEN ATOMIC CHARGES
-----------------------
   0 C :   -0.395535
   1 C :    0.063689
   2 C :   -0.433694
   3 C :   -0.294666
   4 C :    0.207768
   5 C :   -0.418452
   6 N :   -0.364217
   7 C :    0.195669
   8 O :   -0.357537
   9 H :    0.126308
  10 H :    0.135716
  11 H :    0.128787
  12 H :    0.137093
  13 H :    0.141710
  14 H :    0.130669
  15 H :    0.140061
  16 H :    0.131127
  17 H :    0.117844
  18 H :    0.121259
  19 H :    0.167271
  20 H :    0.241700
  21 H :    0.077430
Sum of atomic charges:    0.0000000

LOEWDIN ATOMIC CHARGES
----------------------
   0 C :   -0.263631
   1 C :   -0.261654
   2 C :   -0.272856
   3 C :   -0.159410
   4 C :   -0.268655
   5 C :   -0.263741
   6 N :    0.131488
   7 C :   -0.436062
   8 O :    0.065108
   9 H :    0.125553
  10 H :    0.129665
  11 H :    0.127034
  12 H :    0.130463
  13 H :    0.126969
  14 H :    0.124659
  15 H :    0.142397
  16 H :    0.139162
  17 H :    0.125667
  18 H :    0.124295
  19 H :    0.136921
  20 H :    0.188328
  21 H :    0.108300

  Mayer bond orders larger than 0.1
B(  0-C ,  1-C ) :   0.9098 B(  0-C ,  9-H ) :   0.9336 B(  0-C , 10-H ) :   0.9392
B(  0-C , 11-H ) :   0.9365 B(  1-C ,  2-C ) :   0.8947 B(  1-C ,  3-C ) :   0.8944
B(  1-C ,  4-C ) :   0.8476 B(  2-C , 12-H ) :   0.9351 B(  2-C , 13-H ) :   0.9327
B(  2-C , 14-H ) :   0.9380 B(  3-C ,  4-C ) :   0.8755 B(  3-C , 15-H ) :   0.9231
B(  3-C , 16-H ) :   0.9262 B(  4-C ,  5-C ) :   0.9170 B(  4-C ,  6-N ) :   0.7114
B(  5-C , 17-H ) :   0.9366 B(  5-C , 18-H ) :   0.9346 B(  5-C , 19-H ) :   0.9330
B(  6-N ,  7-C ) :   1.1504 B(  6-N , 20-H ) :   0.8672 B(  7-C ,  8-O ) :   1.8934
B(  7-C , 21-H ) :   0.9282

MP2 TOTAL ENERGY:     -403.679797902 Eh
FINAL SINGLE POINT ENERGY      -403.679797901675

DIPOLE MOMENT
-------------
                                X             Y             Z
Electronic contribution:      3.43809      -7.83182       2.80254
Nuclear contribution   :     -4.72153       8.51649      -2.83445
                        -----------------------------------------
Total Dipole Moment    :     -1.28344       0.68467      -0.03191
                        -----------------------------------------
Magnitude (a.u.)       :      1.45499
Magnitude (Debye)      :      3.69829

                             ****ORCA TERMINATED NORMALLY****
TOTAL RUN TIME: 0 days 0 hours 22 minutes 7 seconds 675 msec
