                         Program Version 3.0.3 - RELEASE   -
|  1> ! RI-MP2 RIJK def2-TZVP def2-TZVP/C def2-TZVP/JK TIGHTSCF
|  2> % maxcore 2000
|  3> % mp2 density relaxed end
|  4> *xyz 0 1
|  5>  C       -0.3675001335     1.4704610220    -0.1077561451
|  6>  C        0.1714993868     0.0478667151     0.0843664842
|  7>  C        0.8206085389    -0.5318647226    -1.1676247313
|  8>  N        1.9416395008     0.1793834002    -1.7439881953
|  9>  C        0.8981078882    -2.0107062485    -1.3667434155
| 10>  N        0.4676286105    -2.9479132266    -0.3763933269
| 11>  C       -0.0664404730    -1.1721168765    -2.2548577101
| 12>  C       -1.4704678118    -1.3174886755    -2.0407189714
| 13>  N       -2.6010366477    -1.4660718785    -1.8332761635
| 14>  H        0.4271564051     2.1718420152    -0.3823944289
| 15>  H       -1.1335053927     1.4980891389    -0.8888434527
| 16>  H       -0.8202255859     1.8375640700     0.8174065009
| 17>  H        0.9190142508     0.0340789013     0.8881907239
| 18>  H       -0.6502951054    -0.5915409694     0.4208215389
| 19>  H        1.6855159481     1.1391527896    -1.9576563897
| 20>  H        2.7071663814     0.2186431318    -1.0756374489
| 21>  H        1.7794747104    -2.3415111486    -1.9056230443
| 22>  H       -0.4048975069    -2.6657939707     0.0577295147
| 23>  H        0.2942382511    -3.8514454446    -0.8064922099
| 24>  H        0.2383451148    -0.9899059526    -3.2787701593
| 25> *
| 26>
| 27>                          ****END OF INPUT****

CARTESIAN COORDINATES (ANGSTROEM)
---------------------------------
  C     -0.367500    1.470461   -0.107756
  C      0.171499    0.047867    0.084366
  C      0.820609   -0.531865   -1.167625
  N      1.941640    0.179383   -1.743988
  C      0.898108   -2.010706   -1.366743
  N      0.467629   -2.947913   -0.376393
  C     -0.066440   -1.172117   -2.254858
  C     -1.470468   -1.317489   -2.040719
  N     -2.601037   -1.466072   -1.833276
  H      0.427156    2.171842   -0.382394
  H     -1.133505    1.498089   -0.888843
  H     -0.820226    1.837564    0.817407
  H      0.919014    0.034079    0.888191
  H     -0.650295   -0.591541    0.420822
  H      1.685516    1.139153   -1.957656
  H      2.707166    0.218643   -1.075637
  H      1.779475   -2.341511   -1.905623
  H     -0.404898   -2.665794    0.057730
  H      0.294238   -3.851445   -0.806492
  H      0.238345   -0.989906   -3.278770

 Total Charge           Charge          ....    0
 Multiplicity           Mult            ....    1
 Number of Electrons    NEL             ....   68
 Basis Dimension        Dim             ....  345

ORBITAL ENERGIES
----------------

  NO   OCC          E(Eh)            E(eV)
   0   2.0000     -15.564301      -423.5262
   1   2.0000     -15.563177      -423.4956
   2   2.0000     -15.563173      -423.4955
   3   2.0000     -11.293022      -307.2987
   4   2.0000     -11.288448      -307.1743
   5   2.0000     -11.272151      -306.7308
   6   2.0000     -11.268708      -306.6371
   7   2.0000     -11.241392      -305.8938
   8   2.0000     -11.226875      -305.4988
   9   2.0000      -1.256872       -34.2012
  10   2.0000      -1.210452       -32.9381
  11   2.0000      -1.192086       -32.4383
  12   2.0000      -1.093297       -29.7501
  13   2.0000      -1.040924       -28.3250
  14   2.0000      -0.911362       -24.7994
  15   2.0000      -0.874480       -23.7958
  16   2.0000      -0.778846       -21.1935
  17   2.0000      -0.718685       -19.5564
  18   2.0000      -0.691010       -18.8033
  19   2.0000      -0.677950       -18.4480
  20   2.0000      -0.644024       -17.5248
  21   2.0000      -0.621434       -16.9101
  22   2.0000      -0.609672       -16.5900
  23   2.0000      -0.581694       -15.8287
  24   2.0000      -0.557728       -15.1765
  25   2.0000      -0.547616       -14.9014
  26   2.0000      -0.533411       -14.5148
  27   2.0000      -0.517975       -14.0948
  28   2.0000      -0.505481       -13.7548
  29   2.0000      -0.486098       -13.2274
  30   2.0000      -0.460832       -12.5399
  31   2.0000      -0.431126       -11.7315
  32   2.0000      -0.412807       -11.2330
  33   2.0000      -0.367418        -9.9980
  34   0.0000       0.120556         3.2805
  35   0.0000       0.138622         3.7721
  36   0.0000       0.152943         4.1618
  37   0.0000       0.160032         4.3547
  38   0.0000       0.178648         4.8613

MULLIKEN ATOMIC CHARGES
-----------------------
   0 C :   -0.423925
   1 C :   -0.166324
   2 C :    0.126471
   3 N :   -0.542324
   4 C :   -0.051057
   5 N :   -0.495402
   6 C :   -0.019408
   7 C :   -0.255320
   8 N :   -0.050098
   9 H :    0.108786
  10 H :    0.153250
  11 H :    0.143655
  12 H :    0.125599
  13 H :    0.094018
  14 H :    0.236672
  15 H :    0.236602
  16 H :    0.136260
  17 H :    0.239124
  18 H :    0.240465
  19 H :    0.162956
Sum of atomic charges:    0.0000000

LOEWDIN ATOMIC CHARGES
----------------------
   0 C :   -0.311349
   1 C :   -0.249521
   2 C :   -0.294720
   3 N :   -0.101957
   4 C :   -0.235263
   5 N :   -0.118403
   6 C :   -0.174869
   7 C :   -0.198213
   8 N :    0.050829
   9 H :    0.115157
  10 H :    0.128606
  11 H :    0.126169
  12 H :    0.144615
  13 H :    0.144173
  14 H :    0.158641
  15 H :    0.163389
  16 H :    0.154871
  17 H :    0.160776
  18 H :    0.166354
  19 H :    0.170715

  Mayer bond orders larger than 0.1
B(  0-C ,  1-C ) :   0.9097 B(  0-C ,  9-H ) :   0.9372 B(  0-C , 10-H ) :   0.9345
B(  0-C , 11-H ) :   0.9384 B(  1-C ,  2-C ) :   0.9718 B(  1-C , 12-H ) :   0.9268
B(  1-C , 13-H ) :   0.8990 B(  2-C ,  3-N ) :   1.0084 B(  2-C ,  4-C ) :   0.8651
B(  2-C ,  6-C ) :   0.7843 B(  3-N , 14-H ) :   0.8969 B(  3-N , 15-H ) :   0.8892
B(  4-C ,  5-N ) :   1.0524 B(  4-C ,  6-C ) :   0.8347 B(  4-C , 16-H ) :   0.9362
B(  5-N , 17-H ) :   0.8803 B(  5-N , 18-H ) :   0.8839 B(  6-C ,  7-C ) :   0.9638
B(  6-C , 19-H ) :   0.9075 B(  7-C ,  8-N ) :   2.8438

MP2 TOTAL ENERGY:     -398.640420476 Eh
FINAL SINGLE POINT ENERGY      -398.640420476448

DIPOLE MOMENT
-------------
                                X             Y             Z
Electronic contribution:     -3.35378      -4.90083      -4.19937
Nuclear contribution   :      4.54542       5.33252       4.41384
                        -----------------------------------------
Total Dipole Moment    :      1.19164       0.43169       0.21447
                        -----------------------------------------
Magnitude (a.u.)       :      1.28544
Magnitude (Debye)      :      3.26733

                             ****ORCA TERMINATED NORMALLY****
TOTAL RUN TIME: 0 days 0 hours 19 minutes 56 seconds 367 msec
