                         Program Version 3.0.3 - RELEASE   -
|  1> ! RI-MP2 RIJK def2-TZVP def2-TZVP/C def2-TZVP/JK TIGHTSCF
|  2> % maxcore 2000
|  3> % mp2 density relaxed end
|  4> *xyz 0 1
|  5>  C        0.2500890610     1.5870101837     0.1058310499
|  6>  C        1.2670047939     0.5477413420    -0.1958208067
|  7>  N       -0.1272597308     0.1643953410     0.0795631802
|  8>  C       -0.4180300352    -0.4697172806     1.2842958289
|  9>  C       -1.3251343150    -1.4395083964     1.5737881905
| 10>  C       -1.1906628663    -1.7154369210     2.9752256149
| 11>  C       -0.2129979702    -0.8937887361     3.4322151065
| 12>  O        0.2742912209    -0.1231463774     2.4180260712
| 13>  H        0.3059511105     2.0714157813     1.0759434818
| 14>  H       -0.1789847330     2.1841406765    -0.6932645540
| 15>  H        1.5903802088     0.3759098054    -1.2181373362
| 16>  H        2.0047223294     0.3353843652     0.5720031522
| 17>  H       -2.0010095174    -1.8944830961     0.8684767310
| 18>  H       -1.7500306915    -2.4308094196     3.5574999521
| 19>  H        0.2375117550    -0.7347288881     4.3979343377
| 20> *
| 21>
| 22>                          ****END OF INPUT****

CARTESIAN COORDINATES (ANGSTROEM)
---------------------------------
  C      0.250089    1.587010    0.105831
  C      1.267005    0.547741   -0.195821
  N     -0.127260    0.164395    0.079563
  C     -0.418030   -0.469717    1.284296
  C     -1.325134   -1.439508    1.573788
  C     -1.190663   -1.715437    2.975226
  C     -0.212998   -0.893789    3.432215
  O      0.274291   -0.123146    2.418026
  H      0.305951    2.071416    1.075943
  H     -0.178985    2.184141   -0.693265
  H      1.590380    0.375910   -1.218137
  H      2.004722    0.335384    0.572003
  H     -2.001010   -1.894483    0.868477
  H     -1.750031   -2.430809    3.557500
  H      0.237512   -0.734729    4.397934

 Total Charge           Charge          ....    0
 Multiplicity           Mult            ....    1
 Number of Electrons    NEL             ....   58
 Basis Dimension        Dim             ....  290

ORBITAL ENERGIES
----------------

  NO   OCC          E(Eh)            E(eV)
   0   2.0000     -20.616502      -561.0035
   1   2.0000     -15.577561      -423.8870
   2   2.0000     -11.314616      -307.8863
   3   2.0000     -11.280130      -306.9479
   4   2.0000     -11.266221      -306.5695
   5   2.0000     -11.265484      -306.5494
   6   2.0000     -11.225987      -305.4746
   7   2.0000     -11.217374      -305.2403
   8   2.0000      -1.456888       -39.6439
   9   2.0000      -1.284416       -34.9507
  10   2.0000      -1.081336       -29.4246
  11   2.0000      -1.022516       -27.8241
  12   2.0000      -0.906005       -24.6537
  13   2.0000      -0.851386       -23.1674
  14   2.0000      -0.808117       -21.9900
  15   2.0000      -0.756191       -20.5770
  16   2.0000      -0.733376       -19.9562
  17   2.0000      -0.665689       -18.1143
  18   2.0000      -0.647046       -17.6070
  19   2.0000      -0.639477       -17.4011
  20   2.0000      -0.576007       -15.6739
  21   2.0000      -0.559880       -15.2351
  22   2.0000      -0.545584       -14.8461
  23   2.0000      -0.536279       -14.5929
  24   2.0000      -0.513523       -13.9737
  25   2.0000      -0.492452       -13.4003
  26   2.0000      -0.403576       -10.9819
  27   2.0000      -0.393640       -10.7115
  28   2.0000      -0.300854        -8.1866
  29   0.0000       0.147645         4.0176
  30   0.0000       0.162317         4.4169
  31   0.0000       0.178844         4.8666
  32   0.0000       0.185706         5.0533
  33   0.0000       0.185816         5.0563

MULLIKEN ATOMIC CHARGES
-----------------------
   0 C :   -0.164999
   1 C :   -0.165047
   2 N :   -0.217235
   3 C :    0.271945
   4 C :   -0.296009
   5 C :   -0.120880
   6 C :   -0.044858
   7 O :   -0.236889
   8 H :    0.142714
   9 H :    0.134456
  10 H :    0.134464
  11 H :    0.142745
  12 H :    0.135140
  13 H :    0.139019
  14 H :    0.145434
Sum of atomic charges:   -0.0000000

LOEWDIN ATOMIC CHARGES
----------------------
   0 C :   -0.242055
   1 C :   -0.242090
   2 N :    0.138786
   3 C :   -0.323026
   4 C :   -0.158277
   5 C :   -0.192670
   6 C :   -0.248406
   7 O :    0.338965
   8 H :    0.128446
   9 H :    0.125834
  10 H :    0.125838
  11 H :    0.128448
  12 H :    0.146623
  13 H :    0.142698
  14 H :    0.130884

  Mayer bond orders larger than 0.1
B(  0-C ,  1-C ) :   0.9429 B(  0-C ,  2-N ) :   0.8489 B(  0-C ,  8-H ) :   0.9212
B(  0-C ,  9-H ) :   0.9261 B(  1-C ,  2-N ) :   0.8490 B(  1-C , 10-H ) :   0.9261
B(  1-C , 11-H ) :   0.9212 B(  2-N ,  3-C ) :   1.1275 B(  3-C ,  4-C ) :   1.5259
B(  3-C ,  7-O ) :   0.9795 B(  4-C ,  5-C ) :   1.1870 B(  4-C , 12-H ) :   0.9321
B(  5-C ,  6-C ) :   1.5626 B(  5-C , 13-H ) :   0.9266 B(  6-C ,  7-O ) :   1.0424
B(  6-C , 14-H ) :   0.9334

MP2 TOTAL ENERGY:     -362.022096271 Eh
FINAL SINGLE POINT ENERGY      -362.022096271201

DIPOLE MOMENT
-------------
                                X             Y             Z
Electronic contribution:     -0.94702      -1.42025       1.69126
Nuclear contribution   :      1.21064       1.62557      -1.50872
                        -----------------------------------------
Total Dipole Moment    :      0.26362       0.20531       0.18254
                        -----------------------------------------
Magnitude (a.u.)       :      0.38075
Magnitude (Debye)      :      0.96779

                             ****ORCA TERMINATED NORMALLY****
TOTAL RUN TIME: 0 days 0 hours 11 minutes 39 seconds 643 msec
