                         Program Version 3.0.3 - RELEASE   -
|  1> ! RI-MP2 RIJK def2-TZVP def2-TZVP/C def2-TZVP/JK TIGHTSCF
|  2> % maxcore 2000
|  3> % mp2 density relaxed end
|  4> *xyz 0 1
|  5>  C       -0.1426888897     1.6094561259     0.0100125416
|  6>  C        0.0210236584     0.0811159873     0.0041664241
|  7>  C       -1.3278872687    -0.6252658854     0.0047454762
|  8>  O        0.6863181468    -0.3672908957    -1.1700706928
|  9>  C        2.0684247758    -0.0589574469    -1.2421156473
| 10>  C        2.7962342323    -0.5958369883    -0.0118859605
| 11>  O        4.1370739310    -0.1414308633    -0.0811597590
| 12>  C        2.0733715240    -0.0651952550     1.2306782214
| 13>  O        0.6910008892    -0.3748145935     1.1751364924
| 14>  H        0.8125948285     2.1378316709     0.0049805141
| 15>  H       -0.7031650030     1.9207635262    -0.8750463128
| 16>  H       -0.6925117942     1.9162594628     0.9033186793
| 17>  H       -1.8977855711    -0.3472017809    -0.8845809714
| 18>  H       -1.1664052503    -1.7049436145     0.0015311616
| 19>  H       -1.8955197290    -0.3518680264     0.8970302394
| 20>  H        2.4436797448    -0.5258997434    -2.1560947033
| 21>  H        2.2507648822     1.0235972892    -1.3182989753
| 22>  H        2.7365161306    -1.6941180623    -0.0202197948
| 23>  H        4.6404777237    -0.5745687287     0.6150694539
| 24>  H        2.4526607015    -0.5323131975     2.1460989959
| 25>  H        2.2559823971     1.0175424697     1.3067092772
| 26> *
| 27>
| 28>                          ****END OF INPUT****

CARTESIAN COORDINATES (ANGSTROEM)
---------------------------------
  C     -0.142689    1.609456    0.010013
  C      0.021024    0.081116    0.004166
  C     -1.327887   -0.625266    0.004745
  O      0.686318   -0.367291   -1.170071
  C      2.068425   -0.058957   -1.242116
  C      2.796234   -0.595837   -0.011886
  O      4.137074   -0.141431   -0.081160
  C      2.073372   -0.065195    1.230678
  O      0.691001   -0.374815    1.175136
  H      0.812595    2.137832    0.004981
  H     -0.703165    1.920764   -0.875046
  H     -0.692512    1.916259    0.903319
  H     -1.897786   -0.347202   -0.884581
  H     -1.166405   -1.704944    0.001531
  H     -1.895520   -0.351868    0.897030
  H      2.443680   -0.525900   -2.156095
  H      2.250765    1.023597   -1.318299
  H      2.736516   -1.694118   -0.020220
  H      4.640478   -0.574569    0.615069
  H      2.452661   -0.532313    2.146099
  H      2.255982    1.017542    1.306709

 Total Charge           Charge          ....    0
 Multiplicity           Mult            ....    1
 Number of Electrons    NEL             ....   72
 Basis Dimension        Dim             ....  351

ORBITAL ENERGIES
----------------

  NO   OCC          E(Eh)            E(eV)
   0   2.0000     -20.569455      -559.7233
   1   2.0000     -20.560190      -559.4712
   2   2.0000     -20.557854      -559.4077
   3   2.0000     -11.338242      -308.5293
   4   2.0000     -11.284060      -307.0549
   5   2.0000     -11.279293      -306.9252
   6   2.0000     -11.275480      -306.8214
   7   2.0000     -11.218328      -305.2662
   8   2.0000     -11.209498      -305.0260
   9   2.0000      -1.421023       -38.6680
  10   2.0000      -1.374123       -37.3918
  11   2.0000      -1.342069       -36.5195
  12   2.0000      -1.074558       -29.2402
  13   2.0000      -0.997757       -27.1503
  14   2.0000      -0.944895       -25.7119
  15   2.0000      -0.925170       -25.1751
  16   2.0000      -0.841936       -22.9102
  17   2.0000      -0.761024       -20.7085
  18   2.0000      -0.716045       -19.4846
  19   2.0000      -0.684820       -18.6349
  20   2.0000      -0.679877       -18.5004
  21   2.0000      -0.643653       -17.5147
  22   2.0000      -0.634061       -17.2537
  23   2.0000      -0.607603       -16.5337
  24   2.0000      -0.588464       -16.0129
  25   2.0000      -0.562745       -15.3131
  26   2.0000      -0.553801       -15.0697
  27   2.0000      -0.541620       -14.7382
  28   2.0000      -0.534472       -14.5437
  29   2.0000      -0.526601       -14.3295
  30   2.0000      -0.521429       -14.1888
  31   2.0000      -0.498419       -13.5627
  32   2.0000      -0.472714       -12.8632
  33   2.0000      -0.462434       -12.5835
  34   2.0000      -0.419370       -11.4116
  35   2.0000      -0.414486       -11.2787
  36   0.0000       0.129138         3.5140
  37   0.0000       0.142361         3.8738
  38   0.0000       0.164716         4.4822
  39   0.0000       0.183233         4.9860
  40   0.0000       0.192121         5.2279

MULLIKEN ATOMIC CHARGES
-----------------------
   0 C :   -0.420289
   1 C :    0.270733
   2 C :   -0.366982
   3 O :   -0.295932
   4 C :   -0.049219
   5 C :    0.041542
   6 O :   -0.460576
   7 C :   -0.089262
   8 O :   -0.295657
   9 H :    0.129391
  10 H :    0.141888
  11 H :    0.141063
  12 H :    0.129382
  13 H :    0.133913
  14 H :    0.128611
  15 H :    0.133581
  16 H :    0.100905
  17 H :    0.079907
  18 H :    0.320198
  19 H :    0.124151
  20 H :    0.102652
Sum of atomic charges:    0.0000000

LOEWDIN ATOMIC CHARGES
----------------------
   0 C :   -0.274739
   1 C :   -0.482467
   2 C :   -0.263398
   3 O :    0.200396
   4 C :   -0.292868
   5 C :   -0.365492
   6 O :   -0.011774
   7 C :   -0.308718
   8 O :    0.198165
   9 H :    0.122351
  10 H :    0.132151
  11 H :    0.131736
  12 H :    0.129529
  13 H :    0.130510
  14 H :    0.129209
  15 H :    0.134036
  16 H :    0.125726
  17 H :    0.135437
  18 H :    0.177757
  19 H :    0.128391
  20 H :    0.124062

  Mayer bond orders larger than 0.1
B(  0-C ,  1-C ) :   0.9383 B(  0-C ,  9-H ) :   0.9176 B(  0-C , 10-H ) :   0.9394
B(  0-C , 11-H ) :   0.9395 B(  1-C ,  2-C ) :   0.8859 B(  1-C ,  3-O ) :   0.9591
B(  1-C ,  8-O ) :   0.9499 B(  2-C , 12-H ) :   0.9382 B(  2-C , 13-H ) :   0.9425
B(  2-C , 14-H ) :   0.9384 B(  3-O ,  4-C ) :   0.9191 B(  4-C ,  5-C ) :   0.9093
B(  4-C , 15-H ) :   0.9278 B(  4-C , 16-H ) :   0.9235 B(  5-C ,  6-O ) :   1.0343
B(  5-C ,  7-C ) :   0.9169 B(  5-C , 17-H ) :   0.9393 B(  6-O , 18-H ) :   0.8443
B(  7-C ,  8-O ) :   0.9274 B(  7-C , 19-H ) :   0.9270 B(  7-C , 20-H ) :   0.9208

MP2 TOTAL ENERGY:     -460.643643282 Eh
FINAL SINGLE POINT ENERGY      -460.643643282491

DIPOLE MOMENT
-------------
                                X             Y             Z
Electronic contribution:      3.80521      -2.71011      -0.22814
Nuclear contribution   :     -3.52754       2.78796       0.63616
                        -----------------------------------------
Total Dipole Moment    :      0.27767       0.07784       0.40801
                        -----------------------------------------
Magnitude (a.u.)       :      0.49964
Magnitude (Debye)      :      1.26997

                             ****ORCA TERMINATED NORMALLY****
TOTAL RUN TIME: 0 days 0 hours 17 minutes 42 seconds 388 msec
