                         Program Version 3.0.3 - RELEASE   -
|  1> ! RI-MP2 RIJK def2-TZVP def2-TZVP/C def2-TZVP/JK TIGHTSCF
|  2> % maxcore 2000
|  3> % mp2 density relaxed end
|  4> *xyz 0 1
|  5>  C        0.0278664917     1.4450341398    -0.1000016785
|  6>  N       -0.0118791857    -0.0025667497    -0.1407307745
|  7>  C       -1.0934821301    -0.6381168952     0.0572581680
|  8>  C       -1.1477634365    -2.0839558090     0.0195181486
|  9>  N       -2.2152749386    -2.7701645601     0.2128791211
| 10>  O       -3.3689776494    -2.0714814739     0.4704091666
| 11>  N       -3.3816145664    -0.6127151758     0.5221918645
| 12>  N       -2.3452448447     0.0085896265     0.3329539180
| 13>  H        0.7615683851     1.7445301291     0.6570226494
| 14>  H        0.4130185113     1.8024603863    -1.0617731280
| 15>  H       -0.9313400768     1.9265590286     0.1107476039
| 16>  H       -0.2419705698    -2.6469130366    -0.1831978791
| 17> *
| 18>
| 19>                          ****END OF INPUT****

CARTESIAN COORDINATES (ANGSTROEM)
---------------------------------
  C      0.027866    1.445034   -0.100002
  N     -0.011879   -0.002567   -0.140731
  C     -1.093482   -0.638117    0.057258
  C     -1.147763   -2.083956    0.019518
  N     -2.215275   -2.770165    0.212879
  O     -3.368978   -2.071481    0.470409
  N     -3.381615   -0.612715    0.522192
  N     -2.345245    0.008590    0.332954
  H      0.761568    1.744530    0.657023
  H      0.413019    1.802460   -1.061773
  H     -0.931340    1.926559    0.110748
  H     -0.241971   -2.646913   -0.183198

 Total Charge           Charge          ....    0
 Multiplicity           Mult            ....    1
 Number of Electrons    NEL             ....   58
 Basis Dimension        Dim             ....  272

ORBITAL ENERGIES
----------------

  NO   OCC          E(Eh)            E(eV)
   0   2.0000     -20.672322      -562.5225
   1   2.0000     -15.746201      -428.4759
   2   2.0000     -15.674924      -426.5364
   3   2.0000     -15.667757      -426.3413
   4   2.0000     -15.605184      -424.6386
   5   2.0000     -11.354742      -308.9782
   6   2.0000     -11.315029      -307.8976
   7   2.0000     -11.269398      -306.6559
   8   2.0000      -1.525880       -41.5213
   9   2.0000      -1.386258       -37.7220
  10   2.0000      -1.284275       -34.9469
  11   2.0000      -1.198924       -32.6244
  12   2.0000      -1.017958       -27.7001
  13   2.0000      -0.973000       -26.4767
  14   2.0000      -0.903924       -24.5970
  15   2.0000      -0.793756       -21.5992
  16   2.0000      -0.745780       -20.2937
  17   2.0000      -0.694182       -18.8897
  18   2.0000      -0.692735       -18.8503
  19   2.0000      -0.624931       -17.0052
  20   2.0000      -0.617116       -16.7926
  21   2.0000      -0.597102       -16.2480
  22   2.0000      -0.576690       -15.6925
  23   2.0000      -0.559553       -15.2262
  24   2.0000      -0.557690       -15.1755
  25   2.0000      -0.507675       -13.8145
  26   2.0000      -0.479948       -13.0600
  27   2.0000      -0.410227       -11.1629
  28   2.0000      -0.388626       -10.5750
  29   0.0000       0.049978         1.3600
  30   0.0000       0.084410         2.2969
  31   0.0000       0.140542         3.8243
  32   0.0000       0.165495         4.5034
  33   0.0000       0.199624         5.4320

MULLIKEN ATOMIC CHARGES
-----------------------
   0 C :   -0.280118
   1 N :   -0.205217
   2 C :    0.143300
   3 C :   -0.070568
   4 N :   -0.037618
   5 O :   -0.092137
   6 N :    0.014634
   7 N :   -0.080709
   8 H :    0.149217
   9 H :    0.149218
  10 H :    0.146332
  11 H :    0.163667
Sum of atomic charges:   -0.0000000

LOEWDIN ATOMIC CHARGES
----------------------
   0 C :   -0.325274
   1 N :    0.125924
   2 C :   -0.343196
   3 C :   -0.215353
   4 N :    0.053003
   5 O :    0.083529
   6 N :    0.016584
   7 N :    0.077812
   8 H :    0.127083
   9 H :    0.127082
  10 H :    0.113429
  11 H :    0.159378

  Mayer bond orders larger than 0.1
B(  0-C ,  1-N ) :   0.8589 B(  0-C ,  8-H ) :   0.9259 B(  0-C ,  9-H ) :   0.9259
B(  0-C , 10-H ) :   0.9239 B(  1-N ,  2-C ) :   1.8351 B(  2-C ,  3-C ) :   1.0296
B(  2-C ,  7-N ) :   0.9505 B(  3-C ,  4-N ) :   1.7139 B(  3-C , 11-H ) :   0.9074
B(  4-N ,  5-O ) :   0.8711 B(  5-O ,  6-N ) :   0.7922 B(  6-N ,  7-N ) :   1.6356

MP2 TOTAL ENERGY:     -410.045134605 Eh
FINAL SINGLE POINT ENERGY      -410.045134604873

DIPOLE MOMENT
-------------
                                X             Y             Z
Electronic contribution:     -5.60821      -5.21564       0.96174
Nuclear contribution   :      6.39504       5.74438      -1.10349
                        -----------------------------------------
Total Dipole Moment    :      0.78683       0.52874      -0.14175
                        -----------------------------------------
Magnitude (a.u.)       :      0.95852
Magnitude (Debye)      :      2.43637

                             ****ORCA TERMINATED NORMALLY****
TOTAL RUN TIME: 0 days 0 hours 9 minutes 31 seconds 61 msec
