                         Program Version 3.0.3 - RELEASE   -
|  1> ! RI-MP2 RIJK def2-TZVP def2-TZVP/C def2-TZVP/JK TIGHTSCF
|  2> % maxcore 2000
|  3> % mp2 density relaxed end
|  4> *xyz 0 1
|  5>  C       -0.1518424038     1.7152066142    -0.3687335817
|  6>  C       -0.2246524594     0.1847019794    -0.3107756278
|  7>  C        0.7989776673    -0.5090449262    -1.2161934032
|  8>  C        2.2742442300    -0.2977659746    -0.7913690811
|  9>  C        3.0580865381    -1.5293471360    -1.3255698501
| 10>  C        2.0055044189    -2.4112751195    -2.0326870714
| 11>  C        0.6515529774    -2.0530173540    -1.3768032401
| 12>  C        0.5127914077    -2.7676761759    -0.0187990912
| 13>  C       -0.5308240891    -2.4349207822    -2.2749416065
| 14>  H        0.8238478229     2.0847821756    -0.0367448547
| 15>  H       -0.3130421777     2.0796452208    -1.3897586597
| 16>  H       -0.9133976171     2.1723007941     0.2710804146
| 17>  H       -0.0780742778    -0.1428359001     0.7263026962
| 18>  H       -1.2370991263    -0.1324826947    -0.5923192574
| 19>  H        0.6800825057    -0.0897614042    -2.2270160337
| 20>  H        2.6730545265     0.6435615569    -1.1790446755
| 21>  H        2.3472778237    -0.2356040676     0.3006298344
| 22>  H        3.8653769580    -1.2434981994    -2.0054540023
| 23>  H        3.5284917876    -2.0728835440    -0.5006147608
| 24>  H        1.9608606395    -2.1574692901    -3.0989516112
| 25>  H        2.2321935676    -3.4807684793    -1.9695173541
| 26>  H        1.3245702330    -2.5118029482     0.6695313672
| 27>  H       -0.4308438505    -2.5146478656     0.4744959711
| 28>  H        0.5293170708    -3.8542682243    -0.1580036233
| 29>  H       -0.5633480927    -3.5173587574    -2.4437712351
| 30>  H       -1.4888711023    -2.1471987168    -1.8279784087
| 31>  H       -0.4577928480    -1.9474720208    -3.2535756837
| 32> *
| 33>
| 34>                          ****END OF INPUT****

CARTESIAN COORDINATES (ANGSTROEM)
---------------------------------
  C     -0.151842    1.715207   -0.368734
  C     -0.224652    0.184702   -0.310776
  C      0.798978   -0.509045   -1.216193
  C      2.274244   -0.297766   -0.791369
  C      3.058087   -1.529347   -1.325570
  C      2.005504   -2.411275   -2.032687
  C      0.651553   -2.053017   -1.376803
  C      0.512791   -2.767676   -0.018799
  C     -0.530824   -2.434921   -2.274942
  H      0.823848    2.084782   -0.036745
  H     -0.313042    2.079645   -1.389759
  H     -0.913398    2.172301    0.271080
  H     -0.078074   -0.142836    0.726303
  H     -1.237099   -0.132483   -0.592319
  H      0.680083   -0.089761   -2.227016
  H      2.673055    0.643562   -1.179045
  H      2.347278   -0.235604    0.300630
  H      3.865377   -1.243498   -2.005454
  H      3.528492   -2.072884   -0.500615
  H      1.960861   -2.157469   -3.098952
  H      2.232194   -3.480768   -1.969517
  H      1.324570   -2.511803    0.669531
  H     -0.430844   -2.514648    0.474496
  H      0.529317   -3.854268   -0.158004
  H     -0.563348   -3.517359   -2.443771
  H     -1.488871   -2.147199   -1.827978
  H     -0.457793   -1.947472   -3.253576

 Total Charge           Charge          ....    0
 Multiplicity           Mult            ....    1
 Number of Electrons    NEL             ....   72
 Basis Dimension        Dim             ....  387

ORBITAL ENERGIES
----------------

  NO   OCC          E(Eh)            E(eV)
   0   2.0000     -11.224607      -305.4371
   1   2.0000     -11.214831      -305.1711
   2   2.0000     -11.213279      -305.1288
   3   2.0000     -11.211251      -305.0737
   4   2.0000     -11.209736      -305.0324
   5   2.0000     -11.208892      -305.0095
   6   2.0000     -11.208573      -305.0008
   7   2.0000     -11.206559      -304.9460
   8   2.0000     -11.206334      -304.9399
   9   2.0000      -1.134204       -30.8633
  10   2.0000      -1.036183       -28.1960
  11   2.0000      -1.015278       -27.6271
  12   2.0000      -0.938638       -25.5416
  13   2.0000      -0.925803       -25.1924
  14   2.0000      -0.883430       -24.0394
  15   2.0000      -0.826311       -22.4851
  16   2.0000      -0.760223       -20.6867
  17   2.0000      -0.715034       -19.4571
  18   2.0000      -0.639342       -17.3974
  19   2.0000      -0.628404       -17.0997
  20   2.0000      -0.607170       -16.5219
  21   2.0000      -0.593726       -16.1561
  22   2.0000      -0.581791       -15.8313
  23   2.0000      -0.555621       -15.1192
  24   2.0000      -0.546777       -14.8786
  25   2.0000      -0.537068       -14.6144
  26   2.0000      -0.520206       -14.1555
  27   2.0000      -0.507918       -13.8211
  28   2.0000      -0.503866       -13.7109
  29   2.0000      -0.479640       -13.0517
  30   2.0000      -0.464666       -12.6442
  31   2.0000      -0.448656       -12.2086
  32   2.0000      -0.446862       -12.1597
  33   2.0000      -0.437980       -11.9180
  34   2.0000      -0.434759       -11.8304
  35   2.0000      -0.417581       -11.3630
  36   0.0000       0.130872         3.5612
  37   0.0000       0.153949         4.1892
  38   0.0000       0.155694         4.2367
  39   0.0000       0.160672         4.3721
  40   0.0000       0.187258         5.0955

MULLIKEN ATOMIC CHARGES
-----------------------
   0 C :   -0.398272
   1 C :   -0.231759
   2 C :   -0.077526
   3 C :   -0.298858
   4 C :   -0.220287
   5 C :   -0.251146
   6 C :    0.182546
   7 C :   -0.474839
   8 C :   -0.411344
   9 H :    0.130546
  10 H :    0.122859
  11 H :    0.133261
  12 H :    0.115723
  13 H :    0.109400
  14 H :    0.077582
  15 H :    0.124421
  16 H :    0.116176
  17 H :    0.116608
  18 H :    0.118010
  19 H :    0.106297
  20 H :    0.117361
  21 H :    0.136051
  22 H :    0.137851
  23 H :    0.133207
  24 H :    0.131376
  25 H :    0.128046
  26 H :    0.126707
Sum of atomic charges:   -0.0000000

LOEWDIN ATOMIC CHARGES
----------------------
   0 C :   -0.316955
   1 C :   -0.273203
   2 C :   -0.214794
   3 C :   -0.231686
   4 C :   -0.252036
   5 C :   -0.218225
   6 C :   -0.299269
   7 C :   -0.265969
   8 C :   -0.273606
   9 H :    0.120714
  10 H :    0.120439
  11 H :    0.119805
  12 H :    0.137525
  13 H :    0.136422
  14 H :    0.156552
  15 H :    0.132258
  16 H :    0.135275
  17 H :    0.130829
  18 H :    0.132290
  19 H :    0.138901
  20 H :    0.134213
  21 H :    0.127001
  22 H :    0.125276
  23 H :    0.125824
  24 H :    0.125731
  25 H :    0.122625
  26 H :    0.124061

  Mayer bond orders larger than 0.1
B(  0-C ,  1-C ) :   0.9153 B(  0-C ,  9-H ) :   0.9408 B(  0-C , 10-H ) :   0.9398
B(  0-C , 11-H ) :   0.9432 B(  1-C ,  2-C ) :   0.8930 B(  1-C , 12-H ) :   0.9327
B(  1-C , 13-H ) :   0.9380 B(  2-C ,  3-C ) :   0.9314 B(  2-C ,  6-C ) :   0.8775
B(  2-C , 14-H ) :   0.9268 B(  3-C ,  4-C ) :   0.9303 B(  3-C , 15-H ) :   0.9341
B(  3-C , 16-H ) :   0.9300 B(  4-C ,  5-C ) :   0.9498 B(  4-C , 17-H ) :   0.9331
B(  4-C , 18-H ) :   0.9371 B(  5-C ,  6-C ) :   0.8908 B(  5-C , 19-H ) :   0.9255
B(  5-C , 20-H ) :   0.9289 B(  6-C ,  7-C ) :   0.8929 B(  6-C ,  8-C ) :   0.9044
B(  7-C , 21-H ) :   0.9342 B(  7-C , 22-H ) :   0.9391 B(  7-C , 23-H ) :   0.9358
B(  8-C , 24-H ) :   0.9390 B(  8-C , 25-H ) :   0.9367 B(  8-C , 26-H ) :   0.9334

MP2 TOTAL ENERGY:     -352.945624680 Eh
FINAL SINGLE POINT ENERGY      -352.945624680252

DIPOLE MOMENT
-------------
                                X             Y             Z
Electronic contribution:      1.84542      -0.90863      -0.95930
Nuclear contribution   :     -1.85175       0.91461       0.95681
                        -----------------------------------------
Total Dipole Moment    :     -0.00633       0.00598      -0.00250
                        -----------------------------------------
Magnitude (a.u.)       :      0.00906
Magnitude (Debye)      :      0.02303

                             ****ORCA TERMINATED NORMALLY****
TOTAL RUN TIME: 0 days 0 hours 24 minutes 21 seconds 539 msec
