                         Program Version 3.0.3 - RELEASE   -
|  1> ! RI-MP2 RIJK def2-TZVP def2-TZVP/C def2-TZVP/JK TIGHTSCF
|  2> % maxcore 2000
|  3> % mp2 density relaxed end
|  4> *xyz 0 1
|  5>  O       -0.0162720715    -0.0116357093    -0.4577450462
|  6>  C        0.0146644173     1.1087446335    -0.0052239269
|  7>  C        1.2490379367     1.9263120213     0.0500661712
|  8>  C        1.1924557720     3.4440866275    -0.1089798699
|  9>  O       -0.0660272551     4.0221155841    -0.2832714650
| 10>  C       -0.5317102076     4.7990388256     0.8189360789
| 11>  C       -0.4033359527     4.0793527837     2.1369485356
| 12>  C        0.5331704354     3.1481754355     2.3093832990
| 13>  C        1.5213301253     2.8885237901     1.2306523854
| 14>  H       -0.8942612286     1.5914048202     0.4023724641
| 15>  H        2.1183679835     1.4276992215    -0.3648530030
| 16>  H        1.9739260989     3.8988881713    -0.7150390823
| 17>  H       -0.0043158645     5.7672645691     0.8573944780
| 18>  H       -1.5809995090     5.0140720231     0.5953294225
| 19>  H       -1.1025626729     4.3419081827     2.9247914195
| 20>  H        0.6243755558     2.5954578297     3.2393487627
| 21>  H        2.5624647771     2.9056654804     1.5403682364
| 22> *
| 23>
| 24>                          ****END OF INPUT****

CARTESIAN COORDINATES (ANGSTROEM)
---------------------------------
  O     -0.016272   -0.011636   -0.457745
  C      0.014664    1.108745   -0.005224
  C      1.249038    1.926312    0.050066
  C      1.192456    3.444087   -0.108980
  O     -0.066027    4.022116   -0.283271
  C     -0.531710    4.799039    0.818936
  C     -0.403336    4.079353    2.136949
  C      0.533170    3.148175    2.309383
  C      1.521330    2.888524    1.230652
  H     -0.894261    1.591405    0.402372
  H      2.118368    1.427699   -0.364853
  H      1.973926    3.898888   -0.715039
  H     -0.004316    5.767265    0.857394
  H     -1.581000    5.014072    0.595329
  H     -1.102563    4.341908    2.924791
  H      0.624376    2.595458    3.239349
  H      2.562465    2.905665    1.540368

 Total Charge           Charge          ....    0
 Multiplicity           Mult            ....    1
 Number of Electrons    NEL             ....   66
 Basis Dimension        Dim             ....  327

ORBITAL ENERGIES
----------------

  NO   OCC          E(Eh)            E(eV)
   0   2.0000     -20.578272      -559.9633
   1   2.0000     -20.543869      -559.0271
   2   2.0000     -11.324130      -308.1452
   3   2.0000     -11.307357      -307.6888
   4   2.0000     -11.298757      -307.4548
   5   2.0000     -11.264585      -306.5250
   6   2.0000     -11.251852      -306.1785
   7   2.0000     -11.251010      -306.1555
   8   2.0000     -11.248811      -306.0957
   9   2.0000      -1.403969       -38.2039
  10   2.0000      -1.382028       -37.6069
  11   2.0000      -1.167012       -31.7560
  12   2.0000      -1.088150       -29.6101
  13   2.0000      -0.954055       -25.9612
  14   2.0000      -0.904361       -24.6089
  15   2.0000      -0.868458       -23.6319
  16   2.0000      -0.775927       -21.1140
  17   2.0000      -0.735908       -20.0251
  18   2.0000      -0.707617       -19.2553
  19   2.0000      -0.691599       -18.8194
  20   2.0000      -0.673007       -18.3134
  21   2.0000      -0.630900       -17.1677
  22   2.0000      -0.621168       -16.9028
  23   2.0000      -0.603296       -16.4165
  24   2.0000      -0.592646       -16.1267
  25   2.0000      -0.556530       -15.1439
  26   2.0000      -0.534060       -14.5325
  27   2.0000      -0.524521       -14.2729
  28   2.0000      -0.484017       -13.1708
  29   2.0000      -0.444655       -12.0997
  30   2.0000      -0.431829       -11.7507
  31   2.0000      -0.403580       -10.9820
  32   2.0000      -0.359604        -9.7853
  33   0.0000       0.124597         3.3904
  34   0.0000       0.134718         3.6659
  35   0.0000       0.136169         3.7054
  36   0.0000       0.151856         4.1322
  37   0.0000       0.166177         4.5219

MULLIKEN ATOMIC CHARGES
-----------------------
   0 O :   -0.274988
   1 C :    0.078599
   2 C :   -0.112781
   3 C :    0.050358
   4 O :   -0.319062
   5 C :   -0.011097
   6 C :   -0.171447
   7 C :   -0.219732
   8 C :   -0.052613
   9 H :    0.098369
  10 H :    0.137265
  11 H :    0.128796
  12 H :    0.114140
  13 H :    0.136854
  14 H :    0.135462
  15 H :    0.138079
  16 H :    0.143796
Sum of atomic charges:   -0.0000000

LOEWDIN ATOMIC CHARGES
----------------------
   0 O :    0.123132
   1 C :   -0.279602
   2 C :   -0.166200
   3 C :   -0.251699
   4 O :    0.195569
   5 C :   -0.284738
   6 C :   -0.164570
   7 C :   -0.149743
   8 C :   -0.165791
   9 H :    0.120403
  10 H :    0.157814
  11 H :    0.140263
  12 H :    0.132199
  13 H :    0.138204
  14 H :    0.145413
  15 H :    0.148269
  16 H :    0.161076

  Mayer bond orders larger than 0.1
B(  0-O ,  1-C ) :   1.9678 B(  1-C ,  2-C ) :   0.9189 B(  1-C ,  9-H ) :   0.9420
B(  2-C ,  3-C ) :   0.8102 B(  2-C ,  8-C ) :   0.8073 B(  2-C , 10-H ) :   0.9151
B(  3-C ,  4-O ) :   0.9842 B(  3-C ,  8-C ) :   0.8811 B(  3-C , 11-H ) :   0.9420
B(  4-O ,  5-C ) :   0.9076 B(  5-C ,  6-C ) :   0.9357 B(  5-C , 12-H ) :   0.9179
B(  5-C , 13-H ) :   0.9321 B(  6-C ,  7-C ) :   1.7966 B(  6-C , 14-H ) :   0.9167
B(  7-C ,  8-C ) :   0.9204 B(  7-C , 15-H ) :   0.9320 B(  8-C , 16-H ) :   0.9132

MP2 TOTAL ENERGY:     -421.097274734 Eh
FINAL SINGLE POINT ENERGY      -421.097274734121

DIPOLE MOMENT
-------------
                                X             Y             Z
Electronic contribution:     -0.27518      -3.40311      -2.53934
Nuclear contribution   :      0.71416       4.72182       3.45624
                        -----------------------------------------
Total Dipole Moment    :      0.43899       1.31871       0.91691
                        -----------------------------------------
Magnitude (a.u.)       :      1.66506
Magnitude (Debye)      :      4.23226

                             ****ORCA TERMINATED NORMALLY****
TOTAL RUN TIME: 0 days 0 hours 16 minutes 3 seconds 490 msec
