                         Program Version 3.0.3 - RELEASE   -
|  1> ! RI-MP2 RIJK def2-TZVP def2-TZVP/C def2-TZVP/JK TIGHTSCF
|  2> % maxcore 2000
|  3> % mp2 density relaxed end
|  4> *xyz 0 1
|  5>  N        0.0546709452     1.3856312157     0.0425137475
|  6>  C       -0.0452389829     0.0097420604     0.0767200307
|  7>  C       -1.2073867429    -0.6837932187    -0.0725345013
|  8>  C       -1.2203536208    -2.1199081592     0.0544949558
|  9>  O       -2.1839728499    -2.8543691900    -0.0571841625
| 10>  N        0.0498745095    -2.6863707427     0.3224199282
| 11>  C        1.2472000536    -2.0233406470     0.4978884608
| 12>  N        2.3960641601    -2.4995932231     0.7863751470
| 13>  N        1.1337994331    -0.6443951823     0.3278190618
| 14>  H        0.9054507470     1.7574849873    -0.3563903458
| 15>  H       -0.7673119297     1.8528590726    -0.3094412066
| 16>  H       -2.1371950113    -0.1855811392    -0.3041658325
| 17>  H        0.0461694591    -3.6911387820     0.4176349890
| 18>  H        2.3669118958    -3.5101466976     0.8949328831
| 19>  H        1.9677105240    -0.1326671342     0.5709584249
| 20> *
| 21>
| 22>                          ****END OF INPUT****

CARTESIAN COORDINATES (ANGSTROEM)
---------------------------------
  N      0.054671    1.385631    0.042514
  C     -0.045239    0.009742    0.076720
  C     -1.207387   -0.683793   -0.072535
  C     -1.220354   -2.119908    0.054495
  O     -2.183973   -2.854369   -0.057184
  N      0.049875   -2.686371    0.322420
  C      1.247200   -2.023341    0.497888
  N      2.396064   -2.499593    0.786375
  N      1.133799   -0.644395    0.327819
  H      0.905451    1.757485   -0.356390
  H     -0.767312    1.852859   -0.309441
  H     -2.137195   -0.185581   -0.304166
  H      0.046169   -3.691139    0.417635
  H      2.366912   -3.510147    0.894933
  H      1.967711   -0.132667    0.570958

 Total Charge           Charge          ....    0
 Multiplicity           Mult            ....    1
 Number of Electrons    NEL             ....   66
 Basis Dimension        Dim             ....  315

ORBITAL ENERGIES
----------------

  NO   OCC          E(Eh)            E(eV)
   0   2.0000     -20.517552      -558.3110
   1   2.0000     -15.626047      -425.2064
   2   2.0000     -15.613011      -424.8516
   3   2.0000     -15.609582      -424.7583
   4   2.0000     -15.531120      -422.6233
   5   2.0000     -11.377653      -309.6017
   6   2.0000     -11.369641      -309.3837
   7   2.0000     -11.360960      -309.1474
   8   2.0000     -11.221357      -305.3486
   9   2.0000      -1.391567       -37.8665
  10   2.0000      -1.352515       -36.8038
  11   2.0000      -1.279170       -34.8080
  12   2.0000      -1.207861       -32.8676
  13   2.0000      -1.173935       -31.9444
  14   2.0000      -1.048883       -28.5415
  15   2.0000      -0.904228       -24.6053
  16   2.0000      -0.875616       -23.8267
  17   2.0000      -0.796300       -21.6684
  18   2.0000      -0.766569       -20.8594
  19   2.0000      -0.729013       -19.8375
  20   2.0000      -0.701724       -19.0949
  21   2.0000      -0.664970       -18.0947
  22   2.0000      -0.650431       -17.6991
  23   2.0000      -0.640403       -17.4263
  24   2.0000      -0.604682       -16.4542
  25   2.0000      -0.585695       -15.9376
  26   2.0000      -0.565190       -15.3796
  27   2.0000      -0.532657       -14.4943
  28   2.0000      -0.465485       -12.6665
  29   2.0000      -0.446207       -12.1419
  30   2.0000      -0.426962       -11.6182
  31   2.0000      -0.389058       -10.5868
  32   2.0000      -0.331826        -9.0294
  33   0.0000       0.103765         2.8236
  34   0.0000       0.127918         3.4808
  35   0.0000       0.138714         3.7746
  36   0.0000       0.147933         4.0255
  37   0.0000       0.174078         4.7369

MULLIKEN ATOMIC CHARGES
-----------------------
   0 N :   -0.511656
   1 C :    0.367517
   2 C :   -0.343430
   3 C :    0.246633
   4 O :   -0.352734
   5 N :   -0.280472
   6 C :    0.240312
   7 N :   -0.431314
   8 N :   -0.305364
   9 H :    0.258891
  10 H :    0.266071
  11 H :    0.137047
  12 H :    0.241315
  13 H :    0.209244
  14 H :    0.257938
Sum of atomic charges:   -0.0000000

LOEWDIN ATOMIC CHARGES
----------------------
   0 N :   -0.039678
   1 C :   -0.306845
   2 C :   -0.180804
   3 C :   -0.434574
   4 O :    0.083943
   5 N :    0.165355
   6 C :   -0.435082
   7 N :   -0.114182
   8 N :    0.184307
   9 H :    0.173612
  10 H :    0.180676
  11 H :    0.155022
  12 H :    0.200472
  13 H :    0.160626
  14 H :    0.207150

  Mayer bond orders larger than 0.1
B(  0-N ,  1-C ) :   1.0759 B(  0-N ,  9-H ) :   0.8645 B(  0-N , 10-H ) :   0.8758
B(  1-C ,  2-C ) :   1.4424 B(  1-C ,  8-N ) :   1.0859 B(  2-C ,  3-C ) :   1.1256
B(  2-C , 11-H ) :   0.9307 B(  3-C ,  4-O ) :   1.9663 B(  3-C ,  5-N ) :   1.0018
B(  5-N ,  6-C ) :   1.1109 B(  5-N , 12-H ) :   0.8555 B(  6-C ,  7-N ) :   1.9507
B(  6-C ,  8-N ) :   1.0246 B(  7-N , 13-H ) :   0.8616 B(  8-N , 14-H ) :   0.8594

MP2 TOTAL ENERGY:     -449.463518282 Eh
FINAL SINGLE POINT ENERGY      -449.463518282027

DIPOLE MOMENT
-------------
                                X             Y             Z
Electronic contribution:     -1.37840      -2.41972       0.03548
Nuclear contribution   :      2.05851       3.89069      -0.36700
                        -----------------------------------------
Total Dipole Moment    :      0.68011       1.47096      -0.33152
                        -----------------------------------------
Magnitude (a.u.)       :      1.65414
Magnitude (Debye)      :      4.20449

                             ****ORCA TERMINATED NORMALLY****
TOTAL RUN TIME: 0 days 0 hours 13 minutes 23 seconds 426 msec
