                         Program Version 3.0.3 - RELEASE   -
|  1> ! RI-MP2 RIJK def2-TZVP def2-TZVP/C def2-TZVP/JK TIGHTSCF
|  2> % maxcore 2000
|  3> % mp2 density relaxed end
|  4> *xyz 0 1
|  5>  O       -0.0131501372     1.3760193699    -0.0763398435
|  6>  C        0.0178480993    -0.0260140629    -0.0066664045
|  7>  C        0.9470416512    -0.5331912428    -1.1100742637
|  8>  C        2.3701759973    -0.0662992928    -0.8747717682
|  9>  O        3.2570503971    -0.7900125142    -0.4970600635
| 10>  C        0.2905332265    -0.6633272532     1.4222239740
| 11>  C       -1.1195148391    -1.2476036468     1.3680139928
| 12>  O       -2.0231994291    -0.1408095581     1.1785410412
| 13>  C       -1.3747682276    -0.6997268692     0.0278671519
| 14>  H       -0.7031859292     1.6563020348     0.5396882874
| 15>  H        0.9377162478    -1.6259832670    -1.1406480835
| 16>  H        0.5872015605    -0.1351543592    -2.0666994302
| 17>  H        2.5434302052     1.0155314949    -1.0518043356
| 18>  H        1.0853906607    -1.4120946844     1.3985652860
| 19>  H        0.4763549784     0.0486004864     2.2295776336
| 20>  H       -1.5237220665    -2.1316632399     1.8450945526
| 21>  H       -2.0041348653    -1.0351352253    -0.7894084970
| 22> *
| 23>
| 24>                          ****END OF INPUT****

CARTESIAN COORDINATES (ANGSTROEM)
---------------------------------
  O     -0.013150    1.376019   -0.076340
  C      0.017848   -0.026014   -0.006666
  C      0.947042   -0.533191   -1.110074
  C      2.370176   -0.066299   -0.874772
  O      3.257050   -0.790013   -0.497060
  C      0.290533   -0.663327    1.422224
  C     -1.119515   -1.247604    1.368014
  O     -2.023199   -0.140810    1.178541
  C     -1.374768   -0.699727    0.027867
  H     -0.703186    1.656302    0.539688
  H      0.937716   -1.625983   -1.140648
  H      0.587202   -0.135154   -2.066699
  H      2.543430    1.015531   -1.051804
  H      1.085391   -1.412095    1.398565
  H      0.476355    0.048600    2.229578
  H     -1.523722   -2.131663    1.845095
  H     -2.004135   -1.035135   -0.789408

 Total Charge           Charge          ....    0
 Multiplicity           Mult            ....    1
 Number of Electrons    NEL             ....   68
 Basis Dimension        Dim             ....  327

ORBITAL ENERGIES
----------------

  NO   OCC          E(Eh)            E(eV)
   0   2.0000     -20.588714      -560.2474
   1   2.0000     -20.572252      -559.7994
   2   2.0000     -20.560645      -559.4836
   3   2.0000     -11.334603      -308.4302
   4   2.0000     -11.319499      -308.0192
   5   2.0000     -11.305891      -307.6489
   6   2.0000     -11.301019      -307.5164
   7   2.0000     -11.250330      -306.1370
   8   2.0000     -11.245725      -306.0117
   9   2.0000      -1.441585       -39.2275
  10   2.0000      -1.399177       -38.0735
  11   2.0000      -1.380837       -37.5745
  12   2.0000      -1.107537       -30.1376
  13   2.0000      -1.023821       -27.8596
  14   2.0000      -0.919663       -25.0253
  15   2.0000      -0.870270       -23.6812
  16   2.0000      -0.806620       -21.9492
  17   2.0000      -0.780004       -21.2250
  18   2.0000      -0.745315       -20.2810
  19   2.0000      -0.682518       -18.5722
  20   2.0000      -0.674383       -18.3509
  21   2.0000      -0.652006       -17.7420
  22   2.0000      -0.631321       -17.1791
  23   2.0000      -0.613581       -16.6964
  24   2.0000      -0.592190       -16.1143
  25   2.0000      -0.571147       -15.5417
  26   2.0000      -0.552319       -15.0294
  27   2.0000      -0.541455       -14.7337
  28   2.0000      -0.522679       -14.2228
  29   2.0000      -0.496520       -13.5110
  30   2.0000      -0.485513       -13.2115
  31   2.0000      -0.439241       -11.9523
  32   2.0000      -0.429590       -11.6897
  33   2.0000      -0.411604       -11.2003
  34   0.0000       0.127306         3.4642
  35   0.0000       0.144611         3.9351
  36   0.0000       0.157095         4.2748
  37   0.0000       0.160878         4.3777
  38   0.0000       0.175884         4.7861

MULLIKEN ATOMIC CHARGES
-----------------------
   0 O :   -0.466641
   1 C :    0.223732
   2 C :   -0.208939
   3 C :    0.097575
   4 O :   -0.270070
   5 C :   -0.215466
   6 C :   -0.037837
   7 O :   -0.331147
   8 C :   -0.044418
   9 H :    0.334180
  10 H :    0.130475
  11 H :    0.127157
  12 H :    0.102216
  13 H :    0.150871
  14 H :    0.122418
  15 H :    0.143916
  16 H :    0.141977
Sum of atomic charges:   -0.0000000

LOEWDIN ATOMIC CHARGES
----------------------
   0 O :    0.024473
   1 C :   -0.348723
   2 C :   -0.219850
   3 C :   -0.281540
   4 O :    0.130487
   5 C :   -0.181356
   6 C :   -0.234356
   7 O :    0.163548
   8 C :   -0.215726
   9 H :    0.186397
  10 H :    0.154582
  11 H :    0.155346
  12 H :    0.116844
  13 H :    0.147057
  14 H :    0.136359
  15 H :    0.132690
  16 H :    0.133767

  Mayer bond orders larger than 0.1
B(  0-O ,  1-C ) :   1.0105 B(  0-O ,  9-H ) :   0.8189 B(  1-C ,  2-C ) :   0.8760
B(  1-C ,  5-C ) :   0.9067 B(  1-C ,  8-C ) :   0.8745 B(  2-C ,  3-C ) :   0.8885
B(  2-C , 10-H ) :   0.9139 B(  2-C , 11-H ) :   0.9091 B(  3-C ,  4-O ) :   1.9773
B(  3-C , 12-H ) :   0.9343 B(  5-C ,  6-C ) :   0.9381 B(  5-C , 13-H ) :   0.8987
B(  5-C , 14-H ) :   0.8953 B(  6-C ,  7-O ) :   0.9305 B(  6-C ,  8-C ) :   0.9286
B(  6-C , 15-H ) :   0.9305 B(  7-O ,  8-C ) :   0.8472 B(  8-C , 16-H ) :   0.9182

MP2 TOTAL ENERGY:     -458.193286927 Eh
FINAL SINGLE POINT ENERGY      -458.193286927289

DIPOLE MOMENT
-------------
                                X             Y             Z
Electronic contribution:     -0.03695       0.96273       0.16000
Nuclear contribution   :     -0.70395      -1.30359      -0.29908
                        -----------------------------------------
Total Dipole Moment    :     -0.74090      -0.34086      -0.13908
                        -----------------------------------------
Magnitude (a.u.)       :      0.82732
Magnitude (Debye)      :      2.10288

                             ****ORCA TERMINATED NORMALLY****
TOTAL RUN TIME: 0 days 0 hours 17 minutes 38 seconds 425 msec
