                         Program Version 3.0.3 - RELEASE   -
|  1> ! RI-MP2 RIJK def2-TZVP def2-TZVP/C def2-TZVP/JK TIGHTSCF
|  2> % maxcore 2000
|  3> % mp2 density relaxed end
|  4> *xyz 0 1
|  5>  O       -0.2228321571     1.3261378786    -0.0467786626
|  6>  C       -0.0283322612    -0.0539457421     0.0114504635
|  7>  C       -0.3811890291    -0.8376458493     1.2578201031
|  8>  C       -1.2659483991    -0.9085602864     0.0280219428
|  9>  O       -2.5269454046    -0.3331612778     0.0317524837
| 10>  C       -0.9932726144    -2.0368357826    -0.9474079723
| 11>  O        0.4269813853    -2.0508004266    -1.1083593528
| 12>  C        0.9174498994    -0.7192394177    -0.9730801411
| 13>  H        0.3176006768     1.7490825162     0.6281497174
| 14>  H        0.2343498038    -1.6887737964     1.5322422557
| 15>  H       -0.7945045056    -0.2651009990     2.0813514533
| 16>  H       -2.3962461718     0.6195039002    -0.0754473956
| 17>  H       -1.2872553350    -3.0317031726    -0.6005082915
| 18>  H       -1.5145685115    -1.8200571939    -1.8927420386
| 19>  H        0.8842486875    -0.1644881172    -1.9245484398
| 20>  H        1.9593330066    -0.7925162333    -0.6435611751
| 21> *
| 22>
| 23>                          ****END OF INPUT****

CARTESIAN COORDINATES (ANGSTROEM)
---------------------------------
  O     -0.222832    1.326138   -0.046779
  C     -0.028332   -0.053946    0.011450
  C     -0.381189   -0.837646    1.257820
  C     -1.265948   -0.908560    0.028022
  O     -2.526945   -0.333161    0.031752
  C     -0.993273   -2.036836   -0.947408
  O      0.426981   -2.050800   -1.108359
  C      0.917450   -0.719239   -0.973080
  H      0.317601    1.749083    0.628150
  H      0.234350   -1.688774    1.532242
  H     -0.794505   -0.265101    2.081351
  H     -2.396246    0.619504   -0.075447
  H     -1.287255   -3.031703   -0.600508
  H     -1.514569   -1.820057   -1.892742
  H      0.884249   -0.164488   -1.924548
  H      1.959333   -0.792516   -0.643561

 Total Charge           Charge          ....    0
 Multiplicity           Mult            ....    1
 Number of Electrons    NEL             ....   62
 Basis Dimension        Dim             ....  296

ORBITAL ENERGIES
----------------

  NO   OCC          E(Eh)            E(eV)
   0   2.0000     -20.590013      -560.2827
   1   2.0000     -20.567423      -559.6680
   2   2.0000     -20.561218      -559.4992
   3   2.0000     -11.294541      -307.3401
   4   2.0000     -11.289618      -307.2061
   5   2.0000     -11.283222      -307.0321
   6   2.0000     -11.278589      -306.9060
   7   2.0000     -11.235287      -305.7277
   8   2.0000      -1.411917       -38.4202
   9   2.0000      -1.380388       -37.5623
  10   2.0000      -1.371100       -37.3095
  11   2.0000      -1.132149       -30.8073
  12   2.0000      -0.994937       -27.0736
  13   2.0000      -0.914888       -24.8954
  14   2.0000      -0.814951       -22.1759
  15   2.0000      -0.787535       -21.4299
  16   2.0000      -0.731903       -19.9161
  17   2.0000      -0.688760       -18.7421
  18   2.0000      -0.671507       -18.2726
  19   2.0000      -0.660343       -17.9688
  20   2.0000      -0.633978       -17.2514
  21   2.0000      -0.590370       -16.0648
  22   2.0000      -0.579726       -15.7751
  23   2.0000      -0.569753       -15.5038
  24   2.0000      -0.556926       -15.1547
  25   2.0000      -0.537941       -14.6381
  26   2.0000      -0.532396       -14.4872
  27   2.0000      -0.473789       -12.8925
  28   2.0000      -0.433012       -11.7829
  29   2.0000      -0.409115       -11.1326
  30   2.0000      -0.384489       -10.4625
  31   0.0000       0.122297         3.3279
  32   0.0000       0.160374         4.3640
  33   0.0000       0.179996         4.8979
  34   0.0000       0.188715         5.1352
  35   0.0000       0.193304         5.2601

MULLIKEN ATOMIC CHARGES
-----------------------
   0 O :   -0.477664
   1 C :    0.082120
   2 C :   -0.319277
   3 C :    0.141440
   4 O :   -0.461477
   5 C :   -0.002553
   6 O :   -0.323723
   7 C :   -0.032572
   8 H :    0.342206
   9 H :    0.143199
  10 H :    0.141606
  11 H :    0.338404
  12 H :    0.120323
  13 H :    0.096015
  14 H :    0.100714
  15 H :    0.111239
Sum of atomic charges:   -0.0000000

LOEWDIN ATOMIC CHARGES
----------------------
   0 O :    0.026227
   1 C :   -0.355288
   2 C :   -0.175996
   3 C :   -0.343309
   4 O :    0.034506
   5 C :   -0.253456
   6 O :    0.151757
   7 C :   -0.267042
   8 H :    0.188275
   9 H :    0.142811
  10 H :    0.143521
  11 H :    0.190335
  12 H :    0.131011
  13 H :    0.129457
  14 H :    0.129026
  15 H :    0.128166

  Mayer bond orders larger than 0.1
B(  0-O ,  1-C ) :   1.0202 B(  0-O ,  8-H ) :   0.8319 B(  1-C ,  2-C ) :   0.9019
B(  1-C ,  3-C ) :   0.8346 B(  1-C ,  7-C ) :   0.9738 B(  2-C ,  3-C ) :   0.8521
B(  2-C ,  9-H ) :   0.8916 B(  2-C , 10-H ) :   0.9240 B(  3-C ,  4-O ) :   1.1281
B(  3-C ,  5-C ) :   0.9341 B(  4-O , 11-H ) :   0.8183 B(  5-C ,  6-O ) :   0.9149
B(  5-C , 12-H ) :   0.9252 B(  5-C , 13-H ) :   0.9147 B(  6-O ,  7-C ) :   0.9300
B(  7-C , 14-H ) :   0.9138 B(  7-C , 15-H ) :   0.9184

MP2 TOTAL ENERGY:     -420.196567066 Eh
FINAL SINGLE POINT ENERGY      -420.196567066267

DIPOLE MOMENT
-------------
                                X             Y             Z
Electronic contribution:     -0.95080       0.76084      -0.37831
Nuclear contribution   :      1.48331      -0.06413       0.85760
                        -----------------------------------------
Total Dipole Moment    :      0.53251       0.69671       0.47929
                        -----------------------------------------
Magnitude (a.u.)       :      0.99934
Magnitude (Debye)      :      2.54013

                             ****ORCA TERMINATED NORMALLY****
TOTAL RUN TIME: 0 days 0 hours 11 minutes 1 seconds 263 msec
