                         Program Version 3.0.3 - RELEASE   -
|  1> ! RI-MP2 RIJK def2-TZVP def2-TZVP/C def2-TZVP/JK TIGHTSCF
|  2> % maxcore 2000
|  3> % mp2 density relaxed end
|  4> *xyz 0 1
|  5>  C        0.1896186103     1.5165518735     0.1183404839
|  6>  C        0.1756197736    -0.0127840131     0.0640430629
|  7>  C        0.5624224163    -0.5619569023    -1.3147163686
|  8>  O        1.8884612555    -0.1336083172    -1.6680468549
|  9>  C        2.6956662227    -1.2571697382    -1.9562326990
| 10>  C        3.7175265212    -1.1258705471    -3.0578246624
| 11>  C        4.1590306955    -1.1797781373    -1.6078066799
| 12>  C        1.8472382760    -2.4494812393    -1.7488970385
| 13>  C        0.6250168618    -2.0660746918    -1.3934788094
| 14>  H        1.1813934043     1.8984151723    -0.1375774745
| 15>  H       -0.5278154607     1.9437804303    -0.5915100426
| 16>  H       -0.0718634925     1.8790588702     1.1170017930
| 17>  H        0.8678891091    -0.4274990219     0.8061888617
| 18>  H       -0.8245071900    -0.3911083277     0.3137396584
| 19>  H       -0.1414001881    -0.1533246787    -2.0610972034
| 20>  H        3.9094562149    -1.9812510477    -3.6970947361
| 21>  H        3.7601258344    -0.1635122244    -3.5554066217
| 22>  H        4.4923272766    -0.2527791953    -1.1545812284
| 23>  H        4.6571322272    -2.0719998484    -1.2428393934
| 24>  H        2.2077016128    -3.4610118996    -1.8844472843
| 25>  H       -0.2232274609    -2.7025869262    -1.1771853328
| 26> *
| 27>
| 28>                          ****END OF INPUT****

CARTESIAN COORDINATES (ANGSTROEM)
---------------------------------
  C      0.189619    1.516552    0.118340
  C      0.175620   -0.012784    0.064043
  C      0.562422   -0.561957   -1.314716
  O      1.888461   -0.133608   -1.668047
  C      2.695666   -1.257170   -1.956233
  C      3.717527   -1.125871   -3.057825
  C      4.159031   -1.179778   -1.607807
  C      1.847238   -2.449481   -1.748897
  C      0.625017   -2.066075   -1.393479
  H      1.181393    1.898415   -0.137577
  H     -0.527815    1.943780   -0.591510
  H     -0.071863    1.879059    1.117002
  H      0.867889   -0.427499    0.806189
  H     -0.824507   -0.391108    0.313740
  H     -0.141400   -0.153325   -2.061097
  H      3.909456   -1.981251   -3.697095
  H      3.760126   -0.163512   -3.555407
  H      4.492327   -0.252779   -1.154581
  H      4.657132   -2.072000   -1.242839
  H      2.207702   -3.461012   -1.884447
  H     -0.223227   -2.702587   -1.177185

 Total Charge           Charge          ....    0
 Multiplicity           Mult            ....    1
 Number of Electrons    NEL             ....   68
 Basis Dimension        Dim             ....  351

ORBITAL ENERGIES
----------------

  NO   OCC          E(Eh)            E(eV)
   0   2.0000     -20.549714      -559.1861
   1   2.0000     -11.287638      -307.1522
   2   2.0000     -11.281155      -306.9758
   3   2.0000     -11.234307      -305.7010
   4   2.0000     -11.229228      -305.5628
   5   2.0000     -11.222536      -305.3807
   6   2.0000     -11.221815      -305.3611
   7   2.0000     -11.218722      -305.2769
   8   2.0000     -11.207223      -304.9640
   9   2.0000      -1.380172       -37.5564
  10   2.0000      -1.132772       -30.8243
  11   2.0000      -1.076788       -29.3009
  12   2.0000      -1.034216       -28.1425
  13   2.0000      -0.924693       -25.1622
  14   2.0000      -0.828547       -22.5459
  15   2.0000      -0.824704       -22.4413
  16   2.0000      -0.777550       -21.1582
  17   2.0000      -0.755687       -20.5633
  18   2.0000      -0.691635       -18.8203
  19   2.0000      -0.651485       -17.7278
  20   2.0000      -0.631126       -17.1738
  21   2.0000      -0.609137       -16.5755
  22   2.0000      -0.586738       -15.9660
  23   2.0000      -0.570398       -15.5213
  24   2.0000      -0.542233       -14.7549
  25   2.0000      -0.526539       -14.3279
  26   2.0000      -0.514696       -14.0056
  27   2.0000      -0.511735       -13.9250
  28   2.0000      -0.482750       -13.1363
  29   2.0000      -0.473394       -12.8817
  30   2.0000      -0.471761       -12.8373
  31   2.0000      -0.424343       -11.5469
  32   2.0000      -0.416034       -11.3209
  33   2.0000      -0.325401        -8.8546
  34   0.0000       0.143047         3.8925
  35   0.0000       0.149450         4.0667
  36   0.0000       0.157849         4.2953
  37   0.0000       0.168721         4.5911
  38   0.0000       0.179027         4.8716

MULLIKEN ATOMIC CHARGES
-----------------------
   0 C :   -0.392585
   1 C :   -0.206589
   2 C :    0.157248
   3 O :   -0.317622
   4 C :    0.265078
   5 C :   -0.299387
   6 C :   -0.295005
   7 C :   -0.171560
   8 C :   -0.229864
   9 H :    0.142269
  10 H :    0.117106
  11 H :    0.130698
  12 H :    0.115408
  13 H :    0.097974
  14 H :    0.091753
  15 H :    0.126114
  16 H :    0.134321
  17 H :    0.133799
  18 H :    0.126298
  19 H :    0.139596
  20 H :    0.134948
Sum of atomic charges:   -0.0000000

LOEWDIN ATOMIC CHARGES
----------------------
   0 C :   -0.319178
   1 C :   -0.271498
   2 C :   -0.279319
   3 O :    0.227313
   4 C :   -0.309313
   5 C :   -0.204204
   6 C :   -0.204972
   7 C :   -0.118432
   8 C :   -0.136359
   9 H :    0.125527
  10 H :    0.120053
  11 H :    0.119870
  12 H :    0.140117
  13 H :    0.137840
  14 H :    0.143814
  15 H :    0.131571
  16 H :    0.138897
  17 H :    0.138801
  18 H :    0.131729
  19 H :    0.145838
  20 H :    0.141907

  Mayer bond orders larger than 0.1
B(  0-C ,  1-C ) :   0.9216 B(  0-C ,  9-H ) :   0.9372 B(  0-C , 10-H ) :   0.9360
B(  0-C , 11-H ) :   0.9403 B(  1-C ,  2-C ) :   0.9067 B(  1-C , 12-H ) :   0.9297
B(  1-C , 13-H ) :   0.9291 B(  2-C ,  3-O ) :   0.8897 B(  2-C ,  8-C ) :   0.9452
B(  2-C , 14-H ) :   0.9040 B(  3-O ,  4-C ) :   0.9909 B(  4-C ,  5-C ) :   0.8534
B(  4-C ,  6-C ) :   0.8370 B(  4-C ,  7-C ) :   0.9402 B(  5-C ,  6-C ) :   0.9205
B(  5-C , 15-H ) :   0.9177 B(  5-C , 16-H ) :   0.9194 B(  6-C , 17-H ) :   0.9203
B(  6-C , 18-H ) :   0.9188 B(  7-C ,  8-C ) :   1.8166 B(  7-C , 19-H ) :   0.9065
B(  8-C , 20-H ) :   0.9211

MP2 TOTAL ENERGY:     -386.397375184 Eh
FINAL SINGLE POINT ENERGY      -386.397375184318

DIPOLE MOMENT
-------------
                                X             Y             Z
Electronic contribution:      1.44660      -3.47404      -2.97815
Nuclear contribution   :     -1.61884       2.99151       3.04765
                        -----------------------------------------
Total Dipole Moment    :     -0.17224      -0.48253       0.06950
                        -----------------------------------------
Magnitude (a.u.)       :      0.51704
Magnitude (Debye)      :      1.31421

                             ****ORCA TERMINATED NORMALLY****
TOTAL RUN TIME: 0 days 0 hours 28 minutes 15 seconds 468 msec
