                         Program Version 3.0.3 - RELEASE   -
|  1> ! RI-MP2 RIJK def2-TZVP def2-TZVP/C def2-TZVP/JK TIGHTSCF
|  2> % maxcore 2000
|  3> % mp2 density relaxed end
|  4> *xyz 0 1
|  5>  C       -0.1488334866     1.5836051367    -0.0264564992
|  6>  C       -0.0445709048     0.0583410319    -0.0060135786
|  7>  C       -1.3310118924    -0.5571755307    -0.3349655315
|  8>  N       -2.3506358437    -1.0371393724    -0.5956615790
|  9>  C        1.1902892108    -0.6193225332    -0.6696215096
| 10>  C        2.1257988329    -0.2822563482     0.5435189832
| 11>  C        2.6101148340    -1.7405172494     0.6606932820
| 12>  C        1.1221976651    -1.8624360595     0.2825533243
| 13>  C        0.7256154213    -0.6265419576     1.1611321738
| 14>  H        0.8141303023     2.0376652886     0.2197277895
| 15>  H       -0.4546730024     1.9402641394    -1.0145274544
| 16>  H       -0.8895043294     1.9335020720     0.6988065994
| 17>  H        1.4610617586    -0.6206781720    -1.7262412319
| 18>  H        2.6900564128     0.6383932591     0.6903670553
| 19>  H        3.3370693669    -2.0777288992    -0.0843125969
| 20>  H        2.8944088924    -2.0846070528     1.6596868137
| 21>  H        0.5138269634    -2.7522129705     0.1246305992
| 22>  H        0.4597141789    -0.6362416023     2.2189447605
| 23> *
| 24>
| 25>                          ****END OF INPUT****

CARTESIAN COORDINATES (ANGSTROEM)
---------------------------------
  C     -0.148833    1.583605   -0.026456
  C     -0.044571    0.058341   -0.006014
  C     -1.331012   -0.557176   -0.334966
  N     -2.350636   -1.037139   -0.595662
  C      1.190289   -0.619323   -0.669622
  C      2.125799   -0.282256    0.543519
  C      2.610115   -1.740517    0.660693
  C      1.122198   -1.862436    0.282553
  C      0.725615   -0.626542    1.161132
  H      0.814130    2.037665    0.219728
  H     -0.454673    1.940264   -1.014527
  H     -0.889504    1.933502    0.698807
  H      1.461062   -0.620678   -1.726241
  H      2.690056    0.638393    0.690367
  H      3.337069   -2.077729   -0.084313
  H      2.894409   -2.084607    1.659687
  H      0.513827   -2.752213    0.124631
  H      0.459714   -0.636242    2.218945

 Total Charge           Charge          ....    0
 Multiplicity           Mult            ....    1
 Number of Electrons    NEL             ....   64
 Basis Dimension        Dim             ....  333

ORBITAL ENERGIES
----------------

  NO   OCC          E(Eh)            E(eV)
   0   2.0000     -15.562087      -423.4659
   1   2.0000     -11.287353      -307.1445
   2   2.0000     -11.267374      -306.6008
   3   2.0000     -11.267287      -306.5985
   4   2.0000     -11.263373      -306.4920
   5   2.0000     -11.262946      -306.4803
   6   2.0000     -11.259761      -306.3937
   7   2.0000     -11.240172      -305.8606
   8   2.0000     -11.238389      -305.8121
   9   2.0000      -1.271070       -34.5876
  10   2.0000      -1.208387       -32.8819
  11   2.0000      -1.073261       -29.2049
  12   2.0000      -0.958623       -26.0855
  13   2.0000      -0.891149       -24.2494
  14   2.0000      -0.887594       -24.1527
  15   2.0000      -0.851962       -23.1831
  16   2.0000      -0.730592       -19.8804
  17   2.0000      -0.703019       -19.1301
  18   2.0000      -0.682464       -18.5708
  19   2.0000      -0.626657       -17.0522
  20   2.0000      -0.615210       -16.7407
  21   2.0000      -0.580491       -15.7960
  22   2.0000      -0.569421       -15.4947
  23   2.0000      -0.550741       -14.9864
  24   2.0000      -0.503849       -13.7104
  25   2.0000      -0.486903       -13.2493
  26   2.0000      -0.474098       -12.9009
  27   2.0000      -0.455653       -12.3989
  28   2.0000      -0.454094       -12.3565
  29   2.0000      -0.446519       -12.1504
  30   2.0000      -0.432260       -11.7624
  31   2.0000      -0.425979       -11.5915
  32   0.0000       0.130127         3.5409
  33   0.0000       0.144452         3.9308
  34   0.0000       0.155393         4.2285
  35   0.0000       0.156984         4.2718
  36   0.0000       0.182017         4.9529

MULLIKEN ATOMIC CHARGES
-----------------------
   0 C :   -0.416805
   1 C :    0.147776
   2 C :   -0.255172
   3 N :   -0.044806
   4 C :   -0.065809
   5 C :   -0.183034
   6 C :   -0.179621
   7 C :   -0.172867
   8 C :   -0.065807
   9 H :    0.139826
  10 H :    0.147559
  11 H :    0.147558
  12 H :    0.141675
  13 H :    0.133166
  14 H :    0.118041
  15 H :    0.118041
  16 H :    0.148603
  17 H :    0.141675
Sum of atomic charges:    0.0000000

LOEWDIN ATOMIC CHARGES
----------------------
   0 C :   -0.243888
   1 C :   -0.229281
   2 C :   -0.147746
   3 N :    0.060622
   4 C :   -0.082749
   5 C :   -0.137823
   6 C :   -0.199653
   7 C :   -0.129844
   8 C :   -0.082749
   9 H :    0.131547
  10 H :    0.134110
  11 H :    0.134110
  12 H :    0.135040
  13 H :    0.127622
  14 H :    0.130071
  15 H :    0.130071
  16 H :    0.135499
  17 H :    0.135040

  Mayer bond orders larger than 0.1
B(  0-C ,  1-C ) :   0.9158 B(  0-C ,  9-H ) :   0.9311 B(  0-C , 10-H ) :   0.9311
B(  0-C , 11-H ) :   0.9311 B(  1-C ,  2-C ) :   0.9236 B(  1-C ,  4-C ) :   0.8612
B(  1-C ,  8-C ) :   0.8612 B(  2-C ,  3-N ) :   2.8935 B(  4-C ,  5-C ) :   0.8579
B(  4-C ,  7-C ) :   0.8686 B(  4-C , 12-H ) :   0.8884 B(  5-C ,  6-C ) :   0.9275
B(  5-C ,  8-C ) :   0.8579 B(  5-C , 13-H ) :   0.9151 B(  6-C ,  7-C ) :   0.9215
B(  6-C , 14-H ) :   0.9238 B(  6-C , 15-H ) :   0.9238 B(  7-C ,  8-C ) :   0.8686
B(  7-C , 16-H ) :   0.8980 B(  8-C , 17-H ) :   0.8884

MP2 TOTAL ENERGY:     -364.094220813 Eh
FINAL SINGLE POINT ENERGY      -364.094220813484

DIPOLE MOMENT
-------------
                                X             Y             Z
Electronic contribution:     -4.89105      -2.51793      -1.25138
Nuclear contribution   :      6.38243       3.06461       1.63208
                        -----------------------------------------
Total Dipole Moment    :      1.49139       0.54668       0.38070
                        -----------------------------------------
Magnitude (a.u.)       :      1.63341
Magnitude (Debye)      :      4.15180

                             ****ORCA TERMINATED NORMALLY****
TOTAL RUN TIME: 0 days 0 hours 19 minutes 59 seconds 365 msec
