                         Program Version 3.0.3 - RELEASE   -
|  1> ! RI-MP2 RIJK def2-TZVP def2-TZVP/C def2-TZVP/JK TIGHTSCF
|  2> % maxcore 2000
|  3> % mp2 density relaxed end
|  4> *xyz 0 1
|  5>  C        0.3607167838     1.6015519440     0.0039607400
|  6>  C       -0.0341192466     0.1124444113     0.0131798568
|  7>  C        0.3545436728    -0.5648992298    -1.2751478029
|  8>  C        0.9019366467    -1.7813257632    -1.3803940181
|  9>  C        1.1868537736    -2.6325127505    -0.2090891453
| 10>  O        1.4240881327    -3.8216235541    -0.3036347387
| 11>  C        1.1317308498    -1.9520307811     1.1265731755
| 12>  N        1.9878596412    -0.7440030981     1.2576881299
| 13>  C        0.5338550504    -0.5885440503     1.2359281857
| 14>  H        1.4488419761     1.7008284006    -0.0316950141
| 15>  H       -0.0657377666     2.1168603953    -0.8621400712
| 16>  H       -0.0015069646     2.1038509631     0.9064832289
| 17>  H       -1.1321484403     0.0594156732     0.0811631915
| 18>  H        0.1360722567    -0.0016865687    -2.1810983225
| 19>  H        1.1136154491    -2.2270033507    -2.3471258592
| 20>  H        1.0718129232    -2.6339120816     1.9694371266
| 21>  H        2.3367590423    -0.6909573924     2.2110249209
| 22>  H        0.0388835595    -0.3461848569     2.1743650464
| 23> *
| 24>
| 25>                          ****END OF INPUT****

CARTESIAN COORDINATES (ANGSTROEM)
---------------------------------
  C      0.360717    1.601552    0.003961
  C     -0.034119    0.112444    0.013180
  C      0.354544   -0.564899   -1.275148
  C      0.901937   -1.781326   -1.380394
  C      1.186854   -2.632513   -0.209089
  O      1.424088   -3.821624   -0.303635
  C      1.131731   -1.952031    1.126573
  N      1.987860   -0.744003    1.257688
  C      0.533855   -0.588544    1.235928
  H      1.448842    1.700828   -0.031695
  H     -0.065738    2.116860   -0.862140
  H     -0.001507    2.103851    0.906483
  H     -1.132148    0.059416    0.081163
  H      0.136072   -0.001687   -2.181098
  H      1.113615   -2.227003   -2.347126
  H      1.071813   -2.633912    1.969437
  H      2.336759   -0.690957    2.211025
  H      0.038884   -0.346185    2.174365

 Total Charge           Charge          ....    0
 Multiplicity           Mult            ....    1
 Number of Electrons    NEL             ....   66
 Basis Dimension        Dim             ....  333

ORBITAL ENERGIES
----------------

  NO   OCC          E(Eh)            E(eV)
   0   2.0000     -20.538728      -558.8872
   1   2.0000     -15.578224      -423.9050
   2   2.0000     -11.327219      -308.2293
   3   2.0000     -11.282170      -307.0035
   4   2.0000     -11.274098      -306.7838
   5   2.0000     -11.262353      -306.4642
   6   2.0000     -11.257500      -306.3322
   7   2.0000     -11.235298      -305.7280
   8   2.0000     -11.230447      -305.5960
   9   2.0000      -1.380250       -37.5585
  10   2.0000      -1.285318       -34.9753
  11   2.0000      -1.114068       -30.3153
  12   2.0000      -1.037022       -28.2188
  13   2.0000      -0.941965       -25.6322
  14   2.0000      -0.913393       -24.8547
  15   2.0000      -0.850056       -23.1312
  16   2.0000      -0.802832       -21.8462
  17   2.0000      -0.735047       -20.0016
  18   2.0000      -0.686609       -18.6836
  19   2.0000      -0.673946       -18.3390
  20   2.0000      -0.642066       -17.4715
  21   2.0000      -0.620072       -16.8730
  22   2.0000      -0.598444       -16.2845
  23   2.0000      -0.565160       -15.3788
  24   2.0000      -0.555087       -15.1047
  25   2.0000      -0.543544       -14.7906
  26   2.0000      -0.518726       -14.1153
  27   2.0000      -0.508216       -13.8293
  28   2.0000      -0.486041       -13.2258
  29   2.0000      -0.473667       -12.8891
  30   2.0000      -0.424712       -11.5570
  31   2.0000      -0.399688       -10.8761
  32   2.0000      -0.372749       -10.1430
  33   0.0000       0.089927         2.4470
  34   0.0000       0.121547         3.3075
  35   0.0000       0.148471         4.0401
  36   0.0000       0.160667         4.3720
  37   0.0000       0.172379         4.6907

MULLIKEN ATOMIC CHARGES
-----------------------
   0 C :   -0.441563
   1 C :    0.115349
   2 C :   -0.210260
   3 C :   -0.152573
   4 C :    0.176748
   5 O :   -0.292616
   6 C :   -0.033751
   7 N :   -0.410050
   8 C :   -0.048523
   9 H :    0.156327
  10 H :    0.135483
  11 H :    0.129789
  12 H :    0.105645
  13 H :    0.128431
  14 H :    0.136186
  15 H :    0.140663
  16 H :    0.225572
  17 H :    0.139143
Sum of atomic charges:   -0.0000000

LOEWDIN ATOMIC CHARGES
----------------------
   0 C :   -0.279677
   1 C :   -0.248309
   2 C :   -0.095277
   3 C :   -0.124790
   4 C :   -0.312611
   5 O :    0.147846
   6 C :   -0.199941
   7 N :    0.024576
   8 C :   -0.226554
   9 H :    0.131864
  10 H :    0.124103
  11 H :    0.124582
  12 H :    0.168353
  13 H :    0.150296
  14 H :    0.153980
  15 H :    0.146430
  16 H :    0.172506
  17 H :    0.142625

  Mayer bond orders larger than 0.1
B(  0-C ,  1-C ) :   0.8520 B(  0-C ,  9-H ) :   0.9338 B(  0-C , 10-H ) :   0.9372
B(  0-C , 11-H ) :   0.9362 B(  1-C ,  2-C ) :   0.9269 B(  1-C ,  8-C ) :   0.9447
B(  1-C , 12-H ) :   0.9090 B(  2-C ,  3-C ) :   1.7064 B(  2-C , 13-H ) :   0.9223
B(  3-C ,  4-C ) :   1.0217 B(  3-C , 14-H ) :   0.9194 B(  4-C ,  5-O ) :   1.9298
B(  4-C ,  6-C ) :   0.9169 B(  6-C ,  7-N ) :   0.8706 B(  6-C ,  8-C ) :   0.8279
B(  6-C , 15-H ) :   0.9308 B(  7-N ,  8-C ) :   0.8724 B(  7-N , 16-H ) :   0.8628
B(  8-C , 17-H ) :   0.9141

MP2 TOTAL ENERGY:     -401.261102750 Eh
FINAL SINGLE POINT ENERGY      -401.261102749950

DIPOLE MOMENT
-------------
                                X             Y             Z
Electronic contribution:      2.11722      -8.44199      -0.60097
Nuclear contribution   :     -2.81067       9.72024       1.19459
                        -----------------------------------------
Total Dipole Moment    :     -0.69345       1.27825       0.59361
                        -----------------------------------------
Magnitude (a.u.)       :      1.57072
Magnitude (Debye)      :      3.99246

                             ****ORCA TERMINATED NORMALLY****
TOTAL RUN TIME: 0 days 0 hours 18 minutes 40 seconds 233 msec
