                         Program Version 3.0.3 - RELEASE   -
|  1> ! RI-MP2 RIJK def2-TZVP def2-TZVP/C def2-TZVP/JK TIGHTSCF
|  2> % maxcore 2000
|  3> % mp2 density relaxed end
|  4> *xyz 0 1
|  5>  O        0.0066254201    -0.0217762929    -0.0815385103
|  6>  C       -0.0095043161     1.1875360264    -0.0768923741
|  7>  N       -1.1695871749     2.0102910798    -0.0881194839
|  8>  C       -0.7548692283     3.3158210194     0.1433406925
|  9>  C        0.6092024843     3.3670465902     0.1257222826
| 10>  N        1.0755638201     2.0645465376    -0.0355238037
| 11>  N        1.0874086326     4.6362372562     0.0238529834
| 12>  C       -0.0110215377     5.3719389849    -0.0173171356
| 13>  N       -1.1702190042     4.6165662324    -0.0099480224
| 14>  H       -2.0393329775     1.5922551373     0.2009740635
| 15>  H        2.0165937556     1.7253312417     0.0625132292
| 16>  H       -0.0445295650     6.4498898895     0.0019822988
| 17>  H       -2.1063889589     4.9791606674     0.0497867598
| 18> *
| 19>
| 20>                          ****END OF INPUT****

CARTESIAN COORDINATES (ANGSTROEM)
---------------------------------
  O      0.006625   -0.021776   -0.081539
  C     -0.009504    1.187536   -0.076892
  N     -1.169587    2.010291   -0.088119
  C     -0.754869    3.315821    0.143341
  C      0.609202    3.367047    0.125722
  N      1.075564    2.064547   -0.035524
  N      1.087409    4.636237    0.023853
  C     -0.011022    5.371939   -0.017317
  N     -1.170219    4.616566   -0.009948
  H     -2.039333    1.592255    0.200974
  H      2.016594    1.725331    0.062513
  H     -0.044530    6.449890    0.001982
  H     -2.106389    4.979161    0.049787

 Total Charge           Charge          ....    0
 Multiplicity           Mult            ....    1
 Number of Electrons    NEL             ....   64
 Basis Dimension        Dim             ....  303

ORBITAL ENERGIES
----------------

  NO   OCC          E(Eh)            E(eV)
   0   2.0000     -20.520763      -558.3984
   1   2.0000     -15.644454      -425.7072
   2   2.0000     -15.616809      -424.9550
   3   2.0000     -15.607751      -424.7085
   4   2.0000     -15.570762      -423.7020
   5   2.0000     -11.389779      -309.9316
   6   2.0000     -11.316088      -307.9264
   7   2.0000     -11.300660      -307.5066
   8   2.0000     -11.287272      -307.1423
   9   2.0000      -1.411062       -38.3969
  10   2.0000      -1.365940       -37.1691
  11   2.0000      -1.291222       -35.1359
  12   2.0000      -1.224165       -33.3112
  13   2.0000      -1.172268       -31.8990
  14   2.0000      -1.000659       -27.2293
  15   2.0000      -0.879076       -23.9209
  16   2.0000      -0.834957       -22.7203
  17   2.0000      -0.824863       -22.4457
  18   2.0000      -0.791621       -21.5411
  19   2.0000      -0.687763       -18.7150
  20   2.0000      -0.683769       -18.6063
  21   2.0000      -0.670263       -18.2388
  22   2.0000      -0.646446       -17.5907
  23   2.0000      -0.612946       -16.6791
  24   2.0000      -0.607951       -16.5432
  25   2.0000      -0.585768       -15.9396
  26   2.0000      -0.493625       -13.4322
  27   2.0000      -0.476190       -12.9578
  28   2.0000      -0.458304       -12.4711
  29   2.0000      -0.448518       -12.2048
  30   2.0000      -0.401263       -10.9189
  31   2.0000      -0.284078        -7.7302
  32   0.0000       0.109099         2.9687
  33   0.0000       0.138750         3.7756
  34   0.0000       0.145895         3.9700
  35   0.0000       0.160261         4.3609
  36   0.0000       0.179064         4.8726

MULLIKEN ATOMIC CHARGES
-----------------------
   0 O :   -0.350745
   1 C :    0.274674
   2 N :   -0.312811
   3 C :    0.146927
   4 C :    0.139476
   5 N :   -0.301706
   6 N :   -0.291820
   7 C :    0.041563
   8 N :   -0.280215
   9 H :    0.257793
  10 H :    0.262538
  11 H :    0.156011
  12 H :    0.258314
Sum of atomic charges:   -0.0000000

LOEWDIN ATOMIC CHARGES
----------------------
   0 O :    0.064137
   1 C :   -0.489349
   2 N :    0.148907
   3 C :   -0.291633
   4 C :   -0.312407
   5 N :    0.175724
   6 N :    0.105712
   7 C :   -0.302168
   8 N :    0.184627
   9 H :    0.192896
  10 H :    0.197522
  11 H :    0.130898
  12 H :    0.195135

  Mayer bond orders larger than 0.1
B(  0-O ,  1-C ) :   2.0040 B(  1-C ,  2-N ) :   1.0475 B(  1-C ,  5-N ) :   1.1081
B(  2-N ,  3-C ) :   1.0603 B(  2-N ,  9-H ) :   0.8561 B(  3-C ,  4-C ) :   1.4259
B(  3-C ,  8-N ) :   1.1018 B(  4-C ,  5-N ) :   1.0395 B(  4-C ,  6-N ) :   1.3270
B(  5-N , 10-H ) :   0.8602 B(  6-N ,  7-C ) :   1.5060 B(  7-C ,  8-N ) :   1.1212
B(  7-C , 11-H ) :   0.9256 B(  8-N , 12-H ) :   0.8632

MP2 TOTAL ENERGY:     -448.253607147 Eh
FINAL SINGLE POINT ENERGY      -448.253607147164

DIPOLE MOMENT
-------------
                                X             Y             Z
Electronic contribution:      0.46077      -1.61152      -0.02665
Nuclear contribution   :     -1.83990       2.90767       0.30689
                        -----------------------------------------
Total Dipole Moment    :     -1.37912       1.29614       0.28024
                        -----------------------------------------
Magnitude (a.u.)       :      1.91324
Magnitude (Debye)      :      4.86308

                             ****ORCA TERMINATED NORMALLY****
TOTAL RUN TIME: 0 days 0 hours 13 minutes 9 seconds 486 msec
