                         Program Version 3.0.3 - RELEASE   -
|  1> ! RI-MP2 RIJK def2-TZVP def2-TZVP/C def2-TZVP/JK TIGHTSCF
|  2> % maxcore 2000
|  3> % mp2 density relaxed end
|  4> *xyz 0 1
|  5>  O        0.2507441996     1.3737358263    -0.1964748273
|  6>  C        0.0608791355     0.0118525716    -0.0377487594
|  7>  C        1.0713079514    -0.9369496332    -0.6179875645
|  8>  C       -0.3387762071    -0.9155113237    -1.1712131683
|  9>  C       -0.7689070811    -2.1187102474    -0.3236962433
| 10>  C       -1.3666451790    -1.5812009679     0.9440535868
| 11>  C       -0.4603006145    -0.5959253434     1.2781121056
| 12>  C        0.6952042377    -1.5350196248     1.7478574688
| 13>  C        0.8118816468    -2.1655985626     0.2763821853
| 14>  H       -0.6068596081     1.8004652675    -0.0892451328
| 15>  H        2.0063894145    -0.6172360759    -1.0601757049
| 16>  H       -0.7057031182    -0.6168618250    -2.1439351649
| 17>  H       -1.1714758669    -3.0144760107    -0.7943249080
| 18>  H       -1.7460497782    -2.2768601783     1.6921761955
| 19>  H        1.6260547037    -1.0320332752     2.0315726105
| 20>  H        0.4144168586    -2.2551503837     2.5187318138
| 21>  H        1.4376932053    -3.0484516936     0.1173767773
| 22> *
| 23>
| 24>                          ****END OF INPUT****

CARTESIAN COORDINATES (ANGSTROEM)
---------------------------------
  O      0.250744    1.373736   -0.196475
  C      0.060879    0.011853   -0.037749
  C      1.071308   -0.936950   -0.617988
  C     -0.338776   -0.915511   -1.171213
  C     -0.768907   -2.118710   -0.323696
  C     -1.366645   -1.581201    0.944054
  C     -0.460301   -0.595925    1.278112
  C      0.695204   -1.535020    1.747857
  C      0.811882   -2.165599    0.276382
  H     -0.606860    1.800465   -0.089245
  H      2.006389   -0.617236   -1.060176
  H     -0.705703   -0.616862   -2.143935
  H     -1.171476   -3.014476   -0.794325
  H     -1.746050   -2.276860    1.692176
  H      1.626055   -1.032033    2.031573
  H      0.414417   -2.255150    2.518732
  H      1.437693   -3.048452    0.117377

 Total Charge           Charge          ....    0
 Multiplicity           Mult            ....    1
 Number of Electrons    NEL             ....   64
 Basis Dimension        Dim             ....  327

ORBITAL ENERGIES
----------------

  NO   OCC          E(Eh)            E(eV)
   0   2.0000     -20.560881      -559.4900
   1   2.0000     -11.279588      -306.9332
   2   2.0000     -11.266165      -306.5679
   3   2.0000     -11.262839      -306.4774
   4   2.0000     -11.258363      -306.3556
   5   2.0000     -11.251972      -306.1817
   6   2.0000     -11.233991      -305.6924
   7   2.0000     -11.231060      -305.6127
   8   2.0000     -11.218860      -305.2807
   9   2.0000      -1.373557       -37.3764
  10   2.0000      -1.239479       -33.7279
  11   2.0000      -1.070469       -29.1289
  12   2.0000      -0.983455       -26.7612
  13   2.0000      -0.950816       -25.8730
  14   2.0000      -0.834534       -22.7088
  15   2.0000      -0.792669       -21.5696
  16   2.0000      -0.764410       -20.8007
  17   2.0000      -0.719041       -19.5661
  18   2.0000      -0.684765       -18.6334
  19   2.0000      -0.645821       -17.5737
  20   2.0000      -0.618650       -16.8343
  21   2.0000      -0.609238       -16.5782
  22   2.0000      -0.594117       -16.1667
  23   2.0000      -0.572626       -15.5819
  24   2.0000      -0.547621       -14.9015
  25   2.0000      -0.493633       -13.4324
  26   2.0000      -0.481616       -13.1054
  27   2.0000      -0.460348       -12.5267
  28   2.0000      -0.436720       -11.8837
  29   2.0000      -0.387247       -10.5375
  30   2.0000      -0.374603       -10.1935
  31   2.0000      -0.293424        -7.9845
  32   0.0000       0.052983         1.4417
  33   0.0000       0.144882         3.9424
  34   0.0000       0.157210         4.2779
  35   0.0000       0.169310         4.6072
  36   0.0000       0.176159         4.7935

MULLIKEN ATOMIC CHARGES
-----------------------
   0 O :   -0.445805
   1 C :    0.116452
   2 C :   -0.191312
   3 C :   -0.219498
   4 C :   -0.095997
   5 C :   -0.181224
   6 C :    0.118364
   7 C :   -0.318446
   8 C :   -0.042357
   9 H :    0.326590
  10 H :    0.149552
  11 H :    0.143905
  12 H :    0.137000
  13 H :    0.120847
  14 H :    0.126182
  15 H :    0.129260
  16 H :    0.126485
Sum of atomic charges:    0.0000000

LOEWDIN ATOMIC CHARGES
----------------------
   0 O :    0.040650
   1 C :   -0.308725
   2 C :   -0.132304
   3 C :   -0.131044
   4 C :   -0.138502
   5 C :   -0.092664
   6 C :   -0.101135
   7 C :   -0.186925
   8 C :   -0.101051
   9 H :    0.185608
  10 H :    0.143176
  11 H :    0.139230
  12 H :    0.139745
  13 H :    0.136567
  14 H :    0.138649
  15 H :    0.136920
  16 H :    0.131805

  Mayer bond orders larger than 0.1
B(  0-O ,  1-C ) :   1.0480 B(  0-O ,  9-H ) :   0.8349 B(  1-C ,  2-C ) :   0.9069
B(  1-C ,  3-C ) :   0.8665 B(  1-C ,  6-C ) :   0.9305 B(  2-C ,  3-C ) :   0.8266
B(  2-C ,  8-C ) :   0.9034 B(  2-C , 10-H ) :   0.9108 B(  3-C ,  4-C ) :   0.8499
B(  3-C , 11-H ) :   0.9171 B(  4-C ,  5-C ) :   1.0187 B(  4-C ,  8-C ) :   0.8511
B(  4-C , 12-H ) :   0.8948 B(  5-C ,  6-C ) :   1.5125 B(  5-C , 13-H ) :   0.9253
B(  6-C ,  7-C ) :   0.9190 B(  7-C ,  8-C ) :   0.9270 B(  7-C , 14-H ) :   0.9029
B(  7-C , 15-H ) :   0.9162 B(  8-C , 16-H ) :   0.9015

MP2 TOTAL ENERGY:     -383.860845863 Eh
FINAL SINGLE POINT ENERGY      -383.860845862524

DIPOLE MOMENT
-------------
                                X             Y             Z
Electronic contribution:     -1.21088       2.99741      -0.72244
Nuclear contribution   :      1.07242      -3.63914       0.60667
                        -----------------------------------------
Total Dipole Moment    :     -0.13846      -0.64173      -0.11577
                        -----------------------------------------
Magnitude (a.u.)       :      0.66663
Magnitude (Debye)      :      1.69443

                             ****ORCA TERMINATED NORMALLY****
TOTAL RUN TIME: 0 days 0 hours 22 minutes 43 seconds 641 msec
