                         Program Version 3.0.3 - RELEASE   -
|  1> ! RI-MP2 RIJK def2-TZVP def2-TZVP/C def2-TZVP/JK TIGHTSCF
|  2> % maxcore 2000
|  3> % mp2 density relaxed end
|  4> *xyz 0 1
|  5>  C        0.0388280491     1.5515687754    -0.1550613515
|  6>  C       -0.0217244911     0.0381010111     0.1128369751
|  7>  C       -1.4140519962    -0.5220801488     0.0744361660
|  8>  C       -2.1222519480    -1.0178616771     1.1392361538
|  9>  N       -3.3692643473    -1.4133269296     0.6806355458
| 10>  C       -3.4465090689    -1.1728161359    -0.6581661569
| 11>  O       -4.6028461201    -1.5048341789    -1.2898193902
| 12>  C       -2.2626669426    -0.6204756481    -1.0814905257
| 13>  H        1.0706716378     1.9172954695    -0.1237780079
| 14>  H       -0.3747098934     1.7946456707    -1.1391000831
| 15>  H       -0.5427999399     2.1015953620     0.5914066867
| 16>  H        0.6087428251    -0.4776642394    -0.6238936591
| 17>  H        0.4221751486    -0.1738283269     1.0927338843
| 18>  H       -1.8538331010    -1.1263183771     2.1773729285
| 19>  H       -4.1071472610    -1.8251791024     1.2238142185
| 20>  H       -4.5119499367    -1.2761310335    -2.2194038908
| 21>  H       -2.0220815344    -0.3239657409    -2.0915045335
| 22> *
| 23>
| 24>                          ****END OF INPUT****

CARTESIAN COORDINATES (ANGSTROEM)
---------------------------------
  C      0.038828    1.551569   -0.155061
  C     -0.021724    0.038101    0.112837
  C     -1.414052   -0.522080    0.074436
  C     -2.122252   -1.017862    1.139236
  N     -3.369264   -1.413327    0.680636
  C     -3.446509   -1.172816   -0.658166
  O     -4.602846   -1.504834   -1.289819
  C     -2.262667   -0.620476   -1.081491
  H      1.070672    1.917295   -0.123778
  H     -0.374710    1.794646   -1.139100
  H     -0.542800    2.101595    0.591407
  H      0.608743   -0.477664   -0.623894
  H      0.422175   -0.173828    1.092734
  H     -1.853833   -1.126318    2.177373
  H     -4.107147   -1.825179    1.223814
  H     -4.511950   -1.276131   -2.219404
  H     -2.022082   -0.323966   -2.091505

 Total Charge           Charge          ....    0
 Multiplicity           Mult            ....    1
 Number of Electrons    NEL             ....   60
 Basis Dimension        Dim             ....  302

ORBITAL ENERGIES
----------------

  NO   OCC          E(Eh)            E(eV)
   0   2.0000     -20.597963      -560.4991
   1   2.0000     -15.594224      -424.3404
   2   2.0000     -11.318850      -308.0016
   3   2.0000     -11.236500      -305.7607
   4   2.0000     -11.219222      -305.2905
   5   2.0000     -11.213176      -305.1260
   6   2.0000     -11.206987      -304.9576
   7   2.0000     -11.197606      -304.7024
   8   2.0000      -1.419096       -38.6156
   9   2.0000      -1.277315       -34.7575
  10   2.0000      -1.071742       -29.1636
  11   2.0000      -1.002616       -27.2826
  12   2.0000      -0.958111       -26.0715
  13   2.0000      -0.853949       -23.2371
  14   2.0000      -0.803345       -21.8601
  15   2.0000      -0.745923       -20.2976
  16   2.0000      -0.745874       -20.2963
  17   2.0000      -0.654234       -17.8026
  18   2.0000      -0.619197       -16.8492
  19   2.0000      -0.613867       -16.7042
  20   2.0000      -0.596705       -16.2372
  21   2.0000      -0.587493       -15.9865
  22   2.0000      -0.558599       -15.2002
  23   2.0000      -0.527851       -14.3636
  24   2.0000      -0.527230       -14.3466
  25   2.0000      -0.501542       -13.6477
  26   2.0000      -0.483251       -13.1499
  27   2.0000      -0.470844       -12.8123
  28   2.0000      -0.339531        -9.2391
  29   2.0000      -0.277917        -7.5625
  30   0.0000       0.132106         3.5948
  31   0.0000       0.147611         4.0167
  32   0.0000       0.152948         4.1619
  33   0.0000       0.181705         4.9444
  34   0.0000       0.188096         5.1183

MULLIKEN ATOMIC CHARGES
-----------------------
   0 C :   -0.366185
   1 C :   -0.245898
   2 C :    0.095426
   3 C :   -0.166867
   4 N :   -0.265577
   5 C :    0.275639
   6 O :   -0.440365
   7 C :   -0.335171
   8 H :    0.122199
   9 H :    0.118227
  10 H :    0.122790
  11 H :    0.115911
  12 H :    0.113285
  13 H :    0.139404
  14 H :    0.247474
  15 H :    0.342629
  16 H :    0.127080
Sum of atomic charges:   -0.0000000

LOEWDIN ATOMIC CHARGES
----------------------
   0 C :   -0.311830
   1 C :   -0.256755
   2 C :   -0.198167
   3 C :   -0.222071
   4 N :    0.189225
   5 C :   -0.369349
   6 O :    0.055144
   7 C :   -0.188046
   8 H :    0.116946
   9 H :    0.119032
  10 H :    0.121001
  11 H :    0.141038
  12 H :    0.141846
  13 H :    0.132427
  14 H :    0.192853
  15 H :    0.199419
  16 H :    0.137287

  Mayer bond orders larger than 0.1
B(  0-C ,  1-C ) :   0.9169 B(  0-C ,  8-H ) :   0.9356 B(  0-C ,  9-H ) :   0.9393
B(  0-C , 10-H ) :   0.9381 B(  1-C ,  2-C ) :   0.8721 B(  1-C , 11-H ) :   0.9406
B(  1-C , 12-H ) :   0.9504 B(  2-C ,  3-C ) :   1.5176 B(  2-C ,  7-C ) :   1.1915
B(  3-C ,  4-N ) :   1.0855 B(  3-C , 13-H ) :   0.9080 B(  4-N ,  5-C ) :   1.1456
B(  4-N , 14-H ) :   0.8710 B(  5-C ,  6-O ) :   1.1018 B(  5-C ,  7-C ) :   1.4913
B(  6-O , 15-H ) :   0.8311 B(  7-C , 16-H ) :   0.9132

MP2 TOTAL ENERGY:     -363.277689090 Eh
FINAL SINGLE POINT ENERGY      -363.277689090260

DIPOLE MOMENT
-------------
                                X             Y             Z
Electronic contribution:     -8.09265      -5.54268      -0.45935
Nuclear contribution   :      7.81267       5.43157       0.39165
                        -----------------------------------------
Total Dipole Moment    :     -0.27998      -0.11110      -0.06770
                        -----------------------------------------
Magnitude (a.u.)       :      0.30873
Magnitude (Debye)      :      0.78474

                             ****ORCA TERMINATED NORMALLY****
TOTAL RUN TIME: 0 days 0 hours 11 minutes 51 seconds 394 msec
