                         Program Version 3.0.3 - RELEASE   -
|  1> ! RI-MP2 RIJK def2-TZVP def2-TZVP/C def2-TZVP/JK TIGHTSCF
|  2> % maxcore 2000
|  3> % mp2 density relaxed end
|  4> *xyz 0 1
|  5>  N        0.0223396484     1.2387202735     0.0089920138
|  6>  N        1.0494291405     2.0721142875     0.0034333365
|  7>  C        2.2633490839     1.5300868532    -0.0113756006
|  8>  C        2.4075991659     0.1433700314    -0.0202729248
|  9>  N        3.4455313875    -0.6917697519    -0.0349341667
| 10>  C        2.8222152097    -1.9111836739    -0.0354244433
| 11>  N        1.4835106042    -1.9524733614    -0.0225558896
| 12>  C        1.1757988601    -0.6369401396    -0.0124210724
| 13>  N       -0.0240509709    -0.0806207882     0.0023279957
| 14>  H       -0.8815982931     1.6918840884     0.0202844628
| 15>  H        3.0923093549     2.2285945697    -0.0157187102
| 16>  H        3.4085486489    -2.8224431987    -0.0460762813
| 17> *
| 18>
| 19>                          ****END OF INPUT****

CARTESIAN COORDINATES (ANGSTROEM)
---------------------------------
  N      0.022340    1.238720    0.008992
  N      1.049429    2.072114    0.003433
  C      2.263349    1.530087   -0.011376
  C      2.407599    0.143370   -0.020273
  N      3.445531   -0.691770   -0.034934
  C      2.822215   -1.911184   -0.035424
  N      1.483511   -1.952473   -0.022556
  C      1.175799   -0.636940   -0.012421
  N     -0.024051   -0.080621    0.002328
  H     -0.881598    1.691884    0.020284
  H      3.092309    2.228595   -0.015719
  H      3.408549   -2.822443   -0.046076

 Total Charge           Charge          ....    0
 Multiplicity           Mult            ....    1
 Number of Electrons    NEL             ....   62
 Basis Dimension        Dim             ....  297

ORBITAL ENERGIES
----------------

  NO   OCC          E(Eh)            E(eV)
   0   2.0000     -15.740858      -428.3305
   1   2.0000     -15.673688      -426.5027
   2   2.0000     -15.670424      -426.4139
   3   2.0000     -15.563602      -423.5072
   4   2.0000     -15.557911      -423.3523
   5   2.0000     -11.324237      -308.1481
   6   2.0000     -11.317169      -307.9558
   7   2.0000     -11.316040      -307.9251
   8   2.0000     -11.309068      -307.7354
   9   2.0000      -1.474380       -40.1199
  10   2.0000      -1.341493       -36.5039
  11   2.0000      -1.275779       -34.7157
  12   2.0000      -1.165557       -31.7164
  13   2.0000      -1.137846       -30.9624
  14   2.0000      -0.960121       -26.1262
  15   2.0000      -0.940942       -25.6043
  16   2.0000      -0.839649       -22.8480
  17   2.0000      -0.796058       -21.6618
  18   2.0000      -0.764434       -20.8013
  19   2.0000      -0.689201       -18.7541
  20   2.0000      -0.682995       -18.5852
  21   2.0000      -0.661730       -18.0066
  22   2.0000      -0.598108       -16.2754
  23   2.0000      -0.580769       -15.8035
  24   2.0000      -0.574642       -15.6368
  25   2.0000      -0.516125       -14.0445
  26   2.0000      -0.499226       -13.5846
  27   2.0000      -0.450515       -12.2591
  28   2.0000      -0.445079       -12.1112
  29   2.0000      -0.372781       -10.1439
  30   2.0000      -0.361525        -9.8376
  31   0.0000       0.034198         0.9306
  32   0.0000       0.081613         2.2208
  33   0.0000       0.116706         3.1757
  34   0.0000       0.157729         4.2920
  35   0.0000       0.180020         4.8986

MULLIKEN ATOMIC CHARGES
-----------------------
   0 N :    0.031946
   1 N :   -0.158477
   2 C :   -0.031020
   3 C :    0.000769
   4 N :   -0.256365
   5 C :    0.075461
   6 N :   -0.245562
   7 C :    0.101798
   8 N :   -0.106259
   9 H :    0.287691
  10 H :    0.163051
  11 H :    0.136967
Sum of atomic charges:    0.0000000

LOEWDIN ATOMIC CHARGES
----------------------
   0 N :    0.098613
   1 N :    0.040921
   2 C :   -0.156420
   3 C :   -0.257997
   4 N :    0.114351
   5 C :   -0.259911
   6 N :    0.120368
   7 C :   -0.310815
   8 N :    0.118473
   9 H :    0.206459
  10 H :    0.154449
  11 H :    0.131508

  Mayer bond orders larger than 0.1
B(  0-N ,  1-N ) :   1.0959 B(  0-N ,  8-N ) :   1.1596 B(  0-N ,  9-H ) :   0.8733
B(  1-N ,  2-C ) :   1.4663 B(  2-C ,  3-C ) :   1.2303 B(  2-C , 10-H ) :   0.9248
B(  3-C ,  4-N ) :   1.4644 B(  3-C ,  7-C ) :   1.0427 B(  4-N ,  5-C ) :   1.2971
B(  5-C ,  6-N ) :   1.3953 B(  5-C , 11-H ) :   0.9350 B(  6-N ,  7-C ) :   1.4219
B(  7-C ,  8-N ) :   1.4042

MP2 TOTAL ENERGY:     -427.133738006 Eh
FINAL SINGLE POINT ENERGY      -427.133738006157

DIPOLE MOMENT
-------------
                                X             Y             Z
Electronic contribution:     -1.39092       0.15680       0.01446
Nuclear contribution   :      0.76360       1.06133      -0.00174
                        -----------------------------------------
Total Dipole Moment    :     -0.62733       1.21813       0.01272
                        -----------------------------------------
Magnitude (a.u.)       :      1.37023
Magnitude (Debye)      :      3.48286

                             ****ORCA TERMINATED NORMALLY****
TOTAL RUN TIME: 0 days 0 hours 15 minutes 47 seconds 898 msec
