                         Program Version 3.0.3 - RELEASE   -
|  1> ! RI-MP2 RIJK def2-TZVP def2-TZVP/C def2-TZVP/JK TIGHTSCF
|  2> % maxcore 2000
|  3> % mp2 density relaxed end
|  4> *xyz 0 1
|  5>  O       -0.7316274451     1.3871308518     0.5519283185
|  6>  C       -0.0102840461     0.2807715287     0.0265745362
|  7>  C        0.9165277360    -0.3663422076     1.0613148712
|  8>  O        0.1074487267    -1.2205939733     1.8597204379
|  9>  C       -1.1613582637    -1.4360072704     1.2162601880
| 10>  C       -1.0212566850    -0.8402191605    -0.2027559731
| 11>  C       -1.5073974137    -2.8530313839     1.2274439846
| 12>  C       -1.8117638544    -4.0153740774     1.2224177704
| 13>  H       -0.0993072645     2.0312297766     0.8856573180
| 14>  H        0.5294973099     0.5585012620    -0.8895032398
| 15>  H        1.7097490441    -0.9430363591     0.5610594164
| 16>  H        1.3959095637     0.3765000829     1.7114974610
| 17>  H       -1.9237021669    -0.8745625511     1.7731111031
| 18>  H       -1.9674004358    -0.4670132533    -0.5964799618
| 19>  H       -0.6160148735    -1.5879267442    -0.8889744951
| 20>  H       -2.0775478218    -5.0434912613     1.2282723843
| 21> *
| 22>
| 23>                          ****END OF INPUT****

CARTESIAN COORDINATES (ANGSTROEM)
---------------------------------
  O     -0.731627    1.387131    0.551928
  C     -0.010284    0.280772    0.026575
  C      0.916528   -0.366342    1.061315
  O      0.107449   -1.220594    1.859720
  C     -1.161358   -1.436007    1.216260
  C     -1.021257   -0.840219   -0.202756
  C     -1.507397   -2.853031    1.227444
  C     -1.811764   -4.015374    1.222418
  H     -0.099307    2.031230    0.885657
  H      0.529497    0.558501   -0.889503
  H      1.709749   -0.943036    0.561059
  H      1.395910    0.376500    1.711497
  H     -1.923702   -0.874563    1.773111
  H     -1.967400   -0.467013   -0.596480
  H     -0.616015   -1.587927   -0.888974
  H     -2.077548   -5.043491    1.228272

 Total Charge           Charge          ....    0
 Multiplicity           Mult            ....    1
 Number of Electrons    NEL             ....   60
 Basis Dimension        Dim             ....  296

ORBITAL ENERGIES
----------------

  NO   OCC          E(Eh)            E(eV)
   0   2.0000     -20.567600      -559.6728
   1   2.0000     -20.559096      -559.4415
   2   2.0000     -11.306958      -307.6780
   3   2.0000     -11.293896      -307.3225
   4   2.0000     -11.283093      -307.0286
   5   2.0000     -11.236914      -305.7720
   6   2.0000     -11.231763      -305.6318
   7   2.0000     -11.224342      -305.4299
   8   2.0000      -1.392723       -37.8979
   9   2.0000      -1.364286       -37.1241
  10   2.0000      -1.073825       -29.2203
  11   2.0000      -1.043436       -28.3933
  12   2.0000      -0.984190       -26.7812
  13   2.0000      -0.853718       -23.2308
  14   2.0000      -0.817054       -22.2332
  15   2.0000      -0.736000       -20.0276
  16   2.0000      -0.717536       -19.5251
  17   2.0000      -0.693327       -18.8664
  18   2.0000      -0.669224       -18.2105
  19   2.0000      -0.629627       -17.1330
  20   2.0000      -0.607809       -16.5393
  21   2.0000      -0.573148       -15.5961
  22   2.0000      -0.559020       -15.2117
  23   2.0000      -0.529135       -14.3985
  24   2.0000      -0.510436       -13.8897
  25   2.0000      -0.489849       -13.3295
  26   2.0000      -0.457184       -12.4406
  27   2.0000      -0.432010       -11.7556
  28   2.0000      -0.394558       -10.7365
  29   2.0000      -0.382904       -10.4193
  30   0.0000       0.126532         3.4431
  31   0.0000       0.160568         4.3693
  32   0.0000       0.165128         4.4934
  33   0.0000       0.168903         4.5961
  34   0.0000       0.172346         4.6898

MULLIKEN ATOMIC CHARGES
-----------------------
   0 O :   -0.467771
   1 C :    0.043463
   2 C :   -0.050554
   3 O :   -0.304855
   4 C :   -0.053302
   5 C :   -0.227759
   6 C :   -0.031564
   7 C :   -0.111347
   8 H :    0.316061
   9 H :    0.107960
  10 H :    0.096032
  11 H :    0.100251
  12 H :    0.117117
  13 H :    0.138081
  14 H :    0.135809
  15 H :    0.192375
Sum of atomic charges:    0.0000000

LOEWDIN ATOMIC CHARGES
----------------------
   0 O :   -0.014666
   1 C :   -0.351015
   2 C :   -0.294081
   3 O :    0.172615
   4 C :   -0.284505
   5 C :   -0.201055
   6 C :   -0.083146
   7 C :   -0.088436
   8 H :    0.175063
   9 H :    0.134702
  10 H :    0.125030
  11 H :    0.124601
  12 H :    0.159191
  13 H :    0.148709
  14 H :    0.149669
  15 H :    0.127324

  Mayer bond orders larger than 0.1
B(  0-O ,  1-C ) :   0.9802 B(  0-O ,  8-H ) :   0.8438 B(  1-C ,  2-C ) :   0.9712
B(  1-C ,  5-C ) :   0.8910 B(  1-C ,  9-H ) :   0.9275 B(  2-C ,  3-O ) :   0.9681
B(  2-C , 10-H ) :   0.9207 B(  2-C , 11-H ) :   0.9095 B(  3-O ,  4-C ) :   0.9688
B(  4-C ,  5-C ) :   0.9452 B(  4-C ,  6-C ) :   1.1134 B(  4-C ,  7-C ) :  -0.1083
B(  4-C , 12-H ) :   0.9322 B(  5-C , 13-H ) :   0.9114 B(  5-C , 14-H ) :   0.9241
B(  6-C ,  7-C ) :   2.6001 B(  7-C , 15-H ) :   0.8903

MP2 TOTAL ENERGY:     -383.064771638 Eh
FINAL SINGLE POINT ENERGY      -383.064771637596

DIPOLE MOMENT
-------------
                                X             Y             Z
Electronic contribution:     -1.24064      -1.69825       2.33131
Nuclear contribution   :      1.71726       2.09452      -2.93637
                        -----------------------------------------
Total Dipole Moment    :      0.47662       0.39627      -0.60505
                        -----------------------------------------
Magnitude (a.u.)       :      0.86619
Magnitude (Debye)      :      2.20168

                             ****ORCA TERMINATED NORMALLY****
TOTAL RUN TIME: 0 days 0 hours 11 minutes 55 seconds 334 msec
