                         Program Version 3.0.3 - RELEASE   -
|  1> ! RI-MP2 RIJK def2-TZVP def2-TZVP/C def2-TZVP/JK TIGHTSCF
|  2> % maxcore 2000
|  3> % mp2 density relaxed end
|  4> *xyz 0 1
|  5>  C        0.0321972061     1.3605581495    -0.1584940492
|  6>  C        1.4823849259     1.8835577533     0.1450192968
|  7>  C        2.1391608670     0.6114277230     0.6059405901
|  8>  C        1.1662776741    -0.3437401561     0.6914364844
|  9>  N        1.7038966979    -1.4871632002     1.1418150452
| 10>  N        3.0494832101    -1.3256932269     1.3686512512
| 11>  C        3.3008915842    -0.0552771230     1.0463992610
| 12>  O       -0.0917417341    -0.0113564316     0.3544861858
| 13>  H       -0.7502866606     1.9509857115     0.3214705987
| 14>  H       -0.1633762986     1.3167253855    -1.2336942105
| 15>  H        1.9249860093     2.3242215434    -0.7539843557
| 16>  H        1.4692048035     2.6644699212     0.9145461743
| 17>  H        1.2745593424    -2.3796385613     1.3101694934
| 18>  H        4.3112971828     0.3143963717     1.1456292045
| 19> *
| 20>
| 21>                          ****END OF INPUT****

CARTESIAN COORDINATES (ANGSTROEM)
---------------------------------
  C      0.032197    1.360558   -0.158494
  C      1.482385    1.883558    0.145019
  C      2.139161    0.611428    0.605941
  C      1.166278   -0.343740    0.691436
  N      1.703897   -1.487163    1.141815
  N      3.049483   -1.325693    1.368651
  C      3.300892   -0.055277    1.046399
  O     -0.091742   -0.011356    0.354486
  H     -0.750287    1.950986    0.321471
  H     -0.163376    1.316725   -1.233694
  H      1.924986    2.324222   -0.753984
  H      1.469205    2.664470    0.914546
  H      1.274559   -2.379639    1.310169
  H      4.311297    0.314396    1.145629

 Total Charge           Charge          ....    0
 Multiplicity           Mult            ....    1
 Number of Electrons    NEL             ....   58
 Basis Dimension        Dim             ....  284

ORBITAL ENERGIES
----------------

  NO   OCC          E(Eh)            E(eV)
   0   2.0000     -20.602425      -560.6205
   1   2.0000     -15.630178      -425.3188
   2   2.0000     -15.574706      -423.8093
   3   2.0000     -11.324990      -308.1687
   4   2.0000     -11.304743      -307.6177
   5   2.0000     -11.258618      -306.3626
   6   2.0000     -11.252293      -306.1905
   7   2.0000     -11.208897      -305.0096
   8   2.0000      -1.436726       -39.0953
   9   2.0000      -1.352142       -36.7937
  10   2.0000      -1.103963       -30.0404
  11   2.0000      -1.069838       -29.1118
  12   2.0000      -1.008936       -27.4545
  13   2.0000      -0.867898       -23.6167
  14   2.0000      -0.820668       -22.3315
  15   2.0000      -0.787255       -21.4223
  16   2.0000      -0.735519       -20.0145
  17   2.0000      -0.690560       -18.7911
  18   2.0000      -0.637096       -17.3363
  19   2.0000      -0.604592       -16.4518
  20   2.0000      -0.603218       -16.4144
  21   2.0000      -0.576282       -15.6814
  22   2.0000      -0.571561       -15.5530
  23   2.0000      -0.529651       -14.4125
  24   2.0000      -0.515020       -14.0144
  25   2.0000      -0.496517       -13.5109
  26   2.0000      -0.446533       -12.1508
  27   2.0000      -0.366975        -9.9859
  28   2.0000      -0.311036        -8.4637
  29   0.0000       0.136157         3.7050
  30   0.0000       0.147056         4.0016
  31   0.0000       0.164697         4.4816
  32   0.0000       0.170039         4.6270
  33   0.0000       0.187236         5.0949

MULLIKEN ATOMIC CHARGES
-----------------------
   0 C :   -0.010385
   1 C :   -0.227579
   2 C :   -0.060591
   3 C :    0.202571
   4 N :   -0.151940
   5 N :   -0.202102
   6 C :   -0.145004
   7 O :   -0.292707
   8 H :    0.126019
   9 H :    0.116336
  10 H :    0.133321
  11 H :    0.125328
  12 H :    0.258577
  13 H :    0.128156
Sum of atomic charges:    0.0000000

LOEWDIN ATOMIC CHARGES
----------------------
   0 C :   -0.208687
   1 C :   -0.215124
   2 C :   -0.194825
   3 C :   -0.353682
   4 N :    0.145349
   5 N :    0.011844
   6 C :   -0.260033
   7 O :    0.221614
   8 H :    0.125634
   9 H :    0.126024
  10 H :    0.140562
  11 H :    0.139265
  12 H :    0.188928
  13 H :    0.133131

  Mayer bond orders larger than 0.1
B(  0-C ,  1-C ) :   0.9736 B(  0-C ,  7-O ) :   0.8307 B(  0-C ,  8-H ) :   0.9339
B(  0-C ,  9-H ) :   0.9289 B(  1-C ,  2-C ) :   0.9262 B(  1-C , 10-H ) :   0.9242
B(  1-C , 11-H ) :   0.9058 B(  2-C ,  3-C ) :   1.3364 B(  2-C ,  6-C ) :   1.2619
B(  3-C ,  4-N ) :   1.2282 B(  3-C ,  5-N ) :   0.1088 B(  3-C ,  7-O ) :   1.0929
B(  4-N ,  5-N ) :   0.9995 B(  4-N , 12-H ) :   0.8675 B(  5-N ,  6-C ) :   1.5693
B(  6-C , 13-H ) :   0.9437

MP2 TOTAL ENERGY:     -378.088236814 Eh
FINAL SINGLE POINT ENERGY      -378.088236814313

DIPOLE MOMENT
-------------
                                X             Y             Z
Electronic contribution:      0.44276      -4.71158       1.62182
Nuclear contribution   :     -1.17788       5.37289      -2.00477
                        -----------------------------------------
Total Dipole Moment    :     -0.73511       0.66132      -0.38295
                        -----------------------------------------
Magnitude (a.u.)       :      1.06037
Magnitude (Debye)      :      2.69524

                             ****ORCA TERMINATED NORMALLY****
TOTAL RUN TIME: 0 days 0 hours 10 minutes 53 seconds 624 msec
