                         Program Version 3.0.3 - RELEASE   -
|  1> ! RI-MP2 RIJK def2-TZVP def2-TZVP/C def2-TZVP/JK TIGHTSCF
|  2> % maxcore 2000
|  3> % mp2 density relaxed end
|  4> *xyz 0 1
|  5>  O       -0.0152843244    -0.0528065669    -0.0250665095
|  6>  C        0.0365430473     1.1486339315     0.0510463589
|  7>  C        1.3127088204     1.9672224276     0.0192834997
|  8>  C        1.3760194821     2.7994229233    -1.2816762164
|  9>  C        2.5657693278     3.7665886791    -1.2492589709
| 10>  C        2.4257004580     4.8242980727    -0.1412296730
| 11>  C        1.9277829999     4.2414892965     1.1744717018
| 12>  N        0.4742655111     4.0094586940     1.2767086014
| 13>  C        1.3872281097     2.8540778262     1.2551103259
| 14>  H       -0.8869575606     1.7633140190     0.1472467987
| 15>  H        2.1515176455     1.2617553930     0.0380755073
| 16>  H        1.4589324825     2.1173393293    -2.1337764473
| 17>  H        0.4428974334     3.3617037991    -1.4029999348
| 18>  H        3.4853998879     3.1884881536    -1.0900127267
| 19>  H        2.6736769170     4.2620608802    -2.2198014333
| 20>  H        3.3912732078     5.3147725953     0.0215088972
| 21>  H        1.7235888839     5.6044527576    -0.4569973016
| 22>  H        2.4207480635     4.6124961252     2.0703253227
| 23>  H        0.1479660811     4.1858860331     2.2225276352
| 24>  H        1.5372568261     2.3161754305     2.1894405148
| 25> *
| 26>
| 27>                          ****END OF INPUT****

CARTESIAN COORDINATES (ANGSTROEM)
---------------------------------
  O     -0.015284   -0.052807   -0.025067
  C      0.036543    1.148634    0.051046
  C      1.312709    1.967222    0.019283
  C      1.376019    2.799423   -1.281676
  C      2.565769    3.766589   -1.249259
  C      2.425700    4.824298   -0.141230
  C      1.927783    4.241489    1.174472
  N      0.474266    4.009459    1.276709
  C      1.387228    2.854078    1.255110
  H     -0.886958    1.763314    0.147247
  H      2.151518    1.261755    0.038076
  H      1.458932    2.117339   -2.133776
  H      0.442897    3.361704   -1.403000
  H      3.485400    3.188488   -1.090013
  H      2.673677    4.262061   -2.219801
  H      3.391273    5.314773    0.021509
  H      1.723589    5.604453   -0.456997
  H      2.420748    4.612496    2.070325
  H      0.147966    4.185886    2.222528
  H      1.537257    2.316175    2.189441

 Total Charge           Charge          ....    0
 Multiplicity           Mult            ....    1
 Number of Electrons    NEL             ....   68
 Basis Dimension        Dim             ....  345

ORBITAL ENERGIES
----------------

  NO   OCC          E(Eh)            E(eV)
   0   2.0000     -20.551075      -559.2232
   1   2.0000     -15.565447      -423.5574
   2   2.0000     -11.322362      -308.0971
   3   2.0000     -11.272471      -306.7395
   4   2.0000     -11.269581      -306.6609
   5   2.0000     -11.242755      -305.9309
   6   2.0000     -11.232246      -305.6450
   7   2.0000     -11.230262      -305.5910
   8   2.0000     -11.229557      -305.5718
   9   2.0000      -1.389089       -37.7990
  10   2.0000      -1.276003       -34.7218
  11   2.0000      -1.096727       -29.8435
  12   2.0000      -1.037641       -28.2356
  13   2.0000      -0.944830       -25.7101
  14   2.0000      -0.865776       -23.5590
  15   2.0000      -0.848664       -23.0933
  16   2.0000      -0.784841       -21.3566
  17   2.0000      -0.750561       -20.4238
  18   2.0000      -0.722251       -19.6535
  19   2.0000      -0.662237       -18.0204
  20   2.0000      -0.640830       -17.4379
  21   2.0000      -0.623408       -16.9638
  22   2.0000      -0.604860       -16.4591
  23   2.0000      -0.580349       -15.7921
  24   2.0000      -0.568119       -15.4593
  25   2.0000      -0.530853       -14.4452
  26   2.0000      -0.524880       -14.2827
  27   2.0000      -0.504496       -13.7280
  28   2.0000      -0.486977       -13.2513
  29   2.0000      -0.467280       -12.7153
  30   2.0000      -0.456530       -12.4228
  31   2.0000      -0.450363       -12.2550
  32   2.0000      -0.428162       -11.6509
  33   2.0000      -0.382013       -10.3951
  34   0.0000       0.123262         3.3541
  35   0.0000       0.136451         3.7130
  36   0.0000       0.143685         3.9099
  37   0.0000       0.158484         4.3126
  38   0.0000       0.170586         4.6419

MULLIKEN ATOMIC CHARGES
-----------------------
   0 O :   -0.264823
   1 C :    0.044105
   2 C :    0.035323
   3 C :   -0.269451
   4 C :   -0.222536
   5 C :   -0.209935
   6 C :   -0.050274
   7 N :   -0.424498
   8 C :   -0.060858
   9 H :    0.094690
  10 H :    0.093844
  11 H :    0.139580
  12 H :    0.129412
  13 H :    0.113408
  14 H :    0.128657
  15 H :    0.118931
  16 H :    0.117351
  17 H :    0.129720
  18 H :    0.219362
  19 H :    0.137990
Sum of atomic charges:    0.0000000

LOEWDIN ATOMIC CHARGES
----------------------
   0 O :    0.130168
   1 C :   -0.267552
   2 C :   -0.238267
   3 C :   -0.228661
   4 C :   -0.255421
   5 C :   -0.246408
   6 C :   -0.244040
   7 N :    0.003754
   8 C :   -0.231747
   9 H :    0.117513
  10 H :    0.162383
  11 H :    0.142630
  12 H :    0.147043
  13 H :    0.139571
  14 H :    0.138194
  15 H :    0.140390
  16 H :    0.145037
  17 H :    0.137287
  18 H :    0.166761
  19 H :    0.141365

  Mayer bond orders larger than 0.1
B(  0-O ,  1-C ) :   1.9939 B(  1-C ,  2-C ) :   0.8373 B(  1-C ,  9-H ) :   0.9436
B(  2-C ,  3-C ) :   0.9076 B(  2-C ,  8-C ) :   0.8893 B(  2-C , 10-H ) :   0.9104
B(  3-C ,  4-C ) :   0.9154 B(  3-C , 11-H ) :   0.9327 B(  3-C , 12-H ) :   0.9166
B(  4-C ,  5-C ) :   0.9571 B(  4-C , 13-H ) :   0.9326 B(  4-C , 14-H ) :   0.9355
B(  5-C ,  6-C ) :   0.9121 B(  5-C , 15-H ) :   0.9326 B(  5-C , 16-H ) :   0.9264
B(  6-C ,  7-N ) :   0.9149 B(  6-C ,  8-C ) :   0.8985 B(  6-C , 17-H ) :   0.9229
B(  7-N ,  8-C ) :   0.8714 B(  7-N , 18-H ) :   0.8665 B(  8-C , 19-H ) :   0.9234

MP2 TOTAL ENERGY:     -402.460957240 Eh
FINAL SINGLE POINT ENERGY      -402.460957240341

DIPOLE MOMENT
-------------
                                X             Y             Z
Electronic contribution:     -3.70695      -5.43385       2.23450
Nuclear contribution   :      4.38329       6.49474      -1.79189
                        -----------------------------------------
Total Dipole Moment    :      0.67635       1.06088       0.44261
                        -----------------------------------------
Magnitude (a.u.)       :      1.33373
Magnitude (Debye)      :      3.39006

                             ****ORCA TERMINATED NORMALLY****
TOTAL RUN TIME: 0 days 0 hours 18 minutes 48 seconds 296 msec
