                         Program Version 3.0.3 - RELEASE   -
|  1> ! RI-MP2 RIJK def2-TZVP def2-TZVP/C def2-TZVP/JK TIGHTSCF
|  2> % maxcore 2000
|  3> % mp2 density relaxed end
|  4> *xyz 0 1
|  5>  O        0.5847411437     0.1061709611     0.7227600373
|  6>  C       -0.2355907254     0.2479339124    -0.4321391024
|  7>  C       -1.5645721671    -0.4140803209    -0.2029342508
|  8>  C       -2.7546290401    -0.0001264722     0.7169356129
|  9>  C       -3.1978506722    -1.1956467734    -0.1596452615
| 10>  O       -2.5294349838    -0.5476583591    -1.3221531066
| 11>  C       -1.8593082340    -1.8801765642     0.1519290385
| 12>  C       -1.2094910040    -3.1501645253    -0.1610777393
| 13>  N       -1.4525491259    -2.7183552640     1.2533080813
| 14>  H        0.2127145498     0.6601569354     1.4169333578
| 15>  H       -0.3686703320     1.2998459078    -0.7221206473
| 16>  H        0.2868148737    -0.2595377836    -1.2492730444
| 17>  H       -2.6628851962    -0.1672577796     1.7931588334
| 18>  H       -3.2193180210     0.9526942652     0.4579959770
| 19>  H       -4.1913902006    -1.6119091400    -0.3168514482
| 20>  H       -1.7947652991    -4.0094567930    -0.4753100520
| 21>  H       -0.1893175555    -3.1319427874    -0.5357419556
| 22>  H       -0.5853421903    -2.3580006092     1.6473255700
| 23> *
| 24>
| 25>                          ****END OF INPUT****

CARTESIAN COORDINATES (ANGSTROEM)
---------------------------------
  O      0.584741    0.106171    0.722760
  C     -0.235591    0.247934   -0.432139
  C     -1.564572   -0.414080   -0.202934
  C     -2.754629   -0.000126    0.716936
  C     -3.197851   -1.195647   -0.159645
  O     -2.529435   -0.547658   -1.322153
  C     -1.859308   -1.880177    0.151929
  C     -1.209491   -3.150165   -0.161078
  N     -1.452549   -2.718355    1.253308
  H      0.212715    0.660157    1.416933
  H     -0.368670    1.299846   -0.722121
  H      0.286815   -0.259538   -1.249273
  H     -2.662885   -0.167258    1.793159
  H     -3.219318    0.952694    0.457996
  H     -4.191390   -1.611909   -0.316851
  H     -1.794765   -4.009457   -0.475310
  H     -0.189318   -3.131943   -0.535742
  H     -0.585342   -2.358001    1.647326

 Total Charge           Charge          ....    0
 Multiplicity           Mult            ....    1
 Number of Electrons    NEL             ....   68
 Basis Dimension        Dim             ....  333

ORBITAL ENERGIES
----------------

  NO   OCC          E(Eh)            E(eV)
   0   2.0000     -20.577701      -559.9477
   1   2.0000     -20.557190      -559.3896
   2   2.0000     -15.561705      -423.4555
   3   2.0000     -11.309420      -307.7450
   4   2.0000     -11.305191      -307.6299
   5   2.0000     -11.293771      -307.3191
   6   2.0000     -11.277568      -306.8782
   7   2.0000     -11.258944      -306.3715
   8   2.0000     -11.244811      -305.9869
   9   2.0000      -1.405432       -38.2438
  10   2.0000      -1.378349       -37.5068
  11   2.0000      -1.263342       -34.3773
  12   2.0000      -1.066124       -29.0107
  13   2.0000      -0.991918       -26.9915
  14   2.0000      -0.911105       -24.7924
  15   2.0000      -0.866872       -23.5888
  16   2.0000      -0.847592       -23.0642
  17   2.0000      -0.737044       -20.0560
  18   2.0000      -0.723097       -19.6765
  19   2.0000      -0.688213       -18.7272
  20   2.0000      -0.663977       -18.0677
  21   2.0000      -0.641030       -17.4433
  22   2.0000      -0.630077       -17.1453
  23   2.0000      -0.588515       -16.0143
  24   2.0000      -0.564253       -15.3541
  25   2.0000      -0.537864       -14.6360
  26   2.0000      -0.534353       -14.5405
  27   2.0000      -0.507579       -13.8119
  28   2.0000      -0.490788       -13.3550
  29   2.0000      -0.473386       -12.8815
  30   2.0000      -0.454904       -12.3786
  31   2.0000      -0.443195       -12.0599
  32   2.0000      -0.416204       -11.3255
  33   2.0000      -0.390715       -10.6319
  34   0.0000       0.118419         3.2223
  35   0.0000       0.160295         4.3618
  36   0.0000       0.164938         4.4882
  37   0.0000       0.170196         4.6313
  38   0.0000       0.186732         5.0812

MULLIKEN ATOMIC CHARGES
-----------------------
   0 O :   -0.475853
   1 C :   -0.016838
   2 C :   -0.076062
   3 C :   -0.146350
   4 C :    0.008782
   5 O :   -0.298451
   6 C :    0.139146
   7 C :   -0.210515
   8 N :   -0.394492
   9 H :    0.323171
  10 H :    0.130092
  11 H :    0.127761
  12 H :    0.122177
  13 H :    0.122594
  14 H :    0.148844
  15 H :    0.128039
  16 H :    0.134546
  17 H :    0.233409
Sum of atomic charges:   -0.0000000

LOEWDIN ATOMIC CHARGES
----------------------
   0 O :   -0.039533
   1 C :   -0.299456
   2 C :   -0.263462
   3 C :   -0.175911
   4 C :   -0.173271
   5 O :    0.154553
   6 C :   -0.259432
   7 C :   -0.221203
   8 N :    0.006484
   9 H :    0.177757
  10 H :    0.128542
  11 H :    0.141395
  12 H :    0.133420
  13 H :    0.134232
  14 H :    0.127964
  15 H :    0.129592
  16 H :    0.127643
  17 H :    0.170685

  Mayer bond orders larger than 0.1
B(  0-O ,  1-C ) :   0.8813 B(  0-O ,  9-H ) :   0.8436 B(  1-C ,  2-C ) :   0.8274
B(  1-C , 10-H ) :   0.9502 B(  1-C , 11-H ) :   0.9262 B(  2-C ,  3-C ) :   0.9028
B(  2-C ,  5-O ) :   0.9600 B(  2-C ,  6-C ) :   0.9173 B(  3-C ,  4-C ) :   0.9400
B(  3-C , 12-H ) :   0.9037 B(  3-C , 13-H ) :   0.9190 B(  4-C ,  5-O ) :   0.9191
B(  4-C ,  6-C ) :   0.8950 B(  4-C , 14-H ) :   0.8842 B(  6-C ,  7-C ) :   0.9329
B(  6-C ,  8-N ) :   0.8963 B(  7-C ,  8-N ) :   0.9677 B(  7-C , 15-H ) :   0.9131
B(  7-C , 16-H ) :   0.9224 B(  8-N , 17-H ) :   0.8638

MP2 TOTAL ENERGY:     -438.255997779 Eh
FINAL SINGLE POINT ENERGY      -438.255997778838

DIPOLE MOMENT
-------------
                                X             Y             Z
Electronic contribution:     -1.07298      -0.07414      -0.95760
Nuclear contribution   :      1.16491       0.59630       1.29244
                        -----------------------------------------
Total Dipole Moment    :      0.09193       0.52216       0.33484
                        -----------------------------------------
Magnitude (a.u.)       :      0.62707
Magnitude (Debye)      :      1.59390

                             ****ORCA TERMINATED NORMALLY****
TOTAL RUN TIME: 0 days 0 hours 17 minutes 4 seconds 97 msec
