                         Program Version 3.0.3 - RELEASE   -
|  1> ! RI-MP2 RIJK def2-TZVP def2-TZVP/C def2-TZVP/JK TIGHTSCF
|  2> % maxcore 2000
|  3> % mp2 density relaxed end
|  4> *xyz 0 1
|  5>  C       -0.0054877542     1.4287902535    -0.1623112375
|  6>  C        0.0628224812    -0.0579187694     0.0895929890
|  7>  O        0.2027343104    -0.5824496512     1.1635498856
|  8>  O       -0.0569967930    -0.7384961460    -1.0786290159
|  9>  C       -0.0127293833    -2.1438210198    -1.0168407741
| 10>  C       -0.9931968845    -3.1044483081    -0.2919514992
| 11>  C        0.0304297320    -3.9911045575    -1.0631672266
| 12>  C       -0.1366158224    -3.0227675024    -2.2756450062
| 13>  C        1.1570294978    -3.0479271415    -0.5437397896
| 14>  H        0.0934251155     1.9619951603     0.7822958094
| 15>  H        0.7915416205     1.7295141700    -0.8481822464
| 16>  H       -0.9563656015     1.6841768974    -0.6386441905
| 17>  H       -0.9417216204    -3.1184861059     0.7966267081
| 18>  H       -2.0221626461    -3.1171668843    -0.6609498913
| 19>  H        0.0548363783    -5.0769335485    -1.0981627651
| 20>  H       -1.1077677026    -3.0262744464    -2.7769202242
| 21>  H        0.6918450930    -2.9789482241    -2.9871176915
| 22>  H        2.0722318697    -3.0095085833    -1.1404306263
| 23>  H        1.3590762996    -3.0579944728     0.5271809722
| 24> *
| 25>
| 26>                          ****END OF INPUT****

CARTESIAN COORDINATES (ANGSTROEM)
---------------------------------
  C     -0.005488    1.428790   -0.162311
  C      0.062822   -0.057919    0.089593
  O      0.202734   -0.582450    1.163550
  O     -0.056997   -0.738496   -1.078629
  C     -0.012729   -2.143821   -1.016841
  C     -0.993197   -3.104448   -0.291951
  C      0.030430   -3.991105   -1.063167
  C     -0.136616   -3.022768   -2.275645
  C      1.157029   -3.047927   -0.543740
  H      0.093425    1.961995    0.782296
  H      0.791542    1.729514   -0.848182
  H     -0.956366    1.684177   -0.638644
  H     -0.941722   -3.118486    0.796627
  H     -2.022163   -3.117167   -0.660950
  H      0.054836   -5.076934   -1.098163
  H     -1.107768   -3.026274   -2.776920
  H      0.691845   -2.978948   -2.987118
  H      2.072232   -3.009509   -1.140431
  H      1.359076   -3.057994    0.527181

 Total Charge           Charge          ....    0
 Multiplicity           Mult            ....    1
 Number of Electrons    NEL             ....   68
 Basis Dimension        Dim             ....  339

ORBITAL ENERGIES
----------------

  NO   OCC          E(Eh)            E(eV)
   0   2.0000     -20.601648      -560.5993
   1   2.0000     -20.542434      -558.9880
   2   2.0000     -11.381183      -309.6977
   3   2.0000     -11.306988      -307.6788
   4   2.0000     -11.248364      -306.0835
   5   2.0000     -11.240785      -305.8773
   6   2.0000     -11.232915      -305.6632
   7   2.0000     -11.229483      -305.5698
   8   2.0000     -11.229465      -305.5693
   9   2.0000      -1.460242       -39.7352
  10   2.0000      -1.362965       -37.0882
  11   2.0000      -1.215655       -33.0796
  12   2.0000      -1.022218       -27.8160
  13   2.0000      -0.917363       -24.9627
  14   2.0000      -0.913976       -24.8706
  15   2.0000      -0.879113       -23.9219
  16   2.0000      -0.779980       -21.2243
  17   2.0000      -0.734005       -19.9733
  18   2.0000      -0.696972       -18.9656
  19   2.0000      -0.682890       -18.5824
  20   2.0000      -0.657024       -17.8785
  21   2.0000      -0.621223       -16.9043
  22   2.0000      -0.618090       -16.8191
  23   2.0000      -0.586822       -15.9682
  24   2.0000      -0.574371       -15.6294
  25   2.0000      -0.566846       -15.4247
  26   2.0000      -0.507207       -13.8018
  27   2.0000      -0.495418       -13.4810
  28   2.0000      -0.487557       -13.2671
  29   2.0000      -0.461202       -12.5499
  30   2.0000      -0.457881       -12.4596
  31   2.0000      -0.451108       -12.2753
  32   2.0000      -0.437288       -11.8992
  33   2.0000      -0.426973       -11.6185
  34   0.0000       0.140133         3.8132
  35   0.0000       0.153478         4.1764
  36   0.0000       0.166533         4.5316
  37   0.0000       0.177007         4.8166
  38   0.0000       0.182749         4.9729

MULLIKEN ATOMIC CHARGES
-----------------------
   0 C :   -0.400859
   1 C :    0.339214
   2 O :   -0.332063
   3 O :   -0.267491
   4 C :    0.084883
   5 C :   -0.210656
   6 C :   -0.173842
   7 C :   -0.162801
   8 C :   -0.210598
   9 H :    0.153467
  10 H :    0.150609
  11 H :    0.150588
  12 H :    0.136633
  13 H :    0.114746
  14 H :    0.144830
  15 H :    0.115978
  16 H :    0.115999
  17 H :    0.114734
  18 H :    0.136631
Sum of atomic charges:   -0.0000000

LOEWDIN ATOMIC CHARGES
----------------------
   0 C :   -0.272468
   1 C :   -0.484395
   2 O :    0.130604
   3 O :    0.285476
   4 C :   -0.296426
   5 C :   -0.174686
   6 C :   -0.176992
   7 C :   -0.171747
   8 C :   -0.174733
   9 H :    0.135471
  10 H :    0.139339
  11 H :    0.139409
  12 H :    0.135338
  13 H :    0.129838
  14 H :    0.128687
  15 H :    0.131046
  16 H :    0.131068
  17 H :    0.129848
  18 H :    0.135324

  Mayer bond orders larger than 0.1
B(  0-C ,  1-C ) :   0.9284 B(  0-C ,  9-H ) :   0.9440 B(  0-C , 10-H ) :   0.9161
B(  0-C , 11-H ) :   0.9160 B(  1-C ,  2-O ) :   1.9500 B(  1-C ,  3-O ) :   1.0508
B(  3-O ,  4-C ) :   0.8482 B(  4-C ,  5-C ) :   0.8981 B(  4-C ,  7-C ) :   0.9173
B(  4-C ,  8-C ) :   0.8981 B(  5-C ,  6-C ) :   0.9113 B(  5-C , 12-H ) :   0.9233
B(  5-C , 13-H ) :   0.9287 B(  6-C ,  7-C ) :   0.9044 B(  6-C ,  8-C ) :   0.9113
B(  6-C , 14-H ) :   0.8949 B(  7-C , 15-H ) :   0.9299 B(  7-C , 16-H ) :   0.9299
B(  8-C , 17-H ) :   0.9287 B(  8-C , 18-H ) :   0.9233

MP2 TOTAL ENERGY:     -422.312191290 Eh
FINAL SINGLE POINT ENERGY      -422.312191290245

DIPOLE MOMENT
-------------
                                X             Y             Z
Electronic contribution:      0.16159       1.55140       1.72741
Nuclear contribution   :     -0.23326      -1.49479      -2.32536
                        -----------------------------------------
Total Dipole Moment    :     -0.07167       0.05661      -0.59795
                        -----------------------------------------
Magnitude (a.u.)       :      0.60488
Magnitude (Debye)      :      1.53749

                             ****ORCA TERMINATED NORMALLY****
TOTAL RUN TIME: 0 days 0 hours 18 minutes 53 seconds 703 msec
