                         Program Version 3.0.3 - RELEASE   -
|  1> ! RI-MP2 RIJK def2-TZVP def2-TZVP/C def2-TZVP/JK TIGHTSCF
|  2> % maxcore 2000
|  3> % mp2 density relaxed end
|  4> *xyz 0 1
|  5>  O        0.3902701118     1.1331681086    -0.5062271512
|  6>  C        0.0792862424    -0.1522137218    -0.0312168902
|  7>  C        0.2330558773    -0.2887173230     1.5037710711
|  8>  C       -1.2804612308    -0.7051165576     1.6178971979
|  9>  C       -2.1941126863     0.3252875527     2.2185660321
| 10>  C       -2.8071189623     1.0829997960     1.2970734285
| 11>  C       -2.3648200275     0.6979936247    -0.0633925775
| 12>  O       -2.6072668109     1.2619389217    -1.1100524816
| 13>  C       -1.4443337385    -0.5094555753     0.0923366001
| 14>  H       -0.1681459076     1.3121509798    -1.2730302333
| 15>  H        0.6308425017    -0.9253802385    -0.5832093897
| 16>  H        0.9397911855    -1.0544064956     1.8276952408
| 17>  H        0.4772996832     0.6591269635     1.9862568895
| 18>  H       -1.4405981928    -1.7062206747     2.0236946476
| 19>  H       -2.2943808493     0.4493139324     3.2925429614
| 20>  H       -3.4843003185     1.9083086566     1.4759146381
| 21>  H       -1.7803532074    -1.3477682795    -0.5191322836
| 22> *
| 23>
| 24>                          ****END OF INPUT****

CARTESIAN COORDINATES (ANGSTROEM)
---------------------------------
  O      0.390270    1.133168   -0.506227
  C      0.079286   -0.152214   -0.031217
  C      0.233056   -0.288717    1.503771
  C     -1.280461   -0.705117    1.617897
  C     -2.194113    0.325288    2.218566
  C     -2.807119    1.083000    1.297073
  C     -2.364820    0.697994   -0.063393
  O     -2.607267    1.261939   -1.110052
  C     -1.444334   -0.509456    0.092337
  H     -0.168146    1.312151   -1.273030
  H      0.630843   -0.925380   -0.583209
  H      0.939791   -1.054406    1.827695
  H      0.477300    0.659127    1.986257
  H     -1.440598   -1.706221    2.023695
  H     -2.294381    0.449314    3.292543
  H     -3.484300    1.908309    1.475915
  H     -1.780353   -1.347768   -0.519132

 Total Charge           Charge          ....    0
 Multiplicity           Mult            ....    1
 Number of Electrons    NEL             ....   66
 Basis Dimension        Dim             ....  327

ORBITAL ENERGIES
----------------

  NO   OCC          E(Eh)            E(eV)
   0   2.0000     -20.557618      -559.4012
   1   2.0000     -20.542423      -558.9877
   2   2.0000     -11.332878      -308.3833
   3   2.0000     -11.295484      -307.3658
   4   2.0000     -11.271934      -306.7249
   5   2.0000     -11.255317      -306.2728
   6   2.0000     -11.243565      -305.9530
   7   2.0000     -11.243260      -305.9447
   8   2.0000     -11.237578      -305.7901
   9   2.0000      -1.387089       -37.7446
  10   2.0000      -1.366448       -37.1829
  11   2.0000      -1.179194       -32.0875
  12   2.0000      -1.066702       -29.0264
  13   2.0000      -0.960375       -26.1331
  14   2.0000      -0.914125       -24.8746
  15   2.0000      -0.841854       -22.9080
  16   2.0000      -0.759947       -20.6792
  17   2.0000      -0.743835       -20.2408
  18   2.0000      -0.704755       -19.1773
  19   2.0000      -0.679257       -18.4835
  20   2.0000      -0.670718       -18.2512
  21   2.0000      -0.615834       -16.7577
  22   2.0000      -0.610333       -16.6080
  23   2.0000      -0.584872       -15.9152
  24   2.0000      -0.569451       -15.4955
  25   2.0000      -0.536200       -14.5907
  26   2.0000      -0.529493       -14.4082
  27   2.0000      -0.510879       -13.9017
  28   2.0000      -0.499052       -13.5799
  29   2.0000      -0.457961       -12.4617
  30   2.0000      -0.428386       -11.6570
  31   2.0000      -0.405165       -11.0251
  32   2.0000      -0.380254       -10.3472
  33   0.0000       0.087312         2.3759
  34   0.0000       0.132830         3.6145
  35   0.0000       0.153402         4.1743
  36   0.0000       0.170551         4.6409
  37   0.0000       0.173461         4.7201

MULLIKEN ATOMIC CHARGES
-----------------------
   0 O :   -0.460551
   1 C :    0.013078
   2 C :   -0.199446
   3 C :   -0.036724
   4 C :   -0.178900
   5 C :   -0.175383
   6 C :    0.145877
   7 O :   -0.311790
   8 C :   -0.013510
   9 H :    0.335399
  10 H :    0.084751
  11 H :    0.128308
  12 H :    0.117729
  13 H :    0.125507
  14 H :    0.143041
  15 H :    0.146393
  16 H :    0.136220
Sum of atomic charges:    0.0000000

LOEWDIN ATOMIC CHARGES
----------------------
   0 O :   -0.007465
   1 C :   -0.297242
   2 C :   -0.180585
   3 C :   -0.179327
   4 C :   -0.084286
   5 C :   -0.110946
   6 C :   -0.304794
   7 O :    0.128278
   8 C :   -0.145516
   9 H :    0.184367
  10 H :    0.129794
  11 H :    0.132054
  12 H :    0.141552
  13 H :    0.148821
  14 H :    0.143397
  15 H :    0.146669
  16 H :    0.155229

  Mayer bond orders larger than 0.1
B(  0-O ,  1-C ) :   1.0537 B(  0-O ,  9-H ) :   0.8250 B(  1-C ,  2-C ) :   0.8966
B(  1-C ,  8-C ) :   0.9119 B(  1-C , 10-H ) :   0.9795 B(  2-C ,  3-C ) :   0.8918
B(  2-C , 11-H ) :   0.9168 B(  2-C , 12-H ) :   0.8905 B(  3-C ,  4-C ) :   0.9332
B(  3-C ,  8-C ) :   0.9202 B(  3-C , 13-H ) :   0.8961 B(  4-C ,  5-C ) :   1.6721
B(  4-C , 14-H ) :   0.9123 B(  5-C ,  6-C ) :   0.9962 B(  5-C , 15-H ) :   0.9174
B(  6-C ,  7-O ) :   1.9438 B(  6-C ,  8-C ) :   0.8670 B(  8-C , 16-H ) :   0.9006

MP2 TOTAL ENERGY:     -421.133666197 Eh
FINAL SINGLE POINT ENERGY      -421.133666196983

DIPOLE MOMENT
-------------
                                X             Y             Z
Electronic contribution:     -3.01819       2.31349      -2.96515
Nuclear contribution   :      3.00506      -3.23729       3.92674
                        -----------------------------------------
Total Dipole Moment    :     -0.01313      -0.92380       0.96159
                        -----------------------------------------
Magnitude (a.u.)       :      1.33350
Magnitude (Debye)      :      3.38949

                             ****ORCA TERMINATED NORMALLY****
TOTAL RUN TIME: 0 days 0 hours 18 minutes 42 seconds 721 msec
