                         Program Version 3.0.3 - RELEASE   -
|  1> ! RI-MP2 RIJK def2-TZVP def2-TZVP/C def2-TZVP/JK TIGHTSCF
|  2> % maxcore 2000
|  3> % mp2 density relaxed end
|  4> *xyz 0 1
|  5>  O       -0.1115814660     1.3252360058    -0.1341858433
|  6>  C       -0.2284874757    -0.0578051009    -0.1383582710
|  7>  C       -0.4686254206    -0.8352835668     1.1230870880
|  8>  N       -1.2790811737     0.0496804507     1.9930794408
|  9>  C       -2.4370783384    -0.0638510624     1.0348921154
| 10>  C       -1.5411440066    -0.7945295465     0.0340227976
| 11>  O       -2.0009488892    -1.7993652000    -0.8063302085
| 12>  C       -2.2099781674    -1.4540891282    -2.1047893897
| 13>  N       -2.6863011924    -2.3050007959    -2.9019211917
| 14>  H       -0.3165064421     1.5950420255     0.7752804195
| 15>  H        0.4453651838    -0.5375581797    -0.8436637622
| 16>  H        0.1690308520    -1.6205752184     1.5099585007
| 17>  H       -1.4934218964    -0.3888585086     2.8813438482
| 18>  H       -3.2278640526    -0.7205519635     1.4070444356
| 19>  H       -2.8617481382     0.8980976805     0.7303573643
| 20>  H       -1.9198581085    -0.4199539123    -2.3256136593
| 21>  H       -2.7744895579    -1.8979222891    -3.8308952444
| 22> *
| 23>
| 24>                          ****END OF INPUT****

CARTESIAN COORDINATES (ANGSTROEM)
---------------------------------
  O     -0.111581    1.325236   -0.134186
  C     -0.228487   -0.057805   -0.138358
  C     -0.468625   -0.835284    1.123087
  N     -1.279081    0.049680    1.993079
  C     -2.437078   -0.063851    1.034892
  C     -1.541144   -0.794530    0.034023
  O     -2.000949   -1.799365   -0.806330
  C     -2.209978   -1.454089   -2.104789
  N     -2.686301   -2.305001   -2.901921
  H     -0.316506    1.595042    0.775280
  H      0.445365   -0.537558   -0.843664
  H      0.169031   -1.620575    1.509959
  H     -1.493422   -0.388859    2.881344
  H     -3.227864   -0.720552    1.407044
  H     -2.861748    0.898098    0.730357
  H     -1.919858   -0.419954   -2.325614
  H     -2.774490   -1.897922   -3.830895

 Total Charge           Charge          ....    0
 Multiplicity           Mult            ....    1
 Number of Electrons    NEL             ....   68
 Basis Dimension        Dim             ....  327

ORBITAL ENERGIES
----------------

  NO   OCC          E(Eh)            E(eV)
   0   2.0000     -20.606704      -560.7369
   1   2.0000     -20.566474      -559.6422
   2   2.0000     -15.575131      -423.8209
   3   2.0000     -15.546388      -423.0387
   4   2.0000     -11.343231      -308.6650
   5   2.0000     -11.308576      -307.7220
   6   2.0000     -11.301808      -307.5378
   7   2.0000     -11.281155      -306.9758
   8   2.0000     -11.276932      -306.8609
   9   2.0000      -1.443726       -39.2858
  10   2.0000      -1.384280       -37.6682
  11   2.0000      -1.271534       -34.6002
  12   2.0000      -1.204267       -32.7698
  13   2.0000      -1.076450       -29.2917
  14   2.0000      -0.957286       -26.0491
  15   2.0000      -0.868119       -23.6227
  16   2.0000      -0.824682       -22.4407
  17   2.0000      -0.784816       -21.3559
  18   2.0000      -0.751511       -20.4496
  19   2.0000      -0.702761       -19.1231
  20   2.0000      -0.688010       -18.7217
  21   2.0000      -0.648937       -17.6585
  22   2.0000      -0.637780       -17.3549
  23   2.0000      -0.626732       -17.0542
  24   2.0000      -0.606743       -16.5103
  25   2.0000      -0.579788       -15.7768
  26   2.0000      -0.545265       -14.8374
  27   2.0000      -0.535831       -14.5807
  28   2.0000      -0.531749       -14.4696
  29   2.0000      -0.461552       -12.5595
  30   2.0000      -0.445272       -12.1165
  31   2.0000      -0.416870       -11.3436
  32   2.0000      -0.396889       -10.7999
  33   2.0000      -0.378795       -10.3075
  34   0.0000       0.126094         3.4312
  35   0.0000       0.146751         3.9933
  36   0.0000       0.150828         4.1042
  37   0.0000       0.160563         4.3691
  38   0.0000       0.172217         4.6863

MULLIKEN ATOMIC CHARGES
-----------------------
   0 O :   -0.465313
   1 C :    0.001463
   2 C :   -0.047372
   3 N :   -0.398940
   4 C :   -0.156544
   5 C :    0.085868
   6 O :   -0.208515
   7 C :    0.047704
   8 N :   -0.332146
   9 H :    0.343869
  10 H :    0.141872
  11 H :    0.148623
  12 H :    0.218214
  13 H :    0.144831
  14 H :    0.129559
  15 H :    0.116978
  16 H :    0.229848
Sum of atomic charges:    0.0000000

LOEWDIN ATOMIC CHARGES
----------------------
   0 O :    0.004154
   1 C :   -0.301035
   2 C :   -0.196056
   3 N :   -0.020732
   4 C :   -0.216297
   5 C :   -0.304198
   6 O :    0.290588
   7 C :   -0.379039
   8 N :   -0.073806
   9 H :    0.189588
  10 H :    0.154915
  11 H :    0.135773
  12 H :    0.166279
  13 H :    0.135664
  14 H :    0.126253
  15 H :    0.117545
  16 H :    0.170404

  Mayer bond orders larger than 0.1
B(  0-O ,  1-C ) :   0.9955 B(  0-O ,  9-H ) :   0.8034 B(  1-C ,  2-C ) :   0.9134
B(  1-C ,  5-C ) :   0.8499 B(  1-C , 10-H ) :   0.9521 B(  2-C ,  3-N ) :   0.9325
B(  2-C ,  5-C ) :   0.8575 B(  2-C , 11-H ) :   0.8957 B(  3-N ,  4-C ) :   0.8953
B(  3-N , 12-H ) :   0.8799 B(  4-C ,  5-C ) :   0.9136 B(  4-C , 13-H ) :   0.9231
B(  4-C , 14-H ) :   0.9207 B(  5-C ,  6-O ) :   0.9589 B(  6-O ,  7-C ) :   0.9944
B(  7-C ,  8-N ) :   1.9718 B(  7-C , 15-H ) :   0.9273 B(  8-N , 16-H ) :   0.8483

MP2 TOTAL ENERGY:     -454.339815624 Eh
FINAL SINGLE POINT ENERGY      -454.339815624091

DIPOLE MOMENT
-------------
                                X             Y             Z
Electronic contribution:      0.45830      -1.44204      -1.26638
Nuclear contribution   :     -0.44882       1.83771       1.92015
                        -----------------------------------------
Total Dipole Moment    :      0.00948       0.39567       0.65377
                        -----------------------------------------
Magnitude (a.u.)       :      0.76424
Magnitude (Debye)      :      1.94254

                             ****ORCA TERMINATED NORMALLY****
TOTAL RUN TIME: 0 days 0 hours 14 minutes 30 seconds 347 msec
