                         Program Version 3.0.3 - RELEASE   -
|  1> ! RI-MP2 RIJK def2-TZVP def2-TZVP/C def2-TZVP/JK TIGHTSCF
|  2> % maxcore 2000
|  3> % mp2 density relaxed end
|  4> *xyz 0 1
|  5>  C       -0.0228502839     1.4857976546    -0.0109718147
|  6>  C       -0.0225381444    -0.0240062916    -0.0624261421
|  7>  C        0.7344489315    -0.7091942162    -1.1328527714
|  8>  N        1.2864252769    -0.6274974500     0.2683289678
|  9>  C        1.2142778598    -2.1503980048     0.3213594333
| 10>  C        2.3207077344    -2.8226425557     1.0728416782
| 11>  C       -0.1244896435    -2.7775494248     0.0214058321
| 12>  C        0.7249403746    -2.2515981522    -1.1115990640
| 13>  C        1.1967311499    -3.0739783171    -2.2750656962
| 14>  H        0.9130712157     1.8879667880    -0.4083532579
| 15>  H       -0.8542477964     1.8922422568    -0.5967726520
| 16>  H       -0.1277738432     1.8350500879     1.0211964254
| 17>  H       -0.9232047912    -0.4780679551     0.3366114986
| 18>  H        1.2156827454    -0.1583270543    -1.9377328616
| 19>  H        2.2057447512    -2.6675070608     2.1524721022
| 20>  H        2.3252750322    -3.9009621589     0.8861318386
| 21>  H        3.2930976155    -2.4135578595     0.7807133105
| 22>  H       -0.0987185280    -3.8611681017     0.1030575236
| 23>  H       -1.0856899105    -2.3606741067     0.3019378374
| 24>  H        0.4494348257    -3.0967615060    -3.0781230045
| 25>  H        2.1243684142    -2.6712296890    -2.6984920545
| 26>  H        1.3885213941    -4.1090265528    -1.9749930088
| 27> *
| 28>
| 29>                          ****END OF INPUT****

CARTESIAN COORDINATES (ANGSTROEM)
---------------------------------
  C     -0.022850    1.485798   -0.010972
  C     -0.022538   -0.024006   -0.062426
  C      0.734449   -0.709194   -1.132853
  N      1.286425   -0.627497    0.268329
  C      1.214278   -2.150398    0.321359
  C      2.320708   -2.822643    1.072842
  C     -0.124490   -2.777549    0.021406
  C      0.724940   -2.251598   -1.111599
  C      1.196731   -3.073978   -2.275066
  H      0.913071    1.887967   -0.408353
  H     -0.854248    1.892242   -0.596773
  H     -0.127774    1.835050    1.021196
  H     -0.923205   -0.478068    0.336611
  H      1.215683   -0.158327   -1.937733
  H      2.205745   -2.667507    2.152472
  H      2.325275   -3.900962    0.886132
  H      3.293098   -2.413558    0.780713
  H     -0.098719   -3.861168    0.103058
  H     -1.085690   -2.360674    0.301938
  H      0.449435   -3.096762   -3.078123
  H      2.124368   -2.671230   -2.698492
  H      1.388521   -4.109027   -1.974993

 Total Charge           Charge          ....    0
 Multiplicity           Mult            ....    1
 Number of Electrons    NEL             ....   68
 Basis Dimension        Dim             ....  357

ORBITAL ENERGIES
----------------

  NO   OCC          E(Eh)            E(eV)
   0   2.0000     -15.549340      -423.1191
   1   2.0000     -11.262669      -306.4728
   2   2.0000     -11.258610      -306.3624
   3   2.0000     -11.255759      -306.2848
   4   2.0000     -11.238954      -305.8275
   5   2.0000     -11.227596      -305.5184
   6   2.0000     -11.222596      -305.3824
   7   2.0000     -11.215555      -305.1908
   8   2.0000     -11.214969      -305.1748
   9   2.0000      -1.294596       -35.2278
  10   2.0000      -1.121011       -30.5043
  11   2.0000      -1.002340       -27.2750
  12   2.0000      -0.979153       -26.6441
  13   2.0000      -0.953639       -25.9498
  14   2.0000      -0.860762       -23.4225
  15   2.0000      -0.840569       -22.8731
  16   2.0000      -0.755766       -20.5654
  17   2.0000      -0.685893       -18.6641
  18   2.0000      -0.681659       -18.5489
  19   2.0000      -0.638352       -17.3705
  20   2.0000      -0.586892       -15.9701
  21   2.0000      -0.580935       -15.8081
  22   2.0000      -0.567732       -15.4488
  23   2.0000      -0.564828       -15.3697
  24   2.0000      -0.551985       -15.0203
  25   2.0000      -0.547211       -14.8904
  26   2.0000      -0.537050       -14.6139
  27   2.0000      -0.511425       -13.9166
  28   2.0000      -0.509919       -13.8756
  29   2.0000      -0.457756       -12.4562
  30   2.0000      -0.443785       -12.0760
  31   2.0000      -0.432938       -11.7808
  32   2.0000      -0.365976        -9.9587
  33   2.0000      -0.326682        -8.8895
  34   0.0000       0.136335         3.7099
  35   0.0000       0.154808         4.2125
  36   0.0000       0.166111         4.5201
  37   0.0000       0.173719         4.7271
  38   0.0000       0.185693         5.0530

MULLIKEN ATOMIC CHARGES
-----------------------
   0 C :   -0.432566
   1 C :    0.082739
   2 C :   -0.116063
   3 N :   -0.267650
   4 C :    0.090166
   5 C :   -0.406343
   6 C :   -0.259619
   7 C :    0.045604
   8 C :   -0.419866
   9 H :    0.140071
  10 H :    0.127106
  11 H :    0.134300
  12 H :    0.110099
  13 H :    0.123694
  14 H :    0.135467
  15 H :    0.121245
  16 H :    0.136371
  17 H :    0.128014
  18 H :    0.123771
  19 H :    0.138749
  20 H :    0.134356
  21 H :    0.130356
Sum of atomic charges:    0.0000000

LOEWDIN ATOMIC CHARGES
----------------------
   0 C :   -0.287909
   1 C :   -0.264265
   2 C :   -0.156991
   3 N :    0.157192
   4 C :   -0.235202
   5 C :   -0.272501
   6 C :   -0.176381
   7 C :   -0.207079
   8 C :   -0.273170
   9 H :    0.131094
  10 H :    0.125618
  11 H :    0.127339
  12 H :    0.140047
  13 H :    0.138076
  14 H :    0.131663
  15 H :    0.128959
  16 H :    0.131300
  17 H :    0.146808
  18 H :    0.126182
  19 H :    0.129508
  20 H :    0.129494
  21 H :    0.130218

  Mayer bond orders larger than 0.1
B(  0-C ,  1-C ) :   0.8716 B(  0-C ,  9-H ) :   0.9427 B(  0-C , 10-H ) :   0.9364
B(  0-C , 11-H ) :   0.9403 B(  1-C ,  2-C ) :   0.9436 B(  1-C ,  3-N ) :   0.8454
B(  1-C , 12-H ) :   0.8976 B(  2-C ,  3-N ) :   0.8743 B(  2-C ,  7-C ) :   0.9252
B(  2-C , 13-H ) :   0.8904 B(  3-N ,  4-C ) :   0.9286 B(  4-C ,  5-C ) :   0.9041
B(  4-C ,  6-C ) :   0.8993 B(  4-C ,  7-C ) :   0.8472 B(  5-C , 14-H ) :   0.9357
B(  5-C , 15-H ) :   0.9328 B(  5-C , 16-H ) :   0.9371 B(  6-C ,  7-C ) :   0.8731
B(  6-C , 17-H ) :   0.9237 B(  6-C , 18-H ) :   0.8911 B(  7-C ,  8-C ) :   0.8789
B(  8-C , 19-H ) :   0.9422 B(  8-C , 20-H ) :   0.9382 B(  8-C , 21-H ) :   0.9392

MP2 TOTAL ENERGY:     -366.477485409 Eh
FINAL SINGLE POINT ENERGY      -366.477485409246

DIPOLE MOMENT
-------------
                                X             Y             Z
Electronic contribution:     -0.48174       0.97960       0.59634
Nuclear contribution   :      0.13522      -1.32538      -0.87698
                        -----------------------------------------
Total Dipole Moment    :     -0.34652      -0.34578      -0.28064
                        -----------------------------------------
Magnitude (a.u.)       :      0.56427
Magnitude (Debye)      :      1.43426

                             ****ORCA TERMINATED NORMALLY****
TOTAL RUN TIME: 0 days 0 hours 21 minutes 0 seconds 906 msec
