                         Program Version 3.0.3 - RELEASE   -
|  1> ! RI-MP2 RIJK def2-TZVP def2-TZVP/C def2-TZVP/JK TIGHTSCF
|  2> % maxcore 2000
|  3> % mp2 density relaxed end
|  4> *xyz 0 1
|  5>  C        0.0102024300     1.5519164732     0.1300999183
|  6>  O        1.4530000985     1.4652785107    -0.2211209857
|  7>  C        1.1226116252     0.1840327614    -0.7688868714
|  8>  C       -0.1498919663    -0.0023145659     0.0101944307
|  9>  C       -0.2726417185    -0.9566695425    -1.2069686262
| 10>  C        0.3784522788     0.0718565556    -2.1573603953
| 11>  C        1.3117388838    -0.6774641258    -3.0989707526
| 12>  O        1.8673773407    -1.6762719776    -2.2145492869
| 13>  C        1.2963634557    -1.3536322446    -0.9879609075
| 14>  H       -0.1137643440     1.9425633977     1.1418049206
| 15>  H       -0.5236387336     2.1769577893    -0.5906604932
| 16>  H       -0.0474290595    -0.4884377625     0.9825249784
| 17>  H       -1.0500839833    -1.6800316505    -1.4573052710
| 18>  H       -0.1957418269     0.9100346285    -2.5460414583
| 19>  H        0.8047031648    -1.1768171926    -3.9328272143
| 20>  H        2.1141248063    -0.0444253169    -3.4972979902
| 21>  H        1.6088464684    -2.0279042576    -0.1924104455
| 22> *
| 23>
| 24>                          ****END OF INPUT****

CARTESIAN COORDINATES (ANGSTROEM)
---------------------------------
  C      0.010202    1.551916    0.130100
  O      1.453000    1.465279   -0.221121
  C      1.122612    0.184033   -0.768887
  C     -0.149892   -0.002315    0.010194
  C     -0.272642   -0.956670   -1.206969
  C      0.378452    0.071857   -2.157360
  C      1.311739   -0.677464   -3.098971
  O      1.867377   -1.676272   -2.214549
  C      1.296363   -1.353632   -0.987961
  H     -0.113764    1.942563    1.141805
  H     -0.523639    2.176958   -0.590660
  H     -0.047429   -0.488438    0.982525
  H     -1.050084   -1.680032   -1.457305
  H     -0.195742    0.910035   -2.546041
  H      0.804703   -1.176817   -3.932827
  H      2.114125   -0.044425   -3.497298
  H      1.608846   -2.027904   -0.192410

 Total Charge           Charge          ....    0
 Multiplicity           Mult            ....    1
 Number of Electrons    NEL             ....   66
 Basis Dimension        Dim             ....  327

ORBITAL ENERGIES
----------------

  NO   OCC          E(Eh)            E(eV)
   0   2.0000     -20.565287      -559.6099
   1   2.0000     -20.563089      -559.5501
   2   2.0000     -11.313814      -307.8645
   3   2.0000     -11.303944      -307.5960
   4   2.0000     -11.300909      -307.5134
   5   2.0000     -11.281854      -306.9949
   6   2.0000     -11.268518      -306.6320
   7   2.0000     -11.246006      -306.0194
   8   2.0000     -11.232520      -305.6524
   9   2.0000      -1.408106       -38.3165
  10   2.0000      -1.380876       -37.5755
  11   2.0000      -1.194559       -32.5056
  12   2.0000      -1.006849       -27.3977
  13   2.0000      -0.968774       -26.3617
  14   2.0000      -0.865882       -23.5618
  15   2.0000      -0.845707       -23.0129
  16   2.0000      -0.824963       -22.4484
  17   2.0000      -0.743340       -20.2273
  18   2.0000      -0.693772       -18.8785
  19   2.0000      -0.669449       -18.2166
  20   2.0000      -0.656085       -17.8530
  21   2.0000      -0.626111       -17.0374
  22   2.0000      -0.617507       -16.8032
  23   2.0000      -0.581100       -15.8125
  24   2.0000      -0.540809       -14.7161
  25   2.0000      -0.535127       -14.5615
  26   2.0000      -0.517898       -14.0927
  27   2.0000      -0.502679       -13.6786
  28   2.0000      -0.480376       -13.0717
  29   2.0000      -0.461722       -12.5641
  30   2.0000      -0.426048       -11.5934
  31   2.0000      -0.392085       -10.6692
  32   2.0000      -0.369042       -10.0421
  33   0.0000       0.143231         3.8975
  34   0.0000       0.153251         4.1702
  35   0.0000       0.159644         4.3441
  36   0.0000       0.165233         4.4962
  37   0.0000       0.188284         5.1235

MULLIKEN ATOMIC CHARGES
-----------------------
   0 C :   -0.029253
   1 O :   -0.310943
   2 C :    0.087257
   3 C :   -0.177510
   4 C :   -0.120231
   5 C :   -0.141873
   6 C :   -0.046340
   7 O :   -0.311098
   8 C :    0.087913
   9 H :    0.122402
  10 H :    0.108009
  11 H :    0.097439
  12 H :    0.144199
  13 H :    0.128052
  14 H :    0.113769
  15 H :    0.114692
  16 H :    0.133516
Sum of atomic charges:    0.0000000

LOEWDIN ATOMIC CHARGES
----------------------
   0 C :   -0.213099
   1 O :    0.133760
   2 C :   -0.256376
   3 C :   -0.162147
   4 C :   -0.121703
   5 C :   -0.160914
   6 C :   -0.249792
   7 O :    0.178061
   8 C :   -0.211698
   9 H :    0.124539
  10 H :    0.121531
  11 H :    0.145767
  12 H :    0.130473
  13 H :    0.146000
  14 H :    0.126060
  15 H :    0.128309
  16 H :    0.141229

  Mayer bond orders larger than 0.1
B(  0-C ,  1-O ) :   0.8959 B(  0-C ,  3-C ) :   0.9510 B(  0-C ,  9-H ) :   0.9064
B(  0-C , 10-H ) :   0.9077 B(  1-O ,  2-C ) :   0.9572 B(  2-C ,  3-C ) :   0.8655
B(  2-C ,  5-C ) :   0.8451 B(  2-C ,  8-C ) :   0.8897 B(  3-C ,  4-C ) :   0.9058
B(  3-C , 11-H ) :   0.9245 B(  4-C ,  5-C ) :   0.8708 B(  4-C ,  8-C ) :   0.8482
B(  4-C , 12-H ) :   0.8862 B(  5-C ,  6-C ) :   0.9730 B(  5-C , 13-H ) :   0.9017
B(  6-C ,  7-O ) :   0.9076 B(  6-C , 14-H ) :   0.9202 B(  6-C , 15-H ) :   0.9217
B(  7-O ,  8-C ) :   1.0057 B(  8-C , 16-H ) :   0.9226

MP2 TOTAL ENERGY:     -420.986676179 Eh
FINAL SINGLE POINT ENERGY      -420.986676179397

DIPOLE MOMENT
-------------
                                X             Y             Z
Electronic contribution:      2.69947      -0.70904       0.56271
Nuclear contribution   :     -3.59293       0.72338      -0.63096
                        -----------------------------------------
Total Dipole Moment    :     -0.89346       0.01434      -0.06825
                        -----------------------------------------
Magnitude (a.u.)       :      0.89618
Magnitude (Debye)      :      2.27790

                             ****ORCA TERMINATED NORMALLY****
TOTAL RUN TIME: 0 days 0 hours 17 minutes 55 seconds 888 msec
