                         Program Version 3.0.3 - RELEASE   -
|  1> ! RI-MP2 RIJK def2-TZVP def2-TZVP/C def2-TZVP/JK TIGHTSCF
|  2> % maxcore 2000
|  3> % mp2 density relaxed end
|  4> *xyz 0 1
|  5>  O        0.1544789518     0.0518741639    -0.7257808871
|  6>  C        0.0645179425     1.1145815180    -0.1875082404
|  7>  C       -0.9663975826     1.7905607968     0.7288237592
|  8>  N       -0.1622026117     3.0340640984     0.6391809896
|  9>  C        0.2377157710     3.7077932127     1.8680565194
| 10>  C        1.0789813175     2.8518333575     2.8512528603
| 11>  C        1.9945795385     1.8322954821     2.1236765793
| 12>  C        2.2614324997     2.2215986498     0.6620354522
| 13>  C        0.9478872974     2.3741642771    -0.1163974478
| 14>  H       -1.9863530936     1.8767314187     0.3368174770
| 15>  H       -1.0133996926     1.3177910316     1.7214524969
| 16>  H        0.8156570555     4.5904049262     1.5690793408
| 17>  H       -0.6595473304     4.0887359966     2.3671090163
| 18>  H        1.6780027492     3.5319888157     3.4671025637
| 19>  H        0.4240293989     2.3183344931     3.5480156652
| 20>  H        2.9419117629     1.7224599534     2.6597406377
| 21>  H        1.5278078877     0.8398338827     2.1383095596
| 22>  H        2.8165991672     3.1669180023     0.6166432552
| 23>  H        2.8820574048     1.4693117087     0.1636784597
| 24>  H        1.1307229765     2.8335694445    -1.0969216369
| 25> *
| 26>
| 27>                          ****END OF INPUT****

CARTESIAN COORDINATES (ANGSTROEM)
---------------------------------
  O      0.154479    0.051874   -0.725781
  C      0.064518    1.114582   -0.187508
  C     -0.966398    1.790561    0.728824
  N     -0.162203    3.034064    0.639181
  C      0.237716    3.707793    1.868057
  C      1.078981    2.851833    2.851253
  C      1.994580    1.832295    2.123677
  C      2.261432    2.221599    0.662035
  C      0.947887    2.374164   -0.116397
  H     -1.986353    1.876731    0.336817
  H     -1.013400    1.317791    1.721452
  H      0.815657    4.590405    1.569079
  H     -0.659547    4.088736    2.367109
  H      1.678003    3.531989    3.467103
  H      0.424029    2.318334    3.548016
  H      2.941912    1.722460    2.659741
  H      1.527808    0.839834    2.138310
  H      2.816599    3.166918    0.616643
  H      2.882057    1.469312    0.163678
  H      1.130723    2.833569   -1.096922

 Total Charge           Charge          ....    0
 Multiplicity           Mult            ....    1
 Number of Electrons    NEL             ....   68
 Basis Dimension        Dim             ....  345

ORBITAL ENERGIES
----------------

  NO   OCC          E(Eh)            E(eV)
   0   2.0000     -20.558141      -559.4155
   1   2.0000     -15.555687      -423.2918
   2   2.0000     -11.333559      -308.4018
   3   2.0000     -11.267956      -306.6167
   4   2.0000     -11.266181      -306.5684
   5   2.0000     -11.256595      -306.3075
   6   2.0000     -11.237071      -305.7762
   7   2.0000     -11.232475      -305.6512
   8   2.0000     -11.229033      -305.5575
   9   2.0000      -1.401502       -38.1368
  10   2.0000      -1.261253       -34.3204
  11   2.0000      -1.077970       -29.3330
  12   2.0000      -1.042213       -28.3601
  13   2.0000      -0.964379       -26.2421
  14   2.0000      -0.890801       -24.2399
  15   2.0000      -0.853126       -23.2147
  16   2.0000      -0.774522       -21.0758
  17   2.0000      -0.707311       -19.2469
  18   2.0000      -0.685905       -18.6644
  19   2.0000      -0.674368       -18.3505
  20   2.0000      -0.667827       -18.1725
  21   2.0000      -0.617696       -16.8084
  22   2.0000      -0.599066       -16.3014
  23   2.0000      -0.585529       -15.9331
  24   2.0000      -0.551244       -15.0001
  25   2.0000      -0.544346       -14.8124
  26   2.0000      -0.541820       -14.7437
  27   2.0000      -0.524572       -14.2743
  28   2.0000      -0.507100       -13.7989
  29   2.0000      -0.498075       -13.5533
  30   2.0000      -0.469111       -12.7652
  31   2.0000      -0.453205       -12.3323
  32   2.0000      -0.397677       -10.8213
  33   2.0000      -0.362464        -9.8632
  34   0.0000       0.122071         3.3217
  35   0.0000       0.128237         3.4895
  36   0.0000       0.158932         4.3247
  37   0.0000       0.165561         4.5051
  38   0.0000       0.172606         4.6969

MULLIKEN ATOMIC CHARGES
-----------------------
   0 O :   -0.245345
   1 C :    0.100739
   2 C :   -0.184789
   3 N :   -0.143664
   4 C :   -0.193623
   5 C :   -0.257160
   6 C :   -0.261333
   7 C :   -0.226620
   8 C :    0.006368
   9 H :    0.138189
  10 H :    0.127387
  11 H :    0.122813
  12 H :    0.135960
  13 H :    0.122093
  14 H :    0.121482
  15 H :    0.132435
  16 H :    0.126834
  17 H :    0.119730
  18 H :    0.137882
  19 H :    0.120621
Sum of atomic charges:   -0.0000000

LOEWDIN ATOMIC CHARGES
----------------------
   0 O :    0.169752
   1 C :   -0.293860
   2 C :   -0.223392
   3 N :    0.107397
   4 C :   -0.296276
   5 C :   -0.271167
   6 C :   -0.259032
   7 C :   -0.243740
   8 C :   -0.216340
   9 H :    0.132667
  10 H :    0.135382
  11 H :    0.136013
  12 H :    0.135287
  13 H :    0.137489
  14 H :    0.133178
  15 H :    0.137321
  16 H :    0.139807
  17 H :    0.142335
  18 H :    0.148709
  19 H :    0.148470

  Mayer bond orders larger than 0.1
B(  0-O ,  1-C ) :   2.0603 B(  1-C ,  2-C ) :   0.9264 B(  1-C ,  8-C ) :   0.8618
B(  2-C ,  3-N ) :   0.9536 B(  2-C ,  8-C ) :  -0.1094 B(  2-C ,  9-H ) :   0.8960
B(  2-C , 10-H ) :   0.9075 B(  3-N ,  4-C ) :   0.9358 B(  3-N ,  8-C ) :   0.9731
B(  4-C ,  5-C ) :   0.9064 B(  4-C , 11-H ) :   0.9379 B(  4-C , 12-H ) :   0.9379
B(  5-C ,  6-C ) :   0.9063 B(  5-C , 13-H ) :   0.9276 B(  5-C , 14-H ) :   0.9408
B(  6-C ,  7-C ) :   0.9271 B(  6-C , 15-H ) :   0.9319 B(  6-C , 16-H ) :   0.9363
B(  7-C ,  8-C ) :   0.9134 B(  7-C , 17-H ) :   0.9214 B(  7-C , 18-H ) :   0.9197
B(  8-C , 19-H ) :   0.8888

MP2 TOTAL ENERGY:     -402.456172278 Eh
FINAL SINGLE POINT ENERGY      -402.456172278038

DIPOLE MOMENT
-------------
                                X             Y             Z
Electronic contribution:     -3.14200      -3.75914      -6.49181
Nuclear contribution   :      3.43560       4.39794       7.29741
                        -----------------------------------------
Total Dipole Moment    :      0.29360       0.63880       0.80561
                        -----------------------------------------
Magnitude (a.u.)       :      1.06924
Magnitude (Debye)      :      2.71779

                             ****ORCA TERMINATED NORMALLY****
TOTAL RUN TIME: 0 days 0 hours 20 minutes 16 seconds 320 msec
