                         Program Version 3.0.3 - RELEASE   -
|  1> ! RI-MP2 RIJK def2-TZVP def2-TZVP/C def2-TZVP/JK TIGHTSCF
|  2> % maxcore 2000
|  3> % mp2 density relaxed end
|  4> *xyz 0 1
|  5>  C        0.0727269889     1.5034579501     0.1316204146
|  6>  C       -0.0040348953     0.0143576335     0.0054585971
|  7>  C       -0.0583235747    -0.7268555587    -1.1136683940
|  8>  C       -0.0847828507    -0.2790364082    -2.5414322021
|  9>  C       -0.0296799339    -2.1833157982    -0.7669469500
| 10>  N        1.2412370818    -2.5858653502    -0.0909346377
| 11>  C        0.0374836137    -2.2740471524     0.7122790507
| 12>  C        0.0155465593    -0.8535358855     1.2566473453
| 13>  H        1.0174562512     1.8112630358     0.5985497699
| 14>  H       -0.0007593615     2.0105688126    -0.8334395753
| 15>  H       -0.7300934913     1.8860717621     0.7756836631
| 16>  H       -0.1490928162     0.8072853781    -2.6389685956
| 17>  H        0.8161154990    -0.6115905984    -3.0732117586
| 18>  H       -0.9403102417    -0.7129464291    -3.0751780139
| 19>  H       -0.5404351640    -2.9150425914    -1.3859387172
| 20>  H        1.3255656036    -3.6005777607    -0.1438301829
| 21>  H       -0.4407925861    -3.0764507731     1.2635411883
| 22>  H        0.8911415182    -0.6429151050     1.8837516200
| 23>  H       -0.8720155602    -0.6754441815     1.8803317984
| 24> *
| 25>
| 26>                          ****END OF INPUT****

CARTESIAN COORDINATES (ANGSTROEM)
---------------------------------
  C      0.072727    1.503458    0.131620
  C     -0.004035    0.014358    0.005459
  C     -0.058324   -0.726856   -1.113668
  C     -0.084783   -0.279036   -2.541432
  C     -0.029680   -2.183316   -0.766947
  N      1.241237   -2.585865   -0.090935
  C      0.037484   -2.274047    0.712279
  C      0.015547   -0.853536    1.256647
  H      1.017456    1.811263    0.598550
  H     -0.000759    2.010569   -0.833440
  H     -0.730093    1.886072    0.775684
  H     -0.149093    0.807285   -2.638969
  H      0.816115   -0.611591   -3.073212
  H     -0.940310   -0.712946   -3.075178
  H     -0.540435   -2.915043   -1.385939
  H      1.325566   -3.600578   -0.143830
  H     -0.440793   -3.076451    1.263541
  H      0.891142   -0.642915    1.883752
  H     -0.872016   -0.675444    1.880332

 Total Charge           Charge          ....    0
 Multiplicity           Mult            ....    1
 Number of Electrons    NEL             ....   60
 Basis Dimension        Dim             ....  314

ORBITAL ENERGIES
----------------

  NO   OCC          E(Eh)            E(eV)
   0   2.0000     -15.551819      -423.1865
   1   2.0000     -11.252081      -306.1847
   2   2.0000     -11.251282      -306.1630
   3   2.0000     -11.222533      -305.3807
   4   2.0000     -11.221237      -305.3454
   5   2.0000     -11.219124      -305.2879
   6   2.0000     -11.217783      -305.2514
   7   2.0000     -11.217299      -305.2382
   8   2.0000      -1.261393       -34.3242
   9   2.0000      -1.097463       -29.8635
  10   2.0000      -1.003001       -27.2930
  11   2.0000      -0.964657       -26.2497
  12   2.0000      -0.900567       -24.5057
  13   2.0000      -0.849369       -23.1125
  14   2.0000      -0.776506       -21.1298
  15   2.0000      -0.702644       -19.1199
  16   2.0000      -0.681499       -18.5445
  17   2.0000      -0.608512       -16.5585
  18   2.0000      -0.600025       -16.3275
  19   2.0000      -0.579346       -15.7648
  20   2.0000      -0.562963       -15.3190
  21   2.0000      -0.544410       -14.8142
  22   2.0000      -0.537173       -14.6172
  23   2.0000      -0.516954       -14.0670
  24   2.0000      -0.503292       -13.6953
  25   2.0000      -0.486185       -13.2298
  26   2.0000      -0.462442       -12.5837
  27   2.0000      -0.455065       -12.3829
  28   2.0000      -0.374581       -10.1929
  29   2.0000      -0.316996        -8.6259
  30   0.0000       0.138156         3.7594
  31   0.0000       0.149071         4.0564
  32   0.0000       0.159646         4.3442
  33   0.0000       0.161255         4.3880
  34   0.0000       0.190442         5.1822

MULLIKEN ATOMIC CHARGES
-----------------------
   0 C :   -0.416589
   1 C :   -0.047670
   2 C :    0.026523
   3 C :   -0.427070
   4 C :   -0.031400
   5 N :   -0.384862
   6 C :   -0.106685
   7 C :   -0.117827
   8 H :    0.143000
   9 H :    0.125101
  10 H :    0.134401
  11 H :    0.127947
  12 H :    0.146123
  13 H :    0.136658
  14 H :    0.129791
  15 H :    0.211250
  16 H :    0.129674
  17 H :    0.114302
  18 H :    0.107331
Sum of atomic charges:   -0.0000000

LOEWDIN ATOMIC CHARGES
----------------------
   0 C :   -0.274522
   1 C :   -0.152683
   2 C :   -0.156385
   3 C :   -0.272056
   4 C :   -0.207742
   5 N :   -0.001908
   6 C :   -0.239456
   7 C :   -0.195712
   8 H :    0.132636
   9 H :    0.126115
  10 H :    0.130158
  11 H :    0.126138
  12 H :    0.134027
  13 H :    0.130085
  14 H :    0.135317
  15 H :    0.165206
  16 H :    0.132442
  17 H :    0.146755
  18 H :    0.141585

  Mayer bond orders larger than 0.1
B(  0-C ,  1-C ) :   0.8775 B(  0-C ,  8-H ) :   0.9331 B(  0-C ,  9-H ) :   0.9483
B(  0-C , 10-H ) :   0.9324 B(  1-C ,  2-C ) :   1.7451 B(  1-C ,  7-C ) :   0.9793
B(  2-C ,  3-C ) :   0.8684 B(  2-C ,  4-C ) :   0.9223 B(  3-C , 11-H ) :   0.9564
B(  3-C , 12-H ) :   0.9272 B(  3-C , 13-H ) :   0.9388 B(  4-C ,  5-N ) :   0.9219
B(  4-C ,  6-C ) :   0.9306 B(  4-C , 14-H ) :   0.9158 B(  5-N ,  6-C ) :   0.9827
B(  5-N , 15-H ) :   0.8698 B(  6-C ,  7-C ) :   0.9374 B(  6-C , 16-H ) :   0.9283
B(  7-C , 17-H ) :   0.8927 B(  7-C , 18-H ) :   0.9048

MP2 TOTAL ENERGY:     -327.326196682 Eh
FINAL SINGLE POINT ENERGY      -327.326196681959

DIPOLE MOMENT
-------------
                                X             Y             Z
Electronic contribution:      0.74785      -4.26745       1.25544
Nuclear contribution   :     -1.26195       4.04221      -1.25142
                        -----------------------------------------
Total Dipole Moment    :     -0.51411      -0.22524       0.00402
                        -----------------------------------------
Magnitude (a.u.)       :      0.56130
Magnitude (Debye)      :      1.42671

                             ****ORCA TERMINATED NORMALLY****
TOTAL RUN TIME: 0 days 0 hours 14 minutes 1 seconds 410 msec
