                         Program Version 3.0.3 - RELEASE   -
|  1> ! RI-MP2 RIJK def2-TZVP def2-TZVP/C def2-TZVP/JK TIGHTSCF
|  2> % maxcore 2000
|  3> % mp2 density relaxed end
|  4> *xyz 0 1
|  5>  C       -0.1331763969     1.5026717313    -0.0926204605
|  6>  C        1.4210165783     1.7311595454     0.1161754074
|  7>  C        2.1595884859     1.7090281793     1.4986059230
|  8>  N        3.0261715906     0.4648080220     1.4849335090
|  9>  C        2.2320833080    -0.4284387717     0.6962303970
| 10>  C        1.3729251882    -1.4754041572     1.0067562662
| 11>  C        0.0967475901    -1.1916521580     0.3969915052
| 12>  C        0.2282414332     0.0024884181    -0.2977999640
| 13>  N        1.5777168102     0.3194606808    -0.2501370553
| 14>  H       -0.7486575455     1.6713307033     0.7938511075
| 15>  H       -0.5558652561     2.0504310711    -0.9376886859
| 16>  H        1.8792050437     2.4351000320    -0.5854933317
| 17>  H        2.7705424712     2.5961470683     1.6833460444
| 18>  H        1.4448810183     1.6048693220     2.3211316244
| 19>  H        3.9235550127     0.6764934232     1.0575345155
| 20>  H        1.5836994585    -2.3107857268     1.6588605622
| 21>  H       -0.8035055104    -1.7675373931     0.5595004057
| 22> *
| 23>
| 24>                          ****END OF INPUT****

CARTESIAN COORDINATES (ANGSTROEM)
---------------------------------
  C     -0.133176    1.502672   -0.092620
  C      1.421017    1.731160    0.116175
  C      2.159588    1.709028    1.498606
  N      3.026172    0.464808    1.484934
  C      2.232083   -0.428439    0.696230
  C      1.372925   -1.475404    1.006756
  C      0.096748   -1.191652    0.396992
  C      0.228241    0.002488   -0.297800
  N      1.577717    0.319461   -0.250137
  H     -0.748658    1.671331    0.793851
  H     -0.555865    2.050431   -0.937689
  H      1.879205    2.435100   -0.585493
  H      2.770542    2.596147    1.683346
  H      1.444881    1.604869    2.321132
  H      3.923555    0.676493    1.057535
  H      1.583699   -2.310786    1.658861
  H     -0.803506   -1.767537    0.559500

 Total Charge           Charge          ....    0
 Multiplicity           Mult            ....    1
 Number of Electrons    NEL             ....   64
 Basis Dimension        Dim             ....  327

ORBITAL ENERGIES
----------------

  NO   OCC          E(Eh)            E(eV)
   0   2.0000     -15.574712      -423.8095
   1   2.0000     -15.570913      -423.7061
   2   2.0000     -11.281198      -306.9770
   3   2.0000     -11.278048      -306.8913
   4   2.0000     -11.274299      -306.7893
   5   2.0000     -11.261507      -306.4412
   6   2.0000     -11.250859      -306.1514
   7   2.0000     -11.225708      -305.4670
   8   2.0000     -11.224740      -305.4407
   9   2.0000      -1.345932       -36.6247
  10   2.0000      -1.196886       -32.5689
  11   2.0000      -1.090219       -29.6664
  12   2.0000      -1.003701       -27.3121
  13   2.0000      -0.946322       -25.7507
  14   2.0000      -0.908907       -24.7326
  15   2.0000      -0.823437       -22.4069
  16   2.0000      -0.774700       -21.0806
  17   2.0000      -0.718300       -19.5459
  18   2.0000      -0.705020       -19.1846
  19   2.0000      -0.647097       -17.6084
  20   2.0000      -0.620778       -16.8922
  21   2.0000      -0.604666       -16.4538
  22   2.0000      -0.574453       -15.6317
  23   2.0000      -0.549434       -14.9509
  24   2.0000      -0.541582       -14.7372
  25   2.0000      -0.522513       -14.2183
  26   2.0000      -0.509608       -13.8671
  27   2.0000      -0.494528       -13.4568
  28   2.0000      -0.471851       -12.8397
  29   2.0000      -0.404465       -11.0061
  30   2.0000      -0.346844        -9.4381
  31   2.0000      -0.276207        -7.5160
  32   0.0000       0.112759         3.0683
  33   0.0000       0.133724         3.6388
  34   0.0000       0.140264         3.8168
  35   0.0000       0.171031         4.6540
  36   0.0000       0.179193         4.8761

MULLIKEN ATOMIC CHARGES
-----------------------
   0 C :   -0.200542
   1 C :   -0.106456
   2 C :   -0.135166
   3 N :   -0.336806
   4 C :    0.083744
   5 C :   -0.212390
   6 C :   -0.229683
   7 C :   -0.011072
   8 N :    0.032246
   9 H :    0.130421
  10 H :    0.139047
  11 H :    0.111092
  12 H :    0.136818
  13 H :    0.111908
  14 H :    0.226026
  15 H :    0.132271
  16 H :    0.128542
Sum of atomic charges:    0.0000000

LOEWDIN ATOMIC CHARGES
----------------------
   0 C :   -0.183497
   1 C :   -0.194994
   2 C :   -0.237499
   3 N :    0.014201
   4 C :   -0.295319
   5 C :   -0.143039
   6 C :   -0.172571
   7 C :   -0.192810
   8 N :    0.286281
   9 H :    0.139905
  10 H :    0.132836
  11 H :    0.135418
  12 H :    0.127838
  13 H :    0.135531
  14 H :    0.172555
  15 H :    0.139319
  16 H :    0.135847

  Mayer bond orders larger than 0.1
B(  0-C ,  1-C ) :   0.9628 B(  0-C ,  7-C ) :   0.9049 B(  0-C ,  9-H ) :   0.8998
B(  0-C , 10-H ) :   0.9223 B(  1-C ,  2-C ) :   0.9411 B(  1-C ,  8-N ) :   0.8547
B(  1-C , 11-H ) :   0.9073 B(  2-C ,  3-N ) :   0.9441 B(  2-C , 12-H ) :   0.9299
B(  2-C , 13-H ) :   0.9048 B(  3-N ,  4-C ) :   1.0004 B(  3-N , 14-H ) :   0.8738
B(  4-C ,  5-C ) :   1.4785 B(  4-C ,  7-C ) :   0.1079 B(  4-C ,  8-N ) :   1.0898
B(  5-C ,  6-C ) :   1.2355 B(  5-C , 15-H ) :   0.9270 B(  6-C ,  7-C ) :   1.4751
B(  6-C , 16-H ) :   0.9309 B(  7-C ,  8-N ) :   1.0311

MP2 TOTAL ENERGY:     -380.135105504 Eh
FINAL SINGLE POINT ENERGY      -380.135105504314

DIPOLE MOMENT
-------------
                                X             Y             Z
Electronic contribution:      1.20664      -3.02375      -1.99402
Nuclear contribution   :     -1.24353       4.01459       2.16001
                        -----------------------------------------
Total Dipole Moment    :     -0.03689       0.99084       0.16599
                        -----------------------------------------
Magnitude (a.u.)       :      1.00533
Magnitude (Debye)      :      2.55533

                             ****ORCA TERMINATED NORMALLY****
TOTAL RUN TIME: 0 days 0 hours 21 minutes 7 seconds 764 msec
