                         Program Version 3.0.3 - RELEASE   -
|  1> ! RI-MP2 RIJK def2-TZVP def2-TZVP/C def2-TZVP/JK TIGHTSCF
|  2> % maxcore 2000
|  3> % mp2 density relaxed end
|  4> *xyz 0 1
|  5>  C       -0.0938355907     1.4045863135    -0.0048689079
|  6>  C        0.0982883208    -0.0951054725     0.0635229614
|  7>  C        1.4638932088    -0.6422791851    -0.2243682518
|  8>  C        0.9053317144    -0.6518685856     1.2151971279
|  9>  C        0.8576286063    -2.1584497928     1.1726019876
| 10>  C        0.9766037987    -3.1621304617     2.2422006427
| 11>  N       -0.2839983916    -3.0272100674     1.4744869460
| 12>  C        1.4579159803    -2.1821919839    -0.2478574335
| 13>  O        0.6789579500    -2.8361397425    -1.2142230645
| 14>  H        0.7926803269     1.9352976502     0.3589089538
| 15>  H       -0.2766854033     1.7295355836    -1.0345293673
| 16>  H       -0.9464542907     1.7244060029     0.6037867351
| 17>  H       -0.7531969217    -0.6765240845    -0.2848780666
| 18>  H        2.2546444322    -0.0200008726    -0.6254787866
| 19>  H        1.2000742881    -0.0437100329     2.0626918564
| 20>  H        1.5223666187    -4.0861211981     2.0684628407
| 21>  H        0.9890388856    -2.8170950901     3.2734617403
| 22>  H       -0.9838404273    -2.5278286886     2.0180700287
| 23>  H        2.4824480102    -2.5775004442    -0.2561629353
| 24>  H       -0.0284794457    -3.2740038077    -0.7172712071
| 25> *
| 26>
| 27>                          ****END OF INPUT****

CARTESIAN COORDINATES (ANGSTROEM)
---------------------------------
  C     -0.093836    1.404586   -0.004869
  C      0.098288   -0.095105    0.063523
  C      1.463893   -0.642279   -0.224368
  C      0.905332   -0.651869    1.215197
  C      0.857629   -2.158450    1.172602
  C      0.976604   -3.162130    2.242201
  N     -0.283998   -3.027210    1.474487
  C      1.457916   -2.182192   -0.247857
  O      0.678958   -2.836140   -1.214223
  H      0.792680    1.935298    0.358909
  H     -0.276685    1.729536   -1.034529
  H     -0.946454    1.724406    0.603787
  H     -0.753197   -0.676524   -0.284878
  H      2.254644   -0.020001   -0.625479
  H      1.200074   -0.043710    2.062692
  H      1.522367   -4.086121    2.068463
  H      0.989039   -2.817095    3.273462
  H     -0.983840   -2.527829    2.018070
  H      2.482448   -2.577500   -0.256163
  H     -0.028479   -3.274004   -0.717271

 Total Charge           Charge          ....    0
 Multiplicity           Mult            ....    1
 Number of Electrons    NEL             ....   68
 Basis Dimension        Dim             ....  345

ORBITAL ENERGIES
----------------

  NO   OCC          E(Eh)            E(eV)
   0   2.0000     -20.540779      -558.9430
   1   2.0000     -15.565228      -423.5514
   2   2.0000     -11.280264      -306.9516
   3   2.0000     -11.271211      -306.7053
   4   2.0000     -11.264636      -306.5263
   5   2.0000     -11.240419      -305.8674
   6   2.0000     -11.239148      -305.8328
   7   2.0000     -11.233362      -305.6753
   8   2.0000     -11.223116      -305.3965
   9   2.0000      -1.356687       -36.9173
  10   2.0000      -1.270191       -34.5636
  11   2.0000      -1.179739       -32.1023
  12   2.0000      -1.007578       -27.4176
  13   2.0000      -0.915717       -24.9179
  14   2.0000      -0.889980       -24.2176
  15   2.0000      -0.856775       -23.3140
  16   2.0000      -0.780320       -21.2336
  17   2.0000      -0.747987       -20.3538
  18   2.0000      -0.706520       -19.2254
  19   2.0000      -0.679199       -18.4820
  20   2.0000      -0.647450       -17.6180
  21   2.0000      -0.612707       -16.6726
  22   2.0000      -0.597158       -16.2495
  23   2.0000      -0.574385       -15.6298
  24   2.0000      -0.558263       -15.1911
  25   2.0000      -0.545792       -14.8518
  26   2.0000      -0.526911       -14.3380
  27   2.0000      -0.492263       -13.3952
  28   2.0000      -0.488792       -13.3007
  29   2.0000      -0.468183       -12.7399
  30   2.0000      -0.434993       -11.8368
  31   2.0000      -0.415517       -11.3068
  32   2.0000      -0.394583       -10.7372
  33   2.0000      -0.373262       -10.1570
  34   0.0000       0.135587         3.6895
  35   0.0000       0.147518         4.0142
  36   0.0000       0.152941         4.1617
  37   0.0000       0.173585         4.7235
  38   0.0000       0.186608         5.0779

MULLIKEN ATOMIC CHARGES
-----------------------
   0 C :   -0.434719
   1 C :   -0.041742
   2 C :   -0.121667
   3 C :   -0.151981
   4 C :   -0.000672
   5 C :   -0.171634
   6 N :   -0.421198
   7 C :    0.101812
   8 O :   -0.482416
   9 H :    0.129077
  10 H :    0.143121
  11 H :    0.135669
  12 H :    0.130461
  13 H :    0.138400
  14 H :    0.132316
  15 H :    0.126201
  16 H :    0.130738
  17 H :    0.224053
  18 H :    0.094480
  19 H :    0.339701
Sum of atomic charges:    0.0000000

LOEWDIN ATOMIC CHARGES
----------------------
   0 C :   -0.286301
   1 C :   -0.208512
   2 C :   -0.133123
   3 C :   -0.131967
   4 C :   -0.271097
   5 C :   -0.230806
   6 N :   -0.008192
   7 C :   -0.271725
   8 O :   -0.013663
   9 H :    0.128064
  10 H :    0.128288
  11 H :    0.125291
  12 H :    0.149298
  13 H :    0.138565
  14 H :    0.140068
  15 H :    0.129227
  16 H :    0.125997
  17 H :    0.168531
  18 H :    0.140429
  19 H :    0.181629

  Mayer bond orders larger than 0.1
B(  0-C ,  1-C ) :   0.8750 B(  0-C ,  9-H ) :   0.9336 B(  0-C , 10-H ) :   0.9431
B(  0-C , 11-H ) :   0.9440 B(  1-C ,  2-C ) :   0.8621 B(  1-C ,  3-C ) :   0.8454
B(  1-C , 12-H ) :   0.9246 B(  2-C ,  3-C ) :   0.8256 B(  2-C ,  7-C ) :   0.8774
B(  2-C ,  8-O ) :  -0.1104 B(  2-C , 13-H ) :   0.9280 B(  3-C ,  4-C ) :   0.9107
B(  3-C , 14-H ) :   0.9187 B(  4-C ,  5-C ) :   0.9502 B(  4-C ,  6-N ) :   0.8824
B(  4-C ,  7-C ) :   0.9681 B(  5-C ,  6-N ) :   0.9358 B(  5-C , 15-H ) :   0.9106
B(  5-C , 16-H ) :   0.9239 B(  6-N , 17-H ) :   0.8659 B(  7-C ,  8-O ) :   1.0740
B(  7-C , 18-H ) :   0.9685 B(  8-O , 19-H ) :   0.8091

MP2 TOTAL ENERGY:     -402.403369706 Eh
FINAL SINGLE POINT ENERGY      -402.403369706258

DIPOLE MOMENT
-------------
                                X             Y             Z
Electronic contribution:      0.88853      -4.93746      -1.00997
Nuclear contribution   :     -0.83659       5.53105       2.08886
                        -----------------------------------------
Total Dipole Moment    :      0.05194       0.59359       1.07889
                        -----------------------------------------
Magnitude (a.u.)       :      1.23250
Magnitude (Debye)      :      3.13276

                             ****ORCA TERMINATED NORMALLY****
TOTAL RUN TIME: 0 days 0 hours 17 minutes 6 seconds 290 msec
