                         Program Version 3.0.3 - RELEASE   -
|  1> ! RI-MP2 RIJK def2-TZVP def2-TZVP/C def2-TZVP/JK TIGHTSCF
|  2> % maxcore 2000
|  3> % mp2 density relaxed end
|  4> *xyz 0 1
|  5>  C       -0.8050166946     1.1575153510     0.2674276531
|  6>  C        0.3757047173     0.3341758116    -0.1765191179
|  7>  O        1.4301425095     0.2927257239     0.4014114857
|  8>  C        0.1700656467    -0.5846879134    -1.4411751034
|  9>  C        1.5229352712    -0.8687349770    -2.1213698762
| 10>  C       -0.3918712743    -1.8957209408    -0.8369050580
| 11>  O       -1.5513354276    -2.1903471299    -0.8011101664
| 12>  C       -0.7902698404    -0.0017624627    -2.3736938982
| 13>  N       -1.5208684155     0.4814440804    -3.1270763636
| 14>  H       -0.9916057878     1.9583282863    -0.4558269242
| 15>  H       -1.7112740493     0.5431591715     0.2922098230
| 16>  H       -0.6020328681     1.5858105730     1.2490365966
| 17>  H        2.2263812435    -1.2427065895    -1.3760931174
| 18>  H        1.4055975301    -1.6033972213    -2.9215054658
| 19>  H        1.9333546267     0.0489063798    -2.5471088901
| 20>  H        0.4052433625    -2.5320294130    -0.3991459672
| 21> *
| 22>
| 23>                          ****END OF INPUT****

CARTESIAN COORDINATES (ANGSTROEM)
---------------------------------
  C     -0.805017    1.157515    0.267428
  C      0.375705    0.334176   -0.176519
  O      1.430143    0.292726    0.401411
  C      0.170066   -0.584688   -1.441175
  C      1.522935   -0.868735   -2.121370
  C     -0.391871   -1.895721   -0.836905
  O     -1.551335   -2.190347   -0.801110
  C     -0.790270   -0.001762   -2.373694
  N     -1.520868    0.481444   -3.127076
  H     -0.991606    1.958328   -0.455827
  H     -1.711274    0.543159    0.292210
  H     -0.602033    1.585811    1.249037
  H      2.226381   -1.242707   -1.376093
  H      1.405598   -1.603397   -2.921505
  H      1.933355    0.048906   -2.547109
  H      0.405243   -2.532029   -0.399146

 Total Charge           Charge          ....    0
 Multiplicity           Mult            ....    1
 Number of Electrons    NEL             ....   66
 Basis Dimension        Dim             ....  321

ORBITAL ENERGIES
----------------

  NO   OCC          E(Eh)            E(eV)
   0   2.0000     -20.600359      -560.5643
   1   2.0000     -20.589210      -560.2609
   2   2.0000     -15.590839      -424.2483
   3   2.0000     -11.378976      -309.6377
   4   2.0000     -11.377008      -309.5841
   5   2.0000     -11.327171      -308.2280
   6   2.0000     -11.291524      -307.2580
   7   2.0000     -11.265396      -306.5470
   8   2.0000     -11.257874      -306.3423
   9   2.0000      -1.443708       -39.2853
  10   2.0000      -1.435336       -39.0575
  11   2.0000      -1.240481       -33.7552
  12   2.0000      -1.138557       -30.9817
  13   2.0000      -1.039130       -28.2762
  14   2.0000      -0.946747       -25.7623
  15   2.0000      -0.873378       -23.7658
  16   2.0000      -0.810256       -22.0482
  17   2.0000      -0.723003       -19.6739
  18   2.0000      -0.712844       -19.3975
  19   2.0000      -0.692920       -18.8553
  20   2.0000      -0.664664       -18.0864
  21   2.0000      -0.628139       -17.0925
  22   2.0000      -0.614090       -16.7102
  23   2.0000      -0.596845       -16.2410
  24   2.0000      -0.587726       -15.9928
  25   2.0000      -0.570054       -15.5119
  26   2.0000      -0.566504       -15.4154
  27   2.0000      -0.554808       -15.0971
  28   2.0000      -0.535181       -14.5630
  29   2.0000      -0.501324       -13.6417
  30   2.0000      -0.491100       -13.3635
  31   2.0000      -0.461239       -12.5510
  32   2.0000      -0.431216       -11.7340
  33   0.0000       0.073276         1.9939
  34   0.0000       0.121770         3.3135
  35   0.0000       0.133838         3.6419
  36   0.0000       0.146924         3.9980
  37   0.0000       0.157929         4.2975

MULLIKEN ATOMIC CHARGES
-----------------------
   0 C :   -0.418653
   1 C :    0.174119
   2 O :   -0.255072
   3 C :    0.234469
   4 C :   -0.434299
   5 C :    0.045581
   6 O :   -0.215356
   7 C :   -0.222927
   8 N :   -0.037304
   9 H :    0.174311
  10 H :    0.178507
  11 H :    0.163301
  12 H :    0.170611
  13 H :    0.160519
  14 H :    0.158975
  15 H :    0.123217
Sum of atomic charges:    0.0000000

LOEWDIN ATOMIC CHARGES
----------------------
   0 C :   -0.260792
   1 C :   -0.293135
   2 O :    0.186808
   3 C :   -0.261058
   4 C :   -0.236943
   5 C :   -0.234893
   6 O :    0.181052
   7 C :   -0.152782
   8 N :    0.084054
   9 H :    0.152379
  10 H :    0.150078
  11 H :    0.139073
  12 H :    0.139102
  13 H :    0.136418
  14 H :    0.139967
  15 H :    0.130673

  Mayer bond orders larger than 0.1
B(  0-C ,  1-C ) :   0.9466 B(  0-C ,  9-H ) :   0.8962 B(  0-C , 10-H ) :   0.9108
B(  0-C , 11-H ) :   0.9294 B(  1-C ,  2-O ) :   1.9801 B(  1-C ,  3-C ) :   0.7771
B(  3-C ,  4-C ) :   0.9047 B(  3-C ,  5-C ) :   0.7649 B(  3-C ,  7-C ) :   0.8783
B(  4-C , 12-H ) :   0.9166 B(  4-C , 13-H ) :   0.9281 B(  4-C , 14-H ) :   0.9276
B(  5-C ,  6-O ) :   2.0146 B(  5-C , 15-H ) :   0.9363 B(  7-C ,  8-N ) :   2.8548

MP2 TOTAL ENERGY:     -437.197500753 Eh
FINAL SINGLE POINT ENERGY      -437.197500753141

DIPOLE MOMENT
-------------
                                X             Y             Z
Electronic contribution:     -2.63348      -1.43742      -0.90341
Nuclear contribution   :      3.52359       1.29991       1.41023
                        -----------------------------------------
Total Dipole Moment    :      0.89010      -0.13751       0.50681
                        -----------------------------------------
Magnitude (a.u.)       :      1.03347
Magnitude (Debye)      :      2.62687

                             ****ORCA TERMINATED NORMALLY****
TOTAL RUN TIME: 0 days 0 hours 17 minutes 8 seconds 198 msec
