                         Program Version 3.0.3 - RELEASE   -
|  1> ! RI-MP2 RIJK def2-TZVP def2-TZVP/C def2-TZVP/JK TIGHTSCF
|  2> % maxcore 2000
|  3> % mp2 density relaxed end
|  4> *xyz 0 1
|  5>  C       -0.1535972770     1.6042071821     0.1051361632
|  6>  C       -0.0442483677     0.0787885060    -0.0156727042
|  7>  C        0.7831842737    -0.5113208954     1.1351609113
|  8>  O        0.2650447690    -0.0164999585     2.3610782281
|  9>  C       -1.4480136846    -0.5365912841    -0.0047270511
| 10>  O       -1.7077818675    -1.6374895879     0.4051744547
| 11>  C        0.5639776777    -0.4055315258    -1.3424168328
| 12>  C        0.2628210296     0.2201097329    -2.6569352420
| 13>  N        1.6093807022     0.3256625110    -2.0682585957
| 14>  H        0.8280229516     2.0835657223     0.0374313118
| 15>  H       -0.8002668187     2.0299847455    -0.6682090278
| 16>  H       -0.5697188008     1.8653612991     1.0798419664
| 17>  H        0.7089796074    -1.6043295680     1.0858941402
| 18>  H        1.8395902281    -0.2285479569     1.0060135780
| 19>  H        0.5343490233    -0.6113895309     3.0655591986
| 20>  H       -2.2338750753     0.1032772368    -0.4683885139
| 21>  H        0.7294539665    -1.4815912143    -1.3411719095
| 22>  H        0.1964059056    -0.4015053920    -3.5449887004
| 23>  H       -0.3610954780     1.1086005890    -2.6825325764
| 24>  H        1.7356434449     1.2535656288    -1.6718035786
| 25> *
| 26>
| 27>                          ****END OF INPUT****

CARTESIAN COORDINATES (ANGSTROEM)
---------------------------------
  C     -0.153597    1.604207    0.105136
  C     -0.044248    0.078789   -0.015673
  C      0.783184   -0.511321    1.135161
  O      0.265045   -0.016500    2.361078
  C     -1.448014   -0.536591   -0.004727
  O     -1.707782   -1.637490    0.405174
  C      0.563978   -0.405532   -1.342417
  C      0.262821    0.220110   -2.656935
  N      1.609381    0.325663   -2.068259
  H      0.828023    2.083566    0.037431
  H     -0.800267    2.029985   -0.668209
  H     -0.569719    1.865361    1.079842
  H      0.708980   -1.604330    1.085894
  H      1.839590   -0.228548    1.006014
  H      0.534349   -0.611390    3.065559
  H     -2.233875    0.103277   -0.468389
  H      0.729454   -1.481591   -1.341172
  H      0.196406   -0.401505   -3.544989
  H     -0.361095    1.108601   -2.682533
  H      1.735643    1.253566   -1.671804

 Total Charge           Charge          ....    0
 Multiplicity           Mult            ....    1
 Number of Electrons    NEL             ....   70
 Basis Dimension        Dim             ....  345

ORBITAL ENERGIES
----------------

  NO   OCC          E(Eh)            E(eV)
   0   2.0000     -20.563708      -559.5670
   1   2.0000     -20.559164      -559.4433
   2   2.0000     -15.568471      -423.6396
   3   2.0000     -11.333286      -308.3944
   4   2.0000     -11.284895      -307.0776
   5   2.0000     -11.275917      -306.8333
   6   2.0000     -11.265593      -306.5524
   7   2.0000     -11.261900      -306.4519
   8   2.0000     -11.234156      -305.6969
   9   2.0000      -1.400559       -38.1112
  10   2.0000      -1.368920       -37.2502
  11   2.0000      -1.273610       -34.6567
  12   2.0000      -1.098167       -29.8826
  13   2.0000      -0.949565       -25.8390
  14   2.0000      -0.916473       -24.9385
  15   2.0000      -0.876345       -23.8466
  16   2.0000      -0.841699       -22.9038
  17   2.0000      -0.755199       -20.5500
  18   2.0000      -0.722507       -19.6604
  19   2.0000      -0.696091       -18.9416
  20   2.0000      -0.662031       -18.0148
  21   2.0000      -0.652787       -17.7632
  22   2.0000      -0.647285       -17.6135
  23   2.0000      -0.605871       -16.4866
  24   2.0000      -0.581678       -15.8283
  25   2.0000      -0.560990       -15.2653
  26   2.0000      -0.551974       -15.0200
  27   2.0000      -0.535530       -14.5725
  28   2.0000      -0.513971       -13.9859
  29   2.0000      -0.494324       -13.4512
  30   2.0000      -0.488083       -13.2814
  31   2.0000      -0.470457       -12.8018
  32   2.0000      -0.455316       -12.3898
  33   2.0000      -0.423085       -11.5127
  34   2.0000      -0.391827       -10.6622
  35   0.0000       0.123404         3.3580
  36   0.0000       0.132259         3.5989
  37   0.0000       0.142871         3.8877
  38   0.0000       0.163755         4.4560
  39   0.0000       0.169792         4.6203

MULLIKEN ATOMIC CHARGES
-----------------------
   0 C :   -0.505989
   1 C :    0.181401
   2 C :   -0.105262
   3 O :   -0.480409
   4 C :    0.069096
   5 O :   -0.263724
   6 C :   -0.082487
   7 C :   -0.185448
   8 N :   -0.347956
   9 H :    0.133329
  10 H :    0.140464
  11 H :    0.182113
  12 H :    0.131659
  13 H :    0.116812
  14 H :    0.323611
  15 H :    0.080879
  16 H :    0.135436
  17 H :    0.129680
  18 H :    0.128148
  19 H :    0.218643
Sum of atomic charges:    0.0000000

LOEWDIN ATOMIC CHARGES
----------------------
   0 C :   -0.267062
   1 C :   -0.304449
   2 C :   -0.302295
   3 O :   -0.038397
   4 C :   -0.243142
   5 O :    0.146906
   6 C :   -0.236440
   7 C :   -0.258430
   8 N :   -0.004728
   9 H :    0.126752
  10 H :    0.126305
  11 H :    0.141060
  12 H :    0.129850
  13 H :    0.124809
  14 H :    0.177045
  15 H :    0.116824
  16 H :    0.153984
  17 H :    0.126550
  18 H :    0.121563
  19 H :    0.163295

  Mayer bond orders larger than 0.1
B(  0-C ,  1-C ) :   0.8703 B(  0-C ,  9-H ) :   0.9401 B(  0-C , 10-H ) :   0.9268
B(  0-C , 11-H ) :   0.9281 B(  1-C ,  2-C ) :   0.8882 B(  1-C ,  4-C ) :   0.8001
B(  1-C ,  6-C ) :   0.8791 B(  2-C ,  3-O ) :   1.0214 B(  2-C , 12-H ) :   0.9205
B(  2-C , 13-H ) :   0.9345 B(  3-O , 14-H ) :   0.8450 B(  4-C ,  5-O ) :   1.9902
B(  4-C , 15-H ) :   0.9383 B(  6-C ,  7-C ) :   0.9242 B(  6-C ,  8-N ) :   0.9163
B(  6-C , 16-H ) :   0.9200 B(  7-C ,  8-N ) :   0.9356 B(  7-C , 17-H ) :   0.9181
B(  7-C , 18-H ) :   0.9226 B(  8-N , 19-H ) :   0.8780

MP2 TOTAL ENERGY:     -439.540773600 Eh
FINAL SINGLE POINT ENERGY      -439.540773599526

DIPOLE MOMENT
-------------
                                X             Y             Z
Electronic contribution:     -2.11110      -4.23020       2.05591
Nuclear contribution   :      2.30091       4.82991      -2.03681
                        -----------------------------------------
Total Dipole Moment    :      0.18981       0.59971       0.01910
                        -----------------------------------------
Magnitude (a.u.)       :      0.62932
Magnitude (Debye)      :      1.59962

                             ****ORCA TERMINATED NORMALLY****
TOTAL RUN TIME: 0 days 0 hours 18 minutes 35 seconds 256 msec
