                         Program Version 3.0.3 - RELEASE   -
|  1> ! RI-MP2 RIJK def2-TZVP def2-TZVP/C def2-TZVP/JK TIGHTSCF
|  2> % maxcore 2000
|  3> % mp2 density relaxed end
|  4> *xyz 0 1
|  5>  C        0.0190005821     1.5343036263     0.0584999009
|  6>  C        0.0477510333     0.0278073545     0.0196104150
|  7>  C        0.3485634317    -0.6912485263    -1.2907395112
|  8>  C        0.5208178206    -2.1564832459    -0.8377763955
|  9>  C        1.3396104064    -2.0281368527     0.4662775875
| 10>  C        0.6743105564    -0.8322506077     1.1302417066
| 11>  C       -0.8199264455    -0.7975812911     0.9347095071
| 12>  O       -1.5305655434    -1.9216621902     0.4829020697
| 13>  C       -0.8593499982    -2.7214515479    -0.4916780372
| 14>  H        0.9798652175     1.9595470317    -0.2573401296
| 15>  H       -0.7556255454     1.9363474576    -0.6054683025
| 16>  H       -0.1891380191     1.9032004353     1.0683150292
| 17>  H       -0.4499721085    -0.5777097128    -2.0337120882
| 18>  H        1.2729287622    -0.2995469093    -1.7336642581
| 19>  H        0.9965626104    -2.7915623415    -1.5894741074
| 20>  H        1.2961051409    -2.9407522255     1.0716055979
| 21>  H        2.3943532051    -1.8177013282     0.2544150079
| 22>  H        1.1141601184    -0.3836406074     2.0151466570
| 23>  H       -1.4206541602    -0.2725715680     1.6700593934
| 24>  H       -1.4905276815    -2.7689185445    -1.3906937597
| 25>  H       -0.7667511235    -3.7423066065    -0.0944336130
| 26> *
| 27>
| 28>                          ****END OF INPUT****

CARTESIAN COORDINATES (ANGSTROEM)
---------------------------------
  C      0.019001    1.534304    0.058500
  C      0.047751    0.027807    0.019610
  C      0.348563   -0.691249   -1.290740
  C      0.520818   -2.156483   -0.837776
  C      1.339610   -2.028137    0.466278
  C      0.674311   -0.832251    1.130242
  C     -0.819926   -0.797581    0.934710
  O     -1.530566   -1.921662    0.482902
  C     -0.859350   -2.721452   -0.491678
  H      0.979865    1.959547   -0.257340
  H     -0.755626    1.936347   -0.605468
  H     -0.189138    1.903200    1.068315
  H     -0.449972   -0.577710   -2.033712
  H      1.272929   -0.299547   -1.733664
  H      0.996563   -2.791562   -1.589474
  H      1.296105   -2.940752    1.071606
  H      2.394353   -1.817701    0.254415
  H      1.114160   -0.383641    2.015147
  H     -1.420654   -0.272572    1.670059
  H     -1.490528   -2.768919   -1.390694
  H     -0.766751   -3.742307   -0.094434

 Total Charge           Charge          ....    0
 Multiplicity           Mult            ....    1
 Number of Electrons    NEL             ....   68
 Basis Dimension        Dim             ....  351

ORBITAL ENERGIES
----------------

  NO   OCC          E(Eh)            E(eV)
   0   2.0000     -20.548126      -559.1429
   1   2.0000     -11.272850      -306.7498
   2   2.0000     -11.269726      -306.6648
   3   2.0000     -11.230190      -305.5890
   4   2.0000     -11.229300      -305.5648
   5   2.0000     -11.223450      -305.4056
   6   2.0000     -11.222469      -305.3789
   7   2.0000     -11.221362      -305.3488
   8   2.0000     -11.218094      -305.2599
   9   2.0000      -1.371702       -37.3259
  10   2.0000      -1.169829       -31.8327
  11   2.0000      -1.062451       -28.9108
  12   2.0000      -0.990324       -26.9481
  13   2.0000      -0.932355       -25.3707
  14   2.0000      -0.899598       -24.4793
  15   2.0000      -0.835262       -22.7286
  16   2.0000      -0.739660       -20.1272
  17   2.0000      -0.720120       -19.5955
  18   2.0000      -0.682418       -18.5695
  19   2.0000      -0.649822       -17.6825
  20   2.0000      -0.625733       -17.0271
  21   2.0000      -0.614714       -16.7272
  22   2.0000      -0.574430       -15.6310
  23   2.0000      -0.565326       -15.3833
  24   2.0000      -0.553835       -15.0706
  25   2.0000      -0.551290       -15.0014
  26   2.0000      -0.535223       -14.5642
  27   2.0000      -0.506124       -13.7723
  28   2.0000      -0.491877       -13.3846
  29   2.0000      -0.464914       -12.6509
  30   2.0000      -0.455586       -12.3971
  31   2.0000      -0.451269       -12.2796
  32   2.0000      -0.376125       -10.2349
  33   2.0000      -0.355581        -9.6758
  34   0.0000       0.130407         3.5485
  35   0.0000       0.154914         4.2154
  36   0.0000       0.175144         4.7659
  37   0.0000       0.176655         4.8070
  38   0.0000       0.186074         5.0633

MULLIKEN ATOMIC CHARGES
-----------------------
   0 C :   -0.431026
   1 C :    0.055368
   2 C :   -0.253280
   3 C :   -0.022486
   4 C :   -0.250428
   5 C :   -0.147425
   6 C :    0.010770
   7 O :   -0.314060
   8 C :   -0.066777
   9 H :    0.127933
  10 H :    0.135623
  11 H :    0.128888
  12 H :    0.117958
  13 H :    0.113795
  14 H :    0.120046
  15 H :    0.118251
  16 H :    0.117205
  17 H :    0.121057
  18 H :    0.120684
  19 H :    0.097921
  20 H :    0.099983
Sum of atomic charges:    0.0000000

LOEWDIN ATOMIC CHARGES
----------------------
   0 C :   -0.270958
   1 C :   -0.229831
   2 C :   -0.182402
   3 C :   -0.239924
   4 C :   -0.206812
   5 C :   -0.164054
   6 C :   -0.243834
   7 O :    0.178674
   8 C :   -0.274778
   9 H :    0.126165
  10 H :    0.128301
  11 H :    0.128696
  12 H :    0.141657
  13 H :    0.142421
  14 H :    0.150171
  15 H :    0.139633
  16 H :    0.140454
  17 H :    0.141720
  18 H :    0.145592
  19 H :    0.124474
  20 H :    0.124637

  Mayer bond orders larger than 0.1
B(  0-C ,  1-C ) :   0.8770 B(  0-C ,  9-H ) :   0.9400 B(  0-C , 10-H ) :   0.9426
B(  0-C , 11-H ) :   0.9381 B(  1-C ,  2-C ) :   0.9718 B(  1-C ,  5-C ) :   0.8011
B(  1-C ,  6-C ) :   0.8669 B(  2-C ,  3-C ) :   0.9090 B(  2-C , 12-H ) :   0.9221
B(  2-C , 13-H ) :   0.9201 B(  3-C ,  4-C ) :   0.9150 B(  3-C ,  8-C ) :   0.9302
B(  3-C , 14-H ) :   0.9186 B(  4-C ,  5-C ) :   0.9592 B(  4-C , 15-H ) :   0.9232
B(  4-C , 16-H ) :   0.9238 B(  5-C ,  6-C ) :   0.8676 B(  5-C , 17-H ) :   0.9140
B(  6-C ,  7-O ) :   0.9790 B(  6-C , 18-H ) :   0.9506 B(  7-O ,  8-C ) :   0.9316
B(  8-C , 19-H ) :   0.9234 B(  8-C , 20-H ) :   0.9250

MP2 TOTAL ENERGY:     -386.427296604 Eh
FINAL SINGLE POINT ENERGY      -386.427296604468

DIPOLE MOMENT
-------------
                                X             Y             Z
Electronic contribution:     -2.77013      -2.69437       1.79374
Nuclear contribution   :      3.33890       2.82611      -2.05841
                        -----------------------------------------
Total Dipole Moment    :      0.56877       0.13174      -0.26467
                        -----------------------------------------
Magnitude (a.u.)       :      0.64102
Magnitude (Debye)      :      1.62934

                             ****ORCA TERMINATED NORMALLY****
TOTAL RUN TIME: 0 days 0 hours 22 minutes 10 seconds 185 msec
