                         Program Version 3.0.3 - RELEASE   -
|  1> ! RI-MP2 RIJK def2-TZVP def2-TZVP/C def2-TZVP/JK TIGHTSCF
|  2> % maxcore 2000
|  3> % mp2 density relaxed end
|  4> *xyz 0 1
|  5>  O       -0.0222015069     1.3144292896     0.0295477917
|  6>  C        0.0831890795    -0.0818924430    -0.0207658604
|  7>  C       -1.3595377910    -0.6724141600    -0.1255690418
|  8>  C       -1.1716457293    -0.7548769372    -1.6788289265
|  9>  C        0.3674360244    -0.6367650960    -1.4657263948
| 10>  C        1.1428077781     0.2274180773    -2.3325701749
| 11>  N        1.7647629638     0.9601955454    -2.9764317610
| 12>  C       -1.5241327081    -1.9566279011     0.5258338160
| 13>  C       -1.6396518047    -3.0303045153     1.0546422846
| 14>  H        0.8268144967     1.7015797506    -0.2161779609
| 15>  H        0.7223356999    -0.4857177490     0.7724266643
| 16>  H       -2.1164004018     0.0404362205     0.2095533851
| 17>  H       -1.5226069312    -1.6607727081    -2.1710315438
| 18>  H       -1.5810966175     0.1246176680    -2.1751165409
| 19>  H        0.8323042050    -1.6244175353    -1.4094105634
| 20>  H       -1.7545593569    -3.9727249264     1.5306680965
| 21> *
| 22>
| 23>                          ****END OF INPUT****

CARTESIAN COORDINATES (ANGSTROEM)
---------------------------------
  O     -0.022202    1.314429    0.029548
  C      0.083189   -0.081892   -0.020766
  C     -1.359538   -0.672414   -0.125569
  C     -1.171646   -0.754877   -1.678829
  C      0.367436   -0.636765   -1.465726
  C      1.142808    0.227418   -2.332570
  N      1.764763    0.960196   -2.976432
  C     -1.524133   -1.956628    0.525834
  C     -1.639652   -3.030305    1.054642
  H      0.826814    1.701580   -0.216178
  H      0.722336   -0.485718    0.772427
  H     -2.116400    0.040436    0.209553
  H     -1.522607   -1.660773   -2.171032
  H     -1.581097    0.124618   -2.175117
  H      0.832304   -1.624418   -1.409411
  H     -1.754559   -3.972725    1.530668

 Total Charge           Charge          ....    0
 Multiplicity           Mult            ....    1
 Number of Electrons    NEL             ....   64
 Basis Dimension        Dim             ....  321

ORBITAL ENERGIES
----------------

  NO   OCC          E(Eh)            E(eV)
   0   2.0000     -20.585218      -560.1523
   1   2.0000     -15.578667      -423.9171
   2   2.0000     -11.323005      -308.1146
   3   2.0000     -11.291357      -307.2534
   4   2.0000     -11.280968      -306.9707
   5   2.0000     -11.278025      -306.8907
   6   2.0000     -11.265115      -306.5394
   7   2.0000     -11.249643      -306.1184
   8   2.0000     -11.239047      -305.8300
   9   2.0000      -1.398602       -38.0579
  10   2.0000      -1.228323       -33.4244
  11   2.0000      -1.169267       -31.8174
  12   2.0000      -1.053519       -28.6677
  13   2.0000      -0.978778       -26.6339
  14   2.0000      -0.927491       -25.2383
  15   2.0000      -0.839672       -22.8486
  16   2.0000      -0.757406       -20.6101
  17   2.0000      -0.730369       -19.8744
  18   2.0000      -0.709376       -19.3031
  19   2.0000      -0.689637       -18.7660
  20   2.0000      -0.634426       -17.2636
  21   2.0000      -0.613962       -16.7068
  22   2.0000      -0.578469       -15.7409
  23   2.0000      -0.562667       -15.3109
  24   2.0000      -0.546177       -14.8622
  25   2.0000      -0.540089       -14.6966
  26   2.0000      -0.512841       -13.9551
  27   2.0000      -0.487322       -13.2607
  28   2.0000      -0.461619       -12.5613
  29   2.0000      -0.439066       -11.9476
  30   2.0000      -0.399059       -10.8589
  31   2.0000      -0.397819       -10.8252
  32   0.0000       0.124702         3.3933
  33   0.0000       0.133069         3.6210
  34   0.0000       0.145412         3.9569
  35   0.0000       0.149313         4.0630
  36   0.0000       0.160472         4.3667

MULLIKEN ATOMIC CHARGES
-----------------------
   0 O :   -0.445358
   1 C :   -0.010067
   2 C :   -0.047090
   3 C :   -0.267078
   4 C :    0.080947
   5 C :   -0.274254
   6 N :   -0.045755
   7 C :   -0.108645
   8 C :   -0.141725
   9 H :    0.335407
  10 H :    0.121151
  11 H :    0.150106
  12 H :    0.147000
  13 H :    0.149688
  14 H :    0.160003
  15 H :    0.195670
Sum of atomic charges:   -0.0000000

LOEWDIN ATOMIC CHARGES
----------------------
   0 O :    0.016761
   1 C :   -0.254389
   2 C :   -0.186100
   3 C :   -0.151059
   4 C :   -0.204093
   5 C :   -0.186113
   6 N :    0.062822
   7 C :   -0.092407
   8 C :   -0.089125
   9 H :    0.187450
  10 H :    0.132597
  11 H :    0.169876
  12 H :    0.137416
  13 H :    0.148538
  14 H :    0.178926
  15 H :    0.128902

  Mayer bond orders larger than 0.1
B(  0-O ,  1-C ) :   1.1258 B(  0-O ,  9-H ) :   0.8274 B(  1-C ,  2-C ) :   0.8042
B(  1-C ,  4-C ) :   0.8615 B(  1-C , 10-H ) :   0.9674 B(  2-C ,  3-C ) :   0.8546
B(  2-C ,  7-C ) :   1.1484 B(  2-C , 11-H ) :   0.9210 B(  3-C ,  4-C ) :   0.9119
B(  3-C , 12-H ) :   0.9255 B(  3-C , 13-H ) :   0.9126 B(  4-C ,  5-C ) :   0.9100
B(  4-C , 14-H ) :   0.8928 B(  5-C ,  6-N ) :   2.8647 B(  7-C ,  8-C ) :   2.5700
B(  8-C , 15-H ) :   0.8967

MP2 TOTAL ENERGY:     -400.018235230 Eh
FINAL SINGLE POINT ENERGY      -400.018235230334

DIPOLE MOMENT
-------------
                                X             Y             Z
Electronic contribution:      2.30851       1.58204      -1.14181
Nuclear contribution   :     -2.69403      -2.53140       1.81057
                        -----------------------------------------
Total Dipole Moment    :     -0.38552      -0.94936       0.66876
                        -----------------------------------------
Magnitude (a.u.)       :      1.22358
Magnitude (Debye)      :      3.11009

                             ****ORCA TERMINATED NORMALLY****
TOTAL RUN TIME: 0 days 0 hours 15 minutes 34 seconds 749 msec
