                         Program Version 3.0.3 - RELEASE   -
|  1> ! RI-MP2 RIJK def2-TZVP def2-TZVP/C def2-TZVP/JK TIGHTSCF
|  2> % maxcore 2000
|  3> % mp2 density relaxed end
|  4> *xyz 0 1
|  5>  O        0.0721132696     1.3649047132    -0.0444239064
|  6>  C        0.0648408442     0.0215870292    -0.0812506494
|  7>  C        0.0136393375    -0.7793300145    -1.1823146605
|  8>  N        0.0305567622    -2.0827691918    -0.6657347438
|  9>  C       -0.0058342472    -3.2758262772    -1.3876040046
| 10>  O        0.0118330553    -4.3650657562    -0.8809464021
| 11>  C        0.0906176534    -1.9671921555     0.7055244531
| 12>  N        0.1123257567    -0.7179476638     1.0840421522
| 13>  H        0.1136139664     1.6143023127     0.8873367488
| 14>  H       -0.0313129355    -0.5761547663    -2.2368880463
| 15>  H       -0.0520810260    -3.0956319295    -2.4759235312
| 16>  H        0.1144474333    -2.8389376504     1.3389775302
| 17> *
| 18>
| 19>                          ****END OF INPUT****

CARTESIAN COORDINATES (ANGSTROEM)
---------------------------------
  O      0.072113    1.364905   -0.044424
  C      0.064841    0.021587   -0.081251
  C      0.013639   -0.779330   -1.182315
  N      0.030557   -2.082769   -0.665735
  C     -0.005834   -3.275826   -1.387604
  O      0.011833   -4.365066   -0.880946
  C      0.090618   -1.967192    0.705524
  N      0.112326   -0.717948    1.084042
  H      0.113614    1.614302    0.887337
  H     -0.031313   -0.576155   -2.236888
  H     -0.052081   -3.095632   -2.475924
  H      0.114447   -2.838938    1.338978

 Total Charge           Charge          ....    0
 Multiplicity           Mult            ....    1
 Number of Electrons    NEL             ....   58
 Basis Dimension        Dim             ....  272

ORBITAL ENERGIES
----------------

  NO   OCC          E(Eh)            E(eV)
   0   2.0000     -20.601502      -560.5954
   1   2.0000     -20.574756      -559.8676
   2   2.0000     -15.649853      -425.8541
   3   2.0000     -15.577641      -423.8892
   4   2.0000     -11.393752      -310.0398
   5   2.0000     -11.334348      -308.4233
   6   2.0000     -11.330898      -308.3294
   7   2.0000     -11.270260      -306.6794
   8   2.0000      -1.439853       -39.1804
   9   2.0000      -1.429061       -38.8867
  10   2.0000      -1.357342       -36.9351
  11   2.0000      -1.209915       -32.9235
  12   2.0000      -1.032036       -28.0831
  13   2.0000      -0.937447       -25.5092
  14   2.0000      -0.836131       -22.7523
  15   2.0000      -0.819009       -22.2864
  16   2.0000      -0.749860       -20.4047
  17   2.0000      -0.706654       -19.2290
  18   2.0000      -0.689887       -18.7728
  19   2.0000      -0.662378       -18.0242
  20   2.0000      -0.654753       -17.8167
  21   2.0000      -0.616052       -16.7636
  22   2.0000      -0.599144       -16.3035
  23   2.0000      -0.575499       -15.6601
  24   2.0000      -0.536357       -14.5950
  25   2.0000      -0.493139       -13.4190
  26   2.0000      -0.462966       -12.5979
  27   2.0000      -0.422005       -11.4833
  28   2.0000      -0.329965        -8.9788
  29   0.0000       0.087164         2.3718
  30   0.0000       0.143031         3.8921
  31   0.0000       0.150918         4.1067
  32   0.0000       0.162991         4.4352
  33   0.0000       0.173171         4.7122

MULLIKEN ATOMIC CHARGES
-----------------------
   0 O :   -0.433935
   1 C :    0.214364
   2 C :   -0.181800
   3 N :   -0.019553
   4 C :    0.169300
   5 O :   -0.276933
   6 C :    0.013427
   7 N :   -0.294991
   8 H :    0.347331
   9 H :    0.171035
  10 H :    0.112302
  11 H :    0.179453
Sum of atomic charges:    0.0000000

LOEWDIN ATOMIC CHARGES
----------------------
   0 O :    0.078392
   1 C :   -0.397886
   2 C :   -0.195402
   3 N :    0.238264
   4 C :   -0.330245
   5 O :    0.133133
   6 C :   -0.247343
   7 N :    0.108198
   8 H :    0.203521
   9 H :    0.142388
  10 H :    0.123628
  11 H :    0.143353

  Mayer bond orders larger than 0.1
B(  0-O ,  1-C ) :   1.1029 B(  0-O ,  8-H ) :   0.8149 B(  1-C ,  2-C ) :   1.5811
B(  1-C ,  7-N ) :   1.2098 B(  2-C ,  3-N ) :   1.0333 B(  2-C ,  9-H ) :   0.8924
B(  3-N ,  4-C ) :   0.9602 B(  3-N ,  6-C ) :   1.1050 B(  4-C ,  5-O ) :   1.9635
B(  4-C , 10-H ) :   0.9277 B(  6-C ,  7-N ) :   1.5816 B(  6-C , 11-H ) :   0.9155

MP2 TOTAL ENERGY:     -414.042802230 Eh
FINAL SINGLE POINT ENERGY      -414.042802230331

DIPOLE MOMENT
-------------
                                X             Y             Z
Electronic contribution:      0.02502      -0.61128       0.64019
Nuclear contribution   :     -0.04673       0.90473      -1.16573
                        -----------------------------------------
Total Dipole Moment    :     -0.02171       0.29345      -0.52554
                        -----------------------------------------
Magnitude (a.u.)       :      0.60231
Magnitude (Debye)      :      1.53095

                             ****ORCA TERMINATED NORMALLY****
TOTAL RUN TIME: 0 days 0 hours 8 minutes 37 seconds 522 msec
