                         Program Version 3.0.3 - RELEASE   -
|  1> ! RI-MP2 RIJK def2-TZVP def2-TZVP/C def2-TZVP/JK TIGHTSCF
|  2> % maxcore 2000
|  3> % mp2 density relaxed end
|  4> *xyz 0 1
|  5>  C        0.0148536165     1.3763823142    -0.1335955577
|  6>  N        0.0331076740    -0.0738751402    -0.1085864983
|  7>  C       -1.0947283947    -0.6510707428     0.0134037390
|  8>  N       -2.3918833747    -0.1662490007     0.1501792465
|  9>  N       -3.3433811138    -1.2094703985     0.1222708463
| 10>  C       -2.6099630847    -2.2710598194     0.1269717517
| 11>  O       -3.0523641831    -3.5316804624     0.1784107855
| 12>  N       -1.2646210845    -2.0390466659     0.0930356521
| 13>  C       -0.1828872908    -2.9983776149     0.0518708773
| 14>  H        1.0412478295     1.7521284184    -0.1509568492
| 15>  H       -0.4907422043     1.7814878289    -1.0274275075
| 16>  H       -0.4860229379     1.8116803153     0.7466895223
| 17>  H       -2.6775628067     0.6910419946    -0.2943713914
| 18>  H       -4.0162772285    -3.4906168671     0.2330156983
| 19>  H        0.0670786742    -3.2800654989    -0.9768294034
| 20>  H        0.6929515149    -2.5310291915     0.5051332291
| 21>  H       -0.4681933152    -3.8915122491     0.6098296395
| 22> *
| 23>
| 24>                          ****END OF INPUT****

CARTESIAN COORDINATES (ANGSTROEM)
---------------------------------
  C      0.014854    1.376382   -0.133596
  N      0.033108   -0.073875   -0.108586
  C     -1.094728   -0.651071    0.013404
  N     -2.391883   -0.166249    0.150179
  N     -3.343381   -1.209470    0.122271
  C     -2.609963   -2.271060    0.126972
  O     -3.052364   -3.531680    0.178411
  N     -1.264621   -2.039047    0.093036
  C     -0.182887   -2.998378    0.051871
  H      1.041248    1.752128   -0.150957
  H     -0.490742    1.781488   -1.027428
  H     -0.486023    1.811680    0.746690
  H     -2.677563    0.691042   -0.294371
  H     -4.016277   -3.490617    0.233016
  H      0.067079   -3.280065   -0.976829
  H      0.692952   -2.531029    0.505133
  H     -0.468193   -3.891512    0.609830

 Total Charge           Charge          ....    0
 Multiplicity           Mult            ....    1
 Number of Electrons    NEL             ....   68
 Basis Dimension        Dim             ....  327

ORBITAL ENERGIES
----------------

  NO   OCC          E(Eh)            E(eV)
   0   2.0000     -20.630909      -561.3956
   1   2.0000     -15.615984      -424.9325
   2   2.0000     -15.611235      -424.8033
   3   2.0000     -15.579717      -423.9457
   4   2.0000     -15.515985      -422.2114
   5   2.0000     -11.383425      -309.7587
   6   2.0000     -11.346713      -308.7597
   7   2.0000     -11.272060      -306.7283
   8   2.0000     -11.238593      -305.8177
   9   2.0000      -1.471274       -40.0354
  10   2.0000      -1.385539       -37.7024
  11   2.0000      -1.245930       -33.9035
  12   2.0000      -1.209237       -32.9050
  13   2.0000      -1.084701       -29.5162
  14   2.0000      -0.983461       -26.7613
  15   2.0000      -0.934145       -25.4194
  16   2.0000      -0.866475       -23.5780
  17   2.0000      -0.794749       -21.6262
  18   2.0000      -0.738971       -20.1084
  19   2.0000      -0.718846       -19.5608
  20   2.0000      -0.691540       -18.8178
  21   2.0000      -0.642511       -17.4836
  22   2.0000      -0.637604       -17.3501
  23   2.0000      -0.608268       -16.5518
  24   2.0000      -0.602890       -16.4055
  25   2.0000      -0.588268       -16.0076
  26   2.0000      -0.568970       -15.4825
  27   2.0000      -0.550940       -14.9918
  28   2.0000      -0.543465       -14.7884
  29   2.0000      -0.490863       -13.3571
  30   2.0000      -0.448975       -12.2172
  31   2.0000      -0.420340       -11.4380
  32   2.0000      -0.399821       -10.8797
  33   2.0000      -0.308394        -8.3918
  34   0.0000       0.130042         3.5386
  35   0.0000       0.138922         3.7802
  36   0.0000       0.157073         4.2742
  37   0.0000       0.192535         5.2392
  38   0.0000       0.195544         5.3210

MULLIKEN ATOMIC CHARGES
-----------------------
   0 C :   -0.330650
   1 N :   -0.330539
   2 C :    0.222067
   3 N :   -0.240680
   4 N :   -0.252850
   5 C :    0.284212
   6 O :   -0.427169
   7 N :   -0.085463
   8 C :   -0.310496
   9 H :    0.143451
  10 H :    0.115596
  11 H :    0.125108
  12 H :    0.259144
  13 H :    0.355312
  14 H :    0.143376
  15 H :    0.172047
  16 H :    0.157533
Sum of atomic charges:    0.0000000

LOEWDIN ATOMIC CHARGES
----------------------
   0 C :   -0.353984
   1 N :    0.010469
   2 C :   -0.400174
   3 N :    0.070852
   4 N :   -0.003019
   5 C :   -0.491160
   6 O :    0.099315
   7 N :    0.227516
   8 C :   -0.267987
   9 H :    0.115714
  10 H :    0.104334
  11 H :    0.107446
  12 H :    0.183172
  13 H :    0.211869
  14 H :    0.122848
  15 H :    0.134995
  16 H :    0.127795

  Mayer bond orders larger than 0.1
B(  0-C ,  1-N ) :   0.9102 B(  0-C ,  9-H ) :   0.9483 B(  0-C , 10-H ) :   0.9280
B(  0-C , 11-H ) :   0.9293 B(  1-N ,  2-C ) :   1.8335 B(  2-C ,  3-N ) :   1.1199
B(  2-C ,  7-N ) :   1.0136 B(  3-N ,  4-N ) :   0.9106 B(  3-N , 12-H ) :   0.8633
B(  4-N ,  5-C ) :   1.7265 B(  5-C ,  6-O ) :   1.1252 B(  5-C ,  7-N ) :   1.1432
B(  6-O , 13-H ) :   0.8105 B(  7-N ,  8-C ) :   0.8670 B(  8-C , 14-H ) :   0.9317
B(  8-C , 15-H ) :   0.9211 B(  8-C , 16-H ) :   0.9268

MP2 TOTAL ENERGY:     -450.595568750 Eh
FINAL SINGLE POINT ENERGY      -450.595568750374

DIPOLE MOMENT
-------------
                                X             Y             Z
Electronic contribution:     -6.12543      -3.45199       0.57212
Nuclear contribution   :      5.70318       3.05358      -0.72915
                        -----------------------------------------
Total Dipole Moment    :     -0.42224      -0.39841      -0.15703
                        -----------------------------------------
Magnitude (a.u.)       :      0.60140
Magnitude (Debye)      :      1.52863

                             ****ORCA TERMINATED NORMALLY****
TOTAL RUN TIME: 0 days 0 hours 16 minutes 55 seconds 845 msec
