                         Program Version 3.0.3 - RELEASE   -
|  1> ! RI-MP2 RIJK def2-TZVP def2-TZVP/C def2-TZVP/JK TIGHTSCF
|  2> % maxcore 2000
|  3> % mp2 density relaxed end
|  4> *xyz 0 1
|  5>  C       -0.1127824617     1.4381418486     0.0954147870
|  6>  C       -0.4956362731     0.0721403211    -0.3989022284
|  7>  O       -0.6880159301    -0.2596283771    -1.5327530240
|  8>  O       -0.5999911243    -0.7852106986     0.6770512456
|  9>  C       -0.9358075278    -2.0855908673     0.4996386925
| 10>  N       -1.0170264731    -2.8416726182     1.5610250770
| 11>  O       -1.3646287775    -4.0732594134     1.0899395818
| 12>  N       -1.4984057057    -4.0764925715    -0.2692704771
| 13>  C       -1.2388916982    -2.8601826638    -0.6600301446
| 14>  H       -0.0297719925     2.1172619069    -0.7515190116
| 15>  H       -0.8649307154     1.8028997991     0.8005007127
| 16>  H        0.8380230720     1.3860965765     0.6331848823
| 17>  H       -1.2687661026    -2.5691422423    -1.6936420033
| 18> *
| 19>
| 20>                          ****END OF INPUT****

CARTESIAN COORDINATES (ANGSTROEM)
---------------------------------
  C     -0.112782    1.438142    0.095415
  C     -0.495636    0.072140   -0.398902
  O     -0.688016   -0.259628   -1.532753
  O     -0.599991   -0.785211    0.677051
  C     -0.935808   -2.085591    0.499639
  N     -1.017026   -2.841673    1.561025
  O     -1.364629   -4.073259    1.089940
  N     -1.498406   -4.076493   -0.269270
  C     -1.238892   -2.860183   -0.660030
  H     -0.029772    2.117262   -0.751519
  H     -0.864931    1.802900    0.800501
  H      0.838023    1.386097    0.633185
  H     -1.268766   -2.569142   -1.693642

 Total Charge           Charge          ....    0
 Multiplicity           Mult            ....    1
 Number of Electrons    NEL             ....   66
 Basis Dimension        Dim             ....  303

ORBITAL ENERGIES
----------------

  NO   OCC          E(Eh)            E(eV)
   0   2.0000     -20.687084      -562.9242
   1   2.0000     -20.661024      -562.2150
   2   2.0000     -20.588835      -560.2507
   3   2.0000     -15.667747      -426.3411
   4   2.0000     -15.654780      -425.9882
   5   2.0000     -11.427939      -310.9700
   6   2.0000     -11.370661      -309.4114
   7   2.0000     -11.303015      -307.5707
   8   2.0000     -11.270519      -306.6864
   9   2.0000      -1.556741       -42.3611
  10   2.0000      -1.515161       -41.2296
  11   2.0000      -1.419887       -38.6371
  12   2.0000      -1.221625       -33.2421
  13   2.0000      -1.181452       -32.1489
  14   2.0000      -1.056784       -28.7565
  15   2.0000      -0.913534       -24.8585
  16   2.0000      -0.887052       -24.1379
  17   2.0000      -0.817921       -22.2568
  18   2.0000      -0.743214       -20.2239
  19   2.0000      -0.720871       -19.6159
  20   2.0000      -0.711479       -19.3603
  21   2.0000      -0.707360       -19.2482
  22   2.0000      -0.681540       -18.5456
  23   2.0000      -0.626581       -17.0501
  24   2.0000      -0.606895       -16.5144
  25   2.0000      -0.602737       -16.4013
  26   2.0000      -0.590808       -16.0767
  27   2.0000      -0.540732       -14.7141
  28   2.0000      -0.531981       -14.4760
  29   2.0000      -0.500887       -13.6298
  30   2.0000      -0.491617       -13.3776
  31   2.0000      -0.444188       -12.0870
  32   2.0000      -0.418914       -11.3992
  33   0.0000       0.084923         2.3109
  34   0.0000       0.121272         3.3000
  35   0.0000       0.132944         3.6176
  36   0.0000       0.176095         4.7918
  37   0.0000       0.193597         5.2680

MULLIKEN ATOMIC CHARGES
-----------------------
   0 C :   -0.401170
   1 C :    0.326090
   2 O :   -0.302456
   3 O :   -0.225553
   4 C :    0.216462
   5 N :   -0.092821
   6 O :    0.001156
   7 N :   -0.077370
   8 C :   -0.135431
   9 H :    0.163098
  10 H :    0.165090
  11 H :    0.165087
  12 H :    0.197818
Sum of atomic charges:   -0.0000000

LOEWDIN ATOMIC CHARGES
----------------------
   0 C :   -0.261008
   1 C :   -0.451566
   2 O :    0.159228
   3 O :    0.323278
   4 C :   -0.388461
   5 N :    0.048014
   6 O :    0.211616
   7 N :    0.030842
   8 C :   -0.258723
   9 H :    0.140944
  10 H :    0.146339
  11 H :    0.146345
  12 H :    0.153153

  Mayer bond orders larger than 0.1
B(  0-C ,  1-C ) :   0.9416 B(  0-C ,  9-H ) :   0.9387 B(  0-C , 10-H ) :   0.9109
B(  0-C , 11-H ) :   0.9109 B(  1-C ,  2-O ) :   1.9555 B(  1-C ,  3-O ) :   0.9749
B(  3-O ,  4-C ) :   1.0259 B(  4-C ,  5-N ) :   1.5688 B(  4-C ,  8-C ) :   1.2332
B(  5-N ,  6-O ) :   0.9343 B(  5-N ,  7-N ) :   0.1279 B(  6-O ,  7-N ) :   0.9517
B(  7-N ,  8-C ) :   1.5612 B(  8-C , 12-H ) :   0.8987

MP2 TOTAL ENERGY:     -489.091229954 Eh
FINAL SINGLE POINT ENERGY      -489.091229954218

DIPOLE MOMENT
-------------
                                X             Y             Z
Electronic contribution:     -1.70190      -7.41584       1.16079
Nuclear contribution   :      2.04623       8.91430      -1.39175
                        -----------------------------------------
Total Dipole Moment    :      0.34433       1.49845      -0.23097
                        -----------------------------------------
Magnitude (a.u.)       :      1.55476
Magnitude (Debye)      :      3.95188

                             ****ORCA TERMINATED NORMALLY****
TOTAL RUN TIME: 0 days 0 hours 12 minutes 12 seconds 149 msec
