                         Program Version 3.0.3 - RELEASE   -
|  1> ! RI-MP2 RIJK def2-TZVP def2-TZVP/C def2-TZVP/JK TIGHTSCF
|  2> % maxcore 2000
|  3> % mp2 density relaxed end
|  4> *xyz 0 1
|  5>  O        0.8500185336     0.9800785886     1.2509140598
|  6>  C        0.5575451865     1.6816050353     0.3191049824
|  7>  C        1.1379719814     1.5320046229    -1.0844225222
|  8>  N        1.2259447562     2.8070737715    -1.7623640675
|  9>  C        2.3131961423     3.6316127130    -1.4930394932
| 10>  N        2.6749109793     4.5653560314    -2.3703915705
| 11>  N        3.7155104504     5.1932224809    -1.7689500337
| 12>  C        4.0165752701     4.6800943852    -0.5587118406
| 13>  C        3.1267709788     3.6503421127    -0.3301705332
| 14>  H       -0.1850759855     2.5072465386     0.4025723018
| 15>  H        2.0909312373     0.9876872028    -1.0139591374
| 16>  H        0.4347396728     0.8965286867    -1.6377110612
| 17>  H        0.9907842376     2.7959425960    -2.7433364926
| 18>  H        4.1652583383     5.9515952387    -2.2502591241
| 19>  H        4.8226804328     5.0714020413     0.0418192668
| 20>  H        3.0740926082     3.0173879244     0.5396802652
| 21> *
| 22>
| 23>                          ****END OF INPUT****

CARTESIAN COORDINATES (ANGSTROEM)
---------------------------------
  O      0.850019    0.980079    1.250914
  C      0.557545    1.681605    0.319105
  C      1.137972    1.532005   -1.084423
  N      1.225945    2.807074   -1.762364
  C      2.313196    3.631613   -1.493039
  N      2.674911    4.565356   -2.370392
  N      3.715510    5.193222   -1.768950
  C      4.016575    4.680094   -0.558712
  C      3.126771    3.650342   -0.330171
  H     -0.185076    2.507247    0.402572
  H      2.090931    0.987687   -1.013959
  H      0.434740    0.896529   -1.637711
  H      0.990784    2.795943   -2.743336
  H      4.165258    5.951595   -2.250259
  H      4.822680    5.071402    0.041819
  H      3.074093    3.017388    0.539680

 Total Charge           Charge          ....    0
 Multiplicity           Mult            ....    1
 Number of Electrons    NEL             ....   66
 Basis Dimension        Dim             ....  321

ORBITAL ENERGIES
----------------

  NO   OCC          E(Eh)            E(eV)
   0   2.0000     -20.561507      -559.5071
   1   2.0000     -15.635165      -425.4545
   2   2.0000     -15.576823      -423.8669
   3   2.0000     -15.572621      -423.7526
   4   2.0000     -11.333736      -308.4066
   5   2.0000     -11.296902      -307.4043
   6   2.0000     -11.285345      -307.0898
   7   2.0000     -11.281381      -306.9820
   8   2.0000     -11.221164      -305.3434
   9   2.0000      -1.401165       -38.1277
  10   2.0000      -1.374172       -37.3931
  11   2.0000      -1.248590       -33.9759
  12   2.0000      -1.092341       -29.7241
  13   2.0000      -1.051481       -28.6123
  14   2.0000      -0.979165       -26.6444
  15   2.0000      -0.837365       -22.7859
  16   2.0000      -0.813881       -22.1468
  17   2.0000      -0.777792       -21.1648
  18   2.0000      -0.747753       -20.3474
  19   2.0000      -0.691355       -18.8127
  20   2.0000      -0.671321       -18.2676
  21   2.0000      -0.644710       -17.5435
  22   2.0000      -0.616029       -16.7630
  23   2.0000      -0.609571       -16.5873
  24   2.0000      -0.599234       -16.3060
  25   2.0000      -0.586639       -15.9633
  26   2.0000      -0.565447       -15.3866
  27   2.0000      -0.515890       -14.0381
  28   2.0000      -0.475000       -12.9254
  29   2.0000      -0.461205       -12.5500
  30   2.0000      -0.422622       -11.5001
  31   2.0000      -0.353088        -9.6080
  32   2.0000      -0.322918        -8.7870
  33   0.0000       0.119474         3.2511
  34   0.0000       0.134815         3.6685
  35   0.0000       0.140220         3.8156
  36   0.0000       0.158682         4.3180
  37   0.0000       0.177514         4.8304

MULLIKEN ATOMIC CHARGES
-----------------------
   0 O :   -0.263895
   1 C :    0.094668
   2 C :   -0.095172
   3 N :   -0.357097
   4 C :    0.161105
   5 N :   -0.242778
   6 N :   -0.101603
   7 C :   -0.113743
   8 C :   -0.246817
   9 H :    0.088620
  10 H :    0.130499
  11 H :    0.143718
  12 H :    0.235795
  13 H :    0.256979
  14 H :    0.150801
  15 H :    0.158924
Sum of atomic charges:    0.0000000

LOEWDIN ATOMIC CHARGES
----------------------
   0 O :    0.132705
   1 C :   -0.298277
   2 C :   -0.296785
   3 N :    0.062752
   4 C :   -0.359766
   5 N :    0.020630
   6 N :    0.125874
   7 C :   -0.247883
   8 C :   -0.198088
   9 H :    0.113094
  10 H :    0.136727
  11 H :    0.150896
  12 H :    0.185932
  13 H :    0.187633
  14 H :    0.137688
  15 H :    0.146866

  Mayer bond orders larger than 0.1
B(  0-O ,  1-C ) :   1.9946 B(  1-C ,  2-C ) :   0.8655 B(  1-C ,  9-H ) :   0.9260
B(  2-C ,  3-N ) :   0.9053 B(  2-C , 10-H ) :   0.9089 B(  2-C , 11-H ) :   0.9072
B(  3-N ,  4-C ) :   1.0696 B(  3-N , 12-H ) :   0.8675 B(  4-C ,  5-N ) :   1.5627
B(  4-C ,  8-C ) :   1.2776 B(  5-N ,  6-N ) :   1.0679 B(  5-N ,  7-C ) :   0.1156
B(  6-N ,  7-C ) :   1.2301 B(  6-N , 13-H ) :   0.8733 B(  7-C ,  8-C ) :   1.4496
B(  7-C , 14-H ) :   0.9119 B(  8-C , 15-H ) :   0.9030

MP2 TOTAL ENERGY:     -433.357705561 Eh
FINAL SINGLE POINT ENERGY      -433.357705561342

DIPOLE MOMENT
-------------
                                X             Y             Z
Electronic contribution:      0.25908       1.37977      -0.04100
Nuclear contribution   :      0.27172      -0.84944      -0.61208
                        -----------------------------------------
Total Dipole Moment    :      0.53079       0.53033      -0.65308
                        -----------------------------------------
Magnitude (a.u.)       :      0.99474
Magnitude (Debye)      :      2.52843

                             ****ORCA TERMINATED NORMALLY****
TOTAL RUN TIME: 0 days 0 hours 16 minutes 47 seconds 514 msec
