                         Program Version 3.0.3 - RELEASE   -
|  1> ! RI-MP2 RIJK def2-TZVP def2-TZVP/C def2-TZVP/JK TIGHTSCF
|  2> % maxcore 2000
|  3> % mp2 density relaxed end
|  4> *xyz 0 1
|  5>  C        0.1274921454     1.6487464745     0.0135607361
|  6>  C       -0.2559336411     0.1795581896    -0.1969763262
|  7>  C        0.6607481305    -0.5176360391    -1.1797390943
|  8>  O        2.0390531431    -0.6396181437    -0.6488578388
|  9>  C        2.0582196910    -1.9843992809    -0.8583601710
| 10>  O        2.9491365892    -2.7519166491    -0.6705882513
| 11>  C        0.6194564973    -2.0620315033    -1.3961385883
| 12>  C       -0.3350821393    -2.8817129009    -0.5277296416
| 13>  N        0.6325444956    -2.4415810284    -2.8069986184
| 14>  H        1.1504729039     1.7295437771     0.3914871427
| 15>  H        0.0704176781     2.2107434042    -0.9247671288
| 16>  H       -0.5413442580     2.1282337824     0.7338001620
| 17>  H       -0.2377325818    -0.3493308982     0.7619422037
| 18>  H       -1.2824168644     0.1084510380    -0.5798723562
| 19>  H        0.7053585621     0.0090009493    -2.1367601965
| 20>  H       -0.3029297291    -2.5963239003     0.5273332159
| 21>  H       -1.3665046820    -2.7658829297    -0.8798340435
| 22>  H       -0.0670060871    -3.9402772124    -0.5956927001
| 23>  H        1.1574002733    -3.3059687961    -2.9127588391
| 24>  H       -0.3128378066    -2.6372627530    -3.1260301863
| 25> *
| 26>
| 27>                          ****END OF INPUT****

CARTESIAN COORDINATES (ANGSTROEM)
---------------------------------
  C      0.127492    1.648746    0.013561
  C     -0.255934    0.179558   -0.196976
  C      0.660748   -0.517636   -1.179739
  O      2.039053   -0.639618   -0.648858
  C      2.058220   -1.984399   -0.858360
  O      2.949137   -2.751917   -0.670588
  C      0.619456   -2.062032   -1.396139
  C     -0.335082   -2.881713   -0.527730
  N      0.632544   -2.441581   -2.806999
  H      1.150473    1.729544    0.391487
  H      0.070418    2.210743   -0.924767
  H     -0.541344    2.128234    0.733800
  H     -0.237733   -0.349331    0.761942
  H     -1.282417    0.108451   -0.579872
  H      0.705359    0.009001   -2.136760
  H     -0.302930   -2.596324    0.527333
  H     -1.366505   -2.765883   -0.879834
  H     -0.067006   -3.940277   -0.595693
  H      1.157400   -3.305969   -2.912759
  H     -0.312838   -2.637263   -3.126030

 Total Charge           Charge          ....    0
 Multiplicity           Mult            ....    1
 Number of Electrons    NEL             ....   70
 Basis Dimension        Dim             ....  345

ORBITAL ENERGIES
----------------

  NO   OCC          E(Eh)            E(eV)
   0   2.0000     -20.596877      -560.4695
   1   2.0000     -20.549825      -559.1892
   2   2.0000     -15.566172      -423.5771
   3   2.0000     -11.376895      -309.5811
   4   2.0000     -11.303764      -307.5910
   5   2.0000     -11.296325      -307.3886
   6   2.0000     -11.243407      -305.9487
   7   2.0000     -11.242066      -305.9122
   8   2.0000     -11.225265      -305.4550
   9   2.0000      -1.460940       -39.7542
  10   2.0000      -1.375535       -37.4302
  11   2.0000      -1.213409       -33.0185
  12   2.0000      -1.075959       -29.2783
  13   2.0000      -1.027001       -27.9461
  14   2.0000      -0.945000       -25.7147
  15   2.0000      -0.899766       -24.4839
  16   2.0000      -0.826559       -22.4918
  17   2.0000      -0.722182       -19.6516
  18   2.0000      -0.712897       -19.3989
  19   2.0000      -0.696633       -18.9564
  20   2.0000      -0.673537       -18.3279
  21   2.0000      -0.637179       -17.3385
  22   2.0000      -0.620389       -16.8816
  23   2.0000      -0.603756       -16.4290
  24   2.0000      -0.585364       -15.9286
  25   2.0000      -0.578661       -15.7462
  26   2.0000      -0.573897       -15.6165
  27   2.0000      -0.545468       -14.8429
  28   2.0000      -0.536820       -14.6076
  29   2.0000      -0.510806       -13.8997
  30   2.0000      -0.497721       -13.5437
  31   2.0000      -0.487236       -13.2584
  32   2.0000      -0.453522       -12.3410
  33   2.0000      -0.431006       -11.7283
  34   2.0000      -0.417629       -11.3643
  35   0.0000       0.115377         3.1396
  36   0.0000       0.142158         3.8683
  37   0.0000       0.154072         4.1925
  38   0.0000       0.171499         4.6667
  39   0.0000       0.177793         4.8380

MULLIKEN ATOMIC CHARGES
-----------------------
   0 C :   -0.397972
   1 C :   -0.178415
   2 C :   -0.002081
   3 O :   -0.236572
   4 C :    0.197491
   5 O :   -0.271963
   6 C :    0.220606
   7 C :   -0.418364
   8 N :   -0.563872
   9 H :    0.150632
  10 H :    0.125732
  11 H :    0.138016
  12 H :    0.110155
  13 H :    0.113940
  14 H :    0.117145
  15 H :    0.136161
  16 H :    0.132649
  17 H :    0.150522
  18 H :    0.249710
  19 H :    0.226480
Sum of atomic charges:   -0.0000000

LOEWDIN ATOMIC CHARGES
----------------------
   0 C :   -0.310391
   1 C :   -0.276547
   2 C :   -0.203266
   3 O :    0.259861
   4 C :   -0.438144
   5 O :    0.151098
   6 C :   -0.320715
   7 C :   -0.271793
   8 N :   -0.114780
   9 H :    0.128622
  10 H :    0.122875
  11 H :    0.122804
  12 H :    0.141736
  13 H :    0.145097
  14 H :    0.147639
  15 H :    0.130442
  16 H :    0.127295
  17 H :    0.133843
  18 H :    0.167032
  19 H :    0.157291

  Mayer bond orders larger than 0.1
B(  0-C ,  1-C ) :   0.9237 B(  0-C ,  9-H ) :   0.9364 B(  0-C , 10-H ) :   0.9369
B(  0-C , 11-H ) :   0.9398 B(  1-C ,  2-C ) :   0.9244 B(  1-C , 12-H ) :   0.9221
B(  1-C , 13-H ) :   0.9233 B(  2-C ,  3-O ) :   0.8744 B(  2-C ,  6-C ) :   0.8878
B(  2-C , 14-H ) :   0.9112 B(  3-O ,  4-C ) :   1.1324 B(  4-C ,  5-O ) :   2.0504
B(  4-C ,  6-C ) :   0.8579 B(  6-C ,  7-C ) :   0.9202 B(  6-C ,  8-N ) :   0.9316
B(  7-C , 15-H ) :   0.9279 B(  7-C , 16-H ) :   0.9278 B(  7-C , 17-H ) :   0.9267
B(  8-N , 18-H ) :   0.8806 B(  8-N , 19-H ) :   0.8903

MP2 TOTAL ENERGY:     -439.597271496 Eh
FINAL SINGLE POINT ENERGY      -439.597271495897

DIPOLE MOMENT
-------------
                                X             Y             Z
Electronic contribution:      8.89529      -4.31672      -1.46049
Nuclear contribution   :    -10.68036       4.37089       1.30714
                        -----------------------------------------
Total Dipole Moment    :     -1.78507       0.05417      -0.15335
                        -----------------------------------------
Magnitude (a.u.)       :      1.79247
Magnitude (Debye)      :      4.55609

                             ****ORCA TERMINATED NORMALLY****
TOTAL RUN TIME: 0 days 0 hours 31 minutes 4 seconds 167 msec
