                         Program Version 3.0.3 - RELEASE   -
|  1> ! RI-MP2 RIJK def2-TZVP def2-TZVP/C def2-TZVP/JK TIGHTSCF
|  2> % maxcore 2000
|  3> % mp2 density relaxed end
|  4> *xyz 0 1
|  5>  C       -1.5266144748    -0.1853892474    -0.1166064991
|  6>  C       -0.0008492571    -0.0866518885     0.0206500115
|  7>  C        0.4699042124    -0.6751380515     1.3537254565
|  8>  O       -0.0547840733     0.1360509000     2.3958941625
|  9>  C        0.7589144197    -0.6878750253    -1.1749225516
| 10>  C        0.5645968438    -2.1948370631    -1.3609241327
| 11>  C        0.6128668334     0.0941542243    -2.5085596512
| 12>  O        2.0393238120     0.2597251213    -2.6249919081
| 13>  C        2.2492271666    -0.2664955083    -1.3010314012
| 14>  H       -1.8782547326     0.2939327255    -1.0359617770
| 15>  H       -1.8634618588    -1.2276370837    -0.1313605286
| 16>  H       -2.0074059055     0.3076897803     0.7310201412
| 17>  H        0.2613126556     0.9798139195     0.0589596705
| 18>  H        0.1211967913    -1.7149938920     1.4533976684
| 19>  H        1.5716872451    -0.6931754152     1.3879428770
| 20>  H        0.1662206838    -0.2727320249     3.2374649724
| 21>  H       -0.4869156262    -2.4512673930    -1.5232756787
| 22>  H        1.1279250099    -2.5417730423    -2.2331174649
| 23>  H        0.9193104122    -2.7608271843    -0.4930852040
| 24>  H        0.1910071495    -0.4581811028    -3.3570732695
| 25>  H        0.0963925492     1.0600070806    -2.4187525954
| 26>  H        2.5654219224     0.5158880722    -0.5965232738
| 27>  H        2.9904694914    -1.0751299415    -1.2923048741
| 28> *
| 29>
| 30>                          ****END OF INPUT****

CARTESIAN COORDINATES (ANGSTROEM)
---------------------------------
  C     -1.526614   -0.185389   -0.116606
  C     -0.000849   -0.086652    0.020650
  C      0.469904   -0.675138    1.353725
  O     -0.054784    0.136051    2.395894
  C      0.758914   -0.687875   -1.174923
  C      0.564597   -2.194837   -1.360924
  C      0.612867    0.094154   -2.508560
  O      2.039324    0.259725   -2.624992
  C      2.249227   -0.266496   -1.301031
  H     -1.878255    0.293933   -1.035962
  H     -1.863462   -1.227637   -0.131361
  H     -2.007406    0.307690    0.731020
  H      0.261313    0.979814    0.058960
  H      0.121197   -1.714994    1.453398
  H      1.571687   -0.693175    1.387943
  H      0.166221   -0.272732    3.237465
  H     -0.486916   -2.451267   -1.523276
  H      1.127925   -2.541773   -2.233117
  H      0.919310   -2.760827   -0.493085
  H      0.191007   -0.458181   -3.357073
  H      0.096393    1.060007   -2.418753
  H      2.565422    0.515888   -0.596523
  H      2.990469   -1.075130   -1.292305

 Total Charge           Charge          ....    0
 Multiplicity           Mult            ....    1
 Number of Electrons    NEL             ....   72
 Basis Dimension        Dim             ....  363

ORBITAL ENERGIES
----------------

  NO   OCC          E(Eh)            E(eV)
   0   2.0000     -20.559950      -559.4647
   1   2.0000     -20.544370      -559.0407
   2   2.0000     -11.279549      -306.9321
   3   2.0000     -11.273479      -306.7670
   4   2.0000     -11.272894      -306.7511
   5   2.0000     -11.241187      -305.8883
   6   2.0000     -11.231016      -305.6115
   7   2.0000     -11.222075      -305.3682
   8   2.0000     -11.212485      -305.1072
   9   2.0000      -1.374941       -37.4141
  10   2.0000      -1.364298       -37.1244
  11   2.0000      -1.103474       -30.0271
  12   2.0000      -1.007763       -27.4226
  13   2.0000      -0.938727       -25.5441
  14   2.0000      -0.917899       -24.9773
  15   2.0000      -0.913927       -24.8692
  16   2.0000      -0.808814       -22.0089
  17   2.0000      -0.734059       -19.9748
  18   2.0000      -0.708242       -19.2722
  19   2.0000      -0.668106       -18.1801
  20   2.0000      -0.648430       -17.6447
  21   2.0000      -0.636200       -17.3119
  22   2.0000      -0.621986       -16.9251
  23   2.0000      -0.590541       -16.0694
  24   2.0000      -0.571789       -15.5592
  25   2.0000      -0.563087       -15.3224
  26   2.0000      -0.547660       -14.9026
  27   2.0000      -0.537227       -14.6187
  28   2.0000      -0.533648       -14.5213
  29   2.0000      -0.519608       -14.1393
  30   2.0000      -0.492354       -13.3976
  31   2.0000      -0.465054       -12.6548
  32   2.0000      -0.450741       -12.2653
  33   2.0000      -0.433020       -11.7831
  34   2.0000      -0.430107       -11.7038
  35   2.0000      -0.410793       -11.1782
  36   0.0000       0.125068         3.4033
  37   0.0000       0.144267         3.9257
  38   0.0000       0.162347         4.4177
  39   0.0000       0.163338         4.4446
  40   0.0000       0.181894         4.9496

MULLIKEN ATOMIC CHARGES
-----------------------
   0 C :   -0.434456
   1 C :   -0.030058
   2 C :   -0.112003
   3 O :   -0.465487
   4 C :    0.133982
   5 C :   -0.496887
   6 C :   -0.054309
   7 O :   -0.327260
   8 C :   -0.057155
   9 H :    0.131517
  10 H :    0.120167
  11 H :    0.160480
  12 H :    0.093984
  13 H :    0.105090
  14 H :    0.103169
  15 H :    0.316152
  16 H :    0.141123
  17 H :    0.153667
  18 H :    0.135053
  19 H :    0.099957
  20 H :    0.091424
  21 H :    0.093422
  22 H :    0.098428
Sum of atomic charges:    0.0000000

LOEWDIN ATOMIC CHARGES
----------------------
   0 C :   -0.285967
   1 C :   -0.256429
   2 C :   -0.324188
   3 O :   -0.044160
   4 C :   -0.269761
   5 C :   -0.269904
   6 C :   -0.233688
   7 O :    0.114244
   8 C :   -0.239028
   9 H :    0.123779
  10 H :    0.121647
  11 H :    0.131211
  12 H :    0.162740
  13 H :    0.117463
  14 H :    0.119619
  15 H :    0.172580
  16 H :    0.126627
  17 H :    0.133140
  18 H :    0.125076
  19 H :    0.118579
  20 H :    0.119414
  21 H :    0.119198
  22 H :    0.117807

  Mayer bond orders larger than 0.1
B(  0-C ,  1-C ) :   0.9153 B(  0-C ,  9-H ) :   0.9367 B(  0-C , 10-H ) :   0.9344
B(  0-C , 11-H ) :   0.9357 B(  1-C ,  2-C ) :   0.9081 B(  1-C ,  4-C ) :   0.8942
B(  1-C , 12-H ) :   0.9164 B(  2-C ,  3-O ) :   1.0289 B(  2-C , 13-H ) :   0.9274
B(  2-C , 14-H ) :   0.9292 B(  3-O , 15-H ) :   0.8476 B(  4-C ,  5-C ) :   0.8862
B(  4-C ,  6-C ) :   0.9387 B(  4-C ,  8-C ) :   0.9441 B(  5-C , 16-H ) :   0.9346
B(  5-C , 17-H ) :   0.9357 B(  5-C , 18-H ) :   0.9338 B(  6-C ,  7-O ) :   0.9596
B(  6-C , 19-H ) :   0.9101 B(  6-C , 20-H ) :   0.8993 B(  7-O ,  8-C ) :   0.9605
B(  8-C , 21-H ) :   0.8996 B(  8-C , 22-H ) :   0.9087

MP2 TOTAL ENERGY:     -424.702932490 Eh
FINAL SINGLE POINT ENERGY      -424.702932490232

DIPOLE MOMENT
-------------
                                X             Y             Z
Electronic contribution:      3.62642       3.39299      -0.64456
Nuclear contribution   :     -3.82344      -4.16828       1.35091
                        -----------------------------------------
Total Dipole Moment    :     -0.19701      -0.77529       0.70635
                        -----------------------------------------
Magnitude (a.u.)       :      1.06716
Magnitude (Debye)      :      2.71249

                             ****ORCA TERMINATED NORMALLY****
TOTAL RUN TIME: 0 days 0 hours 19 minutes 52 seconds 260 msec
