                         Program Version 3.0.3 - RELEASE   -
|  1> ! RI-MP2 RIJK def2-TZVP def2-TZVP/C def2-TZVP/JK TIGHTSCF
|  2> % maxcore 2000
|  3> % mp2 density relaxed end
|  4> *xyz 0 1
|  5>  C        0.8859893422     1.2141785289     0.3230103496
|  6>  C        0.0805197784    -0.0310113967     0.0036521149
|  7>  O        0.7380913842    -0.7061956823    -1.0814894391
|  8>  C        0.1619341293    -1.8391326411    -1.5241561320
|  9>  N       -0.8938392122    -2.3155727178    -1.0109173023
| 10>  C        0.9457064161    -2.4148881827    -2.7062260547
| 11>  C        2.4364176729    -2.5693707292    -2.3963410552
| 12>  O        0.3617351785    -3.6293836987    -3.1474810120
| 13>  H        1.9065583091     0.9546666809     0.6191746658
| 14>  H        0.9385523609     1.8792078026    -0.5438295646
| 15>  H        0.4166078340     1.7592753604     1.1473554509
| 16>  H        0.0165923325    -0.7107453658     0.8596895265
| 17>  H       -0.9456987228     0.2060894060    -0.2956181531
| 18>  H       -1.1579996443    -3.1503595034    -1.5344007714
| 19>  H        0.8268700253    -1.7163880767    -3.5436103591
| 20>  H        2.5855890481    -3.2654829782    -1.5614766822
| 21>  H        2.9601136158    -2.9604395101    -3.2724994709
| 22>  H        2.8737382175    -1.6105764156    -2.1131482007
| 23>  H        0.6549958346    -4.3286805905    -2.5522635404
| 24> *
| 25>
| 26>                          ****END OF INPUT****

CARTESIAN COORDINATES (ANGSTROEM)
---------------------------------
  C      0.885989    1.214179    0.323010
  C      0.080520   -0.031011    0.003652
  O      0.738091   -0.706196   -1.081489
  C      0.161934   -1.839133   -1.524156
  N     -0.893839   -2.315573   -1.010917
  C      0.945706   -2.414888   -2.706226
  C      2.436418   -2.569371   -2.396341
  O      0.361735   -3.629384   -3.147481
  H      1.906558    0.954667    0.619175
  H      0.938552    1.879208   -0.543830
  H      0.416608    1.759275    1.147355
  H      0.016592   -0.710745    0.859690
  H     -0.945699    0.206089   -0.295618
  H     -1.158000   -3.150360   -1.534401
  H      0.826870   -1.716388   -3.543610
  H      2.585589   -3.265483   -1.561477
  H      2.960114   -2.960440   -3.272499
  H      2.873738   -1.610576   -2.113148
  H      0.654996   -4.328681   -2.552264

 Total Charge           Charge          ....    0
 Multiplicity           Mult            ....    1
 Number of Electrons    NEL             ....   64
 Basis Dimension        Dim             ....  314

ORBITAL ENERGIES
----------------

  NO   OCC          E(Eh)            E(eV)
   0   2.0000     -20.587371      -560.2109
   1   2.0000     -20.571983      -559.7921
   2   2.0000     -15.528499      -422.5519
   3   2.0000     -11.330591      -308.3211
   4   2.0000     -11.301849      -307.5390
   5   2.0000     -11.279743      -306.9374
   6   2.0000     -11.231090      -305.6135
   7   2.0000     -11.220489      -305.3250
   8   2.0000      -1.425402       -38.7872
   9   2.0000      -1.380183       -37.5567
  10   2.0000      -1.188452       -32.3394
  11   2.0000      -1.049030       -28.5455
  12   2.0000      -1.016079       -27.6489
  13   2.0000      -0.899734       -24.4830
  14   2.0000      -0.848469       -23.0880
  15   2.0000      -0.778710       -21.1898
  16   2.0000      -0.719122       -19.5683
  17   2.0000      -0.676928       -18.4202
  18   2.0000      -0.665148       -18.0996
  19   2.0000      -0.649152       -17.6643
  20   2.0000      -0.634407       -17.2631
  21   2.0000      -0.575839       -15.6694
  22   2.0000      -0.573110       -15.5951
  23   2.0000      -0.553986       -15.0747
  24   2.0000      -0.547720       -14.9042
  25   2.0000      -0.538119       -14.6430
  26   2.0000      -0.508816       -13.8456
  27   2.0000      -0.501464       -13.6455
  28   2.0000      -0.480435       -13.0733
  29   2.0000      -0.472970       -12.8702
  30   2.0000      -0.423030       -11.5112
  31   2.0000      -0.399994       -10.8844
  32   0.0000       0.125792         3.4230
  33   0.0000       0.146630         3.9900
  34   0.0000       0.162998         4.4354
  35   0.0000       0.176034         4.7901
  36   0.0000       0.191377         5.2076

MULLIKEN ATOMIC CHARGES
-----------------------
   0 C :   -0.356849
   1 C :   -0.054730
   2 O :   -0.266472
   3 C :    0.136839
   4 N :   -0.411072
   5 C :    0.147658
   6 C :   -0.416920
   7 O :   -0.484782
   8 H :    0.128360
   9 H :    0.129951
  10 H :    0.129714
  11 H :    0.117838
  12 H :    0.120651
  13 H :    0.228693
  14 H :    0.112746
  15 H :    0.120891
  16 H :    0.148772
  17 H :    0.149384
  18 H :    0.319329
Sum of atomic charges:    0.0000000

LOEWDIN ATOMIC CHARGES
----------------------
   0 C :   -0.318025
   1 C :   -0.308263
   2 O :    0.249846
   3 C :   -0.419036
   4 N :   -0.065794
   5 C :   -0.343393
   6 C :   -0.297980
   7 O :   -0.013867
   8 H :    0.123383
   9 H :    0.123922
  10 H :    0.127489
  11 H :    0.127523
  12 H :    0.128649
  13 H :    0.168753
  14 H :    0.155831
  15 H :    0.123940
  16 H :    0.126676
  17 H :    0.132973
  18 H :    0.177373

  Mayer bond orders larger than 0.1
B(  0-C ,  1-C ) :   0.9336 B(  0-C ,  8-H ) :   0.9341 B(  0-C ,  9-H ) :   0.9340
B(  0-C , 10-H ) :   0.9363 B(  1-C ,  2-O ) :   0.8459 B(  1-C , 11-H ) :   0.9319
B(  1-C , 12-H ) :   0.9341 B(  2-O ,  3-C ) :   1.0890 B(  3-C ,  4-N ) :   1.9071
B(  3-C ,  5-C ) :   0.9240 B(  4-N , 13-H ) :   0.8493 B(  5-C ,  6-C ) :   0.9425
B(  5-C ,  7-O ) :   0.9019 B(  5-C , 14-H ) :   0.9029 B(  6-C , 15-H ) :   0.9208
B(  6-C , 16-H ) :   0.9359 B(  6-C , 17-H ) :   0.9255 B(  7-O , 18-H ) :   0.8384

MP2 TOTAL ENERGY:     -401.564251742 Eh
FINAL SINGLE POINT ENERGY      -401.564251742075

DIPOLE MOMENT
-------------
                                X             Y             Z
Electronic contribution:     -3.45480      -3.87404      -2.80191
Nuclear contribution   :      4.17816       3.91960       2.99256
                        -----------------------------------------
Total Dipole Moment    :      0.72336       0.04556       0.19066
                        -----------------------------------------
Magnitude (a.u.)       :      0.74945
Magnitude (Debye)      :      1.90495

                             ****ORCA TERMINATED NORMALLY****
TOTAL RUN TIME: 0 days 0 hours 10 minutes 52 seconds 264 msec
