                         Program Version 3.0.3 - RELEASE   -
|  1> ! RI-MP2 RIJK def2-TZVP def2-TZVP/C def2-TZVP/JK TIGHTSCF
|  2> % maxcore 2000
|  3> % mp2 density relaxed end
|  4> *xyz 0 1
|  5>  O        0.0741150080     1.4344220065    -0.0246301613
|  6>  C        0.0990954433     0.0335990728    -0.0745639471
|  7>  C        0.1743788180    -0.6390769580     1.3271110617
|  8>  O       -1.2565430529    -0.3079176404     1.4449206927
|  9>  C       -1.3120083392    -0.6184789316     0.0056311244
| 10>  C       -1.2511141885    -2.1842649046    -0.1562163043
| 11>  C       -1.1538007874    -2.7618874030     1.2911094442
| 12>  C        0.3037405087    -2.2058109050     1.2261367805
| 13>  C        0.2440053328    -2.6122262616    -0.2787941765
| 14>  H       -0.5481210111     1.6622290544     0.6788000543
| 15>  H        0.7979168897    -0.2290664476    -0.8646864159
| 16>  H        0.7715096583    -0.1783013398     2.1167725590
| 17>  H       -2.1588533580    -0.1376962839    -0.4884806448
| 18>  H       -1.9902142752    -2.5696430155    -0.8603434197
| 19>  H       -1.8272437064    -2.3823687811     2.0545057131
| 20>  H       -1.1563247119    -3.8535064489     1.2769346965
| 21>  H        1.0834142538    -2.6122354442     1.8722855374
| 22>  H        0.3308323126    -3.6955004288    -0.3933410559
| 23>  H        0.8991866154    -2.1378757497    -1.0083405082
| 24> *
| 25>
| 26>                          ****END OF INPUT****

CARTESIAN COORDINATES (ANGSTROEM)
---------------------------------
  O      0.074115    1.434422   -0.024630
  C      0.099095    0.033599   -0.074564
  C      0.174379   -0.639077    1.327111
  O     -1.256543   -0.307918    1.444921
  C     -1.312008   -0.618479    0.005631
  C     -1.251114   -2.184265   -0.156216
  C     -1.153801   -2.761887    1.291109
  C      0.303741   -2.205811    1.226137
  C      0.244005   -2.612226   -0.278794
  H     -0.548121    1.662229    0.678800
  H      0.797917   -0.229066   -0.864686
  H      0.771510   -0.178301    2.116773
  H     -2.158853   -0.137696   -0.488481
  H     -1.990214   -2.569643   -0.860343
  H     -1.827244   -2.382369    2.054506
  H     -1.156325   -3.853506    1.276935
  H      1.083414   -2.612235    1.872286
  H      0.330832   -3.695500   -0.393341
  H      0.899187   -2.137876   -1.008341

 Total Charge           Charge          ....    0
 Multiplicity           Mult            ....    1
 Number of Electrons    NEL             ....   68
 Basis Dimension        Dim             ....  339

ORBITAL ENERGIES
----------------

  NO   OCC          E(Eh)            E(eV)
   0   2.0000     -20.555446      -559.3421
   1   2.0000     -20.552203      -559.2539
   2   2.0000     -11.290955      -307.2425
   3   2.0000     -11.290907      -307.2412
   4   2.0000     -11.286925      -307.1328
   5   2.0000     -11.244425      -305.9764
   6   2.0000     -11.244398      -305.9756
   7   2.0000     -11.231972      -305.6375
   8   2.0000     -11.225973      -305.4743
   9   2.0000      -1.405379       -38.2423
  10   2.0000      -1.346750       -36.6469
  11   2.0000      -1.155019       -31.4297
  12   2.0000      -0.990199       -26.9447
  13   2.0000      -0.978321       -26.6215
  14   2.0000      -0.895965       -24.3805
  15   2.0000      -0.825475       -22.4623
  16   2.0000      -0.821645       -22.3581
  17   2.0000      -0.746394       -20.3104
  18   2.0000      -0.718529       -19.5522
  19   2.0000      -0.683659       -18.6033
  20   2.0000      -0.638009       -17.3611
  21   2.0000      -0.617512       -16.8034
  22   2.0000      -0.599647       -16.3172
  23   2.0000      -0.582428       -15.8487
  24   2.0000      -0.548536       -14.9264
  25   2.0000      -0.545391       -14.8408
  26   2.0000      -0.528259       -14.3747
  27   2.0000      -0.500542       -13.6204
  28   2.0000      -0.490012       -13.3339
  29   2.0000      -0.484066       -13.1721
  30   2.0000      -0.440043       -11.9742
  31   2.0000      -0.432601       -11.7717
  32   2.0000      -0.410900       -11.1812
  33   2.0000      -0.403156       -10.9704
  34   0.0000       0.141057         3.8384
  35   0.0000       0.150138         4.0855
  36   0.0000       0.161435         4.3929
  37   0.0000       0.167560         4.5595
  38   0.0000       0.185212         5.0399

MULLIKEN ATOMIC CHARGES
-----------------------
   0 O :   -0.460989
   1 C :    0.053084
   2 C :   -0.021872
   3 O :   -0.328946
   4 C :   -0.021872
   5 C :   -0.039871
   6 C :   -0.300869
   7 C :   -0.039871
   8 C :   -0.294791
   9 H :    0.327703
  10 H :    0.108337
  11 H :    0.128128
  12 H :    0.128128
  13 H :    0.127741
  14 H :    0.144629
  15 H :    0.120814
  16 H :    0.127741
  17 H :    0.122432
  18 H :    0.120344
Sum of atomic charges:    0.0000000

LOEWDIN ATOMIC CHARGES
----------------------
   0 O :   -0.005125
   1 C :   -0.304933
   2 C :   -0.211973
   3 O :    0.134148
   4 C :   -0.211974
   5 C :   -0.186774
   6 C :   -0.200395
   7 C :   -0.186774
   8 C :   -0.205452
   9 H :    0.182558
  10 H :    0.132974
  11 H :    0.133042
  12 H :    0.133042
  13 H :    0.133792
  14 H :    0.131867
  15 H :    0.137825
  16 H :    0.133792
  17 H :    0.138285
  18 H :    0.122074

  Mayer bond orders larger than 0.1
B(  0-O ,  1-C ) :   0.9934 B(  0-O ,  9-H ) :   0.8203 B(  1-C ,  2-C ) :   0.9427
B(  1-C ,  4-C ) :   0.9427 B(  1-C , 10-H ) :   0.9472 B(  2-C ,  3-O ) :   0.8821
B(  2-C ,  7-C ) :   0.8590 B(  2-C , 11-H ) :   0.9159 B(  3-O ,  4-C ) :   0.8821
B(  4-C ,  5-C ) :   0.8590 B(  4-C , 12-H ) :   0.9159 B(  5-C ,  6-C ) :   0.9135
B(  5-C ,  8-C ) :   0.9455 B(  5-C , 13-H ) :   0.9107 B(  6-C ,  7-C ) :   0.9135
B(  6-C , 14-H ) :   0.9055 B(  6-C , 15-H ) :   0.9282 B(  7-C ,  8-C ) :   0.9455
B(  7-C , 16-H ) :   0.9107 B(  8-C , 17-H ) :   0.9356 B(  8-C , 18-H ) :   0.9200

MP2 TOTAL ENERGY:     -422.268521574 Eh
FINAL SINGLE POINT ENERGY      -422.268521574023

DIPOLE MOMENT
-------------
                                X             Y             Z
Electronic contribution:     -0.65728       4.68052       0.81225
Nuclear contribution   :      0.71095      -5.40534      -0.88393
                        -----------------------------------------
Total Dipole Moment    :      0.05368      -0.72483      -0.07167
                        -----------------------------------------
Magnitude (a.u.)       :      0.73034
Magnitude (Debye)      :      1.85637

                             ****ORCA TERMINATED NORMALLY****
TOTAL RUN TIME: 0 days 0 hours 20 minutes 40 seconds 599 msec
