                         Program Version 3.0.3 - RELEASE   -
|  1> ! RI-MP2 RIJK def2-TZVP def2-TZVP/C def2-TZVP/JK TIGHTSCF
|  2> % maxcore 2000
|  3> % mp2 density relaxed end
|  4> *xyz 0 1
|  5>  C       -0.0424052548     1.5128399522     0.0941836144
|  6>  O        1.2429509358     1.9510666208    -0.3744365209
|  7>  C        2.1352868049     0.8546747698    -0.6302677438
|  8>  C        1.3060875690    -0.3687496089    -0.4069538163
|  9>  C        1.3430972941    -1.7389194411    -0.4599361412
| 10>  N        0.0962872373    -2.1787866541    -0.0693158061
| 11>  C       -0.7264593579    -1.1134361210     0.2285417525
| 12>  C        0.0164607074     0.0210150760     0.0220654635
| 13>  H       -0.2053544034     1.8891669577     1.1156509621
| 14>  H       -0.8180973608     1.9552237477    -0.5466607966
| 15>  H        2.5179934949     0.9469549748    -1.6564759053
| 16>  H        2.9981135113     0.9209809294     0.0499554233
| 17>  H        2.1163053178    -2.4387520882    -0.7321888948
| 18>  H       -0.1783932993    -3.1442373217    -0.0178888199
| 19>  H       -1.7423995740    -1.2725334811     0.5514836218
| 20> *
| 21>
| 22>                          ****END OF INPUT****

CARTESIAN COORDINATES (ANGSTROEM)
---------------------------------
  C     -0.042405    1.512840    0.094184
  O      1.242951    1.951067   -0.374437
  C      2.135287    0.854675   -0.630268
  C      1.306088   -0.368750   -0.406954
  C      1.343097   -1.738919   -0.459936
  N      0.096287   -2.178787   -0.069316
  C     -0.726459   -1.113436    0.228542
  C      0.016461    0.021015    0.022065
  H     -0.205354    1.889167    1.115651
  H     -0.818097    1.955224   -0.546661
  H      2.517993    0.946955   -1.656476
  H      2.998114    0.920981    0.049955
  H      2.116305   -2.438752   -0.732189
  H     -0.178393   -3.144237   -0.017889
  H     -1.742400   -1.272533    0.551484

 Total Charge           Charge          ....    0
 Multiplicity           Mult            ....    1
 Number of Electrons    NEL             ....   58
 Basis Dimension        Dim             ....  290

ORBITAL ENERGIES
----------------

  NO   OCC          E(Eh)            E(eV)
   0   2.0000     -20.542445      -558.9883
   1   2.0000     -15.607490      -424.7014
   2   2.0000     -11.274773      -306.8022
   3   2.0000     -11.274750      -306.8015
   4   2.0000     -11.257435      -306.3304
   5   2.0000     -11.257392      -306.3292
   6   2.0000     -11.212313      -305.1025
   7   2.0000     -11.211188      -305.0719
   8   2.0000      -1.361436       -37.0466
   9   2.0000      -1.290628       -35.1198
  10   2.0000      -1.066934       -29.0328
  11   2.0000      -1.008217       -27.4350
  12   2.0000      -0.948001       -25.7964
  13   2.0000      -0.880968       -23.9724
  14   2.0000      -0.775479       -21.1019
  15   2.0000      -0.740722       -20.1561
  16   2.0000      -0.721971       -19.6458
  17   2.0000      -0.657919       -17.9029
  18   2.0000      -0.640415       -17.4266
  19   2.0000      -0.592454       -16.1215
  20   2.0000      -0.587059       -15.9747
  21   2.0000      -0.566318       -15.4103
  22   2.0000      -0.564899       -15.3717
  23   2.0000      -0.536884       -14.6094
  24   2.0000      -0.506432       -13.7807
  25   2.0000      -0.472919       -12.8688
  26   2.0000      -0.421411       -11.4672
  27   2.0000      -0.333164        -9.0659
  28   2.0000      -0.301054        -8.1921
  29   0.0000       0.131802         3.5865
  30   0.0000       0.153680         4.1818
  31   0.0000       0.162583         4.4241
  32   0.0000       0.172768         4.7013
  33   0.0000       0.184662         5.0249

MULLIKEN ATOMIC CHARGES
-----------------------
   0 C :   -0.005047
   1 O :   -0.333680
   2 C :   -0.005046
   3 C :   -0.096922
   4 C :   -0.101294
   5 N :   -0.225925
   6 C :   -0.101294
   7 C :   -0.096922
   8 H :    0.104387
   9 H :    0.107824
  10 H :    0.107824
  11 H :    0.104387
  12 H :    0.149117
  13 H :    0.243473
  14 H :    0.149118
Sum of atomic charges:    0.0000000

LOEWDIN ATOMIC CHARGES
----------------------
   0 C :   -0.253772
   1 O :    0.133516
   2 C :   -0.253772
   3 C :   -0.168949
   4 C :   -0.215831
   5 N :    0.182957
   6 C :   -0.215831
   7 C :   -0.168949
   8 H :    0.125735
   9 H :    0.126936
  10 H :    0.126936
  11 H :    0.125735
  12 H :    0.132776
  13 H :    0.189736
  14 H :    0.132776

  Mayer bond orders larger than 0.1
B(  0-C ,  1-O ) :   0.9462 B(  0-C ,  7-C ) :   0.9580 B(  0-C ,  8-H ) :   0.9174
B(  0-C ,  9-H ) :   0.9150 B(  1-O ,  2-C ) :   0.9462 B(  2-C ,  3-C ) :   0.9580
B(  2-C , 10-H ) :   0.9150 B(  2-C , 11-H ) :   0.9174 B(  3-C ,  4-C ) :   1.4519
B(  3-C ,  7-C ) :   1.2895 B(  4-C ,  5-N ) :   1.1452 B(  4-C ,  6-C ) :   0.1122
B(  4-C , 12-H ) :   0.9032 B(  5-N ,  6-C ) :   1.1452 B(  5-N , 13-H ) :   0.8771
B(  6-C ,  7-C ) :   1.4519 B(  6-C , 14-H ) :   0.9032

MP2 TOTAL ENERGY:     -362.060882122 Eh
FINAL SINGLE POINT ENERGY      -362.060882122151

DIPOLE MOMENT
-------------
                                X             Y             Z
Electronic contribution:     -0.28785      -0.90001      -0.04762
Nuclear contribution   :     -0.07329      -0.42451       0.16535
                        -----------------------------------------
Total Dipole Moment    :     -0.36115      -1.32452       0.11772
                        -----------------------------------------
Magnitude (a.u.)       :      1.37791
Magnitude (Debye)      :      3.50237

                             ****ORCA TERMINATED NORMALLY****
TOTAL RUN TIME: 0 days 0 hours 11 minutes 5 seconds 274 msec
