                         Program Version 3.0.3 - RELEASE   -
|  1> ! RI-MP2 RIJK def2-TZVP def2-TZVP/C def2-TZVP/JK TIGHTSCF
|  2> % maxcore 2000
|  3> % mp2 density relaxed end
|  4> *xyz 0 1
|  5>  C        0.1959525962     1.5385997429     0.1248787761
|  6>  C        0.0973632363     0.0865596862     0.1217750532
|  7>  C        0.0178503540    -1.1161317613     0.1327867874
|  8>  C       -0.0427067948    -2.5519369704     0.0928874396
|  9>  C       -0.7017068120    -3.3204493230     1.1975366234
| 10>  N       -1.3150584280    -3.2715338378    -0.1234924023
| 11>  C       -2.5378204944    -2.4797738954    -0.2576465490
| 12>  C       -3.7496528482    -3.4069419277    -0.2031947636
| 13>  O       -3.8417190645    -4.1167895161     1.0218251663
| 14>  H        1.2423645423     1.8612296806     0.1618403862
| 15>  H       -0.2518959042     1.9726575564    -0.7760346473
| 16>  H       -0.3145757440     1.9716815427     0.9921265184
| 17>  H        0.7947653347    -3.0239223784    -0.4168206148
| 18>  H       -0.2891743113    -4.2792194770     1.5024495861
| 19>  H       -1.1606010177    -2.7387294388     1.9937677863
| 20>  H       -2.6240209608    -1.7055497240     0.5195487284
| 21>  H       -2.5154400827    -1.9726152346    -1.2294618637
| 22>  H       -4.6659240042    -2.8124443221    -0.2848891226
| 23>  H       -3.7173244431    -4.0965748078    -1.0595315222
| 24>  H       -3.1074350135    -4.7387549643     1.0380854743
| 25> *
| 26>
| 27>                          ****END OF INPUT****

CARTESIAN COORDINATES (ANGSTROEM)
---------------------------------
  C      0.195953    1.538600    0.124879
  C      0.097363    0.086560    0.121775
  C      0.017850   -1.116132    0.132787
  C     -0.042707   -2.551937    0.092887
  C     -0.701707   -3.320449    1.197537
  N     -1.315058   -3.271534   -0.123492
  C     -2.537820   -2.479774   -0.257647
  C     -3.749653   -3.406942   -0.203195
  O     -3.841719   -4.116790    1.021825
  H      1.242365    1.861230    0.161840
  H     -0.251896    1.972658   -0.776035
  H     -0.314576    1.971682    0.992127
  H      0.794765   -3.023922   -0.416821
  H     -0.289174   -4.279219    1.502450
  H     -1.160601   -2.738729    1.993768
  H     -2.624021   -1.705550    0.519549
  H     -2.515440   -1.972615   -1.229462
  H     -4.665924   -2.812444   -0.284889
  H     -3.717324   -4.096575   -1.059532
  H     -3.107435   -4.738755    1.038085

 Total Charge           Charge          ....    0
 Multiplicity           Mult            ....    1
 Number of Electrons    NEL             ....   68
 Basis Dimension        Dim             ....  345

ORBITAL ENERGIES
----------------

  NO   OCC          E(Eh)            E(eV)
   0   2.0000     -20.550040      -559.1950
   1   2.0000     -15.570398      -423.6921
   2   2.0000     -11.283874      -307.0498
   3   2.0000     -11.270064      -306.6740
   4   2.0000     -11.264513      -306.5230
   5   2.0000     -11.251166      -306.1598
   6   2.0000     -11.250420      -306.1395
   7   2.0000     -11.231802      -305.6329
   8   2.0000     -11.223931      -305.4187
   9   2.0000      -1.356164       -36.9031
  10   2.0000      -1.281908       -34.8825
  11   2.0000      -1.065512       -28.9941
  12   2.0000      -1.032985       -28.1090
  13   2.0000      -0.973470       -26.4895
  14   2.0000      -0.897534       -24.4231
  15   2.0000      -0.864687       -23.5293
  16   2.0000      -0.807732       -21.9795
  17   2.0000      -0.706750       -19.2316
  18   2.0000      -0.695547       -18.9268
  19   2.0000      -0.657497       -17.8914
  20   2.0000      -0.634591       -17.2681
  21   2.0000      -0.629202       -17.1215
  22   2.0000      -0.591479       -16.0950
  23   2.0000      -0.590661       -16.0727
  24   2.0000      -0.579954       -15.7814
  25   2.0000      -0.560426       -15.2500
  26   2.0000      -0.552511       -15.0346
  27   2.0000      -0.519197       -14.1281
  28   2.0000      -0.480953       -13.0874
  29   2.0000      -0.474602       -12.9146
  30   2.0000      -0.438059       -11.9202
  31   2.0000      -0.413005       -11.2384
  32   2.0000      -0.376091       -10.2340
  33   2.0000      -0.346707        -9.4344
  34   0.0000       0.132752         3.6124
  35   0.0000       0.145427         3.9573
  36   0.0000       0.160307         4.3622
  37   0.0000       0.169317         4.6074
  38   0.0000       0.174900         4.7593

MULLIKEN ATOMIC CHARGES
-----------------------
   0 C :   -0.479345
   1 C :    0.050146
   2 C :   -0.005712
   3 C :   -0.203878
   4 C :   -0.165657
   5 N :   -0.239096
   6 C :   -0.112524
   7 C :   -0.029344
   8 O :   -0.485897
   9 H :    0.164522
  10 H :    0.162930
  11 H :    0.163528
  12 H :    0.136193
  13 H :    0.135994
  14 H :    0.138583
  15 H :    0.108668
  16 H :    0.118611
  17 H :    0.111569
  18 H :    0.105790
  19 H :    0.324921
Sum of atomic charges:   -0.0000000

LOEWDIN ATOMIC CHARGES
----------------------
   0 C :   -0.294018
   1 C :   -0.093307
   2 C :   -0.078632
   3 C :   -0.242130
   4 C :   -0.236463
   5 N :    0.111396
   6 C :   -0.299923
   7 C :   -0.349461
   8 O :   -0.047659
   9 H :    0.142803
  10 H :    0.141148
  11 H :    0.141536
  12 H :    0.157546
  13 H :    0.124659
  14 H :    0.131529
  15 H :    0.129856
  16 H :    0.139313
  17 H :    0.128395
  18 H :    0.118667
  19 H :    0.174747

  Mayer bond orders larger than 0.1
B(  0-C ,  1-C ) :   0.8612 B(  0-C ,  9-H ) :   0.9479 B(  0-C , 10-H ) :   0.9457
B(  0-C , 11-H ) :   0.9452 B(  1-C ,  2-C ) :   2.6316 B(  1-C ,  3-C ) :  -0.1104
B(  2-C ,  3-C ) :   1.1069 B(  3-C ,  4-C ) :   0.9085 B(  3-C ,  5-N ) :   0.9355
B(  3-C , 12-H ) :   0.9294 B(  4-C ,  5-N ) :   0.8714 B(  4-C , 13-H ) :   0.9229
B(  4-C , 14-H ) :   0.9178 B(  5-N ,  6-C ) :   0.8704 B(  6-C ,  7-C ) :   0.9256
B(  6-C , 15-H ) :   0.9205 B(  6-C , 16-H ) :   0.9172 B(  7-C ,  8-O ) :   0.9442
B(  7-C , 17-H ) :   0.9312 B(  7-C , 18-H ) :   0.9459 B(  8-O , 19-H ) :   0.8427

MP2 TOTAL ENERGY:     -402.387320450 Eh
FINAL SINGLE POINT ENERGY      -402.387320450054

DIPOLE MOMENT
-------------
                                X             Y             Z
Electronic contribution:      1.48797      -3.02165       0.16836
Nuclear contribution   :     -0.99592       3.58620      -0.30589
                        -----------------------------------------
Total Dipole Moment    :      0.49204       0.56455      -0.13754
                        -----------------------------------------
Magnitude (a.u.)       :      0.76141
Magnitude (Debye)      :      1.93534

                             ****ORCA TERMINATED NORMALLY****
TOTAL RUN TIME: 0 days 0 hours 16 minutes 31 seconds 431 msec
