                         Program Version 3.0.3 - RELEASE   -
|  1> ! RI-MP2 RIJK def2-TZVP def2-TZVP/C def2-TZVP/JK TIGHTSCF
|  2> % maxcore 2000
|  3> % mp2 density relaxed end
|  4> *xyz 0 1
|  5>  C        0.0579078403     1.5317626630     0.1040897037
|  6>  C       -0.0301210465     0.0376900544    -0.0434678995
|  7>  C        0.2244537094    -0.7059676660    -1.3797797060
|  8>  C       -0.6487256526    -1.8495857106    -0.7877063266
|  9>  N        0.1500608621    -2.6309053245     0.1682101432
| 10>  C        0.8300783355    -1.8994177380     0.9553234375
| 11>  O        0.8435822581    -0.5506785620     0.9649841020
| 12>  C       -1.3935654537    -0.7298058495     0.0015685919
| 13>  O       -2.0121969556    -1.0035614660     1.2182128867
| 14>  H        1.0881169412     1.8781128888    -0.0240152180
| 15>  H       -0.5701153072     2.0194658233    -0.6467237579
| 16>  H       -0.2869212393     1.8345929159     1.0973829408
| 17>  H       -0.2607731640    -0.1997111286    -2.2167192342
| 18>  H        1.2586112834    -0.9497080953    -1.6275244239
| 19>  H       -1.2053459254    -2.5125473769    -1.4486692391
| 20>  H        1.4826976594    -2.3156540772     1.7192827055
| 21>  H       -2.1165628156    -0.2143869207    -0.6365233035
| 22>  H       -1.5423316793    -1.7404361402     1.6279537075
| 23> *
| 24>
| 25>                          ****END OF INPUT****

CARTESIAN COORDINATES (ANGSTROEM)
---------------------------------
  C      0.057908    1.531763    0.104090
  C     -0.030121    0.037690   -0.043468
  C      0.224454   -0.705968   -1.379780
  C     -0.648726   -1.849586   -0.787706
  N      0.150061   -2.630905    0.168210
  C      0.830078   -1.899418    0.955323
  O      0.843582   -0.550679    0.964984
  C     -1.393565   -0.729806    0.001569
  O     -2.012197   -1.003561    1.218213
  H      1.088117    1.878113   -0.024015
  H     -0.570115    2.019466   -0.646724
  H     -0.286921    1.834593    1.097383
  H     -0.260773   -0.199711   -2.216719
  H      1.258611   -0.949708   -1.627524
  H     -1.205346   -2.512547   -1.448669
  H      1.482698   -2.315654    1.719283
  H     -2.116563   -0.214387   -0.636523
  H     -1.542332   -1.740436    1.627954

 Total Charge           Charge          ....    0
 Multiplicity           Mult            ....    1
 Number of Electrons    NEL             ....   68
 Basis Dimension        Dim             ....  333

ORBITAL ENERGIES
----------------

  NO   OCC          E(Eh)            E(eV)
   0   2.0000     -20.602766      -560.6298
   1   2.0000     -20.563193      -559.5529
   2   2.0000     -15.554434      -423.2577
   3   2.0000     -11.340143      -308.5810
   4   2.0000     -11.307313      -307.6876
   5   2.0000     -11.291421      -307.2552
   6   2.0000     -11.270334      -306.6814
   7   2.0000     -11.239646      -305.8463
   8   2.0000     -11.228111      -305.5324
   9   2.0000      -1.444202       -39.2987
  10   2.0000      -1.373198       -37.3666
  11   2.0000      -1.227742       -33.4086
  12   2.0000      -1.135448       -30.8971
  13   2.0000      -0.997941       -27.1554
  14   2.0000      -0.904520       -24.6132
  15   2.0000      -0.884229       -24.0611
  16   2.0000      -0.855553       -23.2808
  17   2.0000      -0.755058       -20.5462
  18   2.0000      -0.714229       -19.4351
  19   2.0000      -0.661634       -18.0040
  20   2.0000      -0.654342       -17.8056
  21   2.0000      -0.643410       -17.5081
  22   2.0000      -0.624388       -16.9904
  23   2.0000      -0.606159       -16.4944
  24   2.0000      -0.578176       -15.7330
  25   2.0000      -0.561087       -15.2680
  26   2.0000      -0.550983       -14.9930
  27   2.0000      -0.544181       -14.8079
  28   2.0000      -0.532775       -14.4975
  29   2.0000      -0.491472       -13.3736
  30   2.0000      -0.475496       -12.9389
  31   2.0000      -0.437536       -11.9059
  32   2.0000      -0.405346       -11.0300
  33   2.0000      -0.379208       -10.3188
  34   0.0000       0.133511         3.6330
  35   0.0000       0.149284         4.0622
  36   0.0000       0.160104         4.3567
  37   0.0000       0.167228         4.5505
  38   0.0000       0.176080         4.7914

MULLIKEN ATOMIC CHARGES
-----------------------
   0 C :   -0.423906
   1 C :    0.234263
   2 C :   -0.293130
   3 C :    0.071664
   4 N :   -0.292822
   5 C :    0.014984
   6 O :   -0.251614
   7 C :   -0.017862
   8 O :   -0.455427
   9 H :    0.144554
  10 H :    0.127501
  11 H :    0.152339
  12 H :    0.132091
  13 H :    0.136455
  14 H :    0.130391
  15 H :    0.142692
  16 H :    0.113548
  17 H :    0.334280
Sum of atomic charges:    0.0000000

LOEWDIN ATOMIC CHARGES
----------------------
   0 C :   -0.268361
   1 C :   -0.298213
   2 C :   -0.179633
   3 C :   -0.238702
   4 N :    0.078781
   5 C :   -0.371657
   6 O :    0.270071
   7 C :   -0.293989
   8 O :    0.009693
   9 H :    0.132909
  10 H :    0.132498
  11 H :    0.137240
  12 H :    0.145869
  13 H :    0.138607
  14 H :    0.133930
  15 H :    0.134627
  16 H :    0.153211
  17 H :    0.183119

  Mayer bond orders larger than 0.1
B(  0-C ,  1-C ) :   0.8776 B(  0-C ,  9-H ) :   0.9400 B(  0-C , 10-H ) :   0.9378
B(  0-C , 11-H ) :   0.9372 B(  1-C ,  2-C ) :   0.9152 B(  1-C ,  6-O ) :   0.8002
B(  1-C ,  7-C ) :   0.8535 B(  2-C ,  3-C ) :   0.9408 B(  2-C , 12-H ) :   0.9259
B(  2-C , 13-H ) :   0.8993 B(  3-C ,  4-N ) :   0.8825 B(  3-C ,  7-C ) :   0.9327
B(  3-C , 14-H ) :   0.9434 B(  4-N ,  5-C ) :   1.8058 B(  5-C ,  6-O ) :   1.1126
B(  5-C , 15-H ) :   0.9302 B(  7-C ,  8-O ) :   0.9887 B(  7-C , 16-H ) :   0.9528
B(  8-O , 17-H ) :   0.8195

MP2 TOTAL ENERGY:     -438.371571883 Eh
FINAL SINGLE POINT ENERGY      -438.371571882686

DIPOLE MOMENT
-------------
                                X             Y             Z
Electronic contribution:      0.30237      -4.51920       2.90366
Nuclear contribution   :     -0.01575       5.05763      -3.40949
                        -----------------------------------------
Total Dipole Moment    :      0.28662       0.53843      -0.50583
                        -----------------------------------------
Magnitude (a.u.)       :      0.79241
Magnitude (Debye)      :      2.01415

                             ****ORCA TERMINATED NORMALLY****
TOTAL RUN TIME: 0 days 0 hours 18 minutes 51 seconds 617 msec
