                         Program Version 3.0.3 - RELEASE   -
|  1> ! RI-MP2 RIJK def2-TZVP def2-TZVP/C def2-TZVP/JK TIGHTSCF
|  2> % maxcore 2000
|  3> % mp2 density relaxed end
|  4> *xyz 0 1
|  5>  O        0.1704550166     1.5432262247     0.1956046829
|  6>  C        0.0905204207     0.1516352707     0.0926658106
|  7>  C        0.6478041525    -0.3009934852    -1.2559189576
|  8>  O        0.8599614760     0.4975094105    -2.1334526416
|  9>  C        0.7608035559    -0.5209170503     1.2822504473
| 10>  C        0.1090252025    -0.3840997322     2.6189070173
| 11>  N        0.1373935997    -1.6864667036     1.9677393760
| 12>  C        2.2464959880    -0.6476963882     1.2254744861
| 13>  O        2.9024470933    -0.3479057982     0.2592774720
| 14>  H        0.4702909260     1.8465833016    -0.6781580785
| 15>  H       -0.9684473352    -0.1815329864     0.0916543520
| 16>  H        0.7698359006    -1.3914461936    -1.4032895128
| 17>  H        0.7248419720    -0.3011712454     3.5102751986
| 18>  H       -0.8138603868     0.1883125499     2.6436251875
| 19>  H       -0.7593795183    -1.8925619938     1.5325349575
| 20>  H        2.7066736965    -1.0725250705     2.1419549426
| 21> *
| 22>
| 23>                          ****END OF INPUT****

CARTESIAN COORDINATES (ANGSTROEM)
---------------------------------
  O      0.170455    1.543226    0.195605
  C      0.090520    0.151635    0.092666
  C      0.647804   -0.300993   -1.255919
  O      0.859961    0.497509   -2.133453
  C      0.760804   -0.520917    1.282250
  C      0.109025   -0.384100    2.618907
  N      0.137394   -1.686467    1.967739
  C      2.246496   -0.647696    1.225474
  O      2.902447   -0.347906    0.259277
  H      0.470291    1.846583   -0.678158
  H     -0.968447   -0.181533    0.091654
  H      0.769836   -1.391446   -1.403290
  H      0.724842   -0.301171    3.510275
  H     -0.813860    0.188313    2.643625
  H     -0.759380   -1.892562    1.532535
  H      2.706674   -1.072525    2.141955

 Total Charge           Charge          ....    0
 Multiplicity           Mult            ....    1
 Number of Electrons    NEL             ....   68
 Basis Dimension        Dim             ....  321

ORBITAL ENERGIES
----------------

  NO   OCC          E(Eh)            E(eV)
   0   2.0000     -20.574819      -559.8693
   1   2.0000     -20.574602      -559.8634
   2   2.0000     -20.572018      -559.7931
   3   2.0000     -15.602575      -424.5677
   4   2.0000     -11.351844      -308.8994
   5   2.0000     -11.349775      -308.8431
   6   2.0000     -11.322893      -308.1116
   7   2.0000     -11.302108      -307.5460
   8   2.0000     -11.294329      -307.3343
   9   2.0000      -1.428005       -38.8580
  10   2.0000      -1.414507       -38.4907
  11   2.0000      -1.378112       -37.5003
  12   2.0000      -1.304503       -35.4973
  13   2.0000      -1.037679       -28.2367
  14   2.0000      -0.955506       -26.0006
  15   2.0000      -0.904520       -24.6133
  16   2.0000      -0.837821       -22.7983
  17   2.0000      -0.780024       -21.2255
  18   2.0000      -0.741390       -20.1742
  19   2.0000      -0.726619       -19.7723
  20   2.0000      -0.700307       -19.0563
  21   2.0000      -0.672984       -18.3128
  22   2.0000      -0.657348       -17.8874
  23   2.0000      -0.638194       -17.3661
  24   2.0000      -0.597224       -16.2513
  25   2.0000      -0.574121       -15.6226
  26   2.0000      -0.560003       -15.2385
  27   2.0000      -0.545165       -14.8347
  28   2.0000      -0.527754       -14.3609
  29   2.0000      -0.502445       -13.6722
  30   2.0000      -0.479337       -13.0434
  31   2.0000      -0.450126       -12.2485
  32   2.0000      -0.442221       -12.0334
  33   2.0000      -0.419928       -11.4268
  34   0.0000       0.108797         2.9605
  35   0.0000       0.115972         3.1558
  36   0.0000       0.129924         3.5354
  37   0.0000       0.158096         4.3020
  38   0.0000       0.168020         4.5721

MULLIKEN ATOMIC CHARGES
-----------------------
   0 O :   -0.472154
   1 C :    0.065193
   2 C :    0.128508
   3 O :   -0.287869
   4 C :    0.169115
   5 C :   -0.196025
   6 N :   -0.378667
   7 C :    0.057804
   8 O :   -0.261390
   9 H :    0.340480
  10 H :    0.094697
  11 H :    0.107757
  12 H :    0.140276
  13 H :    0.154913
  14 H :    0.229060
  15 H :    0.108304
Sum of atomic charges:   -0.0000000

LOEWDIN ATOMIC CHARGES
----------------------
   0 O :    0.011681
   1 C :   -0.338612
   2 C :   -0.269131
   3 O :    0.135222
   4 C :   -0.281179
   5 C :   -0.226162
   6 N :    0.024852
   7 C :   -0.249347
   8 O :    0.159359
   9 H :    0.188018
  10 H :    0.155218
  11 H :    0.123450
  12 H :    0.133187
  13 H :    0.135228
  14 H :    0.170812
  15 H :    0.127401

  Mayer bond orders larger than 0.1
B(  0-O ,  1-C ) :   1.1150 B(  0-O ,  4-C ) :  -0.1073 B(  0-O ,  9-H ) :   0.7972
B(  1-C ,  2-C ) :   0.8698 B(  1-C ,  4-C ) :   0.8816 B(  1-C , 10-H ) :   0.9286
B(  2-C ,  3-O ) :   1.9120 B(  2-C , 11-H ) :   0.9288 B(  4-C ,  5-C ) :   0.8741
B(  4-C ,  6-N ) :   0.8205 B(  4-C ,  7-C ) :   0.8410 B(  5-C ,  6-N ) :   0.9401
B(  5-C , 12-H ) :   0.9127 B(  5-C , 13-H ) :   0.9165 B(  6-N , 14-H ) :   0.8638
B(  7-C ,  8-O ) :   1.9611 B(  7-C , 15-H ) :   0.9541

MP2 TOTAL ENERGY:     -474.252566684 Eh
FINAL SINGLE POINT ENERGY      -474.252566684488

DIPOLE MOMENT
-------------
                                X             Y             Z
Electronic contribution:      2.71429       1.02966      -3.65692
Nuclear contribution   :     -3.74897      -1.60001       4.45914
                        -----------------------------------------
Total Dipole Moment    :     -1.03468      -0.57034       0.80222
                        -----------------------------------------
Magnitude (a.u.)       :      1.42808
Magnitude (Debye)      :      3.62989

                             ****ORCA TERMINATED NORMALLY****
TOTAL RUN TIME: 0 days 0 hours 16 minutes 35 seconds 888 msec
