                         Program Version 3.0.3 - RELEASE   -
|  1> ! RI-MP2 RIJK def2-TZVP def2-TZVP/C def2-TZVP/JK TIGHTSCF
|  2> % maxcore 2000
|  3> % mp2 density relaxed end
|  4> *xyz 0 1
|  5>  C       -0.1622008030     1.4376632758     0.0286385755
|  6>  C        0.0363702468    -0.0727863376     0.0504805610
|  7>  C        0.8446804009    -0.6125582878    -1.1333556793
|  8>  C        2.1466363734    -0.5189808746    -0.3695704020
|  9>  C        1.2374241495    -0.5412497071     0.9213288128
| 10>  C        1.2270854402    -2.0910110505     0.7820173848
| 11>  O        0.0456812528    -2.8175719123     1.0465486637
| 12>  C        1.5698780280    -1.8886027416    -0.6831370811
| 13>  C        2.0556313765    -2.9285621046    -1.6483455980
| 14>  H        0.7817219604     1.9588693192    -0.1663460147
| 15>  H       -0.8737036876     1.7318823587    -0.7509748308
| 16>  H       -0.5547823615     1.7957292960     0.9870225528
| 17>  H       -0.9076167941    -0.5859216578     0.2653045109
| 18>  H        0.6840372376    -0.4265556742    -2.1891149088
| 19>  H        3.1095450010    -0.0882122182    -0.6005062965
| 20>  H        1.4559265105    -0.0632079700     1.8758522953
| 21>  H        2.0890162736    -2.5294823958     1.3069957022
| 22>  H       -0.0358496264    -2.9314417185     1.9988273995
| 23>  H        1.2592280033    -3.6395694665    -1.8945314891
| 24>  H        2.3954662741    -2.4727067383    -2.5844946773
| 25>  H        2.8947640739    -3.4976025146    -1.2316361810
| 26> *
| 27>
| 28>                          ****END OF INPUT****

CARTESIAN COORDINATES (ANGSTROEM)
---------------------------------
  C     -0.162201    1.437663    0.028639
  C      0.036370   -0.072786    0.050481
  C      0.844680   -0.612558   -1.133356
  C      2.146636   -0.518981   -0.369570
  C      1.237424   -0.541250    0.921329
  C      1.227085   -2.091011    0.782017
  O      0.045681   -2.817572    1.046549
  C      1.569878   -1.888603   -0.683137
  C      2.055631   -2.928562   -1.648346
  H      0.781722    1.958869   -0.166346
  H     -0.873704    1.731882   -0.750975
  H     -0.554782    1.795729    0.987023
  H     -0.907617   -0.585922    0.265305
  H      0.684037   -0.426556   -2.189115
  H      3.109545   -0.088212   -0.600506
  H      1.455927   -0.063208    1.875852
  H      2.089016   -2.529482    1.306996
  H     -0.035850   -2.931442    1.998827
  H      1.259228   -3.639569   -1.894531
  H      2.395466   -2.472707   -2.584495
  H      2.894764   -3.497603   -1.231636

 Total Charge           Charge          ....    0
 Multiplicity           Mult            ....    1
 Number of Electrons    NEL             ....   68
 Basis Dimension        Dim             ....  351

ORBITAL ENERGIES
----------------

  NO   OCC          E(Eh)            E(eV)
   0   2.0000     -20.550971      -559.2203
   1   2.0000     -11.277068      -306.8646
   2   2.0000     -11.232286      -305.6461
   3   2.0000     -11.230174      -305.5886
   4   2.0000     -11.227526      -305.5165
   5   2.0000     -11.225843      -305.4707
   6   2.0000     -11.221606      -305.3554
   7   2.0000     -11.215436      -305.1875
   8   2.0000     -11.208073      -304.9872
   9   2.0000      -1.359524       -36.9945
  10   2.0000      -1.224723       -33.3264
  11   2.0000      -1.030356       -28.0374
  12   2.0000      -0.972670       -26.4677
  13   2.0000      -0.944226       -25.6937
  14   2.0000      -0.865023       -23.5385
  15   2.0000      -0.836335       -22.7578
  16   2.0000      -0.727380       -19.7930
  17   2.0000      -0.713829       -19.4243
  18   2.0000      -0.686986       -18.6938
  19   2.0000      -0.667002       -18.1500
  20   2.0000      -0.626612       -17.0510
  21   2.0000      -0.603196       -16.4138
  22   2.0000      -0.566361       -15.4115
  23   2.0000      -0.560417       -15.2497
  24   2.0000      -0.552158       -15.0250
  25   2.0000      -0.542305       -14.7569
  26   2.0000      -0.512087       -13.9346
  27   2.0000      -0.505983       -13.7685
  28   2.0000      -0.479974       -13.0608
  29   2.0000      -0.454744       -12.3742
  30   2.0000      -0.444005       -12.0820
  31   2.0000      -0.412479       -11.2241
  32   2.0000      -0.377346       -10.2681
  33   2.0000      -0.362733        -9.8705
  34   0.0000       0.135851         3.6967
  35   0.0000       0.152239         4.1426
  36   0.0000       0.154199         4.1960
  37   0.0000       0.171026         4.6539
  38   0.0000       0.192375         5.2348

MULLIKEN ATOMIC CHARGES
-----------------------
   0 C :   -0.434112
   1 C :    0.063454
   2 C :   -0.220943
   3 C :   -0.270004
   4 C :   -0.086139
   5 C :    0.052893
   6 O :   -0.465817
   7 C :    0.088457
   8 C :   -0.428747
   9 H :    0.131822
  10 H :    0.130018
  11 H :    0.127228
  12 H :    0.103184
  13 H :    0.125353
  14 H :    0.145025
  15 H :    0.132008
  16 H :    0.086406
  17 H :    0.312313
  18 H :    0.147582
  19 H :    0.132366
  20 H :    0.127653
Sum of atomic charges:   -0.0000000

LOEWDIN ATOMIC CHARGES
----------------------
   0 C :   -0.290592
   1 C :   -0.213909
   2 C :   -0.125909
   3 C :   -0.105178
   4 C :   -0.132290
   5 C :   -0.279293
   6 O :   -0.014796
   7 C :   -0.191871
   8 C :   -0.270091
   9 H :    0.127120
  10 H :    0.123397
  11 H :    0.122404
  12 H :    0.143171
  13 H :    0.140441
  14 H :    0.132887
  15 H :    0.130279
  16 H :    0.139083
  17 H :    0.173917
  18 H :    0.133114
  19 H :    0.130927
  20 H :    0.127188

  Mayer bond orders larger than 0.1
B(  0-C ,  1-C ) :   0.8764 B(  0-C ,  9-H ) :   0.9415 B(  0-C , 10-H ) :   0.9418
B(  0-C , 11-H ) :   0.9404 B(  1-C ,  2-C ) :   0.9304 B(  1-C ,  4-C ) :   0.9150
B(  1-C , 12-H ) :   0.8851 B(  2-C ,  3-C ) :   0.8953 B(  2-C ,  7-C ) :   0.8295
B(  2-C , 13-H ) :   0.9308 B(  3-C ,  4-C ) :   0.9131 B(  3-C ,  7-C ) :   0.8113
B(  3-C , 14-H ) :   0.9066 B(  4-C ,  5-C ) :   0.9069 B(  4-C , 15-H ) :   0.9144
B(  5-C ,  6-O ) :   1.1666 B(  5-C ,  7-C ) :   0.9178 B(  5-C , 16-H ) :   0.9721
B(  6-O ,  7-C ) :  -0.1212 B(  6-O , 17-H ) :   0.8444 B(  7-C ,  8-C ) :   0.8733
B(  8-C , 18-H ) :   0.9437 B(  8-C , 19-H ) :   0.9363 B(  8-C , 20-H ) :   0.9392

MP2 TOTAL ENERGY:     -386.376617203 Eh
FINAL SINGLE POINT ENERGY      -386.376617202706

DIPOLE MOMENT
-------------
                                X             Y             Z
Electronic contribution:     -0.21624      -2.68398       2.16153
Nuclear contribution   :      0.58217       2.81798      -1.79333
                        -----------------------------------------
Total Dipole Moment    :      0.36593       0.13399       0.36820
                        -----------------------------------------
Magnitude (a.u.)       :      0.53613
Magnitude (Debye)      :      1.36272

                             ****ORCA TERMINATED NORMALLY****
TOTAL RUN TIME: 0 days 0 hours 19 minutes 11 seconds 334 msec
