                         Program Version 3.0.3 - RELEASE   -
|  1> ! RI-MP2 RIJK def2-TZVP def2-TZVP/C def2-TZVP/JK TIGHTSCF
|  2> % maxcore 2000
|  3> % mp2 density relaxed end
|  4> *xyz 0 1
|  5>  O       -0.4100075313     1.3244243582     0.8027990513
|  6>  C       -0.0306803031     0.1385116433     0.0893489722
|  7>  C        0.8596949309    -0.7654643723     0.9062351016
|  8>  C        0.1569369309    -1.7444191111     1.4797273352
|  9>  C       -1.3061689713    -1.6585514168     1.1176481177
| 10>  O       -2.0112548745    -0.9902444614     2.1641722889
| 11>  C       -1.2792254698    -0.7522557415    -0.1452229565
| 12>  O       -2.4629718192     0.0022586025    -0.2846848908
| 13>  H       -0.6821000546     1.0261989594     1.6832335689
| 14>  H        0.4187398956     0.4966972003    -0.8403361894
| 15>  H        1.9196081641    -0.5801295706     1.0363629134
| 16>  H        0.5495637441    -2.4965303934     2.1541606560
| 17>  H       -1.7606549843    -2.6397282884     0.9217738796
| 18>  H       -2.8018501813    -0.6369146636     1.7277400607
| 19>  H       -1.1370191027    -1.3693165789    -1.0393273090
| 20>  H       -2.2195039434     0.8988152145    -0.0015950297
| 21> *
| 22>
| 23>                          ****END OF INPUT****

CARTESIAN COORDINATES (ANGSTROEM)
---------------------------------
  O     -0.410008    1.324424    0.802799
  C     -0.030680    0.138512    0.089349
  C      0.859695   -0.765464    0.906235
  C      0.156937   -1.744419    1.479727
  C     -1.306169   -1.658551    1.117648
  O     -2.011255   -0.990244    2.164172
  C     -1.279225   -0.752256   -0.145223
  O     -2.462972    0.002259   -0.284685
  H     -0.682100    1.026199    1.683234
  H      0.418740    0.496697   -0.840336
  H      1.919608   -0.580130    1.036363
  H      0.549564   -2.496530    2.154161
  H     -1.760655   -2.639728    0.921774
  H     -2.801850   -0.636915    1.727740
  H     -1.137019   -1.369317   -1.039327
  H     -2.219504    0.898815   -0.001595

 Total Charge           Charge          ....    0
 Multiplicity           Mult            ....    1
 Number of Electrons    NEL             ....   62
 Basis Dimension        Dim             ....  296

ORBITAL ENERGIES
----------------

  NO   OCC          E(Eh)            E(eV)
   0   2.0000     -20.572646      -559.8102
   1   2.0000     -20.565515      -559.6161
   2   2.0000     -20.562311      -559.5289
   3   2.0000     -11.297989      -307.4339
   4   2.0000     -11.291949      -307.2695
   5   2.0000     -11.289017      -307.1898
   6   2.0000     -11.247869      -306.0701
   7   2.0000     -11.245361      -306.0018
   8   2.0000      -1.401646       -38.1407
   9   2.0000      -1.367074       -37.2000
  10   2.0000      -1.352421       -36.8013
  11   2.0000      -1.132144       -30.8072
  12   2.0000      -0.966261       -26.2933
  13   2.0000      -0.951923       -25.9031
  14   2.0000      -0.814789       -22.1715
  15   2.0000      -0.763641       -20.7797
  16   2.0000      -0.743546       -20.2329
  17   2.0000      -0.694897       -18.9091
  18   2.0000      -0.678151       -18.4534
  19   2.0000      -0.663483       -18.0543
  20   2.0000      -0.637376       -17.3439
  21   2.0000      -0.606297       -16.4982
  22   2.0000      -0.584744       -15.9117
  23   2.0000      -0.565520       -15.3886
  24   2.0000      -0.538199       -14.6451
  25   2.0000      -0.524690       -14.2775
  26   2.0000      -0.515663       -14.0319
  27   2.0000      -0.467832       -12.7303
  28   2.0000      -0.462617       -12.5884
  29   2.0000      -0.426479       -11.6051
  30   2.0000      -0.387077       -10.5329
  31   0.0000       0.124621         3.3911
  32   0.0000       0.143173         3.8959
  33   0.0000       0.159590         4.3427
  34   0.0000       0.173035         4.7085
  35   0.0000       0.174790         4.7563

MULLIKEN ATOMIC CHARGES
-----------------------
   0 O :   -0.486465
   1 C :    0.137379
   2 C :   -0.209892
   3 C :   -0.162260
   4 C :    0.147215
   5 O :   -0.489379
   6 C :   -0.049949
   7 O :   -0.500347
   8 H :    0.331686
   9 H :    0.122058
  10 H :    0.139063
  11 H :    0.141665
  12 H :    0.096733
  13 H :    0.329870
  14 H :    0.108069
  15 H :    0.344553
Sum of atomic charges:    0.0000000

LOEWDIN ATOMIC CHARGES
----------------------
   0 O :   -0.024709
   1 C :   -0.302203
   2 C :   -0.129009
   3 C :   -0.116062
   4 C :   -0.309720
   5 O :   -0.030656
   6 C :   -0.310343
   7 O :   -0.020741
   8 H :    0.180130
   9 H :    0.144479
  10 H :    0.140849
  11 H :    0.140844
  12 H :    0.133965
  13 H :    0.177173
  14 H :    0.146440
  15 H :    0.179565

  Mayer bond orders larger than 0.1
B(  0-O ,  1-C ) :   0.8716 B(  0-O ,  8-H ) :   0.8170 B(  1-C ,  2-C ) :   0.9676
B(  1-C ,  6-C ) :   0.9483 B(  1-C ,  9-H ) :   0.9360 B(  2-C ,  3-C ) :   1.7170
B(  2-C , 10-H ) :   0.9220 B(  3-C ,  4-C ) :   0.9237 B(  3-C , 11-H ) :   0.9174
B(  4-C ,  5-O ) :   0.9540 B(  4-C ,  6-C ) :   0.8953 B(  4-C , 12-H ) :   0.9318
B(  5-O , 13-H ) :   0.8122 B(  6-C ,  7-O ) :   0.9929 B(  6-C , 14-H ) :   0.9300
B(  7-O , 15-H ) :   0.7992

MP2 TOTAL ENERGY:     -420.225898718 Eh
FINAL SINGLE POINT ENERGY      -420.225898717601

DIPOLE MOMENT
-------------
                                X             Y             Z
Electronic contribution:     -0.77075       0.85387       0.39717
Nuclear contribution   :      1.27207      -1.23614      -0.51963
                        -----------------------------------------
Total Dipole Moment    :      0.50133      -0.38227      -0.12246
                        -----------------------------------------
Magnitude (a.u.)       :      0.64223
Magnitude (Debye)      :      1.63242

                             ****ORCA TERMINATED NORMALLY****
TOTAL RUN TIME: 0 days 0 hours 10 minutes 38 seconds 310 msec
