                         Program Version 3.0.3 - RELEASE   -
|  1> ! RI-MP2 RIJK def2-TZVP def2-TZVP/C def2-TZVP/JK TIGHTSCF
|  2> % maxcore 2000
|  3> % mp2 density relaxed end
|  4> *xyz 0 1
|  5>  C        0.1123334520     1.3526364586    -0.1755223627
|  6>  O        0.0188708824    -0.0213449294    -0.4968240992
|  7>  C       -1.2372126831    -0.5746146095    -0.2301341705
|  8>  C       -1.3563424444    -2.0461755989    -0.5903795134
|  9>  C       -0.4301237778    -2.8656455145     0.2606712017
| 10>  C       -1.7287437127    -2.4030531174     0.8589564449
| 11>  C       -1.6110338190    -0.9294488171     1.2625346870
| 12>  O       -0.6212265809    -0.5724228965     2.1926992340
| 13>  C       -0.8979711224    -1.0285483072     3.4981830764
| 14>  H        1.1139230641     1.6812622535    -0.4636282461
| 15>  H       -0.6281932911     1.9467029882    -0.7351787724
| 16>  H       -0.0294528929     1.5265846947     0.8975181213
| 17>  H       -2.0321555048     0.0368297771    -0.6834255762
| 18>  H       -1.7879116678    -2.4271320501    -1.5071395295
| 19>  H       -0.3867409107    -3.9197397917     0.0080853038
| 20>  H        0.5050917428    -2.4373468745     0.6036643152
| 21>  H       -2.4934515868    -3.0919230836     1.1953380020
| 22>  H       -2.5825961744    -0.5021904109     1.5539287939
| 23>  H       -0.9607317082    -2.1256068922     3.5417401787
| 24>  H       -0.0791800080    -0.6956608599     4.1404457473
| 25>  H       -1.8435300764    -0.6126466285     3.8815738937
| 26> *
| 27>
| 28>                          ****END OF INPUT****

CARTESIAN COORDINATES (ANGSTROEM)
---------------------------------
  C      0.112333    1.352636   -0.175522
  O      0.018871   -0.021345   -0.496824
  C     -1.237213   -0.574615   -0.230134
  C     -1.356342   -2.046176   -0.590380
  C     -0.430124   -2.865646    0.260671
  C     -1.728744   -2.403053    0.858956
  C     -1.611034   -0.929449    1.262535
  O     -0.621227   -0.572423    2.192699
  C     -0.897971   -1.028548    3.498183
  H      1.113923    1.681262   -0.463628
  H     -0.628193    1.946703   -0.735179
  H     -0.029453    1.526585    0.897518
  H     -2.032156    0.036830   -0.683426
  H     -1.787912   -2.427132   -1.507140
  H     -0.386741   -3.919740    0.008085
  H      0.505092   -2.437347    0.603664
  H     -2.493452   -3.091923    1.195338
  H     -2.582596   -0.502190    1.553929
  H     -0.960732   -2.125607    3.541740
  H     -0.079180   -0.695661    4.140446
  H     -1.843530   -0.612647    3.881574

 Total Charge           Charge          ....    0
 Multiplicity           Mult            ....    1
 Number of Electrons    NEL             ....   70
 Basis Dimension        Dim             ....  351

ORBITAL ENERGIES
----------------

  NO   OCC          E(Eh)            E(eV)
   0   2.0000     -20.553410      -559.2867
   1   2.0000     -20.546796      -559.1067
   2   2.0000     -11.281011      -306.9719
   3   2.0000     -11.279369      -306.9272
   4   2.0000     -11.269553      -306.6601
   5   2.0000     -11.258713      -306.3652
   6   2.0000     -11.231056      -305.6126
   7   2.0000     -11.230297      -305.5919
   8   2.0000     -11.223880      -305.4173
   9   2.0000      -1.383932       -37.6587
  10   2.0000      -1.363217       -37.0950
  11   2.0000      -1.180347       -32.1189
  12   2.0000      -0.987225       -26.8638
  13   2.0000      -0.943171       -25.6650
  14   2.0000      -0.902496       -24.5582
  15   2.0000      -0.858469       -23.3601
  16   2.0000      -0.788128       -21.4461
  17   2.0000      -0.736684       -20.0462
  18   2.0000      -0.716368       -19.4934
  19   2.0000      -0.663255       -18.0481
  20   2.0000      -0.657434       -17.8897
  21   2.0000      -0.635171       -17.2839
  22   2.0000      -0.627728       -17.0813
  23   2.0000      -0.602137       -16.3850
  24   2.0000      -0.588430       -16.0120
  25   2.0000      -0.570548       -15.5254
  26   2.0000      -0.535063       -14.5598
  27   2.0000      -0.513139       -13.9632
  28   2.0000      -0.498947       -13.5770
  29   2.0000      -0.481284       -13.0964
  30   2.0000      -0.463095       -12.6014
  31   2.0000      -0.435533       -11.8515
  32   2.0000      -0.408899       -11.1267
  33   2.0000      -0.394515       -10.7353
  34   2.0000      -0.387424       -10.5423
  35   0.0000       0.139322         3.7912
  36   0.0000       0.157460         4.2847
  37   0.0000       0.167552         4.5593
  38   0.0000       0.176894         4.8135
  39   0.0000       0.191780         5.2186

MULLIKEN ATOMIC CHARGES
-----------------------
   0 C :   -0.225390
   1 O :   -0.295843
   2 C :    0.081581
   3 C :   -0.090200
   4 C :   -0.270545
   5 C :   -0.161551
   6 C :    0.031542
   7 O :   -0.296759
   8 C :   -0.225811
   9 H :    0.136448
  10 H :    0.103107
  11 H :    0.130883
  12 H :    0.075287
  13 H :    0.134022
  14 H :    0.131082
  15 H :    0.156228
  16 H :    0.134404
  17 H :    0.081478
  18 H :    0.121169
  19 H :    0.140161
  20 H :    0.108706
Sum of atomic charges:   -0.0000000

LOEWDIN ATOMIC CHARGES
----------------------
   0 C :   -0.352311
   1 O :    0.170036
   2 C :   -0.276812
   3 C :   -0.157674
   4 C :   -0.197244
   5 C :   -0.174179
   6 C :   -0.278178
   7 O :    0.163346
   8 C :   -0.353560
   9 H :    0.112559
  10 H :    0.099171
  11 H :    0.105514
  12 H :    0.135237
  13 H :    0.135799
  14 H :    0.139936
  15 H :    0.140879
  16 H :    0.133442
  17 H :    0.133257
  18 H :    0.105831
  19 H :    0.113469
  20 H :    0.101482

  Mayer bond orders larger than 0.1
B(  0-C ,  1-O ) :   0.9018 B(  0-C ,  9-H ) :   0.9424 B(  0-C , 10-H ) :   0.9345
B(  0-C , 11-H ) :   0.9298 B(  1-O ,  2-C ) :   1.0425 B(  2-C ,  3-C ) :   0.9378
B(  2-C ,  6-C ) :   0.9632 B(  2-C , 12-H ) :   0.9395 B(  3-C ,  4-C ) :   0.8936
B(  3-C ,  5-C ) :   0.8121 B(  3-C , 13-H ) :   0.9257 B(  4-C ,  5-C ) :   0.8849
B(  4-C , 14-H ) :   0.9334 B(  4-C , 15-H ) :   0.9148 B(  5-C ,  6-C ) :   0.9606
B(  5-C , 16-H ) :   0.9242 B(  6-C ,  7-O ) :   1.0155 B(  6-C , 17-H ) :   0.9418
B(  7-O ,  8-C ) :   0.9102 B(  8-C , 18-H ) :   0.9323 B(  8-C , 19-H ) :   0.9417
B(  8-C , 20-H ) :   0.9346

MP2 TOTAL ENERGY:     -423.462232690 Eh
FINAL SINGLE POINT ENERGY      -423.462232689682

DIPOLE MOMENT
-------------
                                X             Y             Z
Electronic contribution:      0.46257      -0.85948      -2.67292
Nuclear contribution   :     -1.11555       0.79209       3.02967
                        -----------------------------------------
Total Dipole Moment    :     -0.65299      -0.06740       0.35675
                        -----------------------------------------
Magnitude (a.u.)       :      0.74713
Magnitude (Debye)      :      1.89906

                             ****ORCA TERMINATED NORMALLY****
TOTAL RUN TIME: 0 days 0 hours 28 minutes 43 seconds 563 msec
