                         Program Version 3.0.3 - RELEASE   -
|  1> ! RI-MP2 RIJK def2-TZVP def2-TZVP/C def2-TZVP/JK TIGHTSCF
|  2> % maxcore 2000
|  3> % mp2 density relaxed end
|  4> *xyz 0 1
|  5>  C       -0.0356397519     1.5566342806     0.0883545326
|  6>  C       -0.0441378286     0.0297947980    -0.0224378321
|  7>  C        0.7142188021    -0.5148175564    -1.2400497459
|  8>  C        0.8431128946    -2.0442463650    -1.2118919289
|  9>  N        0.0681921449    -0.0536328015    -2.4683091967
| 10>  C        0.7246637003     0.0184864492    -3.6638631808
| 11>  N        1.9809242097    -0.1855105009    -3.7977438202
| 12>  C       -0.1683448227     0.4067011611    -4.8245006527
| 13>  O        0.2441309262     0.5453152378    -5.9449846626
| 14>  H        0.9869783439     1.9361299735     0.1862153835
| 15>  H       -0.4745614176     2.0222178579    -0.7988877268
| 16>  H       -0.6023117462     1.8915107462     0.9622347541
| 17>  H        0.4027034775    -0.4101932758     0.8762147518
| 18>  H       -1.0795525568    -0.3413823013    -0.0519984462
| 19>  H        1.7221103396    -0.0862222434    -1.2620426852
| 20>  H       -0.1440098714    -2.5207562851    -1.1970311946
| 21>  H        1.3883369708    -2.3932361968    -2.0916912437
| 22>  H        1.3887117388    -2.3670885644    -0.3194345307
| 23>  H       -0.9395541298    -0.0965076382    -2.4969183466
| 24>  H        2.2280360009    -0.0143964149    -4.7741677309
| 25>  H       -1.2452260346     0.5599376496    -4.5804920374
| 26> *
| 27>
| 28>                          ****END OF INPUT****

CARTESIAN COORDINATES (ANGSTROEM)
---------------------------------
  C     -0.035640    1.556634    0.088355
  C     -0.044138    0.029795   -0.022438
  C      0.714219   -0.514818   -1.240050
  C      0.843113   -2.044246   -1.211892
  N      0.068192   -0.053633   -2.468309
  C      0.724664    0.018486   -3.663863
  N      1.980924   -0.185511   -3.797744
  C     -0.168345    0.406701   -4.824501
  O      0.244131    0.545315   -5.944985
  H      0.986978    1.936130    0.186215
  H     -0.474561    2.022218   -0.798888
  H     -0.602312    1.891511    0.962235
  H      0.402703   -0.410193    0.876215
  H     -1.079553   -0.341382   -0.051998
  H      1.722110   -0.086222   -1.262043
  H     -0.144010   -2.520756   -1.197031
  H      1.388337   -2.393236   -2.091691
  H      1.388712   -2.367089   -0.319435
  H     -0.939554   -0.096508   -2.496918
  H      2.228036   -0.014396   -4.774168
  H     -1.245226    0.559938   -4.580492

 Total Charge           Charge          ....    0
 Multiplicity           Mult            ....    1
 Number of Electrons    NEL             ....   70
 Basis Dimension        Dim             ....  351

ORBITAL ENERGIES
----------------

  NO   OCC          E(Eh)            E(eV)
   0   2.0000     -20.586728      -560.1934
   1   2.0000     -15.586236      -424.1230
   2   2.0000     -15.534723      -422.7213
   3   2.0000     -11.357116      -309.0428
   4   2.0000     -11.324843      -308.1647
   5   2.0000     -11.270242      -306.6789
   6   2.0000     -11.233263      -305.6726
   7   2.0000     -11.220348      -305.3212
   8   2.0000     -11.216492      -305.2163
   9   2.0000      -1.424893       -38.7733
  10   2.0000      -1.285154       -34.9708
  11   2.0000      -1.170827       -31.8598
  12   2.0000      -1.068236       -29.0682
  13   2.0000      -0.993748       -27.0412
  14   2.0000      -0.926481       -25.2108
  15   2.0000      -0.870477       -23.6869
  16   2.0000      -0.804359       -21.8877
  17   2.0000      -0.794859       -21.6292
  18   2.0000      -0.727856       -19.8060
  19   2.0000      -0.683576       -18.6010
  20   2.0000      -0.649671       -17.6784
  21   2.0000      -0.628047       -17.0900
  22   2.0000      -0.617861       -16.8129
  23   2.0000      -0.590868       -16.0783
  24   2.0000      -0.584684       -15.9101
  25   2.0000      -0.576517       -15.6878
  26   2.0000      -0.550719       -14.9858
  27   2.0000      -0.521190       -14.1823
  28   2.0000      -0.507371       -13.8063
  29   2.0000      -0.496593       -13.5130
  30   2.0000      -0.487435       -13.2638
  31   2.0000      -0.472328       -12.8527
  32   2.0000      -0.468851       -12.7581
  33   2.0000      -0.421143       -11.4599
  34   2.0000      -0.360900        -9.8206
  35   0.0000       0.074609         2.0302
  36   0.0000       0.118833         3.2336
  37   0.0000       0.149387         4.0650
  38   0.0000       0.152972         4.1626
  39   0.0000       0.174457         4.7472

MULLIKEN ATOMIC CHARGES
-----------------------
   0 C :   -0.371598
   1 C :   -0.217917
   2 C :    0.052488
   3 C :   -0.394645
   4 N :   -0.351804
   5 C :    0.199950
   6 N :   -0.414560
   7 C :    0.081835
   8 O :   -0.253046
   9 H :    0.128959
  10 H :    0.119584
  11 H :    0.135957
  12 H :    0.121166
  13 H :    0.105916
  14 H :    0.121533
  15 H :    0.109085
  16 H :    0.165854
  17 H :    0.127979
  18 H :    0.225522
  19 H :    0.228938
  20 H :    0.078806
Sum of atomic charges:   -0.0000000

LOEWDIN ATOMIC CHARGES
----------------------
   0 C :   -0.318015
   1 C :   -0.277544
   2 C :   -0.302160
   3 C :   -0.292225
   4 N :    0.129594
   5 C :   -0.415202
   6 N :   -0.064523
   7 C :   -0.262489
   8 O :    0.154856
   9 H :    0.124316
  10 H :    0.119040
  11 H :    0.121646
  12 H :    0.143313
  13 H :    0.135003
  14 H :    0.160695
  15 H :    0.119456
  16 H :    0.131269
  17 H :    0.125466
  18 H :    0.185500
  19 H :    0.169948
  20 H :    0.112057

  Mayer bond orders larger than 0.1
B(  0-C ,  1-C ) :   0.9274 B(  0-C ,  9-H ) :   0.9360 B(  0-C , 10-H ) :   0.9366
B(  0-C , 11-H ) :   0.9398 B(  1-C ,  2-C ) :   0.9098 B(  1-C , 12-H ) :   0.9350
B(  1-C , 13-H ) :   0.9269 B(  2-C ,  3-C ) :   0.9334 B(  2-C ,  4-N ) :   0.8192
B(  2-C , 14-H ) :   0.9204 B(  3-C , 15-H ) :   0.9261 B(  3-C , 16-H ) :   0.9377
B(  3-C , 17-H ) :   0.9368 B(  4-N ,  5-C ) :   1.1179 B(  4-N , 18-H ) :   0.8709
B(  5-C ,  6-N ) :   1.8568 B(  5-C ,  7-C ) :   0.8285 B(  6-N , 19-H ) :   0.8496
B(  7-C ,  8-O ) :   1.9714 B(  7-C , 20-H ) :   0.9433

MP2 TOTAL ENERGY:     -419.717330628 Eh
FINAL SINGLE POINT ENERGY      -419.717330628001

DIPOLE MOMENT
-------------
                                X             Y             Z
Electronic contribution:      0.82640       1.34175     -13.28164
Nuclear contribution   :     -1.92148      -1.43352      14.26912
                        -----------------------------------------
Total Dipole Moment    :     -1.09508      -0.09177       0.98748
                        -----------------------------------------
Magnitude (a.u.)       :      1.47741
Magnitude (Debye)      :      3.75528

                             ****ORCA TERMINATED NORMALLY****
TOTAL RUN TIME: 0 days 0 hours 18 minutes 23 seconds 570 msec
