                         Program Version 3.0.3 - RELEASE   -
|  1> ! RI-MP2 RIJK def2-TZVP def2-TZVP/C def2-TZVP/JK TIGHTSCF
|  2> % maxcore 2000
|  3> % mp2 density relaxed end
|  4> *xyz 0 1
|  5>  N       -0.2901651618    -1.1944561025     0.0139577373
|  6>  C       -0.1596691945    -0.0467366776     0.0238861243
|  7>  C       -0.0234623335     1.3993563593     0.0302644813
|  8>  C       -0.2654466754     2.1228207516     1.3741752768
|  9>  O        0.7390320660     1.6861358282     2.2795780466
| 10>  C        1.0778710477     2.7188356578     1.3641545283
| 11>  C        1.4356249362     2.0460311859     0.0198210213
| 12>  C        2.5984590741     1.1757307795     0.0046321168
| 13>  N        3.5363470987     0.5015982936    -0.0127393415
| 14>  H       -0.6174446408     1.8291675802    -0.7798735459
| 15>  H       -1.2082993600     2.4694132929     1.7766721218
| 16>  H        1.4586297223     3.6526233657     1.7567842215
| 17>  H        1.5064628510     2.7702674254    -0.7952440586
| 18> *
| 19>
| 20>                          ****END OF INPUT****

CARTESIAN COORDINATES (ANGSTROEM)
---------------------------------
  N     -0.290165   -1.194456    0.013958
  C     -0.159669   -0.046737    0.023886
  C     -0.023462    1.399356    0.030264
  C     -0.265447    2.122821    1.374175
  O      0.739032    1.686136    2.279578
  C      1.077871    2.718836    1.364155
  C      1.435625    2.046031    0.019821
  C      2.598459    1.175731    0.004632
  N      3.536347    0.501598   -0.012739
  H     -0.617445    1.829168   -0.779874
  H     -1.208299    2.469413    1.776672
  H      1.458630    3.652623    1.756784
  H      1.506463    2.770267   -0.795244

 Total Charge           Charge          ....    0
 Multiplicity           Mult            ....    1
 Number of Electrons    NEL             ....   62
 Basis Dimension        Dim             ....  303

ORBITAL ENERGIES
----------------

  NO   OCC          E(Eh)            E(eV)
   0   2.0000     -20.620808      -561.1207
   1   2.0000     -15.588119      -424.1743
   2   2.0000     -15.588117      -424.1742
   3   2.0000     -11.346432      -308.7521
   4   2.0000     -11.345649      -308.7308
   5   2.0000     -11.333808      -308.4086
   6   2.0000     -11.333346      -308.3960
   7   2.0000     -11.288216      -307.1680
   8   2.0000     -11.288208      -307.1677
   9   2.0000      -1.480197       -40.2782
  10   2.0000      -1.239473       -33.7278
  11   2.0000      -1.231429       -33.5089
  12   2.0000      -1.159754       -31.5585
  13   2.0000      -1.016202       -27.6523
  14   2.0000      -0.951159       -25.8824
  15   2.0000      -0.859756       -23.3951
  16   2.0000      -0.791505       -21.5379
  17   2.0000      -0.760511       -20.6946
  18   2.0000      -0.693257       -18.8645
  19   2.0000      -0.677485       -18.4353
  20   2.0000      -0.619682       -16.8624
  21   2.0000      -0.598490       -16.2857
  22   2.0000      -0.575556       -15.6617
  23   2.0000      -0.574514       -15.6333
  24   2.0000      -0.562627       -15.3099
  25   2.0000      -0.527650       -14.3581
  26   2.0000      -0.492116       -13.3911
  27   2.0000      -0.484403       -13.1813
  28   2.0000      -0.466055       -12.6820
  29   2.0000      -0.465555       -12.6684
  30   2.0000      -0.449131       -12.2215
  31   0.0000       0.102985         2.8024
  32   0.0000       0.112929         3.0729
  33   0.0000       0.130465         3.5501
  34   0.0000       0.152113         4.1392
  35   0.0000       0.163191         4.4407

MULLIKEN ATOMIC CHARGES
-----------------------
   0 N :   -0.032166
   1 C :   -0.212917
   2 C :    0.062212
   3 C :    0.000771
   4 O :   -0.289917
   5 C :    0.001306
   6 C :    0.061897
   7 C :   -0.212905
   8 N :   -0.032153
   9 H :    0.161584
  10 H :    0.165358
  11 H :    0.165382
  12 H :    0.161548
Sum of atomic charges:    0.0000000

LOEWDIN ATOMIC CHARGES
----------------------
   0 N :    0.090443
   1 C :   -0.164185
   2 C :   -0.157282
   3 C :   -0.201553
   4 O :    0.223275
   5 C :   -0.201627
   6 C :   -0.157289
   7 C :   -0.164155
   8 N :    0.090454
   9 H :    0.179945
  10 H :    0.141026
  11 H :    0.141020
  12 H :    0.179930

  Mayer bond orders larger than 0.1
B(  0-N ,  1-C ) :   2.8390 B(  1-C ,  2-C ) :   0.9671 B(  2-C ,  3-C ) :   0.8408
B(  2-C ,  6-C ) :   0.9279 B(  2-C ,  9-H ) :   0.8906 B(  3-C ,  4-O ) :   0.9423
B(  3-C ,  5-C ) :   0.8915 B(  3-C , 10-H ) :   0.9208 B(  4-O ,  5-C ) :   0.9420
B(  5-C ,  6-C ) :   0.8409 B(  5-C , 11-H ) :   0.9208 B(  6-C ,  7-C ) :   0.9672
B(  6-C , 12-H ) :   0.8907 B(  7-C ,  8-N ) :   2.8390

MP2 TOTAL ENERGY:     -414.872435198 Eh
FINAL SINGLE POINT ENERGY      -414.872435197526

DIPOLE MOMENT
-------------
                                X             Y             Z
Electronic contribution:      1.32242      -2.98127       0.09421
Nuclear contribution   :     -2.50281       5.63861      -0.40334
                        -----------------------------------------
Total Dipole Moment    :     -1.18039       2.65734      -0.30913
                        -----------------------------------------
Magnitude (a.u.)       :      2.92409
Magnitude (Debye)      :      7.43245

                             ****ORCA TERMINATED NORMALLY****
TOTAL RUN TIME: 0 days 0 hours 13 minutes 23 seconds 976 msec
