                         Program Version 3.0.3 - RELEASE   -
|  1> ! RI-MP2 RIJK def2-TZVP def2-TZVP/C def2-TZVP/JK TIGHTSCF
|  2> % maxcore 2000
|  3> % mp2 density relaxed end
|  4> *xyz 0 1
|  5>  C        0.2938628693     1.4016492268     0.5948091924
|  6>  C        0.1786273887    -0.0606349129     0.1538872006
|  7>  C       -1.2228801072    -0.6315342606     0.3727095680
|  8>  C       -2.3087460497    -0.1259538224    -0.6253013880
|  9>  C       -2.2403380813    -1.4839559565    -1.3699969918
| 10>  C       -1.4683820109    -2.0934341590    -0.1757311248
| 11>  C       -0.2422709118    -2.9225717294    -0.5150716177
| 12>  N        0.1711873787    -3.7728872031     0.4717308864
| 13>  O        0.3529499423    -2.8262466320    -1.5733879529
| 14>  H        1.3028230254     1.7878348694     0.4205467971
| 15>  H       -0.4046973715     2.0427537569     0.0466181369
| 16>  H        0.0737257273     1.5128952348     1.6628114167
| 17>  H        0.4562598704    -0.1609225988    -0.9013362099
| 18>  H        0.9034741427    -0.6666524529     0.7129926036
| 19>  H       -1.4926108175    -0.5187624788     1.4284896597
| 20>  H       -3.2741923899     0.0464144979    -0.1419939507
| 21>  H       -2.0547790149     0.7646623685    -1.2064192034
| 22>  H       -3.1867940414    -1.9596185343    -1.6360749985
| 23>  H       -1.5963752446    -1.4552296589    -2.2510725540
| 24>  H       -2.1236930202    -2.6471321043     0.5041571879
| 25>  H       -0.2939439361    -3.8321535099     1.3599334363
| 26>  H        1.0208341119    -4.2944837008     0.3309752862
| 27> *
| 28>
| 29>                          ****END OF INPUT****

CARTESIAN COORDINATES (ANGSTROEM)
---------------------------------
  C      0.293863    1.401649    0.594809
  C      0.178627   -0.060635    0.153887
  C     -1.222880   -0.631534    0.372710
  C     -2.308746   -0.125954   -0.625301
  C     -2.240338   -1.483956   -1.369997
  C     -1.468382   -2.093434   -0.175731
  C     -0.242271   -2.922572   -0.515072
  N      0.171187   -3.772887    0.471731
  O      0.352950   -2.826247   -1.573388
  H      1.302823    1.787835    0.420547
  H     -0.404697    2.042754    0.046618
  H      0.073726    1.512895    1.662811
  H      0.456260   -0.160923   -0.901336
  H      0.903474   -0.666652    0.712993
  H     -1.492611   -0.518762    1.428490
  H     -3.274192    0.046414   -0.141994
  H     -2.054779    0.764662   -1.206419
  H     -3.186794   -1.959619   -1.636075
  H     -1.596375   -1.455230   -2.251073
  H     -2.123693   -2.647132    0.504157
  H     -0.293944   -3.832154    1.359933
  H      1.020834   -4.294484    0.330975

 Total Charge           Charge          ....    0
 Multiplicity           Mult            ....    1
 Number of Electrons    NEL             ....   70
 Basis Dimension        Dim             ....  357

ORBITAL ENERGIES
----------------

  NO   OCC          E(Eh)            E(eV)
   0   2.0000     -20.511189      -558.1378
   1   2.0000     -15.579962      -423.9523
   2   2.0000     -11.343749      -308.6791
   3   2.0000     -11.237027      -305.7750
   4   2.0000     -11.235653      -305.7377
   5   2.0000     -11.219655      -305.3023
   6   2.0000     -11.217785      -305.2514
   7   2.0000     -11.216796      -305.2245
   8   2.0000     -11.211911      -305.0916
   9   2.0000      -1.375472       -37.4285
  10   2.0000      -1.206457       -32.8294
  11   2.0000      -1.137736       -30.9594
  12   2.0000      -1.027982       -27.9728
  13   2.0000      -0.938678       -25.5427
  14   2.0000      -0.903117       -24.5751
  15   2.0000      -0.828432       -22.5428
  16   2.0000      -0.799363       -21.7518
  17   2.0000      -0.743915       -20.2430
  18   2.0000      -0.699583       -19.0366
  19   2.0000      -0.679363       -18.4864
  20   2.0000      -0.652096       -17.7444
  21   2.0000      -0.619603       -16.8603
  22   2.0000      -0.602822       -16.4036
  23   2.0000      -0.578569       -15.7437
  24   2.0000      -0.562835       -15.3155
  25   2.0000      -0.555352       -15.1119
  26   2.0000      -0.521881       -14.2011
  27   2.0000      -0.505451       -13.7540
  28   2.0000      -0.491415       -13.3721
  29   2.0000      -0.474542       -12.9129
  30   2.0000      -0.459865       -12.5136
  31   2.0000      -0.437247       -11.8981
  32   2.0000      -0.425917       -11.5898
  33   2.0000      -0.411470       -11.1967
  34   2.0000      -0.408929       -11.1275
  35   0.0000       0.118715         3.2304
  36   0.0000       0.145229         3.9519
  37   0.0000       0.155936         4.2432
  38   0.0000       0.159522         4.3408
  39   0.0000       0.182956         4.9785

MULLIKEN ATOMIC CHARGES
-----------------------
   0 C :   -0.388162
   1 C :   -0.256236
   2 C :   -0.065350
   3 C :   -0.218538
   4 C :   -0.290256
   5 C :   -0.057401
   6 C :    0.264490
   7 N :   -0.480203
   8 O :   -0.356389
   9 H :    0.136822
  10 H :    0.125554
  11 H :    0.119132
  12 H :    0.141089
  13 H :    0.106486
  14 H :    0.095075
  15 H :    0.114665
  16 H :    0.111842
  17 H :    0.117391
  18 H :    0.151335
  19 H :    0.115768
  20 H :    0.256899
  21 H :    0.255988
Sum of atomic charges:    0.0000000

LOEWDIN ATOMIC CHARGES
----------------------
   0 C :   -0.316127
   1 C :   -0.274073
   2 C :   -0.201196
   3 C :   -0.220101
   4 C :   -0.210719
   5 C :   -0.181509
   6 C :   -0.465358
   7 N :   -0.019247
   8 O :    0.083050
   9 H :    0.121838
  10 H :    0.120237
  11 H :    0.119624
  12 H :    0.146365
  13 H :    0.138852
  14 H :    0.139807
  15 H :    0.131134
  16 H :    0.126924
  17 H :    0.124898
  18 H :    0.145151
  19 H :    0.150144
  20 H :    0.168908
  21 H :    0.171399

  Mayer bond orders larger than 0.1
B(  0-C ,  1-C ) :   0.9054 B(  0-C ,  9-H ) :   0.9439 B(  0-C , 10-H ) :   0.9413
B(  0-C , 11-H ) :   0.9376 B(  1-C ,  2-C ) :   0.9306 B(  1-C , 12-H ) :   0.9304
B(  1-C , 13-H ) :   0.9321 B(  2-C ,  3-C ) :   0.9035 B(  2-C ,  5-C ) :   0.8853
B(  2-C , 14-H ) :   0.9211 B(  3-C ,  4-C ) :   0.9439 B(  3-C , 15-H ) :   0.9238
B(  3-C , 16-H ) :   0.9240 B(  4-C ,  5-C ) :   0.9442 B(  4-C , 17-H ) :   0.9311
B(  4-C , 18-H ) :   0.9226 B(  5-C ,  6-C ) :   0.8696 B(  5-C , 19-H ) :   0.9057
B(  6-C ,  7-N ) :   1.1401 B(  6-C ,  8-O ) :   1.9828 B(  7-N , 20-H ) :   0.8719
B(  7-N , 21-H ) :   0.8575

MP2 TOTAL ENERGY:     -403.690401717 Eh
FINAL SINGLE POINT ENERGY      -403.690401716851

DIPOLE MOMENT
-------------
                                X             Y             Z
Electronic contribution:      1.28212      -8.49499      -2.55785
Nuclear contribution   :     -1.65632       8.29012       3.84504
                        -----------------------------------------
Total Dipole Moment    :     -0.37420      -0.20487       1.28719
                        -----------------------------------------
Magnitude (a.u.)       :      1.35605
Magnitude (Debye)      :      3.44680

                             ****ORCA TERMINATED NORMALLY****
TOTAL RUN TIME: 0 days 0 hours 19 minutes 44 seconds 902 msec
