                         Program Version 3.0.3 - RELEASE   -
|  1> ! RI-MP2 RIJK def2-TZVP def2-TZVP/C def2-TZVP/JK TIGHTSCF
|  2> % maxcore 2000
|  3> % mp2 density relaxed end
|  4> *xyz 0 1
|  5>  C       -0.0190851155     1.5499896627     0.0232163265
|  6>  C        0.0029365219     0.0241623144    -0.0089092316
|  7>  C        0.7846468406    -0.5390058240    -1.2435262142
|  8>  C        2.1151680194    -0.9447139807    -0.6219538445
|  9>  C        2.1623359014    -0.4826084537     0.8161032845
| 10>  N        0.7146100307    -0.4926102521     1.1869711799
| 11>  C        0.7301365947    -2.0044963794     1.1569833394
| 12>  C        2.1151065562    -1.9547589587     0.5289866818
| 13>  O        3.1292197209    -2.8740709267     0.7159049561
| 14>  H        0.9990655004     1.9545048061    -0.0098306455
| 15>  H       -0.5654191510     1.9493069780    -0.8372986349
| 16>  H       -0.4955198688     1.9076694038     0.9398365639
| 17>  H       -1.0244407748    -0.3533128830     0.0211171934
| 18>  H        0.2626029473    -1.3830011833    -1.7070585494
| 19>  H        0.9226410730     0.2195068743    -2.0209705037
| 20>  H        3.0344524103    -0.9257889814    -1.1972506613
| 21>  H        2.8940382646     0.1578549258     1.2899264639
| 22>  H        0.7482968725    -2.4050713410     2.1747660228
| 23>  H       -0.0919519400    -2.4679130802     0.5969679772
| 24>  H        3.0785195361    -3.5304071909     0.0123197456
| 25> *
| 26>
| 27>                          ****END OF INPUT****

CARTESIAN COORDINATES (ANGSTROEM)
---------------------------------
  C     -0.019085    1.549990    0.023216
  C      0.002937    0.024162   -0.008909
  C      0.784647   -0.539006   -1.243526
  C      2.115168   -0.944714   -0.621954
  C      2.162336   -0.482608    0.816103
  N      0.714610   -0.492610    1.186971
  C      0.730137   -2.004496    1.156983
  C      2.115107   -1.954759    0.528987
  O      3.129220   -2.874071    0.715905
  H      0.999066    1.954505   -0.009831
  H     -0.565419    1.949307   -0.837299
  H     -0.495520    1.907669    0.939837
  H     -1.024441   -0.353313    0.021117
  H      0.262603   -1.383001   -1.707059
  H      0.922641    0.219507   -2.020971
  H      3.034452   -0.925789   -1.197251
  H      2.894038    0.157855    1.289926
  H      0.748297   -2.405071    2.174766
  H     -0.091952   -2.467913    0.596968
  H      3.078520   -3.530407    0.012320

 Total Charge           Charge          ....    0
 Multiplicity           Mult            ....    1
 Number of Electrons    NEL             ....   68
 Basis Dimension        Dim             ....  345

ORBITAL ENERGIES
----------------

  NO   OCC          E(Eh)            E(eV)
   0   2.0000     -20.572688      -559.8113
   1   2.0000     -15.550041      -423.1381
   2   2.0000     -11.290263      -307.2237
   3   2.0000     -11.252163      -306.1869
   4   2.0000     -11.251748      -306.1756
   5   2.0000     -11.249757      -306.1214
   6   2.0000     -11.234724      -305.7124
   7   2.0000     -11.223777      -305.4145
   8   2.0000     -11.209585      -305.0283
   9   2.0000      -1.385070       -37.6897
  10   2.0000      -1.278528       -34.7905
  11   2.0000      -1.074460       -29.2376
  12   2.0000      -1.043331       -28.3905
  13   2.0000      -0.936783       -25.4912
  14   2.0000      -0.920969       -25.0608
  15   2.0000      -0.800524       -21.7834
  16   2.0000      -0.785227       -21.3671
  17   2.0000      -0.734140       -19.9770
  18   2.0000      -0.719237       -19.5714
  19   2.0000      -0.656508       -17.8645
  20   2.0000      -0.632662       -17.2156
  21   2.0000      -0.623797       -16.9744
  22   2.0000      -0.595235       -16.1972
  23   2.0000      -0.570977       -15.5371
  24   2.0000      -0.551956       -15.0195
  25   2.0000      -0.539768       -14.6878
  26   2.0000      -0.526147       -14.3172
  27   2.0000      -0.510227       -13.8840
  28   2.0000      -0.489080       -13.3085
  29   2.0000      -0.471008       -12.8168
  30   2.0000      -0.461891       -12.5687
  31   2.0000      -0.415043       -11.2939
  32   2.0000      -0.384597       -10.4654
  33   2.0000      -0.353522        -9.6198
  34   0.0000       0.131141         3.5685
  35   0.0000       0.145714         3.9651
  36   0.0000       0.165098         4.4925
  37   0.0000       0.179295         4.8789
  38   0.0000       0.185178         5.0389

MULLIKEN ATOMIC CHARGES
-----------------------
   0 C :   -0.437153
   1 C :    0.036383
   2 C :   -0.206111
   3 C :   -0.228398
   4 C :   -0.061825
   5 N :   -0.171129
   6 C :   -0.139131
   7 C :    0.094367
   8 O :   -0.451524
   9 H :    0.131494
  10 H :    0.127542
  11 H :    0.138127
  12 H :    0.102082
  13 H :    0.116074
  14 H :    0.118256
  15 H :    0.130334
  16 H :    0.148011
  17 H :    0.116997
  18 H :    0.106829
  19 H :    0.328778
Sum of atomic charges:    0.0000000

LOEWDIN ATOMIC CHARGES
----------------------
   0 C :   -0.293352
   1 C :   -0.293699
   2 C :   -0.222857
   3 C :   -0.179244
   4 C :   -0.167077
   5 N :    0.133771
   6 C :   -0.200649
   7 C :   -0.330655
   8 O :    0.032491
   9 H :    0.126424
  10 H :    0.122956
  11 H :    0.126304
  12 H :    0.142172
  13 H :    0.134420
  14 H :    0.139890
  15 H :    0.151789
  16 H :    0.134550
  17 H :    0.134308
  18 H :    0.122103
  19 H :    0.186355

  Mayer bond orders larger than 0.1
B(  0-C ,  1-C ) :   0.9007 B(  0-C ,  9-H ) :   0.9352 B(  0-C , 10-H ) :   0.9389
B(  0-C , 11-H ) :   0.9404 B(  1-C ,  2-C ) :   0.9085 B(  1-C ,  5-N ) :   0.8920
B(  1-C , 12-H ) :   0.9350 B(  2-C ,  3-C ) :   0.8994 B(  2-C , 13-H ) :   0.9232
B(  2-C , 14-H ) :   0.9103 B(  3-C ,  4-C ) :   0.8528 B(  3-C ,  7-C ) :   0.8706
B(  3-C , 15-H ) :   0.9326 B(  4-C ,  5-N ) :   0.9389 B(  4-C ,  7-C ) :   0.8839
B(  4-C , 16-H ) :   0.8943 B(  5-N ,  6-C ) :   0.9244 B(  6-C ,  7-C ) :   1.0060
B(  6-C , 17-H ) :   0.9068 B(  6-C , 18-H ) :   0.9197 B(  7-C ,  8-O ) :   1.0498
B(  8-O , 19-H ) :   0.8344

MP2 TOTAL ENERGY:     -402.423158679 Eh
FINAL SINGLE POINT ENERGY      -402.423158679400

DIPOLE MOMENT
-------------
                                X             Y             Z
Electronic contribution:      4.23070      -4.76516       2.67483
Nuclear contribution   :     -4.39640       4.47180      -3.57881
                        -----------------------------------------
Total Dipole Moment    :     -0.16570      -0.29336      -0.90398
                        -----------------------------------------
Magnitude (a.u.)       :      0.96473
Magnitude (Debye)      :      2.45215

                             ****ORCA TERMINATED NORMALLY****
TOTAL RUN TIME: 0 days 0 hours 18 minutes 38 seconds 982 msec
