                         Program Version 3.0.3 - RELEASE   -
|  1> ! RI-MP2 RIJK def2-TZVP def2-TZVP/C def2-TZVP/JK TIGHTSCF
|  2> % maxcore 2000
|  3> % mp2 density relaxed end
|  4> *xyz 0 1
|  5>  C        0.4132250755     1.6528981357     0.3806411599
|  6>  C        1.5602190112     2.0797410470    -0.5705370022
|  7>  C        2.1582986353     0.7618853799    -1.1051931376
|  8>  C        0.9123531706    -0.1396710079    -1.2186204896
|  9>  C        0.1065508258     0.1520284856     0.0698649742
| 10>  C        0.4767988413    -0.7849491989     1.2400346467
| 11>  C        1.9737792255    -1.1125599557     1.3666772196
| 12>  O        2.8322228874    -0.0006037897     1.1698872257
| 13>  C        3.2395192358     0.1959606645    -0.1748276524
| 14>  H        0.7124723054     1.7693093204     1.4246716693
| 15>  H       -0.4742381525     2.2751511547     0.2314576149
| 16>  H        1.1619789869     2.6623012501    -1.4082429644
| 17>  H        2.3074147460     2.7044573820    -0.0721348837
| 18>  H        2.6352751211     0.9056493514    -2.0827151708
| 19>  H        0.3304549291     0.1660751922    -2.0956145372
| 20>  H        1.1512583327    -1.2004083944    -1.3505339454
| 21>  H       -0.9638644112     0.0234240023    -0.1181458496
| 22>  H        0.1201564106    -0.3329981947     2.1732331364
| 23>  H       -0.0559416605    -1.7398042421     1.1378867526
| 24>  H        2.1797244387    -1.4909877886     2.3745832256
| 25>  H        2.2477013147    -1.9130324557     0.6621985196
| 26>  H        3.6260636307    -0.7516229232    -0.5876879688
| 27>  H        4.0771282100     0.9010830051    -0.1244114626
| 28> *
| 29>
| 30>                          ****END OF INPUT****

CARTESIAN COORDINATES (ANGSTROEM)
---------------------------------
  C      0.413225    1.652898    0.380641
  C      1.560219    2.079741   -0.570537
  C      2.158299    0.761885   -1.105193
  C      0.912353   -0.139671   -1.218620
  C      0.106551    0.152028    0.069865
  C      0.476799   -0.784949    1.240035
  C      1.973779   -1.112560    1.366677
  O      2.832223   -0.000604    1.169887
  C      3.239519    0.195961   -0.174828
  H      0.712472    1.769309    1.424672
  H     -0.474238    2.275151    0.231458
  H      1.161979    2.662301   -1.408243
  H      2.307415    2.704457   -0.072135
  H      2.635275    0.905649   -2.082715
  H      0.330455    0.166075   -2.095615
  H      1.151258   -1.200408   -1.350534
  H     -0.963864    0.023424   -0.118146
  H      0.120156   -0.332998    2.173233
  H     -0.055942   -1.739804    1.137887
  H      2.179724   -1.490988    2.374583
  H      2.247701   -1.913032    0.662199
  H      3.626064   -0.751623   -0.587688
  H      4.077128    0.901083   -0.124411

 Total Charge           Charge          ....    0
 Multiplicity           Mult            ....    1
 Number of Electrons    NEL             ....   70
 Basis Dimension        Dim             ....  363

ORBITAL ENERGIES
----------------

  NO   OCC          E(Eh)            E(eV)
   0   2.0000     -20.545442      -559.0699
   1   2.0000     -11.267822      -306.6130
   2   2.0000     -11.266900      -306.5879
   3   2.0000     -11.221206      -305.3445
   4   2.0000     -11.220298      -305.3198
   5   2.0000     -11.215425      -305.1872
   6   2.0000     -11.214929      -305.1737
   7   2.0000     -11.210555      -305.0547
   8   2.0000     -11.207807      -304.9799
   9   2.0000      -1.365721       -37.1632
  10   2.0000      -1.122486       -30.5444
  11   2.0000      -1.047975       -28.5169
  12   2.0000      -0.967508       -26.3272
  13   2.0000      -0.934892       -25.4397
  14   2.0000      -0.910604       -24.7788
  15   2.0000      -0.815370       -22.1873
  16   2.0000      -0.754979       -20.5440
  17   2.0000      -0.736814       -20.0497
  18   2.0000      -0.681499       -18.5445
  19   2.0000      -0.650839       -17.7102
  20   2.0000      -0.641454       -17.4548
  21   2.0000      -0.617359       -16.7992
  22   2.0000      -0.587609       -15.9897
  23   2.0000      -0.571184       -15.5427
  24   2.0000      -0.569083       -15.4855
  25   2.0000      -0.547280       -14.8922
  26   2.0000      -0.509834       -13.8733
  27   2.0000      -0.479372       -13.0444
  28   2.0000      -0.474763       -12.9190
  29   2.0000      -0.464251       -12.6329
  30   2.0000      -0.454815       -12.3762
  31   2.0000      -0.449712       -12.2373
  32   2.0000      -0.439717       -11.9653
  33   2.0000      -0.435054       -11.8384
  34   2.0000      -0.396766       -10.7966
  35   0.0000       0.130842         3.5604
  36   0.0000       0.154391         4.2012
  37   0.0000       0.163800         4.4572
  38   0.0000       0.176580         4.8050
  39   0.0000       0.185815         5.0563

MULLIKEN ATOMIC CHARGES
-----------------------
   0 C :   -0.250137
   1 C :   -0.263485
   2 C :    0.007403
   3 C :   -0.282588
   4 C :    0.011738
   5 C :   -0.280480
   6 C :   -0.081266
   7 O :   -0.319623
   8 C :   -0.116488
   9 H :    0.110796
  10 H :    0.112485
  11 H :    0.115866
  12 H :    0.116702
  13 H :    0.100085
  14 H :    0.120328
  15 H :    0.120916
  16 H :    0.101501
  17 H :    0.117760
  18 H :    0.112425
  19 H :    0.123897
  20 H :    0.099642
  21 H :    0.103717
  22 H :    0.118808
Sum of atomic charges:    0.0000000

LOEWDIN ATOMIC CHARGES
----------------------
   0 C :   -0.227532
   1 C :   -0.232845
   2 C :   -0.258538
   3 C :   -0.215348
   4 C :   -0.235628
   5 C :   -0.256130
   6 C :   -0.319741
   7 O :    0.157055
   8 C :   -0.304988
   9 H :    0.137683
  10 H :    0.129827
  11 H :    0.135274
  12 H :    0.136664
  13 H :    0.151411
  14 H :    0.140529
  15 H :    0.136261
  16 H :    0.146837
  17 H :    0.138710
  18 H :    0.140238
  19 H :    0.128199
  20 H :    0.118977
  21 H :    0.121136
  22 H :    0.131950

  Mayer bond orders larger than 0.1
B(  0-C ,  1-C ) :   0.9655 B(  0-C ,  4-C ) :   0.9061 B(  0-C ,  9-H ) :   0.9220
B(  0-C , 10-H ) :   0.9284 B(  1-C ,  2-C ) :   0.8920 B(  1-C , 11-H ) :   0.9285
B(  1-C , 12-H ) :   0.9245 B(  2-C ,  3-C ) :   0.9126 B(  2-C ,  8-C ) :   0.9185
B(  2-C , 13-H ) :   0.9186 B(  3-C ,  4-C ) :   0.9123 B(  3-C , 14-H ) :   0.9260
B(  3-C , 15-H ) :   0.9335 B(  4-C ,  5-C ) :   0.8965 B(  4-C , 16-H ) :   0.9314
B(  5-C ,  6-C ) :   0.9405 B(  5-C , 17-H ) :   0.9292 B(  5-C , 18-H ) :   0.9226
B(  6-C ,  7-O ) :   0.9350 B(  6-C , 19-H ) :   0.9347 B(  6-C , 20-H ) :   0.9433
B(  7-O ,  8-C ) :   0.9300 B(  8-C , 21-H ) :   0.9469 B(  8-C , 22-H ) :   0.9327

MP2 TOTAL ENERGY:     -387.640789543 Eh
FINAL SINGLE POINT ENERGY      -387.640789543355

DIPOLE MOMENT
-------------
                                X             Y             Z
Electronic contribution:      2.13745      -0.04890       1.38457
Nuclear contribution   :     -2.37033      -0.19507      -1.78085
                        -----------------------------------------
Total Dipole Moment    :     -0.23287      -0.24397      -0.39629
                        -----------------------------------------
Magnitude (a.u.)       :      0.52038
Magnitude (Debye)      :      1.32270

                             ****ORCA TERMINATED NORMALLY****
TOTAL RUN TIME: 0 days 0 hours 23 minutes 13 seconds 865 msec
