                         Program Version 3.0.3 - RELEASE   -
|  1> ! RI-MP2 RIJK def2-TZVP def2-TZVP/C def2-TZVP/JK TIGHTSCF
|  2> % maxcore 2000
|  3> % mp2 density relaxed end
|  4> *xyz 0 1
|  5>  C       -0.0343696240     1.5021846927    -0.2226858731
|  6>  C        0.0050252561    -0.0035932225    -0.0474645952
|  7>  O        0.6500637548    -0.5613870762    -1.2097048026
|  8>  C        0.8000559543    -1.9006266602    -1.2156829872
|  9>  O        0.4138565563    -2.6183288080    -0.3243858433
| 10>  C        1.5219155906    -2.3638732540    -2.4677976085
| 11>  C        2.9847322128    -1.8815488581    -2.4635497968
| 12>  C        1.4173517914    -3.8830076161    -2.5976213035
| 13>  O        1.9939168845    -4.2412963250    -3.8458295433
| 14>  H        0.9759265063     1.9116067846    -0.3111137808
| 15>  H       -0.5960397579     1.7767787710    -1.1199952648
| 16>  H       -0.5191127065     1.9642577292     0.6424591761
| 17>  H        0.5649101053    -0.2993431694     0.8453062672
| 18>  H       -0.9981365354    -0.4328584915     0.0404270729
| 19>  H        1.0166491130    -1.9090355733    -3.3283013371
| 20>  H        3.5184359166    -2.2702049431    -1.5890734727
| 21>  H        3.4892629420    -2.2455270437    -3.3603685986
| 22>  H        3.0357828570    -0.7909053704    -2.4406900369
| 23>  H        1.9401451580    -4.3590439927    -1.7556777396
| 24>  H        0.3628554925    -4.1873466275    -2.5392058606
| 25>  H        1.9879593023    -5.2000392356    -3.9127088817
| 26> *
| 27>
| 28>                          ****END OF INPUT****

CARTESIAN COORDINATES (ANGSTROEM)
---------------------------------
  C     -0.034370    1.502185   -0.222686
  C      0.005025   -0.003593   -0.047465
  O      0.650064   -0.561387   -1.209705
  C      0.800056   -1.900627   -1.215683
  O      0.413857   -2.618329   -0.324386
  C      1.521916   -2.363873   -2.467798
  C      2.984732   -1.881549   -2.463550
  C      1.417352   -3.883008   -2.597621
  O      1.993917   -4.241296   -3.845830
  H      0.975927    1.911607   -0.311114
  H     -0.596040    1.776779   -1.119995
  H     -0.519113    1.964258    0.642459
  H      0.564910   -0.299343    0.845306
  H     -0.998137   -0.432858    0.040427
  H      1.016649   -1.909036   -3.328301
  H      3.518436   -2.270205   -1.589073
  H      3.489263   -2.245527   -3.360369
  H      3.035783   -0.790905   -2.440690
  H      1.940145   -4.359044   -1.755678
  H      0.362855   -4.187347   -2.539206
  H      1.987959   -5.200039   -3.912709

 Total Charge           Charge          ....    0
 Multiplicity           Mult            ....    1
 Number of Electrons    NEL             ....   72
 Basis Dimension        Dim             ....  351

ORBITAL ENERGIES
----------------

  NO   OCC          E(Eh)            E(eV)
   0   2.0000     -20.597466      -560.4856
   1   2.0000     -20.558706      -559.4308
   2   2.0000     -20.540912      -558.9466
   3   2.0000     -11.374194      -309.5075
   4   2.0000     -11.288067      -307.1639
   5   2.0000     -11.276915      -306.8604
   6   2.0000     -11.244610      -305.9814
   7   2.0000     -11.225456      -305.4602
   8   2.0000     -11.220316      -305.3203
   9   2.0000      -1.457054       -39.6485
  10   2.0000      -1.363795       -37.1107
  11   2.0000      -1.356687       -36.9173
  12   2.0000      -1.084863       -29.5206
  13   2.0000      -1.032746       -28.1024
  14   2.0000      -0.927502       -25.2386
  15   2.0000      -0.892187       -24.2776
  16   2.0000      -0.825644       -22.4669
  17   2.0000      -0.765045       -20.8179
  18   2.0000      -0.724097       -19.7037
  19   2.0000      -0.684598       -18.6288
  20   2.0000      -0.679338       -18.4857
  21   2.0000      -0.650107       -17.6903
  22   2.0000      -0.642303       -17.4780
  23   2.0000      -0.594386       -16.1741
  24   2.0000      -0.592478       -16.1222
  25   2.0000      -0.569231       -15.4896
  26   2.0000      -0.551637       -15.0108
  27   2.0000      -0.546834       -14.8801
  28   2.0000      -0.530314       -14.4306
  29   2.0000      -0.518301       -14.1037
  30   2.0000      -0.510005       -13.8780
  31   2.0000      -0.493728       -13.4350
  32   2.0000      -0.479110       -13.0372
  33   2.0000      -0.459296       -12.4981
  34   2.0000      -0.446162       -12.1407
  35   2.0000      -0.437664       -11.9094
  36   0.0000       0.130326         3.5464
  37   0.0000       0.141457         3.8492
  38   0.0000       0.161485         4.3942
  39   0.0000       0.173456         4.7200
  40   0.0000       0.180312         4.9065

MULLIKEN ATOMIC CHARGES
-----------------------
   0 C :   -0.361770
   1 C :   -0.072717
   2 O :   -0.246094
   3 C :    0.263236
   4 O :   -0.335459
   5 C :    0.000735
   6 C :   -0.424533
   7 C :   -0.065706
   8 O :   -0.471082
   9 H :    0.132339
  10 H :    0.132911
  11 H :    0.130507
  12 H :    0.121715
  13 H :    0.122024
  14 H :    0.109437
  15 H :    0.123647
  16 H :    0.159710
  17 H :    0.144411
  18 H :    0.106934
  19 H :    0.110653
  20 H :    0.319101
Sum of atomic charges:    0.0000000

LOEWDIN ATOMIC CHARGES
----------------------
   0 C :   -0.316486
   1 C :   -0.304142
   2 O :    0.251567
   3 C :   -0.454855
   4 O :    0.123315
   5 C :   -0.253885
   6 C :   -0.280377
   7 C :   -0.321313
   8 O :   -0.047774
   9 H :    0.124977
  10 H :    0.125176
  11 H :    0.128028
  12 H :    0.127979
  13 H :    0.128099
  14 H :    0.167620
  15 H :    0.125912
  16 H :    0.131521
  17 H :    0.125870
  18 H :    0.122683
  19 H :    0.122287
  20 H :    0.173796

  Mayer bond orders larger than 0.1
B(  0-C ,  1-C ) :   0.9426 B(  0-C ,  9-H ) :   0.9335 B(  0-C , 10-H ) :   0.9334
B(  0-C , 11-H ) :   0.9350 B(  1-C ,  2-O ) :   0.8303 B(  1-C , 12-H ) :   0.9321
B(  1-C , 13-H ) :   0.9344 B(  2-O ,  3-C ) :   1.1371 B(  3-C ,  4-O ) :   1.9135
B(  3-C ,  5-C ) :   0.9193 B(  5-C ,  6-C ) :   0.8925 B(  5-C ,  7-C ) :   0.9371
B(  5-C , 14-H ) :   0.9113 B(  6-C , 15-H ) :   0.9309 B(  6-C , 16-H ) :   0.9304
B(  6-C , 17-H ) :   0.9353 B(  7-C ,  8-O ) :   1.0063 B(  7-C , 18-H ) :   0.9162
B(  7-C , 19-H ) :   0.9346 B(  8-O , 20-H ) :   0.8479

MP2 TOTAL ENERGY:     -460.667916365 Eh
FINAL SINGLE POINT ENERGY      -460.667916364508

DIPOLE MOMENT
-------------
                                X             Y             Z
Electronic contribution:     -1.63276      -4.91922      -0.44466
Nuclear contribution   :      1.57543       5.13966       0.49992
                        -----------------------------------------
Total Dipole Moment    :     -0.05733       0.22043       0.05526
                        -----------------------------------------
Magnitude (a.u.)       :      0.23437
Magnitude (Debye)      :      0.59573

                             ****ORCA TERMINATED NORMALLY****
TOTAL RUN TIME: 0 days 0 hours 16 minutes 27 seconds 37 msec
