                         Program Version 3.0.3 - RELEASE   -
|  1> ! RI-MP2 RIJK def2-TZVP def2-TZVP/C def2-TZVP/JK TIGHTSCF
|  2> % maxcore 2000
|  3> % mp2 density relaxed end
|  4> *xyz 0 1
|  5>  C       -0.1627853888     1.3390909331    -0.2516073410
|  6>  O       -0.0320262429    -0.0506407580    -0.0841115088
|  7>  C       -1.2737294005    -0.7179602168    -0.0048771155
|  8>  C       -1.0311207366    -2.2264517652     0.1766711816
|  9>  C       -0.2957456977    -2.4736877223     1.5041662269
| 10>  C       -2.3866120556    -2.9954824264     0.0940931422
| 11>  C       -2.4617939858    -3.6187448568    -1.3249752781
| 12>  C       -1.0377006345    -3.5229059064    -1.8168263266
| 13>  C       -0.2749544585    -2.7813883023    -1.0180436816
| 14>  H        0.8441014494     1.7617662859    -0.2972014698
| 15>  H       -0.6962736656     1.5910205226    -1.1821736843
| 16>  H       -0.7050950231     1.8032625125     0.5878927389
| 17>  H       -1.8623865433    -0.3273424003     0.8448690493
| 18>  H       -1.8604776147    -0.5399932767    -0.9221819080
| 19>  H       -0.9137427952    -2.1629737665     2.3549184144
| 20>  H       -0.0630763835    -3.5362051575     1.6255252368
| 21>  H        0.6380058611    -1.9068503157     1.5428106379
| 22>  H       -2.3917659615    -3.7885304280     0.8478246361
| 23>  H       -3.2412522000    -2.3473797065     0.3134570658
| 24>  H       -2.8358055873    -4.6491338306    -1.3062252301
| 25>  H       -3.1419760094    -3.0639898512    -1.9861863301
| 26>  H       -0.7072332884    -3.9893436250    -2.7391158530
| 27>  H        0.7690490125    -2.5422925019    -1.1838467231
| 28> *
| 29>
| 30>                          ****END OF INPUT****

CARTESIAN COORDINATES (ANGSTROEM)
---------------------------------
  C     -0.162785    1.339091   -0.251607
  O     -0.032026   -0.050641   -0.084112
  C     -1.273729   -0.717960   -0.004877
  C     -1.031121   -2.226452    0.176671
  C     -0.295746   -2.473688    1.504166
  C     -2.386612   -2.995482    0.094093
  C     -2.461794   -3.618745   -1.324975
  C     -1.037701   -3.522906   -1.816826
  C     -0.274954   -2.781388   -1.018044
  H      0.844101    1.761766   -0.297201
  H     -0.696274    1.591021   -1.182174
  H     -0.705095    1.803263    0.587893
  H     -1.862387   -0.327342    0.844869
  H     -1.860478   -0.539993   -0.922182
  H     -0.913743   -2.162974    2.354918
  H     -0.063076   -3.536205    1.625525
  H      0.638006   -1.906850    1.542811
  H     -2.391766   -3.788530    0.847825
  H     -3.241252   -2.347380    0.313457
  H     -2.835806   -4.649134   -1.306225
  H     -3.141976   -3.063990   -1.986186
  H     -0.707233   -3.989344   -2.739116
  H      0.769049   -2.542293   -1.183847

 Total Charge           Charge          ....    0
 Multiplicity           Mult            ....    1
 Number of Electrons    NEL             ....   70
 Basis Dimension        Dim             ....  363

ORBITAL ENERGIES
----------------

  NO   OCC          E(Eh)            E(eV)
   0   2.0000     -20.552218      -559.2543
   1   2.0000     -11.269623      -306.6620
   2   2.0000     -11.269132      -306.6487
   3   2.0000     -11.232035      -305.6392
   4   2.0000     -11.221035      -305.3399
   5   2.0000     -11.217904      -305.2547
   6   2.0000     -11.216774      -305.2239
   7   2.0000     -11.212154      -305.0982
   8   2.0000     -11.204649      -304.8940
   9   2.0000      -1.374523       -37.4027
  10   2.0000      -1.137702       -30.9584
  11   2.0000      -1.025273       -27.8991
  12   2.0000      -0.961421       -26.1616
  13   2.0000      -0.946839       -25.7648
  14   2.0000      -0.892544       -24.2873
  15   2.0000      -0.853302       -23.2195
  16   2.0000      -0.764074       -20.7915
  17   2.0000      -0.711239       -19.3538
  18   2.0000      -0.671032       -18.2597
  19   2.0000      -0.658029       -17.9059
  20   2.0000      -0.648493       -17.6464
  21   2.0000      -0.626620       -17.0512
  22   2.0000      -0.598444       -16.2845
  23   2.0000      -0.572540       -15.5796
  24   2.0000      -0.553199       -15.0533
  25   2.0000      -0.543633       -14.7930
  26   2.0000      -0.517538       -14.0829
  27   2.0000      -0.504676       -13.7329
  28   2.0000      -0.487721       -13.2716
  29   2.0000      -0.483244       -13.1497
  30   2.0000      -0.469308       -12.7705
  31   2.0000      -0.456446       -12.4205
  32   2.0000      -0.447898       -12.1879
  33   2.0000      -0.419038       -11.4026
  34   2.0000      -0.340214        -9.2577
  35   0.0000       0.135446         3.6857
  36   0.0000       0.155886         4.2419
  37   0.0000       0.160361         4.3636
  38   0.0000       0.173487         4.7208
  39   0.0000       0.180879         4.9220

MULLIKEN ATOMIC CHARGES
-----------------------
   0 C :   -0.223218
   1 O :   -0.313753
   2 C :   -0.117790
   3 C :    0.314962
   4 C :   -0.454499
   5 C :   -0.325753
   6 C :   -0.165470
   7 C :   -0.160110
   8 C :   -0.252682
   9 H :    0.138074
  10 H :    0.111341
  11 H :    0.109391
  12 H :    0.099255
  13 H :    0.103248
  14 H :    0.124618
  15 H :    0.132554
  16 H :    0.148396
  17 H :    0.124199
  18 H :    0.125030
  19 H :    0.118543
  20 H :    0.111781
  21 H :    0.123022
  22 H :    0.128859
Sum of atomic charges:   -0.0000000

LOEWDIN ATOMIC CHARGES
----------------------
   0 C :   -0.363111
   1 O :    0.143473
   2 C :   -0.286580
   3 C :   -0.281070
   4 C :   -0.270238
   5 C :   -0.190955
   6 C :   -0.243024
   7 C :   -0.159850
   8 C :   -0.120079
   9 H :    0.112936
  10 H :    0.101610
  11 H :    0.101051
  12 H :    0.122274
  13 H :    0.126430
  14 H :    0.124611
  15 H :    0.125067
  16 H :    0.128977
  17 H :    0.141417
  18 H :    0.135940
  19 H :    0.135443
  20 H :    0.137499
  21 H :    0.135026
  22 H :    0.143152

  Mayer bond orders larger than 0.1
B(  0-C ,  1-O ) :   0.9259 B(  0-C ,  9-H ) :   0.9398 B(  0-C , 10-H ) :   0.9366
B(  0-C , 11-H ) :   0.9371 B(  1-O ,  2-C ) :   0.9445 B(  2-C ,  3-C ) :   0.9092
B(  2-C , 12-H ) :   0.9246 B(  2-C , 13-H ) :   0.9178 B(  3-C ,  4-C ) :   0.8820
B(  3-C ,  5-C ) :   0.8464 B(  3-C ,  8-C ) :   0.8836 B(  4-C , 14-H ) :   0.9351
B(  4-C , 15-H ) :   0.9376 B(  4-C , 16-H ) :   0.9358 B(  5-C ,  6-C ) :   0.9656
B(  5-C , 17-H ) :   0.9308 B(  5-C , 18-H ) :   0.9323 B(  6-C ,  7-C ) :   0.9341
B(  6-C , 19-H ) :   0.9291 B(  6-C , 20-H ) :   0.9102 B(  7-C ,  8-C ) :   1.7898
B(  7-C , 21-H ) :   0.9293 B(  8-C , 22-H ) :   0.9238

MP2 TOTAL ENERGY:     -387.615052635 Eh
FINAL SINGLE POINT ENERGY      -387.615052635399

DIPOLE MOMENT
-------------
                                X             Y             Z
Electronic contribution:      1.84415      -1.34686      -2.22582
Nuclear contribution   :     -2.24859       1.61183       2.19522
                        -----------------------------------------
Total Dipole Moment    :     -0.40444       0.26497      -0.03060
                        -----------------------------------------
Magnitude (a.u.)       :      0.48448
Magnitude (Debye)      :      1.23145

                             ****ORCA TERMINATED NORMALLY****
TOTAL RUN TIME: 0 days 0 hours 19 minutes 42 seconds 554 msec
