                         Program Version 3.0.3 - RELEASE   -
|  1> ! RI-MP2 RIJK def2-TZVP def2-TZVP/C def2-TZVP/JK TIGHTSCF
|  2> % maxcore 2000
|  3> % mp2 density relaxed end
|  4> *xyz 0 1
|  5>  C       -0.0185285333     1.5208244052     0.0156134847
|  6>  C        0.0028006720     0.0214744592     0.0139058472
|  7>  C       -0.0583896166    -0.7971608466    -1.0917423837
|  8>  N       -0.0115217112    -2.1024565429    -0.6655548485
|  9>  C        0.0790839808    -2.1368142711     0.7017537466
| 10>  C        0.0901296459    -0.8380394000     1.1513949498
| 11>  H        0.8879312218     1.9407809128     0.4676101021
| 12>  H       -0.0912656280     1.9157137458    -1.0021872551
| 13>  H       -0.8694191691     1.9156454867     0.5834484269
| 14>  H       -0.1309840756    -0.5556727798    -2.1406195342
| 15>  H       -0.0398971601    -2.9077221205    -1.2647611623
| 16>  H        0.1275686534    -3.0738703161     1.2329857804
| 17>  H        0.1538260800    -0.5279811927     2.1839805562
| 18> *
| 19>
| 20>                          ****END OF INPUT****

CARTESIAN COORDINATES (ANGSTROEM)
---------------------------------
  C     -0.018529    1.520824    0.015613
  C      0.002801    0.021474    0.013906
  C     -0.058390   -0.797161   -1.091742
  N     -0.011522   -2.102457   -0.665555
  C      0.079084   -2.136814    0.701754
  C      0.090130   -0.838039    1.151395
  H      0.887931    1.940781    0.467610
  H     -0.091266    1.915714   -1.002187
  H     -0.869419    1.915645    0.583448
  H     -0.130984   -0.555673   -2.140620
  H     -0.039897   -2.907722   -1.264761
  H      0.127569   -3.073870    1.232986
  H      0.153826   -0.527981    2.183981

 Total Charge           Charge          ....    0
 Multiplicity           Mult            ....    1
 Number of Electrons    NEL             ....   44
 Basis Dimension        Dim             ....  228

ORBITAL ENERGIES
----------------

  NO   OCC          E(Eh)            E(eV)
   0   2.0000     -15.597349      -424.4254
   1   2.0000     -11.248365      -306.0836
   2   2.0000     -11.241286      -305.8909
   3   2.0000     -11.213302      -305.1295
   4   2.0000     -11.211037      -305.0678
   5   2.0000     -11.201210      -304.8004
   6   2.0000      -1.284173       -34.9441
   7   2.0000      -1.057348       -28.7719
   8   2.0000      -0.984251       -26.7828
   9   2.0000      -0.923875       -25.1399
  10   2.0000      -0.783511       -21.3204
  11   2.0000      -0.739861       -20.1326
  12   2.0000      -0.721566       -19.6348
  13   2.0000      -0.588724       -16.0200
  14   2.0000      -0.577981       -15.7277
  15   2.0000      -0.577211       -15.7067
  16   2.0000      -0.558530       -15.1984
  17   2.0000      -0.538140       -14.6435
  18   2.0000      -0.522559       -14.2196
  19   2.0000      -0.492185       -13.3930
  20   2.0000      -0.333619        -9.0782
  21   2.0000      -0.291672        -7.9368
  22   0.0000       0.136532         3.7152
  23   0.0000       0.154887         4.2147
  24   0.0000       0.172266         4.6876
  25   0.0000       0.188640         5.1332
  26   0.0000       0.195267         5.3135

MULLIKEN ATOMIC CHARGES
-----------------------
   0 C :   -0.423549
   1 C :    0.075015
   2 C :   -0.135548
   3 N :   -0.252475
   4 C :   -0.064273
   5 C :   -0.246894
   6 H :    0.137177
   7 H :    0.129666
   8 H :    0.137177
   9 H :    0.137905
  10 H :    0.241768
  11 H :    0.142291
  12 H :    0.121739
Sum of atomic charges:    0.0000000

LOEWDIN ATOMIC CHARGES
----------------------
   0 C :   -0.277425
   1 C :   -0.220670
   2 C :   -0.224474
   3 N :    0.174241
   4 C :   -0.244299
   5 C :   -0.181567
   6 H :    0.127919
   7 H :    0.128220
   8 H :    0.127920
   9 H :    0.131947
  10 H :    0.188909
  11 H :    0.130452
  12 H :    0.138828

  Mayer bond orders larger than 0.1
B(  0-C ,  1-C ) :   0.8555 B(  0-C ,  6-H ) :   0.9377 B(  0-C ,  7-H ) :   0.9568
B(  0-C ,  8-H ) :   0.9377 B(  1-C ,  2-C ) :   1.4902 B(  1-C ,  5-C ) :   1.2581
B(  2-C ,  3-N ) :   1.1334 B(  2-C ,  9-H ) :   0.9099 B(  3-N ,  4-C ) :   1.1225
B(  3-N , 10-H ) :   0.8789 B(  4-C ,  5-C ) :   1.4957 B(  4-C , 11-H ) :   0.9198
B(  5-C , 12-H ) :   0.9374

MP2 TOTAL ENERGY:     -248.940424352 Eh
FINAL SINGLE POINT ENERGY      -248.940424352203

DIPOLE MOMENT
-------------
                                X             Y             Z
Electronic contribution:      0.02576      -3.96602      -0.47099
Nuclear contribution   :     -0.04719       3.43704       0.03374
                        -----------------------------------------
Total Dipole Moment    :     -0.02143      -0.52898      -0.43725
                        -----------------------------------------
Magnitude (a.u.)       :      0.68664
Magnitude (Debye)      :      1.74529

                             ****ORCA TERMINATED NORMALLY****
TOTAL RUN TIME: 0 days 0 hours 4 minutes 49 seconds 835 msec
