                         Program Version 3.0.3 - RELEASE   -
|  1> ! RI-MP2 RIJK def2-TZVP def2-TZVP/C def2-TZVP/JK TIGHTSCF
|  2> % maxcore 2000
|  3> % mp2 density relaxed end
|  4> *xyz 0 1
|  5>  O       -0.0024680135     1.3839821637    -0.0243920949
|  6>  C        0.0438890340     0.0299090769    -0.0704121028
|  7>  C        0.0407536441    -0.7872289388    -1.1656455698
|  8>  O       -0.0610208628    -0.7469138420    -2.5250206279
|  9>  C        0.2979771258    -2.0683419143    -2.9712733649
| 10>  C        0.0045014352    -3.0247949672    -1.7805955680
| 11>  N        0.1110301502    -2.0745447436    -0.6886430619
| 12>  C        0.1351534948    -2.0025808960     0.6715119039
| 13>  N        0.1056726438    -0.7411220824     1.0628888359
| 14>  H        0.0180896285     1.6153266627     0.9117657779
| 15>  H       -0.2844946127    -2.2975587175    -3.8645946641
| 16>  H        1.3669042289    -2.0863167690    -3.2172520864
| 17>  H       -1.0004466442    -3.4592353022    -1.8312626830
| 18>  H        0.7381891403    -3.8309600309    -1.7107051028
| 19>  H        0.1987591073    -2.8661551395     1.3133314388
| 20> *
| 21>
| 22>                          ****END OF INPUT****

CARTESIAN COORDINATES (ANGSTROEM)
---------------------------------
  O     -0.002468    1.383982   -0.024392
  C      0.043889    0.029909   -0.070412
  C      0.040754   -0.787229   -1.165646
  O     -0.061021   -0.746914   -2.525021
  C      0.297977   -2.068342   -2.971273
  C      0.004501   -3.024795   -1.780596
  N      0.111030   -2.074545   -0.688643
  C      0.135153   -2.002581    0.671512
  N      0.105673   -0.741122    1.062889
  H      0.018090    1.615327    0.911766
  H     -0.284495   -2.297559   -3.864595
  H      1.366904   -2.086317   -3.217252
  H     -1.000447   -3.459235   -1.831263
  H      0.738189   -3.830960   -1.710705
  H      0.198759   -2.866155    1.313331

 Total Charge           Charge          ....    0
 Multiplicity           Mult            ....    1
 Number of Electrons    NEL             ....   66
 Basis Dimension        Dim             ....  315

ORBITAL ENERGIES
----------------

  NO   OCC          E(Eh)            E(eV)
   0   2.0000     -20.596972      -560.4721
   1   2.0000     -20.572189      -559.7977
   2   2.0000     -15.619500      -425.0282
   3   2.0000     -15.549276      -423.1173
   4   2.0000     -11.313391      -307.8530
   5   2.0000     -11.304419      -307.6089
   6   2.0000     -11.303407      -307.5813
   7   2.0000     -11.298644      -307.4517
   8   2.0000     -11.297159      -307.4113
   9   2.0000      -1.442522       -39.2530
  10   2.0000      -1.394784       -37.9540
  11   2.0000      -1.328282       -36.1444
  12   2.0000      -1.185766       -32.2663
  13   2.0000      -1.046332       -28.4721
  14   2.0000      -0.982470       -26.7344
  15   2.0000      -0.892028       -24.2733
  16   2.0000      -0.832303       -22.6481
  17   2.0000      -0.788403       -21.4535
  18   2.0000      -0.737097       -20.0574
  19   2.0000      -0.715432       -19.4679
  20   2.0000      -0.674146       -18.3445
  21   2.0000      -0.643753       -17.5174
  22   2.0000      -0.632061       -17.1993
  23   2.0000      -0.614412       -16.7190
  24   2.0000      -0.603030       -16.4093
  25   2.0000      -0.580440       -15.7946
  26   2.0000      -0.548194       -14.9171
  27   2.0000      -0.542779       -14.7698
  28   2.0000      -0.530376       -14.4323
  29   2.0000      -0.489401       -13.3173
  30   2.0000      -0.444575       -12.0975
  31   2.0000      -0.380313       -10.3488
  32   2.0000      -0.284505        -7.7418
  33   0.0000       0.126702         3.4477
  34   0.0000       0.142753         3.8845
  35   0.0000       0.156539         4.2597
  36   0.0000       0.166362         4.5269
  37   0.0000       0.180635         4.9153

MULLIKEN ATOMIC CHARGES
-----------------------
   0 O :   -0.443088
   1 C :    0.150426
   2 C :    0.137335
   3 O :   -0.278513
   4 C :   -0.012236
   5 C :   -0.195240
   6 N :   -0.043740
   7 C :   -0.017881
   8 N :   -0.318536
   9 H :    0.339015
  10 H :    0.136340
  11 H :    0.110679
  12 H :    0.134329
  13 H :    0.150833
  14 H :    0.150275
Sum of atomic charges:    0.0000000

LOEWDIN ATOMIC CHARGES
----------------------
   0 O :    0.055400
   1 C :   -0.390259
   2 C :   -0.302904
   3 O :    0.224945
   4 C :   -0.250603
   5 C :   -0.223576
   6 N :    0.255231
   7 C :   -0.316661
   8 N :    0.086242
   9 H :    0.197656
  10 H :    0.130877
  11 H :    0.128026
  12 H :    0.136261
  13 H :    0.139491
  14 H :    0.129875

  Mayer bond orders larger than 0.1
B(  0-O ,  1-C ) :   1.1288 B(  0-O ,  9-H ) :   0.8212 B(  1-C ,  2-C ) :   1.4800
B(  1-C ,  8-N ) :   1.2883 B(  2-C ,  3-O ) :   1.0402 B(  2-C ,  6-N ) :   1.0939
B(  3-O ,  4-C ) :   0.8863 B(  4-C ,  5-C ) :   0.9451 B(  4-C , 10-H ) :   0.9288
B(  4-C , 11-H ) :   0.9194 B(  5-C ,  6-N ) :   0.8812 B(  5-C , 12-H ) :   0.9129
B(  5-C , 13-H ) :   0.9209 B(  6-N ,  7-C ) :   1.1471 B(  7-C ,  8-N ) :   1.5103
B(  7-C , 14-H ) :   0.9227

MP2 TOTAL ENERGY:     -453.227086296 Eh
FINAL SINGLE POINT ENERGY      -453.227086296373

DIPOLE MOMENT
-------------
                                X             Y             Z
Electronic contribution:     -0.42680       4.35875       2.34443
Nuclear contribution   :      0.55335      -5.99101      -3.06582
                        -----------------------------------------
Total Dipole Moment    :      0.12655      -1.63226      -0.72139
                        -----------------------------------------
Magnitude (a.u.)       :      1.78905
Magnitude (Debye)      :      4.54739

                             ****ORCA TERMINATED NORMALLY****
TOTAL RUN TIME: 0 days 0 hours 14 minutes 55 seconds 829 msec
