                         Program Version 3.0.3 - RELEASE   -
|  1> ! RI-MP2 RIJK def2-TZVP def2-TZVP/C def2-TZVP/JK TIGHTSCF
|  2> % maxcore 2000
|  3> % mp2 density relaxed end
|  4> *xyz 0 1
|  5>  N        0.0261242392     1.1625154339     0.3266189922
|  6>  C        0.0034156291    -0.0480180966     0.0107659558
|  7>  O        0.9967000525    -0.8785153084    -0.4680098043
|  8>  C        0.0502860172    -2.0046065299    -0.5993742939
|  9>  C        0.3873299959    -3.2233893098     0.1827465063
| 10>  C       -0.4537282097    -3.6539280252     1.1208143137
| 11>  C       -1.6666271295    -2.8536522736     1.5152245818
| 12>  O       -1.4977045903    -1.4629577652     1.2921598912
| 13>  C       -1.0744761165    -1.1231341190    -0.0049316972
| 14>  H        0.9605292853     1.5602661379     0.2141381535
| 15>  H       -0.0722922299    -2.2283705096    -1.6643695289
| 16>  H        1.2883711470    -3.7688331787    -0.0802841184
| 17>  H       -0.2839923989    -4.5903057645     1.6447232231
| 18>  H       -2.5663735522    -3.2320681803     0.9979717105
| 19>  H       -1.8529280355    -2.9526906938     2.5890716529
| 20>  H       -1.9260580335    -0.9316656773    -0.6702110885
| 21> *
| 22>
| 23>                          ****END OF INPUT****

CARTESIAN COORDINATES (ANGSTROEM)
---------------------------------
  N      0.026124    1.162515    0.326619
  C      0.003416   -0.048018    0.010766
  O      0.996700   -0.878515   -0.468010
  C      0.050286   -2.004607   -0.599374
  C      0.387330   -3.223389    0.182747
  C     -0.453728   -3.653928    1.120814
  C     -1.666627   -2.853652    1.515225
  O     -1.497705   -1.462958    1.292160
  C     -1.074476   -1.123134   -0.004932
  H      0.960529    1.560266    0.214138
  H     -0.072292   -2.228371   -1.664370
  H      1.288371   -3.768833   -0.080284
  H     -0.283992   -4.590306    1.644723
  H     -2.566374   -3.232068    0.997972
  H     -1.852928   -2.952691    2.589072
  H     -1.926058   -0.931666   -0.670211

 Total Charge           Charge          ....    0
 Multiplicity           Mult            ....    1
 Number of Electrons    NEL             ....   66
 Basis Dimension        Dim             ....  321

ORBITAL ENERGIES
----------------

  NO   OCC          E(Eh)            E(eV)
   0   2.0000     -20.593573      -560.3796
   1   2.0000     -20.578890      -559.9801
   2   2.0000     -15.539298      -422.8458
   3   2.0000     -11.338490      -308.5360
   4   2.0000     -11.314527      -307.8839
   5   2.0000     -11.310252      -307.7676
   6   2.0000     -11.301354      -307.5255
   7   2.0000     -11.257276      -306.3261
   8   2.0000     -11.250206      -306.1337
   9   2.0000      -1.440815       -39.2066
  10   2.0000      -1.394503       -37.9464
  11   2.0000      -1.198654       -32.6170
  12   2.0000      -1.103383       -30.0246
  13   2.0000      -1.046277       -28.4707
  14   2.0000      -0.930663       -25.3246
  15   2.0000      -0.900957       -24.5163
  16   2.0000      -0.775907       -21.1135
  17   2.0000      -0.738293       -20.0900
  18   2.0000      -0.725785       -19.7496
  19   2.0000      -0.704365       -19.1668
  20   2.0000      -0.688421       -18.7329
  21   2.0000      -0.654795       -17.8179
  22   2.0000      -0.629561       -17.1312
  23   2.0000      -0.601196       -16.3594
  24   2.0000      -0.597884       -16.2693
  25   2.0000      -0.553076       -15.0500
  26   2.0000      -0.537530       -14.6269
  27   2.0000      -0.517034       -14.0692
  28   2.0000      -0.481539       -13.1033
  29   2.0000      -0.446815       -12.1584
  30   2.0000      -0.428117       -11.6497
  31   2.0000      -0.406280       -11.0554
  32   2.0000      -0.384551       -10.4642
  33   0.0000       0.120931         3.2907
  34   0.0000       0.131475         3.5776
  35   0.0000       0.156821         4.2673
  36   0.0000       0.167350         4.5538
  37   0.0000       0.175157         4.7663

MULLIKEN ATOMIC CHARGES
-----------------------
   0 N :   -0.349249
   1 C :    0.112875
   2 O :   -0.270524
   3 C :    0.146446
   4 C :   -0.227687
   5 C :   -0.158326
   6 C :   -0.015688
   7 O :   -0.291154
   8 C :    0.072689
   9 H :    0.230328
  10 H :    0.114183
  11 H :    0.141280
  12 H :    0.137072
  13 H :    0.109268
  14 H :    0.141169
  15 H :    0.107318
Sum of atomic charges:   -0.0000000

LOEWDIN ATOMIC CHARGES
----------------------
   0 N :   -0.037908
   1 C :   -0.379564
   2 O :    0.225087
   3 C :   -0.213944
   4 C :   -0.150326
   5 C :   -0.149939
   6 C :   -0.293098
   7 O :    0.201577
   8 C :   -0.234699
   9 H :    0.175019
  10 H :    0.148430
  11 H :    0.149116
  12 H :    0.147361
  13 H :    0.130812
  14 H :    0.141415
  15 H :    0.140662

  Mayer bond orders larger than 0.1
B(  0-N ,  1-C ) :   2.0985 B(  0-N ,  9-H ) :   0.8452 B(  1-C ,  2-O ) :   1.0649
B(  1-C ,  8-C ) :   0.8750 B(  2-O ,  3-C ) :   0.8798 B(  3-C ,  4-C ) :   0.9277
B(  3-C ,  8-C ) :   0.9666 B(  3-C , 10-H ) :   0.9160 B(  4-C ,  5-C ) :   1.7834
B(  4-C , 11-H ) :   0.9243 B(  5-C ,  6-C ) :   0.9320 B(  5-C , 12-H ) :   0.9128
B(  6-C ,  7-O ) :   0.9313 B(  6-C , 13-H ) :   0.9214 B(  6-C , 14-H ) :   0.9264
B(  7-O ,  8-C ) :   0.9926 B(  8-C , 15-H ) :   0.9318

MP2 TOTAL ENERGY:     -437.142909355 Eh
FINAL SINGLE POINT ENERGY      -437.142909354753

DIPOLE MOMENT
-------------
                                X             Y             Z
Electronic contribution:      1.68812       3.55461      -0.73954
Nuclear contribution   :     -1.79902      -5.01799       0.34902
                        -----------------------------------------
Total Dipole Moment    :     -0.11089      -1.46337      -0.39052
                        -----------------------------------------
Magnitude (a.u.)       :      1.51864
Magnitude (Debye)      :      3.86007

                             ****ORCA TERMINATED NORMALLY****
TOTAL RUN TIME: 0 days 0 hours 15 minutes 28 seconds 546 msec
