                         Program Version 3.0.3 - RELEASE   -
|  1> ! RI-MP2 RIJK def2-TZVP def2-TZVP/C def2-TZVP/JK TIGHTSCF
|  2> % maxcore 2000
|  3> % mp2 density relaxed end
|  4> *xyz 0 1
|  5>  C        0.0195773352     1.5336754106     0.0552696203
|  6>  C       -0.0155812462     0.0347763595     0.0170189140
|  7>  C        1.0827695516    -0.8720334356    -0.4952143182
|  8>  C        0.4646878167    -1.9551475742    -1.3581734770
|  9>  C       -0.4143848106    -2.8166747198    -0.5369088150
| 10>  C       -0.6302882703    -1.9543789873     0.7288920781
| 11>  C        0.5938023840    -1.0261866124     0.9331828096
| 12>  C       -1.2335067977    -0.8866864023    -0.2237154319
| 13>  N       -1.0147643464    -1.7715462211    -1.4478324648
| 14>  H        1.0162052999     1.8966082663     0.3277793673
| 15>  H       -0.2335744536     1.9599758135    -0.9225797823
| 16>  H       -0.6897324934     1.9348392959     0.7879910918
| 17>  H        2.0655921558    -0.4677786527    -0.7004156181
| 18>  H        0.9448548502    -2.3091372758    -2.2622831223
| 19>  H       -0.5922832431    -3.8778162904    -0.6755397549
| 20>  H       -1.1695508733    -2.3472279685     1.5863834336
| 21>  H        1.2200189457    -0.9150841744     1.8110742730
| 22>  H       -2.2460592346    -0.4994284613    -0.1322633733
| 23> *
| 24>
| 25>                          ****END OF INPUT****

CARTESIAN COORDINATES (ANGSTROEM)
---------------------------------
  C      0.019577    1.533675    0.055270
  C     -0.015581    0.034776    0.017019
  C      1.082770   -0.872033   -0.495214
  C      0.464688   -1.955148   -1.358173
  C     -0.414385   -2.816675   -0.536909
  C     -0.630288   -1.954379    0.728892
  C      0.593802   -1.026187    0.933183
  C     -1.233507   -0.886686   -0.223715
  N     -1.014764   -1.771546   -1.447832
  H      1.016205    1.896608    0.327779
  H     -0.233574    1.959976   -0.922580
  H     -0.689732    1.934839    0.787991
  H      2.065592   -0.467779   -0.700416
  H      0.944855   -2.309137   -2.262283
  H     -0.592283   -3.877816   -0.675540
  H     -1.169551   -2.347228    1.586383
  H      1.220019   -0.915084    1.811074
  H     -2.246059   -0.499428   -0.132263

 Total Charge           Charge          ....    0
 Multiplicity           Mult            ....    1
 Number of Electrons    NEL             ....   64
 Basis Dimension        Dim             ....  333

ORBITAL ENERGIES
----------------

  NO   OCC          E(Eh)            E(eV)
   0   2.0000     -15.549851      -423.1330
   1   2.0000     -11.255396      -306.2749
   2   2.0000     -11.253933      -306.2351
   3   2.0000     -11.252499      -306.1961
   4   2.0000     -11.239757      -305.8493
   5   2.0000     -11.235517      -305.7340
   6   2.0000     -11.234562      -305.7080
   7   2.0000     -11.233401      -305.6764
   8   2.0000     -11.223361      -305.4032
   9   2.0000      -1.311824       -35.6965
  10   2.0000      -1.155724       -31.4488
  11   2.0000      -1.000793       -27.2330
  12   2.0000      -0.987951       -26.8835
  13   2.0000      -0.922187       -25.0940
  14   2.0000      -0.827046       -22.5051
  15   2.0000      -0.775051       -21.0902
  16   2.0000      -0.770865       -20.9763
  17   2.0000      -0.722764       -19.6674
  18   2.0000      -0.686797       -18.6887
  19   2.0000      -0.609613       -16.5884
  20   2.0000      -0.604174       -16.4404
  21   2.0000      -0.573834       -15.6148
  22   2.0000      -0.568739       -15.4762
  23   2.0000      -0.563247       -15.3267
  24   2.0000      -0.538704       -14.6589
  25   2.0000      -0.520421       -14.1614
  26   2.0000      -0.474541       -12.9129
  27   2.0000      -0.438906       -11.9432
  28   2.0000      -0.410186       -11.1617
  29   2.0000      -0.397499       -10.8165
  30   2.0000      -0.381035       -10.3685
  31   2.0000      -0.345675        -9.4063
  32   0.0000       0.140523         3.8238
  33   0.0000       0.159997         4.3537
  34   0.0000       0.176279         4.7968
  35   0.0000       0.179991         4.8978
  36   0.0000       0.187442         5.1006

MULLIKEN ATOMIC CHARGES
-----------------------
   0 C :   -0.416879
   1 C :    0.001628
   2 C :   -0.109624
   3 C :   -0.132637
   4 C :   -0.104043
   5 C :   -0.059972
   6 C :   -0.193332
   7 C :    0.023821
   8 N :   -0.223189
   9 H :    0.132864
  10 H :    0.142832
  11 H :    0.134468
  12 H :    0.138539
  13 H :    0.135013
  14 H :    0.129796
  15 H :    0.140145
  16 H :    0.133106
  17 H :    0.127463
Sum of atomic charges:    0.0000000

LOEWDIN ATOMIC CHARGES
----------------------
   0 C :   -0.275180
   1 C :   -0.177778
   2 C :   -0.139269
   3 C :   -0.203969
   4 C :   -0.173655
   5 C :   -0.141116
   6 C :   -0.112393
   7 C :   -0.136006
   8 N :    0.129623
   9 H :    0.131013
  10 H :    0.132015
  11 H :    0.128019
  12 H :    0.151818
  13 H :    0.144401
  14 H :    0.129033
  15 H :    0.140971
  16 H :    0.134378
  17 H :    0.138093

  Mayer bond orders larger than 0.1
B(  0-C ,  1-C ) :   0.8539 B(  0-C ,  9-H ) :   0.9448 B(  0-C , 10-H ) :   0.9382
B(  0-C , 11-H ) :   0.9434 B(  1-C ,  2-C ) :   0.8620 B(  1-C ,  6-C ) :   0.8393
B(  1-C ,  7-C ) :   0.9207 B(  2-C ,  3-C ) :   0.9092 B(  2-C ,  6-C ) :   0.8913
B(  2-C , 12-H ) :   0.9252 B(  3-C ,  4-C ) :   0.9519 B(  3-C ,  8-N ) :   0.9617
B(  3-C , 13-H ) :   0.9181 B(  4-C ,  5-C ) :   0.8890 B(  4-C ,  8-N ) :   0.8572
B(  4-C , 14-H ) :   0.9079 B(  5-C ,  6-C ) :   0.9402 B(  5-C ,  7-C ) :   0.9801
B(  5-C , 15-H ) :   0.9241 B(  6-C , 16-H ) :   0.9115 B(  7-C ,  8-N ) :   0.9483
B(  7-C , 17-H ) :   0.9312

MP2 TOTAL ENERGY:     -364.082040415 Eh
FINAL SINGLE POINT ENERGY      -364.082040414967

DIPOLE MOMENT
-------------
                                X             Y             Z
Electronic contribution:     -0.94680      -4.28471      -1.38122
Nuclear contribution   :      1.38881       4.50496       2.02311
                        -----------------------------------------
Total Dipole Moment    :      0.44201       0.22025       0.64189
                        -----------------------------------------
Magnitude (a.u.)       :      0.80988
Magnitude (Debye)      :      2.05856

                             ****ORCA TERMINATED NORMALLY****
TOTAL RUN TIME: 0 days 0 hours 19 minutes 49 seconds 728 msec
