                         Program Version 3.0.3 - RELEASE   -
|  1> ! RI-MP2 RIJK def2-TZVP def2-TZVP/C def2-TZVP/JK TIGHTSCF
|  2> % maxcore 2000
|  3> % mp2 density relaxed end
|  4> *xyz 0 1
|  5>  C        0.0192545703     1.5602903517     0.0062938537
|  6>  C        0.0571180057     0.0248666148     0.0057360757
|  7>  C        0.7342931213    -0.5281906029    -1.2710594178
|  8>  C        1.0011864952    -2.0121340878    -1.1128749795
|  9>  O        0.5202436724    -2.8620888539    -1.8222996618
| 10>  C        1.9256058729    -2.3531362082     0.0652826653
| 11>  O        3.2894627763    -2.1009675018    -0.3052335501
| 12>  C        1.5322335169    -1.5735533451     1.2904062305
| 13>  C        0.7181731902    -0.5157081455     1.2511821928
| 14>  H        1.0322439529     1.9773613937     0.0177109874
| 15>  H       -0.4917450126     1.9370550177    -0.8849381571
| 16>  H       -0.5112256173     1.9409083152     0.8851841280
| 17>  H       -0.9850934022    -0.3294632000     0.0067703773
| 18>  H        0.1211293734    -0.3565598024    -2.1582597880
| 19>  H        1.6951719983    -0.0150330649    -1.4100123975
| 20>  H        1.8581961129    -3.4320683611     0.2348618506
| 21>  H        3.4859620644    -1.1876392632    -0.0708958035
| 22>  H        1.9693783039    -1.8975466571     2.2317258372
| 23>  H        0.4864146551     0.0091125607     2.1764788467
| 24> *
| 25>
| 26>                          ****END OF INPUT****

CARTESIAN COORDINATES (ANGSTROEM)
---------------------------------
  C      0.019255    1.560290    0.006294
  C      0.057118    0.024867    0.005736
  C      0.734293   -0.528191   -1.271059
  C      1.001186   -2.012134   -1.112875
  O      0.520244   -2.862089   -1.822300
  C      1.925606   -2.353136    0.065283
  O      3.289463   -2.100968   -0.305234
  C      1.532234   -1.573553    1.290406
  C      0.718173   -0.515708    1.251182
  H      1.032244    1.977361    0.017711
  H     -0.491745    1.937055   -0.884938
  H     -0.511226    1.940908    0.885184
  H     -0.985093   -0.329463    0.006770
  H      0.121129   -0.356560   -2.158260
  H      1.695172   -0.015033   -1.410012
  H      1.858196   -3.432068    0.234862
  H      3.485962   -1.187639   -0.070896
  H      1.969378   -1.897547    2.231726
  H      0.486415    0.009113    2.176479

 Total Charge           Charge          ....    0
 Multiplicity           Mult            ....    1
 Number of Electrons    NEL             ....   68
 Basis Dimension        Dim             ....  339

ORBITAL ENERGIES
----------------

  NO   OCC          E(Eh)            E(eV)
   0   2.0000     -20.572398      -559.8034
   1   2.0000     -20.550314      -559.2025
   2   2.0000     -11.328178      -308.2554
   3   2.0000     -11.298764      -307.4550
   4   2.0000     -11.260849      -306.4233
   5   2.0000     -11.256843      -306.3143
   6   2.0000     -11.247658      -306.0643
   7   2.0000     -11.243877      -305.9614
   8   2.0000     -11.236001      -305.7471
   9   2.0000      -1.395904       -37.9845
  10   2.0000      -1.370552       -37.2946
  11   2.0000      -1.141455       -31.0606
  12   2.0000      -1.048116       -28.5207
  13   2.0000      -1.001242       -27.2452
  14   2.0000      -0.943231       -25.6666
  15   2.0000      -0.848127       -23.0787
  16   2.0000      -0.794842       -21.6287
  17   2.0000      -0.739408       -20.1203
  18   2.0000      -0.697464       -18.9790
  19   2.0000      -0.660270       -17.9669
  20   2.0000      -0.655630       -17.8406
  21   2.0000      -0.632932       -17.2230
  22   2.0000      -0.626462       -17.0469
  23   2.0000      -0.605101       -16.4656
  24   2.0000      -0.578407       -15.7393
  25   2.0000      -0.556063       -15.1312
  26   2.0000      -0.540085       -14.6965
  27   2.0000      -0.530051       -14.4234
  28   2.0000      -0.514692       -14.0055
  29   2.0000      -0.502186       -13.6652
  30   2.0000      -0.495464       -13.4823
  31   2.0000      -0.472126       -12.8472
  32   2.0000      -0.397360       -10.8127
  33   2.0000      -0.381620       -10.3844
  34   0.0000       0.114488         3.1154
  35   0.0000       0.124991         3.4012
  36   0.0000       0.145473         3.9585
  37   0.0000       0.153679         4.1818
  38   0.0000       0.164711         4.4820

MULLIKEN ATOMIC CHARGES
-----------------------
   0 C :   -0.405790
   1 C :    0.023213
   2 C :   -0.297526
   3 C :    0.194405
   4 O :   -0.265821
   5 C :    0.157733
   6 O :   -0.461060
   7 C :   -0.260624
   8 C :   -0.184662
   9 H :    0.127364
  10 H :    0.141955
  11 H :    0.138478
  12 H :    0.117320
  13 H :    0.142202
  14 H :    0.130952
  15 H :    0.116117
  16 H :    0.317728
  17 H :    0.138537
  18 H :    0.129479
Sum of atomic charges:   -0.0000000

LOEWDIN ATOMIC CHARGES
----------------------
   0 C :   -0.285995
   1 C :   -0.258887
   2 C :   -0.198072
   3 C :   -0.297092
   4 O :    0.164094
   5 C :   -0.295312
   6 O :   -0.012252
   7 C :   -0.156131
   8 C :   -0.131467
   9 H :    0.124550
  10 H :    0.127134
  11 H :    0.125443
  12 H :    0.166638
  13 H :    0.149035
  14 H :    0.153078
  15 H :    0.155291
  16 H :    0.172193
  17 H :    0.148177
  18 H :    0.149574

  Mayer bond orders larger than 0.1
B(  0-C ,  1-C ) :   0.8996 B(  0-C ,  9-H ) :   0.9311 B(  0-C , 10-H ) :   0.9386
B(  0-C , 11-H ) :   0.9387 B(  1-C ,  2-C ) :   0.9039 B(  1-C ,  8-C ) :   0.9066
B(  1-C , 12-H ) :   0.9101 B(  2-C ,  3-C ) :   0.8937 B(  2-C , 13-H ) :   0.9128
B(  2-C , 14-H ) :   0.9131 B(  3-C ,  4-O ) :   2.0405 B(  3-C ,  5-C ) :   0.8548
B(  5-C ,  6-O ) :   0.9068 B(  5-C ,  7-C ) :   0.9583 B(  5-C , 15-H ) :   0.9184
B(  6-O , 16-H ) :   0.8371 B(  7-C ,  8-C ) :   1.7564 B(  7-C , 17-H ) :   0.9300
B(  8-C , 18-H ) :   0.9206

MP2 TOTAL ENERGY:     -422.344229186 Eh
FINAL SINGLE POINT ENERGY      -422.344229185543

DIPOLE MOMENT
-------------
                                X             Y             Z
Electronic contribution:      2.20450      -8.14034      -2.26130
Nuclear contribution   :     -2.38231       9.51831       3.18499
                        -----------------------------------------
Total Dipole Moment    :     -0.17781       1.37797       0.92369
                        -----------------------------------------
Magnitude (a.u.)       :      1.66842
Magnitude (Debye)      :      4.24079

                             ****ORCA TERMINATED NORMALLY****
TOTAL RUN TIME: 0 days 0 hours 19 minutes 49 seconds 152 msec
