                         Program Version 3.0.3 - RELEASE   -
|  1> ! RI-MP2 RIJK def2-TZVP def2-TZVP/C def2-TZVP/JK TIGHTSCF
|  2> % maxcore 2000
|  3> % mp2 density relaxed end
|  4> *xyz 0 1
|  5>  C       -0.2624833884     1.5951987241     0.0463974671
|  6>  C       -0.0062201179     0.0966580814     0.0450225466
|  7>  O        1.1335912153    -0.2655743002    -0.7620046991
|  8>  C        1.8245214885    -0.8820229730     0.3418693910
|  9>  C        0.6657759437    -0.5494741234     1.3194303073
| 10>  C        0.9694834864     0.3417337966     2.4222655359
| 11>  N        1.2225294528     1.0579373631     3.2934648206
| 12>  C       -1.2047587412    -0.6472945954    -0.3784111170
| 13>  N       -2.1460849559    -1.2373537678    -0.6955736199
| 14>  H        0.6270247714     2.1242751970     0.3941893997
| 15>  H       -0.4968721936     1.9206011866    -0.9701611151
| 16>  H       -1.1037506751     1.8438290329     0.6991594048
| 17>  H        1.9873215622    -1.9520666748     0.1830273200
| 18>  H        2.7747493613    -0.3866489012     0.5584981986
| 19>  H        0.1302250506    -1.4246642359     1.6886865295
| 20> *
| 21>
| 22>                          ****END OF INPUT****

CARTESIAN COORDINATES (ANGSTROEM)
---------------------------------
  C     -0.262483    1.595199    0.046397
  C     -0.006220    0.096658    0.045023
  O      1.133591   -0.265574   -0.762005
  C      1.824521   -0.882023    0.341869
  C      0.665776   -0.549474    1.319430
  C      0.969483    0.341734    2.422266
  N      1.222529    1.057937    3.293465
  C     -1.204759   -0.647295   -0.378411
  N     -2.146085   -1.237354   -0.695574
  H      0.627025    2.124275    0.394189
  H     -0.496872    1.920601   -0.970161
  H     -1.103751    1.843829    0.699159
  H      1.987322   -1.952067    0.183027
  H      2.774749   -0.386649    0.558498
  H      0.130225   -1.424664    1.688687

 Total Charge           Charge          ....    0
 Multiplicity           Mult            ....    1
 Number of Electrons    NEL             ....   64
 Basis Dimension        Dim             ....  315

ORBITAL ENERGIES
----------------

  NO   OCC          E(Eh)            E(eV)
   0   2.0000     -20.605190      -560.6957
   1   2.0000     -15.598816      -424.4654
   2   2.0000     -15.597503      -424.4296
   3   2.0000     -11.381126      -309.6962
   4   2.0000     -11.335011      -308.4413
   5   2.0000     -11.325053      -308.1704
   6   2.0000     -11.299876      -307.4853
   7   2.0000     -11.292697      -307.2899
   8   2.0000     -11.261089      -306.4298
   9   2.0000      -1.442349       -39.2483
  10   2.0000      -1.246359       -33.9152
  11   2.0000      -1.241152       -33.7735
  12   2.0000      -1.112677       -30.2775
  13   2.0000      -1.067342       -29.0439
  14   2.0000      -0.944354       -25.6972
  15   2.0000      -0.888644       -24.1812
  16   2.0000      -0.775435       -21.1007
  17   2.0000      -0.746786       -20.3211
  18   2.0000      -0.692183       -18.8353
  19   2.0000      -0.654254       -17.8031
  20   2.0000      -0.639832       -17.4107
  21   2.0000      -0.606558       -16.5053
  22   2.0000      -0.590481       -16.0678
  23   2.0000      -0.584395       -15.9022
  24   2.0000      -0.576506       -15.6875
  25   2.0000      -0.551537       -15.0081
  26   2.0000      -0.541398       -14.7322
  27   2.0000      -0.502329       -13.6691
  28   2.0000      -0.491161       -13.3652
  29   2.0000      -0.480953       -13.0874
  30   2.0000      -0.476713       -12.9720
  31   2.0000      -0.459883       -12.5141
  32   0.0000       0.108235         2.9452
  33   0.0000       0.115946         3.1551
  34   0.0000       0.123806         3.3689
  35   0.0000       0.145942         3.9713
  36   0.0000       0.166308         4.5255

MULLIKEN ATOMIC CHARGES
-----------------------
   0 C :   -0.376799
   1 C :    0.321709
   2 O :   -0.304259
   3 C :   -0.041017
   4 C :    0.023491
   5 C :   -0.244911
   6 N :   -0.038248
   7 C :   -0.224432
   8 N :   -0.037473
   9 H :    0.158579
  10 H :    0.163355
  11 H :    0.156407
  12 H :    0.126128
  13 H :    0.132715
  14 H :    0.184755
Sum of atomic charges:    0.0000000

LOEWDIN ATOMIC CHARGES
----------------------
   0 C :   -0.234953
   1 C :   -0.304025
   2 O :    0.188311
   3 C :   -0.212245
   4 C :   -0.163976
   5 C :   -0.172774
   6 N :    0.082249
   7 C :   -0.139612
   8 N :    0.088355
   9 H :    0.140585
  10 H :    0.143383
  11 H :    0.143449
  12 H :    0.128962
  13 H :    0.131302
  14 H :    0.180987

  Mayer bond orders larger than 0.1
B(  0-C ,  1-C ) :   0.9300 B(  0-C ,  9-H ) :   0.9222 B(  0-C , 10-H ) :   0.9226
B(  0-C , 11-H ) :   0.9149 B(  1-C ,  2-O ) :   0.9455 B(  1-C ,  4-C ) :   0.8405
B(  1-C ,  7-C ) :   0.9207 B(  2-O ,  3-C ) :   0.9482 B(  3-C ,  4-C ) :   0.9306
B(  3-C , 12-H ) :   0.9143 B(  3-C , 13-H ) :   0.9077 B(  4-C ,  5-C ) :   0.9380
B(  4-C , 14-H ) :   0.8995 B(  5-C ,  6-N ) :   2.8330 B(  7-C ,  8-N ) :   2.8432

MP2 TOTAL ENERGY:     -416.104015094 Eh
FINAL SINGLE POINT ENERGY      -416.104015093869

DIPOLE MOMENT
-------------
                                X             Y             Z
Electronic contribution:     -1.43923      -2.35687       0.86862
Nuclear contribution   :      2.15974       2.22806      -0.95247
                        -----------------------------------------
Total Dipole Moment    :      0.72051      -0.12882      -0.08385
                        -----------------------------------------
Magnitude (a.u.)       :      0.73672
Magnitude (Debye)      :      1.87260

                             ****ORCA TERMINATED NORMALLY****
TOTAL RUN TIME: 0 days 0 hours 15 minutes 9 seconds 877 msec
