                         Program Version 3.0.3 - RELEASE   -
|  1> ! RI-MP2 RIJK def2-TZVP def2-TZVP/C def2-TZVP/JK TIGHTSCF
|  2> % maxcore 2000
|  3> % mp2 density relaxed end
|  4> *xyz 0 1
|  5>  C       -0.1260164225     1.4407143941    -0.1009707466
|  6>  C        0.0048869846    -0.0653431942    -0.0806951276
|  7>  C       -1.2508102411    -0.9132577698     0.2685766049
|  8>  C       -0.3890556884    -1.6057493099     1.3541060194
|  9>  N        0.7955670030    -0.7323629899     1.0591518428
| 10>  C        1.7225872059    -1.3660314693     0.0619624548
| 11>  C        0.9607534719    -0.7054452940    -1.0661677798
| 12>  N        1.0441569618    -0.5989605849    -2.3233609635
| 13>  O        2.1238604107    -1.3509856492    -2.8224372815
| 14>  H        0.8566594999     1.9198337016    -0.1356334570
| 15>  H       -0.6905162609     1.7560723350    -0.9852302990
| 16>  H       -0.6517749974     1.7930026386     0.7919899176
| 17>  H       -2.0725210781    -0.3108167817     0.6625061247
| 18>  H       -1.6339145620    -1.5459545643    -0.5338325758
| 19>  H       -0.7429886386    -1.4752262688     2.3804699331
| 20>  H       -0.1977384369    -2.6722198239     1.1921955277
| 21>  H        2.7567503830    -1.0209184798     0.1694021106
| 22>  H        1.7259418471    -2.4623718557     0.0627831358
| 23>  H        2.0794411381    -1.1693512738    -3.7673708005
| 24> *
| 25>
| 26>                          ****END OF INPUT****

CARTESIAN COORDINATES (ANGSTROEM)
---------------------------------
  C     -0.126016    1.440714   -0.100971
  C      0.004887   -0.065343   -0.080695
  C     -1.250810   -0.913258    0.268577
  C     -0.389056   -1.605749    1.354106
  N      0.795567   -0.732363    1.059152
  C      1.722587   -1.366031    0.061962
  C      0.960753   -0.705445   -1.066168
  N      1.044157   -0.598961   -2.323361
  O      2.123860   -1.350986   -2.822437
  H      0.856659    1.919834   -0.135633
  H     -0.690516    1.756072   -0.985230
  H     -0.651775    1.793003    0.791990
  H     -2.072521   -0.310817    0.662506
  H     -1.633915   -1.545955   -0.533833
  H     -0.742989   -1.475226    2.380470
  H     -0.197738   -2.672220    1.192196
  H      2.756750   -1.020918    0.169402
  H      1.725942   -2.462372    0.062783
  H      2.079441   -1.169351   -3.767371

 Total Charge           Charge          ....    0
 Multiplicity           Mult            ....    1
 Number of Electrons    NEL             ....   68
 Basis Dimension        Dim             ....  339

ORBITAL ENERGIES
----------------

  NO   OCC          E(Eh)            E(eV)
   0   2.0000     -20.594197      -560.3966
   1   2.0000     -15.618035      -424.9883
   2   2.0000     -15.551345      -423.1736
   3   2.0000     -11.276635      -306.8528
   4   2.0000     -11.275803      -306.8302
   5   2.0000     -11.264719      -306.5286
   6   2.0000     -11.256829      -306.3139
   7   2.0000     -11.234010      -305.6929
   8   2.0000     -11.221107      -305.3418
   9   2.0000      -1.419368       -38.6230
  10   2.0000      -1.275241       -34.7011
  11   2.0000      -1.148669       -31.2569
  12   2.0000      -1.033665       -28.1275
  13   2.0000      -1.005010       -27.3477
  14   2.0000      -0.912874       -24.8406
  15   2.0000      -0.867114       -23.5954
  16   2.0000      -0.796224       -21.6664
  17   2.0000      -0.702628       -19.1195
  18   2.0000      -0.683713       -18.6048
  19   2.0000      -0.672439       -18.2980
  20   2.0000      -0.662594       -18.0301
  21   2.0000      -0.629870       -17.1396
  22   2.0000      -0.598802       -16.2942
  23   2.0000      -0.580629       -15.7997
  24   2.0000      -0.572332       -15.5739
  25   2.0000      -0.566875       -15.4254
  26   2.0000      -0.535330       -14.5671
  27   2.0000      -0.521403       -14.1881
  28   2.0000      -0.488530       -13.2936
  29   2.0000      -0.466102       -12.6833
  30   2.0000      -0.447040       -12.1646
  31   2.0000      -0.423776       -11.5315
  32   2.0000      -0.393363       -10.7039
  33   2.0000      -0.367839       -10.0094
  34   0.0000       0.136923         3.7259
  35   0.0000       0.142605         3.8805
  36   0.0000       0.150474         4.0946
  37   0.0000       0.158330         4.3084
  38   0.0000       0.178737         4.8637

MULLIKEN ATOMIC CHARGES
-----------------------
   0 C :   -0.388264
   1 C :    0.195404
   2 C :   -0.268815
   3 C :   -0.154089
   4 N :   -0.180587
   5 C :   -0.159340
   6 C :   -0.085980
   7 N :   -0.085356
   8 O :   -0.358718
   9 H :    0.133375
  10 H :    0.139459
  11 H :    0.131061
  12 H :    0.126263
  13 H :    0.127463
  14 H :    0.117862
  15 H :    0.108324
  16 H :    0.138405
  17 H :    0.125251
  18 H :    0.338280
Sum of atomic charges:    0.0000000

LOEWDIN ATOMIC CHARGES
----------------------
   0 C :   -0.263719
   1 C :   -0.238107
   2 C :   -0.199162
   3 C :   -0.248895
   4 N :    0.111427
   5 C :   -0.220109
   6 C :   -0.250655
   7 N :    0.028890
   8 O :   -0.073315
   9 H :    0.131839
  10 H :    0.134618
  11 H :    0.129374
  12 H :    0.135572
  13 H :    0.134022
  14 H :    0.123620
  15 H :    0.120601
  16 H :    0.140182
  17 H :    0.133720
  18 H :    0.170098

  Mayer bond orders larger than 0.1
B(  0-C ,  1-C ) :   0.8803 B(  0-C ,  9-H ) :   0.9326 B(  0-C , 10-H ) :   0.9313
B(  0-C , 11-H ) :   0.9321 B(  1-C ,  2-C ) :   0.9068 B(  1-C ,  4-N ) :   0.9618
B(  1-C ,  6-C ) :   0.9675 B(  2-C ,  3-C ) :   0.9731 B(  2-C , 12-H ) :   0.9210
B(  2-C , 13-H ) :   0.9095 B(  3-C ,  4-N ) :   0.9097 B(  3-C , 14-H ) :   0.9219
B(  3-C , 15-H ) :   0.9275 B(  4-N ,  5-C ) :   0.9419 B(  5-C ,  6-C ) :   0.9914
B(  5-C , 16-H ) :   0.8927 B(  5-C , 17-H ) :   0.9173 B(  6-C ,  7-N ) :   1.8720
B(  7-N ,  8-O ) :   0.8044 B(  8-O , 18-H ) :   0.8424

MP2 TOTAL ENERGY:     -418.409563447 Eh
FINAL SINGLE POINT ENERGY      -418.409563447386

DIPOLE MOMENT
-------------
                                X             Y             Z
Electronic contribution:      3.65321      -1.58926      -4.33337
Nuclear contribution   :     -4.00643       1.37737       4.10735
                        -----------------------------------------
Total Dipole Moment    :     -0.35322      -0.21189      -0.22603
                        -----------------------------------------
Magnitude (a.u.)       :      0.46984
Magnitude (Debye)      :      1.19423

                             ****ORCA TERMINATED NORMALLY****
TOTAL RUN TIME: 0 days 0 hours 18 minutes 13 seconds 917 msec
