                         Program Version 3.0.3 - RELEASE   -
|  1> ! RI-MP2 RIJK def2-TZVP def2-TZVP/C def2-TZVP/JK TIGHTSCF
|  2> % maxcore 2000
|  3> % mp2 density relaxed end
|  4> *xyz 0 1
|  5>  C       -0.0746053096     1.4840605273     0.0409644134
|  6>  C        0.0452137038    -0.0444187418    -0.0171606813
|  7>  C        0.7251985786    -0.5058407959    -1.3210081303
|  8>  O        0.0161424439    -0.0897076862    -2.4789786106
|  9>  C        0.7454407875    -0.5925680025     1.2373402209
| 10>  C        0.7728940798    -2.1139624672     1.3580205200
| 11>  O        2.1084915882    -0.1032807911     1.2404155473
| 12>  C        2.6113290924     0.3901590858     2.3847683544
| 13>  O        3.7366107872     0.7778748367     2.4862131752
| 14>  H        0.9117957985     1.9592792715     0.0249472832
| 15>  H       -0.6535795427     1.8567634128    -0.8081183779
| 16>  H       -0.5890287207     1.8085701371     0.9517161948
| 17>  H       -0.9677116004    -0.4683607078    -0.0140874537
| 18>  H        1.7666179932    -0.1568606392    -1.3380184713
| 19>  H        0.7451947233    -1.5984154788    -1.3690171251
| 20>  H        0.2186524932     0.8365523838    -2.6370506708
| 21>  H        0.2341767466    -0.1750379940     2.1165188096
| 22>  H        1.3911309137    -2.5638392763     0.5777825896
| 23>  H        1.1876637946    -2.4112678623     2.3256882694
| 24>  H       -0.2396028137    -2.5215843523     1.2804557564
| 25>  H        1.8700539326     0.4024524403     3.2089109267
| 26> *
| 27>
| 28>                          ****END OF INPUT****

CARTESIAN COORDINATES (ANGSTROEM)
---------------------------------
  C     -0.074605    1.484061    0.040964
  C      0.045214   -0.044419   -0.017161
  C      0.725199   -0.505841   -1.321008
  O      0.016142   -0.089708   -2.478979
  C      0.745441   -0.592568    1.237340
  C      0.772894   -2.113962    1.358021
  O      2.108492   -0.103281    1.240416
  C      2.611329    0.390159    2.384768
  O      3.736611    0.777875    2.486213
  H      0.911796    1.959279    0.024947
  H     -0.653580    1.856763   -0.808118
  H     -0.589029    1.808570    0.951716
  H     -0.967712   -0.468361   -0.014087
  H      1.766618   -0.156861   -1.338018
  H      0.745195   -1.598415   -1.369017
  H      0.218652    0.836552   -2.637051
  H      0.234177   -0.175038    2.116519
  H      1.391131   -2.563839    0.577783
  H      1.187664   -2.411268    2.325688
  H     -0.239603   -2.521584    1.280456
  H      1.870054    0.402452    3.208911

 Total Charge           Charge          ....    0
 Multiplicity           Mult            ....    1
 Number of Electrons    NEL             ....   72
 Basis Dimension        Dim             ....  351

ORBITAL ENERGIES
----------------

  NO   OCC          E(Eh)            E(eV)
   0   2.0000     -20.607986      -560.7718
   1   2.0000     -20.560646      -559.4836
   2   2.0000     -20.551432      -559.2329
   3   2.0000     -11.384967      -309.8007
   4   2.0000     -11.315381      -307.9072
   5   2.0000     -11.279861      -306.9406
   6   2.0000     -11.245908      -306.0167
   7   2.0000     -11.238393      -305.8122
   8   2.0000     -11.229338      -305.5658
   9   2.0000      -1.463273       -39.8177
  10   2.0000      -1.374336       -37.3976
  11   2.0000      -1.364936       -37.1418
  12   2.0000      -1.105990       -30.0955
  13   2.0000      -1.017682       -27.6925
  14   2.0000      -0.935284       -25.4504
  15   2.0000      -0.896144       -24.3853
  16   2.0000      -0.851967       -23.1832
  17   2.0000      -0.801048       -21.7976
  18   2.0000      -0.726857       -19.7788
  19   2.0000      -0.699241       -19.0273
  20   2.0000      -0.676812       -18.4170
  21   2.0000      -0.665651       -18.1133
  22   2.0000      -0.637162       -17.3381
  23   2.0000      -0.607051       -16.5187
  24   2.0000      -0.597322       -16.2540
  25   2.0000      -0.588086       -16.0026
  26   2.0000      -0.574455       -15.6317
  27   2.0000      -0.554787       -15.0965
  28   2.0000      -0.544029       -14.8038
  29   2.0000      -0.527631       -14.3576
  30   2.0000      -0.520686       -14.1686
  31   2.0000      -0.502761       -13.6808
  32   2.0000      -0.478392       -13.0177
  33   2.0000      -0.459878       -12.5139
  34   2.0000      -0.453056       -12.3283
  35   2.0000      -0.439116       -11.9490
  36   0.0000       0.123075         3.3490
  37   0.0000       0.131924         3.5898
  38   0.0000       0.142533         3.8785
  39   0.0000       0.159512         4.3406
  40   0.0000       0.167217         4.5502

MULLIKEN ATOMIC CHARGES
-----------------------
   0 C :   -0.482117
   1 C :    0.040646
   2 C :   -0.114164
   3 O :   -0.474223
   4 C :    0.023993
   5 C :   -0.402007
   6 O :   -0.220835
   7 C :    0.193495
   8 O :   -0.272320
   9 H :    0.154560
  10 H :    0.139162
  11 H :    0.131611
  12 H :    0.093937
  13 H :    0.140696
  14 H :    0.120701
  15 H :    0.321979
  16 H :    0.101611
  17 H :    0.150634
  18 H :    0.140621
  19 H :    0.140140
  20 H :    0.071882
Sum of atomic charges:    0.0000000

LOEWDIN ATOMIC CHARGES
----------------------
   0 C :   -0.298272
   1 C :   -0.276342
   2 C :   -0.321098
   3 O :   -0.043164
   4 C :   -0.300419
   5 C :   -0.287080
   6 O :    0.266024
   7 C :   -0.457672
   8 O :    0.117674
   9 H :    0.129076
  10 H :    0.123518
  11 H :    0.125740
  12 H :    0.160781
  13 H :    0.125315
  14 H :    0.130024
  15 H :    0.172034
  16 H :    0.142216
  17 H :    0.130224
  18 H :    0.127362
  19 H :    0.132064
  20 H :    0.101996

  Mayer bond orders larger than 0.1
B(  0-C ,  1-C ) :   0.8707 B(  0-C ,  9-H ) :   0.9357 B(  0-C , 10-H ) :   0.9417
B(  0-C , 11-H ) :   0.9355 B(  1-C ,  2-C ) :   0.8903 B(  1-C ,  4-C ) :   0.8930
B(  1-C , 12-H ) :   0.9140 B(  2-C ,  3-O ) :   0.9423 B(  2-C , 13-H ) :   0.9360
B(  2-C , 14-H ) :   0.9363 B(  3-O , 15-H ) :   0.8470 B(  4-C ,  5-C ) :   0.9338
B(  4-C ,  6-O ) :   0.8170 B(  4-C , 16-H ) :   0.9297 B(  5-C , 17-H ) :   0.9355
B(  5-C , 18-H ) :   0.9300 B(  5-C , 19-H ) :   0.9323 B(  6-O ,  7-C ) :   1.0773
B(  7-C ,  8-O ) :   2.0242 B(  7-C , 20-H ) :   0.9150

MP2 TOTAL ENERGY:     -460.655025949 Eh
FINAL SINGLE POINT ENERGY      -460.655025949373

DIPOLE MOMENT
-------------
                                X             Y             Z
Electronic contribution:      6.69371       1.80282       2.12203
Nuclear contribution   :     -7.88415      -1.95441      -1.79150
                        -----------------------------------------
Total Dipole Moment    :     -1.19044      -0.15159       0.33054
                        -----------------------------------------
Magnitude (a.u.)       :      1.24474
Magnitude (Debye)      :      3.16388

                             ****ORCA TERMINATED NORMALLY****
TOTAL RUN TIME: 0 days 0 hours 17 minutes 27 seconds 553 msec
