                         Program Version 3.0.3 - RELEASE   -
|  1> ! RI-MP2 RIJK def2-TZVP def2-TZVP/C def2-TZVP/JK TIGHTSCF
|  2> % maxcore 2000
|  3> % mp2 density relaxed end
|  4> *xyz 0 1
|  5>  C       -0.0573143455     1.5566951733     0.0477137727
|  6>  C        0.1093804912     0.0473561076     0.0351418675
|  7>  C        1.2886881706    -0.8429915689    -0.3618141044
|  8>  N        2.6937815760    -0.4731261839    -0.4845586354
|  9>  C        3.0687877861     0.9393577219    -0.3136988091
| 10>  C        3.1340698665     0.0058511730     0.8414727767
| 11>  C        1.9805093324    -0.1131153557     1.8429280469
| 12>  C        0.8221408800    -0.7872357516     1.0807857717
| 13>  C        0.1018358482    -1.9201966735     1.7773086672
| 14>  H        0.6462097073     2.0698092599     0.7067129527
| 15>  H        0.0412797279     1.9900331644    -0.9535916404
| 16>  H       -1.0621310419     1.8018626056     0.4089878205
| 17>  H       -0.8119449927    -0.4334373985    -0.2937240334
| 18>  H        1.0372952579    -1.6916351762    -0.9908055263
| 19>  H        3.9914957182     1.2146143955    -0.8193864499
| 20>  H        2.3054151018     1.7025686825    -0.3461371940
| 21>  H        4.1119946720    -0.3390232180     1.1704406784
| 22>  H        2.2851377740    -0.7569729214     2.6735822838
| 23>  H        1.7005804464     0.8500660075     2.2842278345
| 24>  H       -0.4390830700    -1.5675510622     2.6640402374
| 25>  H       -0.6307067207    -2.3887364991     1.1123329278
| 26>  H        0.8023981743    -2.6979687126     2.1042240250
| 27> *
| 28>
| 29>                          ****END OF INPUT****

CARTESIAN COORDINATES (ANGSTROEM)
---------------------------------
  C     -0.057314    1.556695    0.047714
  C      0.109380    0.047356    0.035142
  C      1.288688   -0.842992   -0.361814
  N      2.693782   -0.473126   -0.484559
  C      3.068788    0.939358   -0.313699
  C      3.134070    0.005851    0.841473
  C      1.980509   -0.113115    1.842928
  C      0.822141   -0.787236    1.080786
  C      0.101836   -1.920197    1.777309
  H      0.646210    2.069809    0.706713
  H      0.041280    1.990033   -0.953592
  H     -1.062131    1.801863    0.408988
  H     -0.811945   -0.433437   -0.293724
  H      1.037295   -1.691635   -0.990806
  H      3.991496    1.214614   -0.819386
  H      2.305415    1.702569   -0.346137
  H      4.111995   -0.339023    1.170441
  H      2.285138   -0.756973    2.673582
  H      1.700580    0.850066    2.284228
  H     -0.439083   -1.567551    2.664040
  H     -0.630707   -2.388736    1.112333
  H      0.802398   -2.697969    2.104224

 Total Charge           Charge          ....    0
 Multiplicity           Mult            ....    1
 Number of Electrons    NEL             ....   68
 Basis Dimension        Dim             ....  357

ORBITAL ENERGIES
----------------

  NO   OCC          E(Eh)            E(eV)
   0   2.0000     -15.551316      -423.1728
   1   2.0000     -11.251696      -306.1742
   2   2.0000     -11.248318      -306.0823
   3   2.0000     -11.246619      -306.0361
   4   2.0000     -11.232496      -305.6518
   5   2.0000     -11.231593      -305.6272
   6   2.0000     -11.228048      -305.5307
   7   2.0000     -11.221641      -305.3564
   8   2.0000     -11.216879      -305.2268
   9   2.0000      -1.278144       -34.7801
  10   2.0000      -1.138374       -30.9767
  11   2.0000      -1.009057       -27.4578
  12   2.0000      -0.979419       -26.6513
  13   2.0000      -0.946403       -25.7529
  14   2.0000      -0.881742       -23.9934
  15   2.0000      -0.803749       -21.8711
  16   2.0000      -0.750664       -20.4266
  17   2.0000      -0.731282       -19.8992
  18   2.0000      -0.680988       -18.5306
  19   2.0000      -0.620685       -16.8897
  20   2.0000      -0.613670       -16.6988
  21   2.0000      -0.594613       -16.1803
  22   2.0000      -0.573026       -15.5928
  23   2.0000      -0.570258       -15.5175
  24   2.0000      -0.555035       -15.1033
  25   2.0000      -0.543517       -14.7898
  26   2.0000      -0.522426       -14.2159
  27   2.0000      -0.508700       -13.8424
  28   2.0000      -0.479241       -13.0408
  29   2.0000      -0.471491       -12.8299
  30   2.0000      -0.452020       -12.3001
  31   2.0000      -0.402253       -10.9459
  32   2.0000      -0.368590       -10.0299
  33   2.0000      -0.355144        -9.6639
  34   0.0000       0.134175         3.6511
  35   0.0000       0.155058         4.2194
  36   0.0000       0.168494         4.5850
  37   0.0000       0.175224         4.7681
  38   0.0000       0.191270         5.2047

MULLIKEN ATOMIC CHARGES
-----------------------
   0 C :   -0.422616
   1 C :   -0.145508
   2 C :   -0.038034
   3 N :   -0.229924
   4 C :   -0.191055
   5 C :   -0.048725
   6 C :   -0.249176
   7 C :    0.071953
   8 C :   -0.408843
   9 H :    0.129892
  10 H :    0.146007
  11 H :    0.140696
  12 H :    0.108653
  13 H :    0.121684
  14 H :    0.122476
  15 H :    0.125378
  16 H :    0.119831
  17 H :    0.130567
  18 H :    0.127616
  19 H :    0.133573
  20 H :    0.125105
  21 H :    0.130453
Sum of atomic charges:    0.0000000

LOEWDIN ATOMIC CHARGES
----------------------
   0 C :   -0.304459
   1 C :   -0.192769
   2 C :   -0.203627
   3 N :    0.129759
   4 C :   -0.240408
   5 C :   -0.231975
   6 C :   -0.190602
   7 C :   -0.226111
   8 C :   -0.273400
   9 H :    0.120364
  10 H :    0.126026
  11 H :    0.128072
  12 H :    0.157372
  13 H :    0.143837
  14 H :    0.125329
  15 H :    0.126870
  16 H :    0.136696
  17 H :    0.147416
  18 H :    0.140955
  19 H :    0.126707
  20 H :    0.127512
  21 H :    0.126437

  Mayer bond orders larger than 0.1
B(  0-C ,  1-C ) :   0.8721 B(  0-C ,  9-H ) :   0.9411 B(  0-C , 10-H ) :   0.9398
B(  0-C , 11-H ) :   0.9362 B(  1-C ,  2-C ) :   0.8592 B(  1-C ,  7-C ) :   0.8853
B(  1-C , 12-H ) :   0.9289 B(  2-C ,  3-N ) :   0.9872 B(  2-C ,  7-C ) :   0.8355
B(  2-C , 13-H ) :   0.9465 B(  3-N ,  4-C ) :   0.8918 B(  3-N ,  5-C ) :   0.8927
B(  4-C ,  5-C ) :   0.9509 B(  4-C , 14-H ) :   0.9299 B(  4-C , 15-H ) :   0.9123
B(  5-C ,  6-C ) :   0.9443 B(  5-C , 16-H ) :   0.9146 B(  6-C ,  7-C ) :   0.9265
B(  6-C , 17-H ) :   0.9266 B(  6-C , 18-H ) :   0.9180 B(  7-C ,  8-C ) :   0.8823
B(  8-C , 19-H ) :   0.9412 B(  8-C , 20-H ) :   0.9331 B(  8-C , 21-H ) :   0.9391

MP2 TOTAL ENERGY:     -366.508548410 Eh
FINAL SINGLE POINT ENERGY      -366.508548410122

DIPOLE MOMENT
-------------
                                X             Y             Z
Electronic contribution:      4.03608      -1.46583      -2.46869
Nuclear contribution   :     -4.43278       1.77274       2.93074
                        -----------------------------------------
Total Dipole Moment    :     -0.39670       0.30690       0.46205
                        -----------------------------------------
Magnitude (a.u.)       :      0.68195
Magnitude (Debye)      :      1.73337

                             ****ORCA TERMINATED NORMALLY****
TOTAL RUN TIME: 0 days 0 hours 20 minutes 57 seconds 880 msec
