                         Program Version 3.0.3 - RELEASE   -
|  1> ! RI-MP2 RIJK def2-TZVP def2-TZVP/C def2-TZVP/JK TIGHTSCF
|  2> % maxcore 2000
|  3> % mp2 density relaxed end
|  4> *xyz 0 1
|  5>  C       -0.0583013532     1.6539060111     0.0325236843
|  6>  C        0.0772166124     0.1266783705    -0.1008243966
|  7>  C        1.1451086894    -0.3791563499     0.8822117639
|  8>  C       -1.2808548147    -0.5820669997     0.0575171409
|  9>  C       -2.3687632017    -0.0514012201    -0.8650065132
| 10>  C       -1.2718122566    -2.1311503138     0.1813995249
| 11>  C       -1.7629512358    -1.8751245317     1.5873485611
| 12>  N       -2.0848576076    -2.6048773290     2.5560738752
| 13>  O       -1.7534329503    -0.5034366597     1.4664413255
| 14>  H        0.9277807984     2.1252339321    -0.0148430067
| 15>  H       -0.6693425286     2.0922146660    -0.7601189784
| 16>  H       -0.5088607477     1.9156034219     0.9957364992
| 17>  H        0.4137793019    -0.1027991971    -1.1223784277
| 18>  H        0.8411044523    -0.1895306358     1.9155620326
| 19>  H        1.3474572311    -1.4482979020     0.7796109639
| 20>  H        2.0881716805     0.1470782764     0.7076482487
| 21>  H       -2.0510295439    -0.1218793293    -1.9109094830
| 22>  H       -3.2858456642    -0.6347441957    -0.7450517916
| 23>  H       -2.6039665188     0.9919099984    -0.6452993588
| 24>  H       -1.9854744396    -2.6499494245    -0.4610395268
| 25>  H       -0.3047564667    -2.6284219396     0.1165431952
| 26>  H       -2.3769929966    -2.0422476182     3.3574475074
| 27> *
| 28>
| 29>                          ****END OF INPUT****

CARTESIAN COORDINATES (ANGSTROEM)
---------------------------------
  C     -0.058301    1.653906    0.032524
  C      0.077217    0.126678   -0.100824
  C      1.145109   -0.379156    0.882212
  C     -1.280855   -0.582067    0.057517
  C     -2.368763   -0.051401   -0.865007
  C     -1.271812   -2.131150    0.181400
  C     -1.762951   -1.875125    1.587349
  N     -2.084858   -2.604877    2.556074
  O     -1.753433   -0.503437    1.466441
  H      0.927781    2.125234   -0.014843
  H     -0.669343    2.092215   -0.760119
  H     -0.508861    1.915603    0.995736
  H      0.413779   -0.102799   -1.122378
  H      0.841104   -0.189531    1.915562
  H      1.347457   -1.448298    0.779611
  H      2.088172    0.147078    0.707648
  H     -2.051030   -0.121879   -1.910909
  H     -3.285846   -0.634744   -0.745052
  H     -2.603967    0.991910   -0.645299
  H     -1.985474   -2.649949   -0.461040
  H     -0.304756   -2.628422    0.116543
  H     -2.376993   -2.042248    3.357448

 Total Charge           Charge          ....    0
 Multiplicity           Mult            ....    1
 Number of Electrons    NEL             ....   70
 Basis Dimension        Dim             ....  357

ORBITAL ENERGIES
----------------

  NO   OCC          E(Eh)            E(eV)
   0   2.0000     -20.581569      -560.0530
   1   2.0000     -15.530579      -422.6085
   2   2.0000     -11.334485      -308.4270
   3   2.0000     -11.309194      -307.7388
   4   2.0000     -11.244883      -305.9888
   5   2.0000     -11.243942      -305.9632
   6   2.0000     -11.229607      -305.5731
   7   2.0000     -11.220107      -305.3146
   8   2.0000     -11.219088      -305.2869
   9   2.0000      -1.425404       -38.7872
  10   2.0000      -1.190928       -32.4068
  11   2.0000      -1.101594       -29.9759
  12   2.0000      -1.033379       -28.1197
  13   2.0000      -0.985807       -26.8252
  14   2.0000      -0.932045       -25.3622
  15   2.0000      -0.862324       -23.4650
  16   2.0000      -0.775676       -21.1072
  17   2.0000      -0.735820       -20.0227
  18   2.0000      -0.700170       -19.0526
  19   2.0000      -0.675789       -18.3892
  20   2.0000      -0.645918       -17.5763
  21   2.0000      -0.619244       -16.8505
  22   2.0000      -0.600789       -16.3483
  23   2.0000      -0.576600       -15.6901
  24   2.0000      -0.565674       -15.3928
  25   2.0000      -0.548869       -14.9355
  26   2.0000      -0.535124       -14.5615
  27   2.0000      -0.533006       -14.5038
  28   2.0000      -0.512233       -13.9386
  29   2.0000      -0.505511       -13.7557
  30   2.0000      -0.477372       -12.9900
  31   2.0000      -0.473283       -12.8787
  32   2.0000      -0.458643       -12.4803
  33   2.0000      -0.431121       -11.7314
  34   2.0000      -0.394754       -10.7418
  35   0.0000       0.125438         3.4133
  36   0.0000       0.152211         4.1419
  37   0.0000       0.161313         4.3896
  38   0.0000       0.165036         4.4908
  39   0.0000       0.173050         4.7089

MULLIKEN ATOMIC CHARGES
-----------------------
   0 C :   -0.449413
   1 C :   -0.033549
   2 C :   -0.427667
   3 C :    0.295399
   4 C :   -0.449851
   5 C :   -0.230552
   6 C :    0.091894
   7 N :   -0.357226
   8 O :   -0.302743
   9 H :    0.135443
  10 H :    0.137879
  11 H :    0.149087
  12 H :    0.093751
  13 H :    0.148422
  14 H :    0.128918
  15 H :    0.137519
  16 H :    0.138516
  17 H :    0.144311
  18 H :    0.152223
  19 H :    0.137819
  20 H :    0.134435
  21 H :    0.225386
Sum of atomic charges:    0.0000000

LOEWDIN ATOMIC CHARGES
----------------------
   0 C :   -0.288245
   1 C :   -0.268651
   2 C :   -0.287199
   3 C :   -0.276620
   4 C :   -0.265618
   5 C :   -0.162474
   6 C :   -0.407182
   7 N :   -0.061304
   8 O :    0.242986
   9 H :    0.125429
  10 H :    0.121516
  11 H :    0.130709
  12 H :    0.158556
  13 H :    0.130906
  14 H :    0.121158
  15 H :    0.125881
  16 H :    0.133163
  17 H :    0.132099
  18 H :    0.131462
  19 H :    0.147202
  20 H :    0.144758
  21 H :    0.171468

  Mayer bond orders larger than 0.1
B(  0-C ,  1-C ) :   0.9001 B(  0-C ,  9-H ) :   0.9377 B(  0-C , 10-H ) :   0.9390
B(  0-C , 11-H ) :   0.9316 B(  1-C ,  2-C ) :   0.9129 B(  1-C ,  3-C ) :   0.9200
B(  1-C , 12-H ) :   0.9153 B(  2-C , 13-H ) :   0.9317 B(  2-C , 14-H ) :   0.9397
B(  2-C , 15-H ) :   0.9349 B(  3-C ,  4-C ) :   0.9001 B(  3-C ,  5-C ) :   0.8658
B(  3-C ,  8-O ) :   0.8276 B(  4-C , 16-H ) :   0.9313 B(  4-C , 17-H ) :   0.9279
B(  4-C , 18-H ) :   0.9414 B(  5-C ,  6-C ) :   0.9539 B(  5-C , 19-H ) :   0.9081
B(  5-C , 20-H ) :   0.9097 B(  6-C ,  7-N ) :   2.1227 B(  6-C ,  8-O ) :   1.0709
B(  7-N , 21-H ) :   0.8471

MP2 TOTAL ENERGY:     -403.673811857 Eh
FINAL SINGLE POINT ENERGY      -403.673811856640

DIPOLE MOMENT
-------------
                                X             Y             Z
Electronic contribution:     -4.60139      -5.20920       4.88379
Nuclear contribution   :      4.95870       5.85051      -5.84286
                        -----------------------------------------
Total Dipole Moment    :      0.35731       0.64131      -0.95908
                        -----------------------------------------
Magnitude (a.u.)       :      1.20780
Magnitude (Debye)      :      3.06999

                             ****ORCA TERMINATED NORMALLY****
TOTAL RUN TIME: 0 days 0 hours 22 minutes 21 seconds 361 msec
