                         Program Version 3.0.3 - RELEASE   -
|  1> ! RI-MP2 RIJK def2-TZVP def2-TZVP/C def2-TZVP/JK TIGHTSCF
|  2> % maxcore 2000
|  3> % mp2 density relaxed end
|  4> *xyz 0 1
|  5>  O       -0.0653877086     1.4496141816    -0.0031256392
|  6>  C       -0.0107240381     0.0335867060     0.0264416630
|  7>  C       -1.4378671057    -0.4926214888    -0.0302309237
|  8>  C       -1.4184301053    -2.0156329059    -0.0366369093
|  9>  O       -0.6024382278    -2.5730870644    -1.0793038778
| 10>  C        0.6348958262    -2.0362225744    -1.3083265398
| 11>  N        1.6011036746    -2.7434135878    -1.7184548841
| 12>  C        0.7649137193    -0.5360340557    -1.1666488248
| 13>  H        0.8366239154     1.7864402607     0.0070665890
| 14>  H        0.4581564324    -0.3126263198     0.9635412276
| 15>  H       -2.0140172722    -0.1376766911     0.8300606536
| 16>  H       -1.9219845940    -0.1109970388    -0.9363990376
| 17>  H       -1.0541325853    -2.3952531885     0.9286729666
| 18>  H       -2.4162534689    -2.4272142126    -0.2029686218
| 19>  H        1.3084951443    -3.7212222401    -1.7849451685
| 20>  H        0.3532461635    -0.0727536943    -2.0732075228
| 21>  H        1.8292116100    -0.2930924361    -1.1241830906
| 22> *
| 23>
| 24>                          ****END OF INPUT****

CARTESIAN COORDINATES (ANGSTROEM)
---------------------------------
  O     -0.065388    1.449614   -0.003126
  C     -0.010724    0.033587    0.026442
  C     -1.437867   -0.492621   -0.030231
  C     -1.418430   -2.015633   -0.036637
  O     -0.602438   -2.573087   -1.079304
  C      0.634896   -2.036223   -1.308327
  N      1.601104   -2.743414   -1.718455
  C      0.764914   -0.536034   -1.166649
  H      0.836624    1.786440    0.007067
  H      0.458156   -0.312626    0.963541
  H     -2.014017   -0.137677    0.830061
  H     -1.921985   -0.110997   -0.936399
  H     -1.054133   -2.395253    0.928673
  H     -2.416253   -2.427214   -0.202969
  H      1.308495   -3.721222   -1.784945
  H      0.353246   -0.072754   -2.073208
  H      1.829212   -0.293092   -1.124183

 Total Charge           Charge          ....    0
 Multiplicity           Mult            ....    1
 Number of Electrons    NEL             ....   62
 Basis Dimension        Dim             ....  302

ORBITAL ENERGIES
----------------

  NO   OCC          E(Eh)            E(eV)
   0   2.0000     -20.589489      -560.2685
   1   2.0000     -20.569837      -559.7337
   2   2.0000     -15.533045      -422.6756
   3   2.0000     -11.337524      -308.5097
   4   2.0000     -11.299551      -307.4764
   5   2.0000     -11.298516      -307.4483
   6   2.0000     -11.241952      -305.9091
   7   2.0000     -11.237851      -305.7975
   8   2.0000      -1.421430       -38.6791
   9   2.0000      -1.377338       -37.4793
  10   2.0000      -1.196400       -32.5557
  11   2.0000      -1.088398       -29.6168
  12   2.0000      -1.014350       -27.6019
  13   2.0000      -0.904710       -24.6184
  14   2.0000      -0.838948       -22.8289
  15   2.0000      -0.758947       -20.6520
  16   2.0000      -0.717452       -19.5229
  17   2.0000      -0.688511       -18.7353
  18   2.0000      -0.682662       -18.5762
  19   2.0000      -0.651575       -17.7303
  20   2.0000      -0.632260       -17.2047
  21   2.0000      -0.599691       -16.3184
  22   2.0000      -0.577188       -15.7061
  23   2.0000      -0.562675       -15.3112
  24   2.0000      -0.541780       -14.7426
  25   2.0000      -0.511138       -13.9088
  26   2.0000      -0.483441       -13.1551
  27   2.0000      -0.474779       -12.9194
  28   2.0000      -0.454187       -12.3590
  29   2.0000      -0.437108       -11.8943
  30   2.0000      -0.399430       -10.8690
  31   0.0000       0.126161         3.4330
  32   0.0000       0.139367         3.7924
  33   0.0000       0.158060         4.3010
  34   0.0000       0.170695         4.6449
  35   0.0000       0.177694         4.8353

MULLIKEN ATOMIC CHARGES
-----------------------
   0 O :   -0.457319
   1 C :    0.091377
   2 C :   -0.216318
   3 C :   -0.080575
   4 O :   -0.268432
   5 C :    0.076204
   6 N :   -0.359652
   7 C :   -0.188187
   8 H :    0.317004
   9 H :    0.085562
  10 H :    0.134779
  11 H :    0.122090
  12 H :    0.111505
  13 H :    0.139703
  14 H :    0.219201
  15 H :    0.138189
  16 H :    0.134868
Sum of atomic charges:    0.0000000

LOEWDIN ATOMIC CHARGES
----------------------
   0 O :   -0.012669
   1 C :   -0.356773
   2 C :   -0.246599
   3 C :   -0.282240
   4 O :    0.224366
   5 C :   -0.409996
   6 N :   -0.051603
   7 C :   -0.214587
   8 H :    0.176635
   9 H :    0.137134
  10 H :    0.149025
  11 H :    0.147520
  12 H :    0.127573
  13 H :    0.134131
  14 H :    0.166646
  15 H :    0.159647
  16 H :    0.151788

  Mayer bond orders larger than 0.1
B(  0-O ,  1-C ) :   0.9938 B(  0-O ,  8-H ) :   0.8438 B(  1-C ,  2-C ) :   0.8910
B(  1-C ,  7-C ) :   0.9177 B(  1-C ,  9-H ) :   0.9380 B(  2-C ,  3-C ) :   0.9357
B(  2-C , 10-H ) :   0.9187 B(  2-C , 11-H ) :   0.9208 B(  3-C ,  4-O ) :   0.8656
B(  3-C , 12-H ) :   0.9316 B(  3-C , 13-H ) :   0.9330 B(  4-O ,  5-C ) :   1.0763
B(  5-C ,  6-N ) :   2.0508 B(  5-C ,  7-C ) :   0.9056 B(  6-N , 14-H ) :   0.8566
B(  7-C , 15-H ) :   0.9097 B(  7-C , 16-H ) :   0.9084

MP2 TOTAL ENERGY:     -400.372061589 Eh
FINAL SINGLE POINT ENERGY      -400.372061589494

DIPOLE MOMENT
-------------
                                X             Y             Z
Electronic contribution:      1.40535      -1.72595      -1.65099
Nuclear contribution   :     -1.83210       1.94710       2.31661
                        -----------------------------------------
Total Dipole Moment    :     -0.42675       0.22115       0.66562
                        -----------------------------------------
Magnitude (a.u.)       :      0.82102
Magnitude (Debye)      :      2.08687

                             ****ORCA TERMINATED NORMALLY****
TOTAL RUN TIME: 0 days 0 hours 12 minutes 18 seconds 918 msec
