                         Program Version 3.0.3 - RELEASE   -
|  1> ! RI-MP2 RIJK def2-TZVP def2-TZVP/C def2-TZVP/JK TIGHTSCF
|  2> % maxcore 2000
|  3> % mp2 density relaxed end
|  4> *xyz 0 1
|  5>  O       -0.0696681149     1.3979622530    -0.0184937452
|  6>  C       -0.0170990735     0.0114239938     0.0248590503
|  7>  C        0.3371855063    -0.8350839041     1.2989462211
|  8>  C       -0.3684272206    -1.9148340534     0.4458749359
|  9>  C       -1.3341443318    -0.8069027126    -0.0434302471
| 10>  O        0.5271351839    -2.0989409543    -0.6704146060
| 11>  C        0.8182237496    -0.7375126862    -1.0342864343
| 12>  H        0.8292642637     1.7423581195     0.0262542282
| 13>  H        1.3887020008    -1.0020335941     1.5460365551
| 14>  H       -0.2362025580    -0.5226445253     2.1728658812
| 15>  H       -0.6909133398    -2.8807494034     0.8261120896
| 16>  H       -2.0555302049    -0.4938738272     0.7126286462
| 17>  H       -1.8091817129    -0.9441489889    -1.0172301514
| 18>  H        0.4903127365    -0.5269945129    -2.0591450308
| 19>  H        1.8958286456    -0.5397163540    -0.9538916927
| 20> *
| 21>
| 22>                          ****END OF INPUT****

CARTESIAN COORDINATES (ANGSTROEM)
---------------------------------
  O     -0.069668    1.397962   -0.018494
  C     -0.017099    0.011424    0.024859
  C      0.337186   -0.835084    1.298946
  C     -0.368427   -1.914834    0.445875
  C     -1.334144   -0.806903   -0.043430
  O      0.527135   -2.098941   -0.670415
  C      0.818224   -0.737513   -1.034286
  H      0.829264    1.742358    0.026254
  H      1.388702   -1.002034    1.546037
  H     -0.236203   -0.522645    2.172866
  H     -0.690913   -2.880749    0.826112
  H     -2.055530   -0.493874    0.712629
  H     -1.809182   -0.944149   -1.017230
  H      0.490313   -0.526995   -2.059145
  H      1.895829   -0.539716   -0.953892

 Total Charge           Charge          ....    0
 Multiplicity           Mult            ....    1
 Number of Electrons    NEL             ....   54
 Basis Dimension        Dim             ....  265

ORBITAL ENERGIES
----------------

  NO   OCC          E(Eh)            E(eV)
   0   2.0000     -20.572803      -559.8144
   1   2.0000     -20.553578      -559.2913
   2   2.0000     -11.299987      -307.4883
   3   2.0000     -11.288743      -307.1823
   4   2.0000     -11.276073      -306.8376
   5   2.0000     -11.228635      -305.5467
   6   2.0000     -11.227294      -305.5102
   7   2.0000      -1.395456       -37.9723
   8   2.0000      -1.372047       -37.3353
   9   2.0000      -1.120025       -30.4774
  10   2.0000      -0.972927       -26.4747
  11   2.0000      -0.916710       -24.9450
  12   2.0000      -0.804463       -21.8905
  13   2.0000      -0.777021       -21.1438
  14   2.0000      -0.727409       -19.7938
  15   2.0000      -0.663587       -18.0571
  16   2.0000      -0.652437       -17.7537
  17   2.0000      -0.628940       -17.1143
  18   2.0000      -0.569890       -15.5075
  19   2.0000      -0.566243       -15.4083
  20   2.0000      -0.534706       -14.5501
  21   2.0000      -0.528851       -14.3908
  22   2.0000      -0.513138       -13.9632
  23   2.0000      -0.511535       -13.9196
  24   2.0000      -0.448185       -12.1957
  25   2.0000      -0.416070       -11.3219
  26   2.0000      -0.399399       -10.8682
  27   0.0000       0.128211         3.4888
  28   0.0000       0.152377         4.1464
  29   0.0000       0.182575         4.9681
  30   0.0000       0.185508         5.0479
  31   0.0000       0.191401         5.2083

MULLIKEN ATOMIC CHARGES
-----------------------
   0 O :   -0.461659
   1 C :    0.163193
   2 C :   -0.270222
   3 C :    0.046259
   4 C :   -0.239142
   5 O :   -0.327511
   6 C :   -0.075070
   7 H :    0.322964
   8 H :    0.118737
   9 H :    0.126582
  10 H :    0.132767
  11 H :    0.127386
  12 H :    0.121043
  13 H :    0.113703
  14 H :    0.100971
Sum of atomic charges:    0.0000000

LOEWDIN ATOMIC CHARGES
----------------------
   0 O :    0.026004
   1 C :   -0.378140
   2 C :   -0.195297
   3 C :   -0.265528
   4 C :   -0.181078
   5 O :    0.148955
   6 C :   -0.260048
   7 H :    0.184332
   8 H :    0.128848
   9 H :    0.140674
  10 H :    0.130207
  11 H :    0.143195
  12 H :    0.132533
  13 H :    0.124872
  14 H :    0.120470

  Mayer bond orders larger than 0.1
B(  0-O ,  1-C ) :   0.9794 B(  0-O ,  7-H ) :   0.8357 B(  1-C ,  2-C ) :   0.8848
B(  1-C ,  4-C ) :   0.8947 B(  1-C ,  6-C ) :   0.9508 B(  2-C ,  3-C ) :   0.9170
B(  2-C ,  8-H ) :   0.9184 B(  2-C ,  9-H ) :   0.9225 B(  3-C ,  4-C ) :   0.9221
B(  3-C ,  5-O ) :   0.9160 B(  3-C , 10-H ) :   0.9212 B(  4-C , 11-H ) :   0.9240
B(  4-C , 12-H ) :   0.9190 B(  5-O ,  6-C ) :   0.9358 B(  6-C , 13-H ) :   0.9252
B(  6-C , 14-H ) :   0.9159

MP2 TOTAL ENERGY:     -345.070791598 Eh
FINAL SINGLE POINT ENERGY      -345.070791598403

DIPOLE MOMENT
-------------
                                X             Y             Z
Electronic contribution:      0.46367       0.06856      -0.93166
Nuclear contribution   :     -0.19588       0.24905       1.27484
                        -----------------------------------------
Total Dipole Moment    :      0.26779       0.31761       0.34318
                        -----------------------------------------
Magnitude (a.u.)       :      0.53886
Magnitude (Debye)      :      1.36966

                             ****ORCA TERMINATED NORMALLY****
TOTAL RUN TIME: 0 days 0 hours 7 minutes 56 seconds 981 msec
