                         Program Version 3.0.3 - RELEASE   -
|  1> ! RI-MP2 RIJK def2-TZVP def2-TZVP/C def2-TZVP/JK TIGHTSCF
|  2> % maxcore 2000
|  3> % mp2 density relaxed end
|  4> *xyz 0 1
|  5>  O       -0.0911510791     1.4661325462     0.0113958813
|  6>  C        0.0367243619     0.0545772473     0.0021431122
|  7>  C       -1.3836436441    -0.5222113451     0.0122822458
|  8>  C       -1.3934297167    -1.9796215478     0.0040987535
|  9>  C       -1.3617468504    -3.1838365602    -0.0028757571
| 10>  C       -1.3759328122    -4.6415927824    -0.0101261845
| 11>  C       -2.8186800229    -5.2154521678     0.0011119441
| 12>  C       -2.8336278633    -6.6721677262    -0.0060507829
| 13>  C       -2.8107652152    -7.8739377349    -0.0126811370
| 14>  H        0.7904746120     1.8494313667     0.0050205485
| 15>  H        0.5685639900    -0.3015934661    -0.8926252199
| 16>  H        0.5853402799    -0.3117122683     0.8825847220
| 17>  H       -1.9048973795    -0.1378707765     0.8975397350
| 18>  H       -1.9214795813    -0.1279071357    -0.8585575655
| 19>  H       -0.8518829451    -5.0237628282    -0.8939290508
| 20>  H       -0.8346886611    -5.0326867036     0.8592932382
| 21>  H       -3.3449847511    -4.8379170382     0.8851530200
| 22>  H       -3.3621626749    -4.8290205259    -0.8685809945
| 23>  H       -2.8078660267    -8.9356380334    -0.0190167985
| 24> *
| 25>
| 26>                          ****END OF INPUT****

CARTESIAN COORDINATES (ANGSTROEM)
---------------------------------
  O     -0.091151    1.466133    0.011396
  C      0.036724    0.054577    0.002143
  C     -1.383644   -0.522211    0.012282
  C     -1.393430   -1.979622    0.004099
  C     -1.361747   -3.183837   -0.002876
  C     -1.375933   -4.641593   -0.010126
  C     -2.818680   -5.215452    0.001112
  C     -2.833628   -6.672168   -0.006051
  C     -2.810765   -7.873938   -0.012681
  H      0.790475    1.849431    0.005021
  H      0.568564   -0.301593   -0.892625
  H      0.585340   -0.311712    0.882585
  H     -1.904897   -0.137871    0.897540
  H     -1.921480   -0.127907   -0.858558
  H     -0.851883   -5.023763   -0.893929
  H     -0.834689   -5.032687    0.859293
  H     -3.344985   -4.837917    0.885153
  H     -3.362163   -4.829021   -0.868581
  H     -2.807866   -8.935638   -0.019017

 Total Charge           Charge          ....    0
 Multiplicity           Mult            ....    1
 Number of Electrons    NEL             ....   66
 Basis Dimension        Dim             ....  339

ORBITAL ENERGIES
----------------

  NO   OCC          E(Eh)            E(eV)
   0   2.0000     -20.562404      -559.5315
   1   2.0000     -11.285191      -307.0857
   2   2.0000     -11.260221      -306.4062
   3   2.0000     -11.258995      -306.3728
   4   2.0000     -11.247967      -306.0727
   5   2.0000     -11.235936      -305.7454
   6   2.0000     -11.225892      -305.4720
   7   2.0000     -11.223130      -305.3969
   8   2.0000     -11.221980      -305.3656
   9   2.0000      -1.367448       -37.2102
  10   2.0000      -1.105545       -30.0834
  11   2.0000      -1.070363       -29.1261
  12   2.0000      -1.023009       -27.8375
  13   2.0000      -0.971331       -26.4313
  14   2.0000      -0.897590       -24.4247
  15   2.0000      -0.852659       -23.2020
  16   2.0000      -0.724251       -19.7079
  17   2.0000      -0.718686       -19.5564
  18   2.0000      -0.670979       -18.2583
  19   2.0000      -0.660550       -17.9745
  20   2.0000      -0.644276       -17.5316
  21   2.0000      -0.616852       -16.7854
  22   2.0000      -0.594822       -16.1859
  23   2.0000      -0.582198       -15.8424
  24   2.0000      -0.556567       -15.1450
  25   2.0000      -0.553699       -15.0669
  26   2.0000      -0.535532       -14.5726
  27   2.0000      -0.506283       -13.7766
  28   2.0000      -0.452412       -12.3107
  29   2.0000      -0.396342       -10.7850
  30   2.0000      -0.388627       -10.5751
  31   2.0000      -0.370466       -10.0809
  32   2.0000      -0.369269       -10.0483
  33   0.0000       0.129680         3.5288
  34   0.0000       0.138154         3.7594
  35   0.0000       0.164717         4.4822
  36   0.0000       0.167839         4.5671
  37   0.0000       0.171720         4.6727

MULLIKEN ATOMIC CHARGES
-----------------------
   0 O :   -0.462597
   1 C :   -0.047116
   2 C :   -0.234764
   3 C :    0.014289
   4 C :   -0.020663
   5 C :   -0.356346
   6 C :   -0.314967
   7 C :   -0.031158
   8 C :   -0.136555
   9 H :    0.318535
  10 H :    0.101248
  11 H :    0.101240
  12 H :    0.140900
  13 H :    0.140891
  14 H :    0.149210
  15 H :    0.149199
  16 H :    0.148850
  17 H :    0.148844
  18 H :    0.190960
Sum of atomic charges:    0.0000000

LOEWDIN ATOMIC CHARGES
----------------------
   0 O :   -0.049402
   1 C :   -0.337311
   2 C :   -0.252273
   3 C :   -0.079790
   4 C :   -0.083137
   5 C :   -0.233665
   6 C :   -0.232275
   7 C :   -0.113229
   8 C :   -0.105337
   9 H :    0.174263
  10 H :    0.117912
  11 H :    0.117911
  12 H :    0.157288
  13 H :    0.157285
  14 H :    0.158126
  15 H :    0.158132
  16 H :    0.159569
  17 H :    0.159572
  18 H :    0.126362

  Mayer bond orders larger than 0.1
B(  0-O ,  1-C ) :   1.0171 B(  0-O ,  2-C ) :  -0.1196 B(  0-O ,  9-H ) :   0.8470
B(  1-C ,  2-C ) :   0.9493 B(  1-C , 10-H ) :   0.9301 B(  1-C , 11-H ) :   0.9301
B(  2-C ,  3-C ) :   0.9242 B(  2-C , 12-H ) :   0.9256 B(  2-C , 13-H ) :   0.9256
B(  3-C ,  4-C ) :   2.6533 B(  3-C ,  5-C ) :  -0.1050 B(  4-C ,  5-C ) :   1.0070
B(  5-C ,  6-C ) :   0.9570 B(  5-C , 14-H ) :   0.9294 B(  5-C , 15-H ) :   0.9293
B(  6-C ,  7-C ) :   1.0810 B(  6-C , 16-H ) :   0.9271 B(  6-C , 17-H ) :   0.9271
B(  7-C ,  8-C ) :   2.6270 B(  8-C , 18-H ) :   0.8951

MP2 TOTAL ENERGY:     -385.135505355 Eh
FINAL SINGLE POINT ENERGY      -385.135505354508

DIPOLE MOMENT
-------------
                                X             Y             Z
Electronic contribution:     -1.13054      -2.13132      -0.00064
Nuclear contribution   :      1.72975       2.13401      -0.00536
                        -----------------------------------------
Total Dipole Moment    :      0.59921       0.00269      -0.00600
                        -----------------------------------------
Magnitude (a.u.)       :      0.59925
Magnitude (Debye)      :      1.52317

                             ****ORCA TERMINATED NORMALLY****
TOTAL RUN TIME: 0 days 0 hours 12 minutes 49 seconds 246 msec
