                         Program Version 3.0.3 - RELEASE   -
|  1> ! RI-MP2 RIJK def2-TZVP def2-TZVP/C def2-TZVP/JK TIGHTSCF
|  2> % maxcore 2000
|  3> % mp2 density relaxed end
|  4> *xyz 0 1
|  5>  N       -0.0674414039     1.2109607276    -0.6075041442
|  6>  C       -0.0878305598     0.0562108541    -0.0976536513
|  7>  O       -1.1248354897    -0.7680978234    -0.3336685976
|  8>  C       -1.0217784019    -2.0892447768     0.2097408346
|  9>  C       -2.3782432607    -2.7286361996     0.1261007959
| 10>  C       -2.8309790438    -3.3747696566    -1.1488682417
| 11>  C       -2.5007857562    -4.2472931252     0.0529297386
| 12>  C       -1.3407261163    -5.0914653958     0.0462137344
| 13>  C       -0.3760629003    -5.8107709432     0.0507540438
| 14>  H        0.7746339925     1.7026693207    -0.3156254615
| 15>  H        0.6796219361    -0.3784203191     0.5590702026
| 16>  H       -0.2868190559    -2.6733751886    -0.3566019945
| 17>  H       -0.6817767303    -2.0383521203     1.2530751565
| 18>  H       -3.1397945607    -2.2327332321     0.7198091599
| 19>  H       -3.8725359490    -3.2888846942    -1.4350426136
| 20>  H       -2.1313141292    -3.3966828306    -1.9764755352
| 21>  H       -3.3521021975    -4.6627324989     0.5839881178
| 22>  H        0.4724713967    -6.4489813281     0.0488092657
| 23> *
| 24>
| 25>                          ****END OF INPUT****

CARTESIAN COORDINATES (ANGSTROEM)
---------------------------------
  N     -0.067441    1.210961   -0.607504
  C     -0.087831    0.056211   -0.097654
  O     -1.124835   -0.768098   -0.333669
  C     -1.021778   -2.089245    0.209741
  C     -2.378243   -2.728636    0.126101
  C     -2.830979   -3.374770   -1.148868
  C     -2.500786   -4.247293    0.052930
  C     -1.340726   -5.091465    0.046214
  C     -0.376063   -5.810771    0.050754
  H      0.774634    1.702669   -0.315625
  H      0.679622   -0.378420    0.559070
  H     -0.286819   -2.673375   -0.356602
  H     -0.681777   -2.038352    1.253075
  H     -3.139795   -2.232733    0.719809
  H     -3.872536   -3.288885   -1.435043
  H     -2.131314   -3.396683   -1.976476
  H     -3.352102   -4.662732    0.583988
  H      0.472471   -6.448981    0.048809

 Total Charge           Charge          ....    0
 Multiplicity           Mult            ....    1
 Number of Electrons    NEL             ....   66
 Basis Dimension        Dim             ....  333

ORBITAL ENERGIES
----------------

  NO   OCC          E(Eh)            E(eV)
   0   2.0000     -20.590977      -560.3090
   1   2.0000     -15.538552      -422.8255
   2   2.0000     -11.336993      -308.4953
   3   2.0000     -11.301157      -307.5201
   4   2.0000     -11.269633      -306.6623
   5   2.0000     -11.256295      -306.2994
   6   2.0000     -11.246814      -306.0414
   7   2.0000     -11.243522      -305.9518
   8   2.0000     -11.228597      -305.5456
   9   2.0000      -1.426938       -38.8290
  10   2.0000      -1.199856       -32.6497
  11   2.0000      -1.175395       -31.9841
  12   2.0000      -1.035222       -28.1698
  13   2.0000      -0.983079       -26.7509
  14   2.0000      -0.875495       -23.8234
  15   2.0000      -0.826721       -22.4962
  16   2.0000      -0.815679       -22.1957
  17   2.0000      -0.736828       -20.0501
  18   2.0000      -0.716872       -19.5071
  19   2.0000      -0.692257       -18.8373
  20   2.0000      -0.674303       -18.3487
  21   2.0000      -0.659922       -17.9574
  22   2.0000      -0.629425       -17.1275
  23   2.0000      -0.572734       -15.5849
  24   2.0000      -0.553230       -15.0542
  25   2.0000      -0.532070       -14.4783
  26   2.0000      -0.512830       -13.9548
  27   2.0000      -0.489053       -13.3078
  28   2.0000      -0.460118       -12.5204
  29   2.0000      -0.435411       -11.8481
  30   2.0000      -0.402926       -10.9642
  31   2.0000      -0.386983       -10.5303
  32   2.0000      -0.369777       -10.0622
  33   0.0000       0.135807         3.6955
  34   0.0000       0.143091         3.8937
  35   0.0000       0.156069         4.2469
  36   0.0000       0.160382         4.3642
  37   0.0000       0.165412         4.5011

MULLIKEN ATOMIC CHARGES
-----------------------
   0 N :   -0.342317
   1 C :    0.064925
   2 O :   -0.203330
   3 C :   -0.123686
   4 C :   -0.026720
   5 C :   -0.243427
   6 C :   -0.289795
   7 C :   -0.018697
   8 C :   -0.126578
   9 H :    0.223964
  10 H :    0.079313
  11 H :    0.130339
  12 H :    0.120343
  13 H :    0.131873
  14 H :    0.143979
  15 H :    0.144088
  16 H :    0.144085
  17 H :    0.191642
Sum of atomic charges:   -0.0000000

LOEWDIN ATOMIC CHARGES
----------------------
   0 N :   -0.083532
   1 C :   -0.405201
   2 O :    0.243468
   3 C :   -0.275222
   4 C :   -0.193287
   5 C :   -0.171229
   6 C :   -0.187730
   7 C :   -0.099881
   8 C :   -0.099738
   9 H :    0.167168
  10 H :    0.106361
  11 H :    0.137307
  12 H :    0.130612
  13 H :    0.154758
  14 H :    0.137525
  15 H :    0.144937
  16 H :    0.166505
  17 H :    0.127179

  Mayer bond orders larger than 0.1
B(  0-N ,  1-C ) :   1.9528 B(  0-N ,  9-H ) :   0.8505 B(  1-C ,  2-O ) :   1.0644
B(  1-C , 10-H ) :   0.9293 B(  2-O ,  3-C ) :   0.8970 B(  3-C ,  4-C ) :   0.9740
B(  3-C , 11-H ) :   0.9077 B(  3-C , 12-H ) :   0.9254 B(  4-C ,  5-C ) :   0.8849
B(  4-C ,  6-C ) :   0.8447 B(  4-C , 13-H ) :   0.9234 B(  5-C ,  6-C ) :   0.8512
B(  5-C , 14-H ) :   0.9263 B(  5-C , 15-H ) :   0.9267 B(  6-C ,  7-C ) :   1.1664
B(  6-C ,  8-C ) :  -0.1322 B(  6-C , 16-H ) :   0.9357 B(  7-C ,  8-C ) :   2.5603
B(  8-C , 17-H ) :   0.8999

MP2 TOTAL ENERGY:     -401.187720266 Eh
FINAL SINGLE POINT ENERGY      -401.187720266275

DIPOLE MOMENT
-------------
                                X             Y             Z
Electronic contribution:      0.46306       0.64109      -0.05035
Nuclear contribution   :     -0.04294      -1.45167       0.77289
                        -----------------------------------------
Total Dipole Moment    :      0.42012      -0.81058       0.72254
                        -----------------------------------------
Magnitude (a.u.)       :      1.16431
Magnitude (Debye)      :      2.95943

                             ****ORCA TERMINATED NORMALLY****
TOTAL RUN TIME: 0 days 0 hours 14 minutes 28 seconds 873 msec
