                         Program Version 3.0.3 - RELEASE   -
|  1> ! RI-MP2 RIJK def2-TZVP def2-TZVP/C def2-TZVP/JK TIGHTSCF
|  2> % maxcore 2000
|  3> % mp2 density relaxed end
|  4> *xyz 0 1
|  5>  C       -0.1876756243     1.5349376565     0.0770659158
|  6>  C        1.3427860738     1.5675541995    -0.1736846376
|  7>  N        1.4198662192     0.1831197686     0.3264488050
|  8>  C       -0.0453524285     0.0021977289     0.2667622693
|  9>  C        2.3368064615    -0.7253998287    -0.1384360322
| 10>  C        3.5592097356    -0.5882549149    -0.7719001302
| 11>  N        4.0835820558    -1.8304846961    -0.9751712984
| 12>  N        3.2759238591    -2.7333474642    -0.5196085698
| 13>  N        2.2003694288    -2.0683515067    -0.0022117204
| 14>  H       -0.4877562018     2.0554957373     0.9872093367
| 15>  H       -0.8183582756     1.8595710392    -0.7496854339
| 16>  H        1.6117075274     1.6526468689    -1.2355614077
| 17>  H        1.9326464787     2.2868158057     0.4020910338
| 18>  H       -0.4849735294    -0.4320841920     1.1706332395
| 19>  H       -0.3716136197    -0.5805308978    -0.6062458931
| 20>  H        4.0750282707     0.3079637152    -1.0726513809
| 21>  H        1.4556158586    -2.5882823094     0.4313107039
| 22> *
| 23>
| 24>                          ****END OF INPUT****

CARTESIAN COORDINATES (ANGSTROEM)
---------------------------------
  C     -0.187676    1.534938    0.077066
  C      1.342786    1.567554   -0.173685
  N      1.419866    0.183120    0.326449
  C     -0.045352    0.002198    0.266762
  C      2.336806   -0.725400   -0.138436
  C      3.559210   -0.588255   -0.771900
  N      4.083582   -1.830485   -0.975171
  N      3.275924   -2.733347   -0.519609
  N      2.200369   -2.068352   -0.002212
  H     -0.487756    2.055496    0.987209
  H     -0.818358    1.859571   -0.749685
  H      1.611708    1.652647   -1.235561
  H      1.932646    2.286816    0.402091
  H     -0.484974   -0.432084    1.170633
  H     -0.371614   -0.580531   -0.606246
  H      4.075028    0.307964   -1.072651
  H      1.455616   -2.588282    0.431311

 Total Charge           Charge          ....    0
 Multiplicity           Mult            ....    1
 Number of Electrons    NEL             ....   66
 Basis Dimension        Dim             ....  327

ORBITAL ENERGIES
----------------

  NO   OCC          E(Eh)            E(eV)
   0   2.0000     -15.638628      -425.5487
   1   2.0000     -15.620416      -425.0531
   2   2.0000     -15.589737      -424.2183
   3   2.0000     -15.589163      -424.2027
   4   2.0000     -11.318414      -307.9897
   5   2.0000     -11.286771      -307.1287
   6   2.0000     -11.281869      -306.9953
   7   2.0000     -11.252498      -306.1960
   8   2.0000     -11.234075      -305.6947
   9   2.0000      -1.420662       -38.6582
  10   2.0000      -1.294067       -35.2133
  11   2.0000      -1.188412       -32.3383
  12   2.0000      -1.087932       -29.6041
  13   2.0000      -1.000103       -27.2142
  14   2.0000      -0.953066       -25.9342
  15   2.0000      -0.856794       -23.3146
  16   2.0000      -0.830067       -22.5873
  17   2.0000      -0.795395       -21.6438
  18   2.0000      -0.749814       -20.4035
  19   2.0000      -0.696268       -18.9464
  20   2.0000      -0.669006       -18.2046
  21   2.0000      -0.631469       -17.1831
  22   2.0000      -0.624030       -16.9807
  23   2.0000      -0.582975       -15.8636
  24   2.0000      -0.566864       -15.4252
  25   2.0000      -0.551664       -15.0115
  26   2.0000      -0.529653       -14.4126
  27   2.0000      -0.499605       -13.5949
  28   2.0000      -0.491372       -13.3709
  29   2.0000      -0.448895       -12.2151
  30   2.0000      -0.424412       -11.5488
  31   2.0000      -0.402554       -10.9540
  32   2.0000      -0.310479        -8.4486
  33   0.0000       0.117916         3.2087
  34   0.0000       0.132143         3.5958
  35   0.0000       0.150426         4.0933
  36   0.0000       0.155775         4.2389
  37   0.0000       0.173338         4.7168

MULLIKEN ATOMIC CHARGES
-----------------------
   0 C :   -0.228419
   1 C :   -0.152766
   2 N :   -0.120766
   3 C :   -0.171083
   4 C :    0.141411
   5 C :   -0.199006
   6 N :   -0.160560
   7 N :   -0.145287
   8 N :   -0.111219
   9 H :    0.130654
  10 H :    0.133723
  11 H :    0.113656
  12 H :    0.128310
  13 H :    0.124395
  14 H :    0.115797
  15 H :    0.140631
  16 H :    0.260528
Sum of atomic charges:    0.0000000

LOEWDIN ATOMIC CHARGES
----------------------
   0 C :   -0.231498
   1 C :   -0.224774
   2 N :    0.156598
   3 C :   -0.235751
   4 C :   -0.330266
   5 C :   -0.278819
   6 N :   -0.008346
   7 N :   -0.061222
   8 N :    0.128173
   9 H :    0.135404
  10 H :    0.130477
  11 H :    0.126089
  12 H :    0.125073
  13 H :    0.121735
  14 H :    0.124014
  15 H :    0.135308
  16 H :    0.187806

  Mayer bond orders larger than 0.1
B(  0-C ,  1-C ) :   0.9478 B(  0-C ,  3-C ) :   0.9521 B(  0-C ,  9-H ) :   0.9242
B(  0-C , 10-H ) :   0.9316 B(  1-C ,  2-N ) :   0.8978 B(  1-C , 11-H ) :   0.9118
B(  1-C , 12-H ) :   0.9257 B(  2-N ,  3-C ) :   0.8941 B(  2-N ,  4-C ) :   1.1140
B(  3-C , 13-H ) :   0.9230 B(  3-C , 14-H ) :   0.9067 B(  4-C ,  5-C ) :   1.3893
B(  4-C ,  7-N ) :   0.1284 B(  4-C ,  8-N ) :   1.1484 B(  5-C ,  6-N ) :   1.3630
B(  5-C , 15-H ) :   0.9446 B(  6-N ,  7-N ) :   1.3355 B(  7-N ,  8-N ) :   0.9855
B(  8-N , 16-H ) :   0.8609

MP2 TOTAL ENERGY:     -413.449309684 Eh
FINAL SINGLE POINT ENERGY      -413.449309684488

DIPOLE MOMENT
-------------
                                X             Y             Z
Electronic contribution:      6.28001      -6.79689      -0.39176
Nuclear contribution   :     -8.30411       8.13805       0.93657
                        -----------------------------------------
Total Dipole Moment    :     -2.02409       1.34116       0.54481
                        -----------------------------------------
Magnitude (a.u.)       :      2.48847
Magnitude (Debye)      :      6.32519

                             ****ORCA TERMINATED NORMALLY****
TOTAL RUN TIME: 0 days 0 hours 15 minutes 55 seconds 173 msec
