                         Program Version 3.0.3 - RELEASE   -
|  1> ! RI-MP2 RIJK def2-TZVP def2-TZVP/C def2-TZVP/JK TIGHTSCF
|  2> % maxcore 2000
|  3> % mp2 density relaxed end
|  4> *xyz 0 1
|  5>  C        0.0071005195     1.5304585913     0.0195998226
|  6>  C        0.0165046904     0.0251689898    -0.0202597778
|  7>  C        0.5947857436    -0.7728909865    -1.2069328998
|  8>  C        0.8534725601    -2.1013590769    -0.6312463074
|  9>  C        1.2013245001    -1.9933924729     0.8405249522
| 10>  C        0.3449651095    -0.8100737291     1.3048414538
| 11>  C       -1.1412959296    -1.2636497555     1.3587600787
| 12>  C       -1.2385758854    -0.8786413322    -0.1204279083
| 13>  N       -0.5289549690    -1.7875636415    -1.1152030994
| 14>  H        1.0219005300     1.9320521503     0.1288915011
| 15>  H       -0.4188336846     1.9494062612    -0.8991007182
| 16>  H       -0.5866764442     1.9034690921     0.8615033967
| 17>  H        0.9579431627    -0.3886608733    -2.1549117520
| 18>  H        1.3122537706    -2.8783048668    -1.2355078852
| 19>  H        0.9811970147    -2.9027052105     1.4104229815
| 20>  H        2.2763032242    -1.7946204905     0.9359489214
| 21>  H        0.7463358366    -0.2713238710     2.1647549876
| 22>  H       -1.3382466767    -2.3016708460     1.6437342083
| 23>  H       -1.7627621046    -0.6002560128     1.9682987675
| 24>  H       -2.1854216377    -0.5509086993    -0.5545657533
| 25> *
| 26>
| 27>                          ****END OF INPUT****

CARTESIAN COORDINATES (ANGSTROEM)
---------------------------------
  C      0.007101    1.530459    0.019600
  C      0.016505    0.025169   -0.020260
  C      0.594786   -0.772891   -1.206933
  C      0.853473   -2.101359   -0.631246
  C      1.201325   -1.993392    0.840525
  C      0.344965   -0.810074    1.304841
  C     -1.141296   -1.263650    1.358760
  C     -1.238576   -0.878641   -0.120428
  N     -0.528955   -1.787564   -1.115203
  H      1.021901    1.932052    0.128892
  H     -0.418834    1.949406   -0.899101
  H     -0.586676    1.903469    0.861503
  H      0.957943   -0.388661   -2.154912
  H      1.312254   -2.878305   -1.235508
  H      0.981197   -2.902705    1.410423
  H      2.276303   -1.794620    0.935949
  H      0.746336   -0.271324    2.164755
  H     -1.338247   -2.301671    1.643734
  H     -1.762762   -0.600256    1.968299
  H     -2.185422   -0.550909   -0.554566

 Total Charge           Charge          ....    0
 Multiplicity           Mult            ....    1
 Number of Electrons    NEL             ....   66
 Basis Dimension        Dim             ....  345

ORBITAL ENERGIES
----------------

  NO   OCC          E(Eh)            E(eV)
   0   2.0000     -15.551480      -423.1773
   1   2.0000     -11.254929      -306.2622
   2   2.0000     -11.250874      -306.1518
   3   2.0000     -11.249299      -306.1090
   4   2.0000     -11.236130      -305.7507
   5   2.0000     -11.231512      -305.6250
   6   2.0000     -11.225223      -305.4539
   7   2.0000     -11.221890      -305.3631
   8   2.0000     -11.218645      -305.2748
   9   2.0000      -1.294308       -35.2199
  10   2.0000      -1.103435       -30.0260
  11   2.0000      -1.028991       -28.0003
  12   2.0000      -0.996622       -27.1195
  13   2.0000      -0.882703       -24.0196
  14   2.0000      -0.862797       -23.4779
  15   2.0000      -0.819517       -22.3002
  16   2.0000      -0.766263       -20.8511
  17   2.0000      -0.704402       -19.1678
  18   2.0000      -0.656326       -17.8595
  19   2.0000      -0.627367       -17.0715
  20   2.0000      -0.614291       -16.7157
  21   2.0000      -0.587963       -15.9993
  22   2.0000      -0.567644       -15.4464
  23   2.0000      -0.555444       -15.1144
  24   2.0000      -0.549734       -14.9590
  25   2.0000      -0.540567       -14.7096
  26   2.0000      -0.501450       -13.6452
  27   2.0000      -0.475417       -12.9368
  28   2.0000      -0.443340       -12.0639
  29   2.0000      -0.431115       -11.7312
  30   2.0000      -0.414021       -11.2661
  31   2.0000      -0.390256       -10.6194
  32   2.0000      -0.345102        -9.3907
  33   0.0000       0.133252         3.6260
  34   0.0000       0.157828         4.2947
  35   0.0000       0.163838         4.4583
  36   0.0000       0.178523         4.8578
  37   0.0000       0.184964         5.0331

MULLIKEN ATOMIC CHARGES
-----------------------
   0 C :   -0.431675
   1 C :    0.150597
   2 C :   -0.158354
   3 C :   -0.096043
   4 C :   -0.227936
   5 C :   -0.052025
   6 C :   -0.293582
   7 C :   -0.012038
   8 N :   -0.240206
   9 H :    0.134208
  10 H :    0.138689
  11 H :    0.136242
  12 H :    0.133424
  13 H :    0.122410
  14 H :    0.117199
  15 H :    0.116061
  16 H :    0.117745
  17 H :    0.114494
  18 H :    0.118240
  19 H :    0.112551
Sum of atomic charges:   -0.0000000

LOEWDIN ATOMIC CHARGES
----------------------
   0 C :   -0.275781
   1 C :   -0.192867
   2 C :   -0.156086
   3 C :   -0.228710
   4 C :   -0.217823
   5 C :   -0.160582
   6 C :   -0.205310
   7 C :   -0.185178
   8 N :    0.134618
   9 H :    0.129020
  10 H :    0.129861
  11 H :    0.129772
  12 H :    0.131792
  13 H :    0.145217
  14 H :    0.139965
  15 H :    0.143748
  16 H :    0.137111
  17 H :    0.128926
  18 H :    0.139452
  19 H :    0.132856

  Mayer bond orders larger than 0.1
B(  0-C ,  1-C ) :   0.8392 B(  0-C ,  9-H ) :   0.9390 B(  0-C , 10-H ) :   0.9445
B(  0-C , 11-H ) :   0.9474 B(  1-C ,  2-C ) :   0.9401 B(  1-C ,  5-C ) :   0.8847
B(  1-C ,  7-C ) :   0.9348 B(  2-C ,  3-C ) :   0.9226 B(  2-C ,  8-N ) :   0.8844
B(  2-C , 12-H ) :   0.8870 B(  3-C ,  4-C ) :   0.9451 B(  3-C ,  8-N ) :   0.9264
B(  3-C , 13-H ) :   0.9391 B(  4-C ,  5-C ) :   0.9371 B(  4-C , 14-H ) :   0.9174
B(  4-C , 15-H ) :   0.9149 B(  5-C ,  6-C ) :   0.9375 B(  5-C , 16-H ) :   0.9202
B(  6-C ,  7-C ) :   0.9491 B(  6-C , 17-H ) :   0.9070 B(  6-C , 18-H ) :   0.9198
B(  7-C ,  8-N ) :   0.9167 B(  7-C , 19-H ) :   0.9194

MP2 TOTAL ENERGY:     -365.304997372 Eh
FINAL SINGLE POINT ENERGY      -365.304997371698

DIPOLE MOMENT
-------------
                                X             Y             Z
Electronic contribution:     -0.44040      -3.02225      -2.87831
Nuclear contribution   :      0.83085       3.50303       3.38263
                        -----------------------------------------
Total Dipole Moment    :      0.39046       0.48078       0.50432
                        -----------------------------------------
Magnitude (a.u.)       :      0.79872
Magnitude (Debye)      :      2.03018

                             ****ORCA TERMINATED NORMALLY****
TOTAL RUN TIME: 0 days 0 hours 22 minutes 59 seconds 535 msec
