                         Program Version 3.0.3 - RELEASE   -
|  1> ! RI-MP2 RIJK def2-TZVP def2-TZVP/C def2-TZVP/JK TIGHTSCF
|  2> % maxcore 2000
|  3> % mp2 density relaxed end
|  4> *xyz 0 1
|  5>  C       -0.1185808046     1.5080030873    -0.0057009681
|  6>  C        0.0327679349    -0.0088210558     0.0142958190
|  7>  C        1.2041648854    -0.5926105191    -0.8303370613
|  8>  C        2.1143164956    -0.4376239703     0.4218367172
|  9>  C        0.7974488710    -0.6059972767     1.2329123564
| 10>  C        0.4766670862    -2.1036540226     1.3157877913
| 11>  O        0.9624278342    -2.8093250161     0.1793807038
| 12>  C        0.9425188678    -2.0883184722    -1.0474493694
| 13>  H        0.8284281703     2.0231916248     0.1843352279
| 14>  H       -0.4902995007     1.8497291793    -0.9782273548
| 15>  H       -0.8324177706     1.8384723971     0.7571789221
| 16>  H       -0.9439498847    -0.4711958769    -0.1812379218
| 17>  H        1.4756744733    -0.0954679052    -1.7660124186
| 18>  H        2.8991222476    -1.1824216736     0.5717084445
| 19>  H        2.5375808247     0.5637019598     0.5117684577
| 20>  H        0.6923480153    -0.1212577150     2.2077652391
| 21>  H        0.9680604653    -2.5667327199     2.1793152503
| 22>  H       -0.6112038614    -2.2466616776     1.4304387439
| 23>  H       -0.0201116066    -2.2272053806    -1.5681336118
| 24>  H        1.7259909070    -2.5417827168    -1.6656167375
| 25> *
| 26>
| 27>                          ****END OF INPUT****

CARTESIAN COORDINATES (ANGSTROEM)
---------------------------------
  C     -0.118581    1.508003   -0.005701
  C      0.032768   -0.008821    0.014296
  C      1.204165   -0.592611   -0.830337
  C      2.114316   -0.437624    0.421837
  C      0.797449   -0.605997    1.232912
  C      0.476667   -2.103654    1.315788
  O      0.962428   -2.809325    0.179381
  C      0.942519   -2.088318   -1.047449
  H      0.828428    2.023192    0.184335
  H     -0.490300    1.849729   -0.978227
  H     -0.832418    1.838472    0.757179
  H     -0.943950   -0.471196   -0.181238
  H      1.475674   -0.095468   -1.766012
  H      2.899122   -1.182422    0.571708
  H      2.537581    0.563702    0.511768
  H      0.692348   -0.121258    2.207765
  H      0.968060   -2.566733    2.179315
  H     -0.611204   -2.246662    1.430439
  H     -0.020112   -2.227205   -1.568134
  H      1.725991   -2.541783   -1.665617

 Total Charge           Charge          ....    0
 Multiplicity           Mult            ....    1
 Number of Electrons    NEL             ....   62
 Basis Dimension        Dim             ....  320

ORBITAL ENERGIES
----------------

  NO   OCC          E(Eh)            E(eV)
   0   2.0000     -20.544856      -559.0539
   1   2.0000     -11.269367      -306.6551
   2   2.0000     -11.269348      -306.6546
   3   2.0000     -11.228566      -305.5448
   4   2.0000     -11.228464      -305.5420
   5   2.0000     -11.226588      -305.4910
   6   2.0000     -11.219423      -305.2960
   7   2.0000     -11.216333      -305.2119
   8   2.0000      -1.366366       -37.1807
   9   2.0000      -1.146991       -31.2112
  10   2.0000      -1.010940       -27.5091
  11   2.0000      -0.982151       -26.7257
  12   2.0000      -0.888553       -24.1787
  13   2.0000      -0.836800       -22.7705
  14   2.0000      -0.830619       -22.6023
  15   2.0000      -0.708583       -19.2815
  16   2.0000      -0.680984       -18.5305
  17   2.0000      -0.656996       -17.8778
  18   2.0000      -0.622014       -16.9259
  19   2.0000      -0.617171       -16.7941
  20   2.0000      -0.585894       -15.9430
  21   2.0000      -0.554679       -15.0936
  22   2.0000      -0.547007       -14.8848
  23   2.0000      -0.528110       -14.3706
  24   2.0000      -0.522435       -14.2162
  25   2.0000      -0.521674       -14.1955
  26   2.0000      -0.448731       -12.2106
  27   2.0000      -0.445231       -12.1154
  28   2.0000      -0.420242       -11.4354
  29   2.0000      -0.415714       -11.3121
  30   2.0000      -0.404127       -10.9969
  31   0.0000       0.137205         3.7335
  32   0.0000       0.162284         4.4160
  33   0.0000       0.163632         4.4526
  34   0.0000       0.167315         4.5529
  35   0.0000       0.184702         5.0260

MULLIKEN ATOMIC CHARGES
-----------------------
   0 C :   -0.436278
   1 C :   -0.138285
   2 C :   -0.009039
   3 C :   -0.333338
   4 C :   -0.009039
   5 C :   -0.070983
   6 O :   -0.324646
   7 C :   -0.070982
   8 H :    0.127327
   9 H :    0.132209
  10 H :    0.132209
  11 H :    0.103367
  12 H :    0.114653
  13 H :    0.127833
  14 H :    0.126938
  15 H :    0.114653
  16 H :    0.114363
  17 H :    0.092338
  18 H :    0.092338
  19 H :    0.114363
Sum of atomic charges:   -0.0000000

LOEWDIN ATOMIC CHARGES
----------------------
   0 C :   -0.293042
   1 C :   -0.219728
   2 C :   -0.211254
   3 C :   -0.195516
   4 C :   -0.211254
   5 C :   -0.289187
   6 O :    0.147861
   7 C :   -0.289186
   8 H :    0.124354
   9 H :    0.124598
  10 H :    0.124598
  11 H :    0.140926
  12 H :    0.139615
  13 H :    0.132273
  14 H :    0.133190
  15 H :    0.139615
  16 H :    0.129138
  17 H :    0.121931
  18 H :    0.121931
  19 H :    0.129138

  Mayer bond orders larger than 0.1
B(  0-C ,  1-C ) :   0.9004 B(  0-C ,  8-H ) :   0.9349 B(  0-C ,  9-H ) :   0.9418
B(  0-C , 10-H ) :   0.9418 B(  1-C ,  2-C ) :   0.8711 B(  1-C ,  4-C ) :   0.8711
B(  1-C , 11-H ) :   0.9294 B(  2-C ,  3-C ) :   0.9079 B(  2-C ,  7-C ) :   0.9051
B(  2-C , 12-H ) :   0.9165 B(  3-C ,  4-C ) :   0.9079 B(  3-C , 13-H ) :   0.9150
B(  3-C , 14-H ) :   0.9258 B(  4-C ,  5-C ) :   0.9051 B(  4-C , 15-H ) :   0.9165
B(  5-C ,  6-O ) :   0.9438 B(  5-C , 16-H ) :   0.9295 B(  5-C , 17-H ) :   0.9303
B(  6-O ,  7-C ) :   0.9438 B(  7-C , 18-H ) :   0.9303 B(  7-C , 19-H ) :   0.9295

MP2 TOTAL ENERGY:     -348.392591983 Eh
FINAL SINGLE POINT ENERGY      -348.392591983000

DIPOLE MOMENT
-------------
                                X             Y             Z
Electronic contribution:      1.10030      -4.77856       0.18589
Nuclear contribution   :     -1.22403       5.36779      -0.20646
                        -----------------------------------------
Total Dipole Moment    :     -0.12372       0.58923      -0.02057
                        -----------------------------------------
Magnitude (a.u.)       :      0.60243
Magnitude (Debye)      :      1.53124

                             ****ORCA TERMINATED NORMALLY****
TOTAL RUN TIME: 0 days 0 hours 14 minutes 36 seconds 920 msec
