                         Program Version 3.0.3 - RELEASE   -
|  1> ! RI-MP2 RIJK def2-TZVP def2-TZVP/C def2-TZVP/JK TIGHTSCF
|  2> % maxcore 2000
|  3> % mp2 density relaxed end
|  4> *xyz 0 1
|  5>  C       -0.3369174311     1.4518165897    -0.1103758348
|  6>  C       -0.0643849442    -0.0547697202    -0.1255225731
|  7>  C        0.8710529782    -0.5317170459    -1.2559480853
|  8>  C        2.2917978989     0.0186836033    -1.1012381692
|  9>  C        0.8542291756    -2.0796297031    -1.3710989478
| 10>  C       -0.1515590027    -2.3455371299    -2.4980461670
| 11>  C        0.0694670750    -1.1310837856    -3.4044459242
| 12>  C       -1.0946020386    -0.7541717981    -4.3064161149
| 13>  O        0.3292265758    -0.0527287732    -2.5067979748
| 14>  H        0.5641340950     2.0290906820     0.1191298030
| 15>  H       -0.7092678262     1.7788498912    -1.0843129393
| 16>  H       -1.0863689208     1.7007564850     0.6473445871
| 17>  H        0.3630448602    -0.3713105554     0.8348153196
| 18>  H       -1.0170690977    -0.5884002689    -0.2327382881
| 19>  H        2.7473781422    -0.3307579884    -0.1680194962
| 20>  H        2.9192526048    -0.3154735170    -1.9330838260
| 21>  H        2.2949346536     1.1115629844    -1.0971811549
| 22>  H        1.8457221257    -2.4492911107    -1.6535657189
| 23>  H        0.5825181535    -2.5568261741    -0.4261302240
| 24>  H        0.0139429683    -3.2963588172    -3.0115231962
| 25>  H       -1.1797177248    -2.3412936729    -2.1182089766
| 26>  H        0.9633681216    -1.3076455486    -4.0290159893
| 27>  H       -1.9995872226    -0.5874011357    -3.7135731958
| 28>  H       -0.8724648681     0.1636985881    -4.8580112693
| 29>  H       -1.2920475616    -1.5505377287    -5.0313957537
| 30> *
| 31>
| 32>                          ****END OF INPUT****

CARTESIAN COORDINATES (ANGSTROEM)
---------------------------------
  C     -0.336917    1.451817   -0.110376
  C     -0.064385   -0.054770   -0.125523
  C      0.871053   -0.531717   -1.255948
  C      2.291798    0.018684   -1.101238
  C      0.854229   -2.079630   -1.371099
  C     -0.151559   -2.345537   -2.498046
  C      0.069467   -1.131084   -3.404446
  C     -1.094602   -0.754172   -4.306416
  O      0.329227   -0.052729   -2.506798
  H      0.564134    2.029091    0.119130
  H     -0.709268    1.778850   -1.084313
  H     -1.086369    1.700756    0.647345
  H      0.363045   -0.371311    0.834815
  H     -1.017069   -0.588400   -0.232738
  H      2.747378   -0.330758   -0.168019
  H      2.919253   -0.315474   -1.933084
  H      2.294935    1.111563   -1.097181
  H      1.845722   -2.449291   -1.653566
  H      0.582518   -2.556826   -0.426130
  H      0.013943   -3.296359   -3.011523
  H     -1.179718   -2.341294   -2.118209
  H      0.963368   -1.307646   -4.029016
  H     -1.999587   -0.587401   -3.713573
  H     -0.872465    0.163699   -4.858011
  H     -1.292048   -1.550538   -5.031396

 Total Charge           Charge          ....    0
 Multiplicity           Mult            ....    1
 Number of Electrons    NEL             ....   72
 Basis Dimension        Dim             ....  375

ORBITAL ENERGIES
----------------

  NO   OCC          E(Eh)            E(eV)
   0   2.0000     -20.535695      -558.8047
   1   2.0000     -11.277270      -306.8701
   2   2.0000     -11.271441      -306.7115
   3   2.0000     -11.220236      -305.3181
   4   2.0000     -11.219602      -305.3009
   5   2.0000     -11.213967      -305.1476
   6   2.0000     -11.209843      -305.0353
   7   2.0000     -11.207407      -304.9691
   8   2.0000     -11.202292      -304.8299
   9   2.0000      -1.363866       -37.1127
  10   2.0000      -1.075560       -29.2675
  11   2.0000      -1.056009       -28.7355
  12   2.0000      -0.996158       -27.1068
  13   2.0000      -0.958066       -26.0703
  14   2.0000      -0.883482       -24.0408
  15   2.0000      -0.836416       -22.7600
  16   2.0000      -0.792214       -21.5572
  17   2.0000      -0.740962       -20.1626
  18   2.0000      -0.672385       -18.2965
  19   2.0000      -0.642259       -17.4767
  20   2.0000      -0.615118       -16.7382
  21   2.0000      -0.592245       -16.1158
  22   2.0000      -0.589685       -16.0461
  23   2.0000      -0.574530       -15.6338
  24   2.0000      -0.557460       -15.1693
  25   2.0000      -0.532188       -14.4816
  26   2.0000      -0.531120       -14.4525
  27   2.0000      -0.522430       -14.2161
  28   2.0000      -0.508126       -13.8268
  29   2.0000      -0.494303       -13.4507
  30   2.0000      -0.488524       -13.2934
  31   2.0000      -0.479445       -13.0464
  32   2.0000      -0.457605       -12.4521
  33   2.0000      -0.451233       -12.2787
  34   2.0000      -0.438792       -11.9401
  35   2.0000      -0.397211       -10.8087
  36   0.0000       0.132841         3.6148
  37   0.0000       0.152814         4.1583
  38   0.0000       0.156661         4.2630
  39   0.0000       0.163715         4.4549
  40   0.0000       0.190237         5.1766

MULLIKEN ATOMIC CHARGES
-----------------------
   0 C :   -0.422577
   1 C :   -0.210358
   2 C :    0.266924
   3 C :   -0.449558
   4 C :   -0.244842
   5 C :   -0.244900
   6 C :    0.087828
   7 C :   -0.383767
   8 O :   -0.330808
   9 H :    0.120210
  10 H :    0.147017
  11 H :    0.130918
  12 H :    0.104687
  13 H :    0.105652
  14 H :    0.125476
  15 H :    0.128134
  16 H :    0.140362
  17 H :    0.120921
  18 H :    0.127205
  19 H :    0.124655
  20 H :    0.109194
  21 H :    0.065237
  22 H :    0.121269
  23 H :    0.138864
  24 H :    0.122256
Sum of atomic charges:    0.0000000

LOEWDIN ATOMIC CHARGES
----------------------
   0 C :   -0.318742
   1 C :   -0.256444
   2 C :   -0.349983
   3 C :   -0.273525
   4 C :   -0.217843
   5 C :   -0.240993
   6 C :   -0.340766
   7 C :   -0.294937
   8 O :    0.207207
   9 H :    0.118049
  10 H :    0.126661
  11 H :    0.119775
  12 H :    0.138303
  13 H :    0.139740
  14 H :    0.126547
  15 H :    0.125183
  16 H :    0.126189
  17 H :    0.140468
  18 H :    0.139965
  19 H :    0.136566
  20 H :    0.138464
  21 H :    0.134362
  22 H :    0.123706
  23 H :    0.126588
  24 H :    0.125461

  Mayer bond orders larger than 0.1
B(  0-C ,  1-C ) :   0.9218 B(  0-C ,  9-H ) :   0.9395 B(  0-C , 10-H ) :   0.9359
B(  0-C , 11-H ) :   0.9397 B(  1-C ,  2-C ) :   0.9166 B(  1-C , 12-H ) :   0.9285
B(  1-C , 13-H ) :   0.9293 B(  2-C ,  3-C ) :   0.8907 B(  2-C ,  4-C ) :   0.8800
B(  2-C ,  8-O ) :   0.8584 B(  3-C , 14-H ) :   0.9362 B(  3-C , 15-H ) :   0.9354
B(  3-C , 16-H ) :   0.9442 B(  4-C ,  5-C ) :   0.9392 B(  4-C , 17-H ) :   0.9321
B(  4-C , 18-H ) :   0.9272 B(  5-C ,  6-C ) :   0.9420 B(  5-C , 19-H ) :   0.9228
B(  5-C , 20-H ) :   0.9208 B(  6-C ,  7-C ) :   0.9149 B(  6-C ,  8-O ) :   0.9563
B(  6-C , 21-H ) :   0.9245 B(  7-C , 22-H ) :   0.9350 B(  7-C , 23-H ) :   0.9392
B(  7-C , 24-H ) :   0.9341

MP2 TOTAL ENERGY:     -388.846502799 Eh
FINAL SINGLE POINT ENERGY      -388.846502799454

DIPOLE MOMENT
-------------
                                X             Y             Z
Electronic contribution:      0.70263      -0.98172      -1.75848
Nuclear contribution   :     -0.65244       0.42845       1.85192
                        -----------------------------------------
Total Dipole Moment    :      0.05019      -0.55327       0.09344
                        -----------------------------------------
Magnitude (a.u.)       :      0.56335
Magnitude (Debye)      :      1.43192

                             ****ORCA TERMINATED NORMALLY****
TOTAL RUN TIME: 0 days 0 hours 21 minutes 58 seconds 94 msec
