                         Program Version 3.0.3 - RELEASE   -
|  1> ! RI-MP2 RIJK def2-TZVP def2-TZVP/C def2-TZVP/JK TIGHTSCF
|  2> % maxcore 2000
|  3> % mp2 density relaxed end
|  4> *xyz 0 1
|  5>  C        0.2793387848     1.1818509660    -0.0863321488
|  6>  C        0.0859355673    -0.2594000694    -0.0377713460
|  7>  C       -0.0715503556    -1.4524710630    -0.0027581379
|  8>  C       -0.2629869240    -2.8994510499     0.0373432704
|  9>  C       -1.7312272893    -3.3052123485     0.1463411307
| 10>  O        0.2413193884    -3.5222496925    -1.1740602664
| 11>  C        1.5763546136    -3.6663362778    -1.2724873426
| 12>  O        2.1028585872    -4.1397991051    -2.2343314514
| 13>  H        0.9777122623     1.5162549915     0.6882074905
| 14>  H        0.6851277255     1.4880105913    -1.0564661332
| 15>  H       -0.6664274208     1.7138935616     0.0617294975
| 16>  H        0.2916000975    -3.3172873960     0.8890766046
| 17>  H       -2.1645574224    -2.8894001733     1.0590488169
| 18>  H       -2.2895281046    -2.9264052281    -0.7124958914
| 19>  H       -1.8144950698    -4.3944597957     0.1719926998
| 20>  H        2.1192779598    -3.3126502610    -0.3749015326
| 21> *
| 22>
| 23>                          ****END OF INPUT****

CARTESIAN COORDINATES (ANGSTROEM)
---------------------------------
  C      0.279339    1.181851   -0.086332
  C      0.085936   -0.259400   -0.037771
  C     -0.071550   -1.452471   -0.002758
  C     -0.262987   -2.899451    0.037343
  C     -1.731227   -3.305212    0.146341
  O      0.241319   -3.522250   -1.174060
  C      1.576355   -3.666336   -1.272487
  O      2.102859   -4.139799   -2.234331
  H      0.977712    1.516255    0.688207
  H      0.685128    1.488011   -1.056466
  H     -0.666427    1.713894    0.061729
  H      0.291600   -3.317287    0.889077
  H     -2.164557   -2.889400    1.059049
  H     -2.289528   -2.926405   -0.712496
  H     -1.814495   -4.394460    0.171993
  H      2.119278   -3.312650   -0.374902

 Total Charge           Charge          ....    0
 Multiplicity           Mult            ....    1
 Number of Electrons    NEL             ....   60
 Basis Dimension        Dim             ....  296

ORBITAL ENERGIES
----------------

  NO   OCC          E(Eh)            E(eV)
   0   2.0000     -20.608002      -560.7722
   1   2.0000     -20.548143      -559.1434
   2   2.0000     -11.380427      -309.6772
   3   2.0000     -11.337163      -308.4999
   4   2.0000     -11.260256      -306.4071
   5   2.0000     -11.248999      -306.1008
   6   2.0000     -11.239169      -305.8333
   7   2.0000     -11.233823      -305.6879
   8   2.0000      -1.460718       -39.7482
   9   2.0000      -1.370986       -37.3064
  10   2.0000      -1.097334       -29.8600
  11   2.0000      -1.051054       -28.6006
  12   2.0000      -0.969229       -26.3741
  13   2.0000      -0.889138       -24.1947
  14   2.0000      -0.850718       -23.1492
  15   2.0000      -0.748662       -20.3721
  16   2.0000      -0.713953       -19.4276
  17   2.0000      -0.667532       -18.1645
  18   2.0000      -0.645491       -17.5647
  19   2.0000      -0.609180       -16.5766
  20   2.0000      -0.600845       -16.3498
  21   2.0000      -0.598441       -16.2844
  22   2.0000      -0.581270       -15.8172
  23   2.0000      -0.565770       -15.3954
  24   2.0000      -0.553513       -15.0619
  25   2.0000      -0.532677       -14.4949
  26   2.0000      -0.470343       -12.7987
  27   2.0000      -0.455766       -12.4020
  28   2.0000      -0.395832       -10.7711
  29   2.0000      -0.389074       -10.5872
  30   0.0000       0.120351         3.2749
  31   0.0000       0.131472         3.5775
  32   0.0000       0.153279         4.1709
  33   0.0000       0.162804         4.4301
  34   0.0000       0.167242         4.5509

MULLIKEN ATOMIC CHARGES
-----------------------
   0 C :   -0.480851
   1 C :    0.070219
   2 C :   -0.045289
   3 C :   -0.062617
   4 C :   -0.353385
   5 O :   -0.196871
   6 C :    0.193776
   7 O :   -0.270137
   8 H :    0.165821
   9 H :    0.170976
  10 H :    0.166425
  11 H :    0.137138
  12 H :    0.133732
  13 H :    0.144067
  14 H :    0.144769
  15 H :    0.082227
Sum of atomic charges:    0.0000000

LOEWDIN ATOMIC CHARGES
----------------------
   0 C :   -0.288511
   1 C :   -0.082412
   2 C :   -0.072236
   3 C :   -0.313148
   4 C :   -0.267625
   5 O :    0.259761
   6 C :   -0.446122
   7 O :    0.120915
   8 H :    0.142992
   9 H :    0.145665
  10 H :    0.143470
  11 H :    0.155034
  12 H :    0.132458
  13 H :    0.133929
  14 H :    0.129714
  15 H :    0.106118

  Mayer bond orders larger than 0.1
B(  0-C ,  1-C ) :   0.8544 B(  0-C ,  8-H ) :   0.9477 B(  0-C ,  9-H ) :   0.9408
B(  0-C , 10-H ) :   0.9468 B(  1-C ,  2-C ) :   2.6980 B(  2-C ,  3-C ) :   0.9901
B(  3-C ,  4-C ) :   0.9366 B(  3-C ,  5-O ) :   0.8478 B(  3-C , 11-H ) :   0.9906
B(  4-C , 12-H ) :   0.9263 B(  4-C , 13-H ) :   0.9308 B(  4-C , 14-H ) :   0.9351
B(  5-O ,  6-C ) :   1.0734 B(  6-C ,  7-O ) :   2.0231 B(  6-C , 15-H ) :   0.9157

MP2 TOTAL ENERGY:     -383.092017275 Eh
FINAL SINGLE POINT ENERGY      -383.092017274616

DIPOLE MOMENT
-------------
                                X             Y             Z
Electronic contribution:      4.30870      -4.96116      -3.86782
Nuclear contribution   :     -4.87601       5.96795       5.22737
                        -----------------------------------------
Total Dipole Moment    :     -0.56732       1.00679       1.35956
                        -----------------------------------------
Magnitude (a.u.)       :      1.78434
Magnitude (Debye)      :      4.53543

                             ****ORCA TERMINATED NORMALLY****
TOTAL RUN TIME: 0 days 0 hours 9 minutes 50 seconds 961 msec
