                         Program Version 3.0.3 - RELEASE   -
|  1> ! RI-MP2 RIJK def2-TZVP def2-TZVP/C def2-TZVP/JK TIGHTSCF
|  2> % maxcore 2000
|  3> % mp2 density relaxed end
|  4> *xyz 0 1
|  5>  O        0.0752049107     1.2507032770     0.5895816185
|  6>  C       -0.0617084593     0.0303587467    -0.1266007087
|  7>  C       -1.4795237459    -0.4376715469     0.0200320439
|  8>  O       -1.9356383174    -1.3783210204    -0.9698127154
|  9>  C       -2.6120133208    -0.1113678424    -0.8470837859
| 10>  C       -3.7714908023    -0.0671976911     0.1721404042
| 11>  C       -3.4838787279    -1.3114716502     1.0588009994
| 12>  C       -2.1849278390    -0.5293990246     1.3967602981
| 13>  C       -3.0734943637     0.7617829261     1.3100737141
| 14>  H        1.0100498727     1.4716254983     0.6290850213
| 15>  H        0.1626922513     0.1485476264    -1.1968996297
| 16>  H        0.6193461806    -0.7392496822     0.2712834778
| 17>  H       -2.5696083269     0.5390446100    -1.7146039392
| 18>  H       -4.7684137266     0.1689341565    -0.1989151697
| 19>  H       -4.1595922835    -1.3571481878     1.9146955583
| 20>  H       -3.3949440803    -2.2820465710     0.5744381862
| 21>  H       -1.5688838433    -0.7563646276     2.2661718934
| 22>  H       -2.5731154814     1.6929605508     1.0354999174
| 23>  H       -3.7102318869     0.9075111526     2.1867803459
| 24> *
| 25>
| 26>                          ****END OF INPUT****

CARTESIAN COORDINATES (ANGSTROEM)
---------------------------------
  O      0.075205    1.250703    0.589582
  C     -0.061708    0.030359   -0.126601
  C     -1.479524   -0.437672    0.020032
  O     -1.935638   -1.378321   -0.969813
  C     -2.612013   -0.111368   -0.847084
  C     -3.771491   -0.067198    0.172140
  C     -3.483879   -1.311472    1.058801
  C     -2.184928   -0.529399    1.396760
  C     -3.073494    0.761783    1.310074
  H      1.010050    1.471625    0.629085
  H      0.162692    0.148548   -1.196900
  H      0.619346   -0.739250    0.271283
  H     -2.569608    0.539045   -1.714604
  H     -4.768414    0.168934   -0.198915
  H     -4.159592   -1.357148    1.914696
  H     -3.394944   -2.282047    0.574438
  H     -1.568884   -0.756365    2.266172
  H     -2.573115    1.692961    1.035500
  H     -3.710232    0.907511    2.186780

 Total Charge           Charge          ....    0
 Multiplicity           Mult            ....    1
 Number of Electrons    NEL             ....   68
 Basis Dimension        Dim             ....  339

ORBITAL ENERGIES
----------------

  NO   OCC          E(Eh)            E(eV)
   0   2.0000     -20.565925      -559.6273
   1   2.0000     -20.559712      -559.4582
   2   2.0000     -11.286281      -307.1153
   3   2.0000     -11.280137      -306.9481
   4   2.0000     -11.275759      -306.8290
   5   2.0000     -11.237073      -305.7763
   6   2.0000     -11.235323      -305.7287
   7   2.0000     -11.225305      -305.4561
   8   2.0000     -11.219127      -305.2880
   9   2.0000      -1.408001       -38.3137
  10   2.0000      -1.368397       -37.2360
  11   2.0000      -1.160534       -31.5797
  12   2.0000      -0.994353       -27.0577
  13   2.0000      -0.931996       -25.3609
  14   2.0000      -0.892076       -24.2746
  15   2.0000      -0.877138       -23.8681
  16   2.0000      -0.759958       -20.6795
  17   2.0000      -0.738922       -20.1071
  18   2.0000      -0.709345       -19.3023
  19   2.0000      -0.690002       -18.7759
  20   2.0000      -0.658537       -17.9197
  21   2.0000      -0.626144       -17.0383
  22   2.0000      -0.620707       -16.8903
  23   2.0000      -0.559808       -15.2332
  24   2.0000      -0.551166       -14.9980
  25   2.0000      -0.536512       -14.5992
  26   2.0000      -0.514003       -13.9867
  27   2.0000      -0.498201       -13.5567
  28   2.0000      -0.467243       -12.7143
  29   2.0000      -0.457474       -12.4485
  30   2.0000      -0.453040       -12.3278
  31   2.0000      -0.437467       -11.9041
  32   2.0000      -0.430880       -11.7249
  33   2.0000      -0.385470       -10.4892
  34   0.0000       0.128985         3.5099
  35   0.0000       0.155288         4.2256
  36   0.0000       0.166898         4.5415
  37   0.0000       0.175750         4.7824
  38   0.0000       0.184200         5.0123

MULLIKEN ATOMIC CHARGES
-----------------------
   0 O :   -0.466471
   1 C :   -0.147668
   2 C :    0.164229
   3 O :   -0.335621
   4 C :   -0.060626
   5 C :   -0.021100
   6 C :   -0.280740
   7 C :    0.002310
   8 C :   -0.298982
   9 H :    0.316883
  10 H :    0.114460
  11 H :    0.110924
  12 H :    0.126555
  13 H :    0.132270
  14 H :    0.123927
  15 H :    0.138705
  16 H :    0.129694
  17 H :    0.135608
  18 H :    0.115643
Sum of atomic charges:   -0.0000000

LOEWDIN ATOMIC CHARGES
----------------------
   0 O :   -0.039014
   1 C :   -0.306646
   2 C :   -0.275890
   3 O :    0.183672
   4 C :   -0.206544
   5 C :   -0.185268
   6 C :   -0.194455
   7 C :   -0.160407
   8 C :   -0.180210
   9 H :    0.174064
  10 H :    0.127220
  11 H :    0.124639
  12 H :    0.137252
  13 H :    0.131768
  14 H :    0.138280
  15 H :    0.132391
  16 H :    0.135606
  17 H :    0.131865
  18 H :    0.131677

  Mayer bond orders larger than 0.1
B(  0-O ,  1-C ) :   1.0528 B(  0-O ,  2-C ) :  -0.1026 B(  0-O ,  9-H ) :   0.8465
B(  1-C ,  2-C ) :   0.8805 B(  1-C , 10-H ) :   0.9412 B(  1-C , 11-H ) :   0.9391
B(  2-C ,  3-O ) :   0.9188 B(  2-C ,  4-C ) :   0.9776 B(  2-C ,  7-C ) :   0.8627
B(  3-O ,  4-C ) :   0.9255 B(  4-C ,  5-C ) :   0.8240 B(  4-C , 12-H ) :   0.9244
B(  5-C ,  6-C ) :   0.9332 B(  5-C ,  8-C ) :   0.9153 B(  5-C , 13-H ) :   0.9082
B(  6-C ,  7-C ) :   0.9336 B(  6-C , 14-H ) :   0.9371 B(  6-C , 15-H ) :   0.9066
B(  7-C ,  8-C ) :   0.9001 B(  7-C , 16-H ) :   0.9092 B(  8-C , 17-H ) :   0.9189
B(  8-C , 18-H ) :   0.9212

MP2 TOTAL ENERGY:     -422.276987807 Eh
FINAL SINGLE POINT ENERGY      -422.276987806880

DIPOLE MOMENT
-------------
                                X             Y             Z
Electronic contribution:      1.39839      -1.04810      -2.53840
Nuclear contribution   :     -0.95443       1.46437       2.75157
                        -----------------------------------------
Total Dipole Moment    :      0.44396       0.41627       0.21317
                        -----------------------------------------
Magnitude (a.u.)       :      0.64484
Magnitude (Debye)      :      1.63906

                             ****ORCA TERMINATED NORMALLY****
TOTAL RUN TIME: 0 days 0 hours 19 minutes 17 seconds 875 msec
