                         Program Version 3.0.3 - RELEASE   -
|  1> ! RI-MP2 RIJK def2-TZVP def2-TZVP/C def2-TZVP/JK TIGHTSCF
|  2> % maxcore 2000
|  3> % mp2 density relaxed end
|  4> *xyz 0 1
|  5>  C       -0.6656973047     1.1439930271     0.1886087778
|  6>  N        0.0675175358    -0.1166193960     0.0893255117
|  7>  C        1.4105923181    -0.0938644291    -0.4302512774
|  8>  C        1.1775311771    -0.4117555401     1.0199184396
|  9>  C        1.6456696608     0.5754630865     2.0492478069
| 10>  C        1.9373723739    -0.0028810920     3.4209358279
| 11>  O        1.7772773053     1.7588301824     1.8103435527
| 12>  H       -0.0430603850     2.0099136627     0.4378632378
| 13>  H       -1.1537243548     1.3155194513    -0.7757810517
| 14>  H       -1.4467351046     1.0387654309     0.9481379235
| 15>  H        1.6810627377    -0.8995705347    -1.1083989012
| 16>  H        1.8716064855     0.8724019599    -0.6284669178
| 17>  H        1.1958556416    -1.4511243031     1.3393038244
| 18>  H        2.6840682824    -0.8020845792     3.3463185084
| 19>  H        2.2997081524     0.7811451339     4.0862034740
| 20>  H        1.0316172286    -0.4567118503     3.8399629235
| 21> *
| 22>
| 23>                          ****END OF INPUT****

CARTESIAN COORDINATES (ANGSTROEM)
---------------------------------
  C     -0.665697    1.143993    0.188609
  N      0.067518   -0.116619    0.089326
  C      1.410592   -0.093864   -0.430251
  C      1.177531   -0.411756    1.019918
  C      1.645670    0.575463    2.049248
  C      1.937372   -0.002881    3.420936
  O      1.777277    1.758830    1.810344
  H     -0.043060    2.009914    0.437863
  H     -1.153724    1.315519   -0.775781
  H     -1.446735    1.038765    0.948138
  H      1.681063   -0.899571   -1.108399
  H      1.871606    0.872402   -0.628467
  H      1.195856   -1.451124    1.339304
  H      2.684068   -0.802085    3.346319
  H      2.299708    0.781145    4.086203
  H      1.031617   -0.456712    3.839963

 Total Charge           Charge          ....    0
 Multiplicity           Mult            ....    1
 Number of Electrons    NEL             ....   54
 Basis Dimension        Dim             ....  271

ORBITAL ENERGIES
----------------

  NO   OCC          E(Eh)            E(eV)
   0   2.0000     -20.546429      -559.0968
   1   2.0000     -15.573199      -423.7683
   2   2.0000     -11.337423      -308.5070
   3   2.0000     -11.268807      -306.6398
   4   2.0000     -11.264830      -306.5316
   5   2.0000     -11.241082      -305.8854
   6   2.0000     -11.239194      -305.8340
   7   2.0000      -1.391979       -37.8777
   8   2.0000      -1.278189       -34.7813
   9   2.0000      -1.032772       -28.1032
  10   2.0000      -0.992297       -27.0018
  11   2.0000      -0.888940       -24.1893
  12   2.0000      -0.829193       -22.5635
  13   2.0000      -0.738603       -20.0984
  14   2.0000      -0.693591       -18.8736
  15   2.0000      -0.658175       -17.9099
  16   2.0000      -0.615844       -16.7580
  17   2.0000      -0.611131       -16.6297
  18   2.0000      -0.595655       -16.2086
  19   2.0000      -0.576867       -15.6974
  20   2.0000      -0.558242       -15.1905
  21   2.0000      -0.549334       -14.9481
  22   2.0000      -0.504935       -13.7400
  23   2.0000      -0.480507       -13.0753
  24   2.0000      -0.456041       -12.4095
  25   2.0000      -0.419450       -11.4138
  26   2.0000      -0.375047       -10.2055
  27   0.0000       0.127550         3.4708
  28   0.0000       0.132246         3.5986
  29   0.0000       0.168973         4.5980
  30   0.0000       0.177615         4.8332
  31   0.0000       0.190227         5.1763

MULLIKEN ATOMIC CHARGES
-----------------------
   0 C :   -0.316236
   1 N :   -0.214246
   2 C :   -0.154709
   3 C :   -0.095711
   4 C :    0.234122
   5 C :   -0.419338
   6 O :   -0.317498
   7 H :    0.155056
   8 H :    0.139720
   9 H :    0.130989
  10 H :    0.133651
  11 H :    0.142430
  12 H :    0.131014
  13 H :    0.147230
  14 H :    0.154158
  15 H :    0.149369
Sum of atomic charges:    0.0000000

LOEWDIN ATOMIC CHARGES
----------------------
   0 C :   -0.325205
   1 N :    0.101436
   2 C :   -0.231412
   3 C :   -0.231996
   4 C :   -0.346053
   5 C :   -0.276920
   6 O :    0.140175
   7 H :    0.115220
   8 H :    0.120021
   9 H :    0.117919
  10 H :    0.126413
  11 H :    0.133638
  12 H :    0.147164
  13 H :    0.137853
  14 H :    0.133020
  15 H :    0.138726

  Mayer bond orders larger than 0.1
B(  0-C ,  1-N ) :   0.8687 B(  0-C ,  7-H ) :   0.9217 B(  0-C ,  8-H ) :   0.9333
B(  0-C ,  9-H ) :   0.9390 B(  1-N ,  2-C ) :   0.9147 B(  1-N ,  3-C ) :   0.8936
B(  2-C ,  3-C ) :   0.8957 B(  2-C , 10-H ) :   0.9181 B(  2-C , 11-H ) :   0.9161
B(  3-C ,  4-C ) :   0.9192 B(  3-C , 12-H ) :   0.9099 B(  4-C ,  5-C ) :   0.9182
B(  4-C ,  6-O ) :   1.9041 B(  5-C , 13-H ) :   0.9164 B(  5-C , 14-H ) :   0.9406
B(  5-C , 15-H ) :   0.9151

MP2 TOTAL ENERGY:     -325.206725085 Eh
FINAL SINGLE POINT ENERGY      -325.206725084971

DIPOLE MOMENT
-------------
                                X             Y             Z
Electronic contribution:      1.33999       0.85001      -0.61813
Nuclear contribution   :     -1.20810      -1.42740       0.82648
                        -----------------------------------------
Total Dipole Moment    :      0.13190      -0.57739       0.20835
                        -----------------------------------------
Magnitude (a.u.)       :      0.62784
Magnitude (Debye)      :      1.59585

                             ****ORCA TERMINATED NORMALLY****
TOTAL RUN TIME: 0 days 0 hours 9 minutes 2 seconds 211 msec
