                         Program Version 3.0.3 - RELEASE   -
|  1> ! RI-MP2 RIJK def2-TZVP def2-TZVP/C def2-TZVP/JK TIGHTSCF
|  2> % maxcore 2000
|  3> % mp2 density relaxed end
|  4> *xyz 0 1
|  5>  C        0.0329068557    -1.1924185349    -0.0037235734
|  6>  C       -0.0228613871     0.0094768705     0.0033307155
|  7>  C       -0.0403805046     1.4364100020     0.0110204210
|  8>  N       -1.2266393427     2.0675965598     0.0301554367
|  9>  C       -1.1851655548     3.3975831285     0.0365198603
| 10>  C        0.0144054484     4.1072553868     0.0241746560
| 11>  N        1.1971713083     3.4883278016     0.0051402123
| 12>  C        1.1651228243     2.1592490684    -0.0013454504
| 13>  H        0.0666300643    -2.2541694851    -0.0097603789
| 14>  H       -2.1396623982     3.9176399431     0.0519922389
| 15>  H        0.0225611668     5.1937680967     0.0297170489
| 16>  H        2.1158265796     1.6340311424    -0.0167987469
| 17> *
| 18>
| 19>                          ****END OF INPUT****

CARTESIAN COORDINATES (ANGSTROEM)
---------------------------------
  C      0.032907   -1.192419   -0.003724
  C     -0.022861    0.009477    0.003331
  C     -0.040381    1.436410    0.011020
  N     -1.226639    2.067597    0.030155
  C     -1.185166    3.397583    0.036520
  C      0.014405    4.107255    0.024175
  N      1.197171    3.488328    0.005140
  C      1.165123    2.159249   -0.001345
  H      0.066630   -2.254169   -0.009760
  H     -2.139662    3.917640    0.051992
  H      0.022561    5.193768    0.029717
  H      2.115827    1.634031   -0.016799

 Total Charge           Charge          ....    0
 Multiplicity           Mult            ....    1
 Number of Electrons    NEL             ....   54
 Basis Dimension        Dim             ....  272

ORBITAL ENERGIES
----------------

  NO   OCC          E(Eh)            E(eV)
   0   2.0000     -15.602191      -424.5572
   1   2.0000     -15.599819      -424.4927
   2   2.0000     -11.314288      -307.8774
   3   2.0000     -11.294781      -307.3466
   4   2.0000     -11.292320      -307.2797
   5   2.0000     -11.290512      -307.2305
   6   2.0000     -11.250292      -306.1360
   7   2.0000     -11.245501      -306.0056
   8   2.0000      -1.319282       -35.8995
   9   2.0000      -1.231335       -33.5063
  10   2.0000      -1.093244       -29.7487
  11   2.0000      -1.025126       -27.8951
  12   2.0000      -0.919542       -25.0220
  13   2.0000      -0.904544       -24.6139
  14   2.0000      -0.773300       -21.0426
  15   2.0000      -0.722420       -19.6580
  16   2.0000      -0.719511       -19.5789
  17   2.0000      -0.695863       -18.9354
  18   2.0000      -0.628944       -17.1144
  19   2.0000      -0.592011       -16.1094
  20   2.0000      -0.572042       -15.5660
  21   2.0000      -0.507961       -13.8223
  22   2.0000      -0.466902       -12.7051
  23   2.0000      -0.428071       -11.6484
  24   2.0000      -0.427026       -11.6200
  25   2.0000      -0.409543       -11.1442
  26   2.0000      -0.342971        -9.3327
  27   0.0000       0.061125         1.6633
  28   0.0000       0.090174         2.4537
  29   0.0000       0.155577         4.2335
  30   0.0000       0.162628         4.4253
  31   0.0000       0.169029         4.5995

MULLIKEN ATOMIC CHARGES
-----------------------
   0 C :   -0.093149
   1 C :    0.050528
   2 C :   -0.004217
   3 N :   -0.251790
   4 C :   -0.029661
   5 C :   -0.010644
   6 N :   -0.234511
   7 C :   -0.054484
   8 H :    0.200123
   9 H :    0.139505
  10 H :    0.141650
  11 H :    0.146649
Sum of atomic charges:   -0.0000000

LOEWDIN ATOMIC CHARGES
----------------------
   0 C :   -0.051938
   1 C :   -0.059905
   2 C :   -0.217150
   3 N :    0.184380
   4 C :   -0.204222
   5 C :   -0.208321
   6 N :    0.149154
   7 C :   -0.160005
   8 H :    0.131158
   9 H :    0.144316
  10 H :    0.142913
  11 H :    0.149618

  Mayer bond orders larger than 0.1
B(  0-C ,  1-C ) :   2.5957 B(  0-C ,  2-C ) :  -0.1706 B(  0-C ,  8-H ) :   0.8775
B(  1-C ,  2-C ) :   1.1600 B(  2-C ,  3-N ) :   1.3607 B(  2-C ,  7-C ) :   1.2769
B(  3-N ,  4-C ) :   1.4079 B(  4-C ,  5-C ) :   1.3030 B(  4-C ,  9-H ) :   0.9293
B(  5-C ,  6-N ) :   1.3643 B(  5-C , 10-H ) :   0.9277 B(  6-N ,  7-C ) :   1.4082
B(  7-C , 11-H ) :   0.9315

MP2 TOTAL ENERGY:     -339.768911908 Eh
FINAL SINGLE POINT ENERGY      -339.768911908494

DIPOLE MOMENT
-------------
                                X             Y             Z
Electronic contribution:     -0.08645      -0.56010      -0.00169
Nuclear contribution   :      0.08931       0.56791       0.00167
                        -----------------------------------------
Total Dipole Moment    :      0.00286       0.00781      -0.00002
                        -----------------------------------------
Magnitude (a.u.)       :      0.00832
Magnitude (Debye)      :      0.02114

                             ****ORCA TERMINATED NORMALLY****
TOTAL RUN TIME: 0 days 0 hours 10 minutes 2 seconds 33 msec
