                         Program Version 3.0.3 - RELEASE   -
|  1> ! RI-MP2 RIJK def2-TZVP def2-TZVP/C def2-TZVP/JK TIGHTSCF
|  2> % maxcore 2000
|  3> % mp2 density relaxed end
|  4> *xyz 0 1
|  5>  C       -0.0151661656     1.5435165222    -0.0334901415
|  6>  C        0.0865693738     0.0233645672     0.0053640831
|  7>  C        1.0486776499    -0.6337654677    -1.0101223490
|  8>  N        2.3436225726     0.0460845384    -0.6471280588
|  9>  C        2.2864613639    -0.8156411923     0.5671201910
| 10>  C        3.4848844512    -0.9906947807     1.4529867594
| 11>  C        1.4542457266    -1.9105955903    -0.1246241163
| 12>  O        0.5489629916    -2.0382995013     0.9750858511
| 13>  C        0.8319842893    -0.6213865217     1.1969402506
| 14>  H        0.9719502428     2.0069175789     0.0013088116
| 15>  H       -0.5121081649     1.8749084586    -0.9517255774
| 16>  H       -0.6082690369     1.9091646017     0.8119324651
| 17>  H       -0.9062512936    -0.4333624395    -0.0446996753
| 18>  H        0.7745627839    -0.6773511625    -2.0630300371
| 19>  H        3.0827929426    -0.3305647877    -1.2418757253
| 20>  H        3.7656333174    -0.0401693845     1.9189685688
| 21>  H        3.2658336308    -1.7127989550     2.2454399107
| 22>  H        4.3486035065    -1.3579334968     0.8876421797
| 23>  H        1.8008783292    -2.8408160025    -0.5769673876
| 24>  H        0.6491448191    -0.2864466344     2.2177688771
| 25> *
| 26>
| 27>                          ****END OF INPUT****

CARTESIAN COORDINATES (ANGSTROEM)
---------------------------------
  C     -0.015166    1.543517   -0.033490
  C      0.086569    0.023365    0.005364
  C      1.048678   -0.633765   -1.010122
  N      2.343623    0.046085   -0.647128
  C      2.286461   -0.815641    0.567120
  C      3.484884   -0.990695    1.452987
  C      1.454246   -1.910596   -0.124624
  O      0.548963   -2.038300    0.975086
  C      0.831984   -0.621387    1.196940
  H      0.971950    2.006918    0.001309
  H     -0.512108    1.874908   -0.951726
  H     -0.608269    1.909165    0.811932
  H     -0.906251   -0.433362   -0.044700
  H      0.774563   -0.677351   -2.063030
  H      3.082793   -0.330565   -1.241876
  H      3.765633   -0.040169    1.918969
  H      3.265834   -1.712799    2.245440
  H      4.348604   -1.357933    0.887642
  H      1.800878   -2.840816   -0.576967
  H      0.649145   -0.286447    2.217769

 Total Charge           Charge          ....    0
 Multiplicity           Mult            ....    1
 Number of Electrons    NEL             ....   68
 Basis Dimension        Dim             ....  345

ORBITAL ENERGIES
----------------

  NO   OCC          E(Eh)            E(eV)
   0   2.0000     -20.550752      -559.2144
   1   2.0000     -15.548016      -423.0830
   2   2.0000     -11.285561      -307.0957
   3   2.0000     -11.284594      -307.0694
   4   2.0000     -11.270067      -306.6741
   5   2.0000     -11.264500      -306.5226
   6   2.0000     -11.228087      -305.5318
   7   2.0000     -11.225382      -305.4582
   8   2.0000     -11.207920      -304.9830
   9   2.0000      -1.399722       -38.0884
  10   2.0000      -1.239325       -33.7238
  11   2.0000      -1.050948       -28.5977
  12   2.0000      -1.010702       -27.5026
  13   2.0000      -0.948936       -25.8219
  14   2.0000      -0.915202       -24.9039
  15   2.0000      -0.874028       -23.7835
  16   2.0000      -0.756814       -20.5940
  17   2.0000      -0.735683       -20.0189
  18   2.0000      -0.676760       -18.4156
  19   2.0000      -0.661970       -18.0131
  20   2.0000      -0.641523       -17.4567
  21   2.0000      -0.609929       -16.5970
  22   2.0000      -0.576633       -15.6910
  23   2.0000      -0.565109       -15.3774
  24   2.0000      -0.558270       -15.1913
  25   2.0000      -0.538948       -14.6655
  26   2.0000      -0.519525       -14.1370
  27   2.0000      -0.496769       -13.5178
  28   2.0000      -0.487267       -13.2592
  29   2.0000      -0.484517       -13.1844
  30   2.0000      -0.465652       -12.6710
  31   2.0000      -0.430687       -11.7196
  32   2.0000      -0.392638       -10.6842
  33   2.0000      -0.370855       -10.0915
  34   0.0000       0.130797         3.5592
  35   0.0000       0.152276         4.1436
  36   0.0000       0.164177         4.4675
  37   0.0000       0.176416         4.8005
  38   0.0000       0.190991         5.1971

MULLIKEN ATOMIC CHARGES
-----------------------
   0 C :   -0.441890
   1 C :   -0.101469
   2 C :    0.049524
   3 N :   -0.356510
   4 C :    0.062194
   5 C :   -0.443048
   6 C :   -0.054634
   7 O :   -0.319573
   8 C :    0.064799
   9 H :    0.158426
  10 H :    0.126126
  11 H :    0.127421
  12 H :    0.107155
  13 H :    0.142203
  14 H :    0.198891
  15 H :    0.146146
  16 H :    0.151583
  17 H :    0.127830
  18 H :    0.121359
  19 H :    0.133467
Sum of atomic charges:   -0.0000000

LOEWDIN ATOMIC CHARGES
----------------------
   0 C :   -0.293768
   1 C :   -0.234301
   2 C :   -0.200532
   3 N :    0.018665
   4 C :   -0.273961
   5 C :   -0.275401
   6 C :   -0.219293
   7 O :    0.162934
   8 C :   -0.176428
   9 H :    0.130042
  10 H :    0.125386
  11 H :    0.123186
  12 H :    0.156452
  13 H :    0.128465
  14 H :    0.168106
  15 H :    0.133592
  16 H :    0.138472
  17 H :    0.127337
  18 H :    0.128069
  19 H :    0.132978

  Mayer bond orders larger than 0.1
B(  0-C ,  1-C ) :   0.8931 B(  0-C ,  9-H ) :   0.9326 B(  0-C , 10-H ) :   0.9334
B(  0-C , 11-H ) :   0.9387 B(  1-C ,  2-C ) :   0.8969 B(  1-C ,  8-C ) :   0.9367
B(  1-C , 12-H ) :   0.9279 B(  2-C ,  3-N ) :   0.9096 B(  2-C ,  6-C ) :   0.8395
B(  2-C , 13-H ) :   0.9038 B(  3-N ,  4-C ) :   0.9641 B(  3-N , 14-H ) :   0.8637
B(  4-C ,  5-C ) :   0.8685 B(  4-C ,  6-C ) :   0.9570 B(  4-C ,  8-C ) :   0.8622
B(  5-C , 15-H ) :   0.9445 B(  5-C , 16-H ) :   0.9366 B(  5-C , 17-H ) :   0.9310
B(  6-C ,  7-O ) :   0.9906 B(  6-C , 18-H ) :   0.9149 B(  7-O ,  8-C ) :   0.8741
B(  8-C , 19-H ) :   0.9049

MP2 TOTAL ENERGY:     -402.411632439 Eh
FINAL SINGLE POINT ENERGY      -402.411632438787

DIPOLE MOMENT
-------------
                                X             Y             Z
Electronic contribution:     -1.26678      -4.41373      -0.43753
Nuclear contribution   :      1.69693       4.37497       0.17251
                        -----------------------------------------
Total Dipole Moment    :      0.43014      -0.03876      -0.26502
                        -----------------------------------------
Magnitude (a.u.)       :      0.50671
Magnitude (Debye)      :      1.28797

                             ****ORCA TERMINATED NORMALLY****
TOTAL RUN TIME: 0 days 0 hours 20 minutes 51 seconds 910 msec
