                         Program Version 3.0.3 - RELEASE   -
|  1> ! RI-MP2 RIJK def2-TZVP def2-TZVP/C def2-TZVP/JK TIGHTSCF
|  2> % maxcore 2000
|  3> % mp2 density relaxed end
|  4> *xyz 0 1
|  5>  C        0.1058607182     1.4744801486    -0.5076231580
|  6>  C       -0.0173985833     0.0388193282    -0.0445162244
|  7>  C        1.1783395096    -0.8401900557     0.1008069372
|  8>  N        0.4159474915    -0.4228678429     1.2760382051
|  9>  C        1.0511604544     0.5102104059     2.2000000403
| 10>  C        1.7296815536    -0.2717677707     3.3227775940
| 11>  C        2.3653509420     0.6147751758     4.3822992274
| 12>  C        3.0463681923    -0.0998321731     5.5371650684
| 13>  O        2.3297352978     1.8231039717     4.3121854539
| 14>  H        1.0781771984     1.9115476968    -0.2694036490
| 15>  H       -0.0226061271     1.5246402055    -1.5940823398
| 16>  H       -0.6687538568     2.1034246827    -0.0550087358
| 17>  H       -0.9468840316    -0.4369240978    -0.3567546106
| 18>  H        1.1382877990    -1.8967966346    -0.1521022417
| 19>  H        2.1496665428    -0.3721667860    -0.0634717250
| 20>  H        1.7915875393     1.1715015067     1.7260541705
| 21>  H        0.2795973035     1.1595648921     2.6263200472
| 22>  H        1.0059897287    -0.9421999503     3.8043592821
| 23>  H        2.5049074289    -0.9361611912     2.9156717009
| 24>  H        3.8365010066    -0.7619429031     5.1655602063
| 25>  H        3.4722566659     0.6306600280     6.2259583793
| 26>  H        2.3277943464    -0.7331922466     6.0695139916
| 27> *
| 28>
| 29>                          ****END OF INPUT****

CARTESIAN COORDINATES (ANGSTROEM)
---------------------------------
  C      0.105861    1.474480   -0.507623
  C     -0.017399    0.038819   -0.044516
  C      1.178340   -0.840190    0.100807
  N      0.415947   -0.422868    1.276038
  C      1.051160    0.510210    2.200000
  C      1.729682   -0.271768    3.322778
  C      2.365351    0.614775    4.382299
  C      3.046368   -0.099832    5.537165
  O      2.329735    1.823104    4.312185
  H      1.078177    1.911548   -0.269404
  H     -0.022606    1.524640   -1.594082
  H     -0.668754    2.103425   -0.055009
  H     -0.946884   -0.436924   -0.356755
  H      1.138288   -1.896797   -0.152102
  H      2.149667   -0.372167   -0.063472
  H      1.791588    1.171502    1.726054
  H      0.279597    1.159565    2.626320
  H      1.005990   -0.942200    3.804359
  H      2.504907   -0.936161    2.915672
  H      3.836501   -0.761943    5.165560
  H      3.472257    0.630660    6.225958
  H      2.327794   -0.733192    6.069514

 Total Charge           Charge          ....    0
 Multiplicity           Mult            ....    1
 Number of Electrons    NEL             ....   70
 Basis Dimension        Dim             ....  357

ORBITAL ENERGIES
----------------

  NO   OCC          E(Eh)            E(eV)
   0   2.0000     -20.542162      -558.9806
   1   2.0000     -15.553973      -423.2451
   2   2.0000     -11.329054      -308.2792
   3   2.0000     -11.258774      -306.3668
   4   2.0000     -11.250205      -306.1336
   5   2.0000     -11.249641      -306.1183
   6   2.0000     -11.233863      -305.6890
   7   2.0000     -11.233737      -305.6855
   8   2.0000     -11.222232      -305.3724
   9   2.0000      -1.386211       -37.7207
  10   2.0000      -1.269943       -34.5569
  11   2.0000      -1.066687       -29.0260
  12   2.0000      -1.011180       -27.5156
  13   2.0000      -0.980736       -26.6872
  14   2.0000      -0.915710       -24.9177
  15   2.0000      -0.823087       -22.3973
  16   2.0000      -0.773687       -21.0531
  17   2.0000      -0.734911       -19.9980
  18   2.0000      -0.676433       -18.4067
  19   2.0000      -0.657868       -17.9015
  20   2.0000      -0.639619       -17.4049
  21   2.0000      -0.623433       -16.9645
  22   2.0000      -0.616463       -16.7748
  23   2.0000      -0.587484       -15.9863
  24   2.0000      -0.576561       -15.6890
  25   2.0000      -0.554133       -15.0787
  26   2.0000      -0.544546       -14.8178
  27   2.0000      -0.526114       -14.3163
  28   2.0000      -0.513245       -13.9661
  29   2.0000      -0.508910       -13.8481
  30   2.0000      -0.486639       -13.2421
  31   2.0000      -0.451534       -12.2869
  32   2.0000      -0.443621       -12.0715
  33   2.0000      -0.409375       -11.1397
  34   2.0000      -0.364412        -9.9162
  35   0.0000       0.127406         3.4669
  36   0.0000       0.145325         3.9545
  37   0.0000       0.145930         3.9710
  38   0.0000       0.169119         4.6020
  39   0.0000       0.177489         4.8297

MULLIKEN ATOMIC CHARGES
-----------------------
   0 C :   -0.388938
   1 C :   -0.019035
   2 C :   -0.203045
   3 N :   -0.214072
   4 C :   -0.151427
   5 C :   -0.242175
   6 C :    0.212111
   7 C :   -0.400406
   8 O :   -0.298196
   9 H :    0.128170
  10 H :    0.140036
  11 H :    0.134922
  12 H :    0.115514
  13 H :    0.126949
  14 H :    0.115262
  15 H :    0.106208
  16 H :    0.126372
  17 H :    0.142059
  18 H :    0.131655
  19 H :    0.141218
  20 H :    0.152946
  21 H :    0.143872
Sum of atomic charges:    0.0000000

LOEWDIN ATOMIC CHARGES
----------------------
   0 C :   -0.301116
   1 C :   -0.282330
   2 C :   -0.253500
   3 N :    0.105937
   4 C :   -0.288117
   5 C :   -0.242584
   6 C :   -0.348183
   7 C :   -0.281296
   8 O :    0.145098
   9 H :    0.124634
  10 H :    0.130182
  11 H :    0.127320
  12 H :    0.140509
  13 H :    0.121895
  14 H :    0.123447
  15 H :    0.126855
  16 H :    0.139834
  17 H :    0.155210
  18 H :    0.152344
  19 H :    0.135217
  20 H :    0.132407
  21 H :    0.136239

  Mayer bond orders larger than 0.1
B(  0-C ,  1-C ) :   0.9159 B(  0-C ,  9-H ) :   0.9350 B(  0-C , 10-H ) :   0.9318
B(  0-C , 11-H ) :   0.9368 B(  1-C ,  2-C ) :   0.9407 B(  1-C ,  3-N ) :   0.8981
B(  1-C , 12-H ) :   0.9246 B(  2-C ,  3-N ) :   0.8842 B(  2-C , 13-H ) :   0.9213
B(  2-C , 14-H ) :   0.9169 B(  3-N ,  4-C ) :   0.9096 B(  4-C ,  5-C ) :   0.9454
B(  4-C , 15-H ) :   0.9360 B(  4-C , 16-H ) :   0.9222 B(  5-C ,  6-C ) :   0.9094
B(  5-C , 17-H ) :   0.9055 B(  5-C , 18-H ) :   0.8998 B(  6-C ,  7-C ) :   0.9285
B(  6-C ,  8-O ) :   1.9725 B(  7-C , 19-H ) :   0.9181 B(  7-C , 20-H ) :   0.9383
B(  7-C , 21-H ) :   0.9187

MP2 TOTAL ENERGY:     -403.641591430 Eh
FINAL SINGLE POINT ENERGY      -403.641591429724

DIPOLE MOMENT
-------------
                                X             Y             Z
Electronic contribution:      0.15585       1.15274       3.39946
Nuclear contribution   :      0.08324      -1.81607      -3.65634
                        -----------------------------------------
Total Dipole Moment    :      0.23909      -0.66333      -0.25688
                        -----------------------------------------
Magnitude (a.u.)       :      0.75044
Magnitude (Debye)      :      1.90746

                             ****ORCA TERMINATED NORMALLY****
TOTAL RUN TIME: 0 days 0 hours 18 minutes 7 seconds 287 msec
