                         Program Version 3.0.3 - RELEASE   -
|  1> ! RI-MP2 RIJK def2-TZVP def2-TZVP/C def2-TZVP/JK TIGHTSCF
|  2> % maxcore 2000
|  3> % mp2 density relaxed end
|  4> *xyz 0 1
|  5>  C       -0.0310252832     1.1919883290    -0.3814396750
|  6>  C       -0.2391552979    -0.3006586657    -0.5540207286
|  7>  O        0.4690423522    -0.9889287477    -1.2449890634
|  8>  C       -1.4195379935    -0.8873045122     0.2207925994
|  9>  O       -1.4423346340    -2.2708510318     0.0493172988
| 10>  C       -2.5196746936    -2.9366301518     0.6699618129
| 11>  C       -2.4756306849    -4.4323593904     0.3455403929
| 12>  N       -1.4748261176    -4.7912958647    -0.4927821138
| 13>  O       -3.2979671974    -5.1903617315     0.8214160397
| 14>  H        0.7212155463     1.5406417255    -1.0895433854
| 15>  H       -0.9659741101     1.7435652037    -0.5271191215
| 16>  H        0.3110242445     1.4038805326     0.6384408639
| 17>  H       -1.3284800989    -0.6039880651     1.2846766582
| 18>  H       -2.3476339674    -0.4129621716    -0.1468970075
| 19>  H       -2.4907075469    -2.8263890587     1.7640819083
| 20>  H       -3.4887940157    -2.5453146894     0.3247428867
| 21>  H       -0.8286912318    -4.0993406263    -0.8360649488
| 22>  H       -1.3795237101    -5.7591765042    -0.7493241867
| 23> *
| 24>
| 25>                          ****END OF INPUT****

CARTESIAN COORDINATES (ANGSTROEM)
---------------------------------
  C     -0.031025    1.191988   -0.381440
  C     -0.239155   -0.300659   -0.554021
  O      0.469042   -0.988929   -1.244989
  C     -1.419538   -0.887305    0.220793
  O     -1.442335   -2.270851    0.049317
  C     -2.519675   -2.936630    0.669962
  C     -2.475631   -4.432359    0.345540
  N     -1.474826   -4.791296   -0.492782
  O     -3.297967   -5.190362    0.821416
  H      0.721216    1.540642   -1.089543
  H     -0.965974    1.743565   -0.527119
  H      0.311024    1.403881    0.638441
  H     -1.328480   -0.603988    1.284677
  H     -2.347634   -0.412962   -0.146897
  H     -2.490708   -2.826389    1.764082
  H     -3.488794   -2.545315    0.324743
  H     -0.828691   -4.099341   -0.836065
  H     -1.379524   -5.759177   -0.749324

 Total Charge           Charge          ....    0
 Multiplicity           Mult            ....    1
 Number of Electrons    NEL             ....   70
 Basis Dimension        Dim             ....  333

ORBITAL ENERGIES
----------------

  NO   OCC          E(Eh)            E(eV)
   0   2.0000     -20.587646      -560.2183
   1   2.0000     -20.560212      -559.4718
   2   2.0000     -20.513505      -558.2009
   3   2.0000     -15.576043      -423.8457
   4   2.0000     -11.350799      -308.8709
   5   2.0000     -11.346881      -308.7643
   6   2.0000     -11.313973      -307.8689
   7   2.0000     -11.303096      -307.5729
   8   2.0000     -11.250911      -306.1528
   9   2.0000      -1.426065       -38.8052
  10   2.0000      -1.397300       -38.0225
  11   2.0000      -1.375808       -37.4376
  12   2.0000      -1.208130       -32.8749
  13   2.0000      -1.059058       -28.8184
  14   2.0000      -1.007406       -27.4129
  15   2.0000      -0.931121       -25.3371
  16   2.0000      -0.801804       -21.8182
  17   2.0000      -0.768763       -20.9191
  18   2.0000      -0.730492       -19.8777
  19   2.0000      -0.708905       -19.2903
  20   2.0000      -0.707413       -19.2497
  21   2.0000      -0.670289       -18.2395
  22   2.0000      -0.643889       -17.5211
  23   2.0000      -0.632950       -17.2234
  24   2.0000      -0.618317       -16.8253
  25   2.0000      -0.592123       -16.1125
  26   2.0000      -0.591654       -16.0997
  27   2.0000      -0.566877       -15.4255
  28   2.0000      -0.540534       -14.7087
  29   2.0000      -0.528381       -14.3780
  30   2.0000      -0.507993       -13.8232
  31   2.0000      -0.458925       -12.4880
  32   2.0000      -0.434185       -11.8148
  33   2.0000      -0.419611       -11.4182
  34   2.0000      -0.408699       -11.1213
  35   0.0000       0.111769         3.0414
  36   0.0000       0.129738         3.5304
  37   0.0000       0.142532         3.8785
  38   0.0000       0.160386         4.3643
  39   0.0000       0.178906         4.8683

MULLIKEN ATOMIC CHARGES
-----------------------
   0 C :   -0.419032
   1 C :    0.220942
   2 O :   -0.274003
   3 C :   -0.095199
   4 O :   -0.287597
   5 C :   -0.046934
   6 C :    0.254251
   7 N :   -0.468047
   8 O :   -0.366476
   9 H :    0.160294
  10 H :    0.142935
  11 H :    0.150912
  12 H :    0.119246
  13 H :    0.119267
  14 H :    0.122487
  15 H :    0.120314
  16 H :    0.290786
  17 H :    0.255855
Sum of atomic charges:   -0.0000000

LOEWDIN ATOMIC CHARGES
----------------------
   0 C :   -0.279085
   1 C :   -0.352258
   2 O :    0.162303
   3 C :   -0.311632
   4 O :    0.173742
   5 C :   -0.284538
   6 C :   -0.490066
   7 N :   -0.000245
   8 O :    0.074074
   9 H :    0.136805
  10 H :    0.135399
  11 H :    0.140018
  12 H :    0.134975
  13 H :    0.135397
  14 H :    0.135447
  15 H :    0.135337
  16 H :    0.180481
  17 H :    0.173846

  Mayer bond orders larger than 0.1
B(  0-C ,  1-C ) :   0.9110 B(  0-C ,  9-H ) :   0.9320 B(  0-C , 10-H ) :   0.9167
B(  0-C , 11-H ) :   0.9103 B(  1-C ,  2-O ) :   2.0196 B(  1-C ,  3-C ) :   0.9112
B(  3-C ,  4-O ) :   0.9698 B(  3-C , 12-H ) :   0.9072 B(  3-C , 13-H ) :   0.9079
B(  4-O ,  5-C ) :   0.8750 B(  5-C ,  6-C ) :   0.9293 B(  5-C , 14-H ) :   0.9148
B(  5-C , 15-H ) :   0.9136 B(  6-C ,  7-N ) :   1.1900 B(  6-C ,  8-O ) :   1.9605
B(  7-N , 16-H ) :   0.8427 B(  7-N , 17-H ) :   0.8621

MP2 TOTAL ENERGY:     -475.506982279 Eh
FINAL SINGLE POINT ENERGY      -475.506982279324

DIPOLE MOMENT
-------------
                                X             Y             Z
Electronic contribution:     -0.27524      -6.98699      -1.11244
Nuclear contribution   :      0.59566       8.59202       1.17134
                        -----------------------------------------
Total Dipole Moment    :      0.32042       1.60503       0.05889
                        -----------------------------------------
Magnitude (a.u.)       :      1.63776
Magnitude (Debye)      :      4.16285

                             ****ORCA TERMINATED NORMALLY****
TOTAL RUN TIME: 0 days 0 hours 13 minutes 48 seconds 979 msec
