                         Program Version 3.0.3 - RELEASE   -
|  1> ! RI-MP2 RIJK def2-TZVP def2-TZVP/C def2-TZVP/JK TIGHTSCF
|  2> % maxcore 2000
|  3> % mp2 density relaxed end
|  4> *xyz 0 1
|  5>  O        0.1102714192     0.0528112685     0.4469208839
|  6>  C        0.1162386063     1.2485360233     0.2774463366
|  7>  N        1.1486526029     1.9384252344    -0.3182426099
|  8>  C        2.5796572851     1.6020975479    -0.2052928175
|  9>  C        2.8326468047     2.9604079673    -0.9424249372
| 10>  C        1.5652760375     3.3413974583    -0.1051385266
| 11>  C        2.1817199691     3.3064167648     1.3298171344
| 12>  O        1.7562157190     2.1858583219     2.1066062433
| 13>  C        2.9050483246     2.0357632771     1.2632336834
| 14>  H       -0.7514297012     1.9064972427     0.4866287971
| 15>  H        2.9201199727     0.6357524952    -0.5667079089
| 16>  H        3.7597052520     3.4916507975    -0.7179566401
| 17>  H        2.6409852470     2.9092313913    -2.0145241492
| 18>  H        0.8790682541     4.1414481653    -0.3765689668
| 19>  H        2.4872133455     4.1985887834     1.8642279908
| 20>  H        3.8435320814     1.8031176011     1.7518129466
| 21> *
| 22>
| 23>                          ****END OF INPUT****

CARTESIAN COORDINATES (ANGSTROEM)
---------------------------------
  O      0.110271    0.052811    0.446921
  C      0.116239    1.248536    0.277446
  N      1.148653    1.938425   -0.318243
  C      2.579657    1.602098   -0.205293
  C      2.832647    2.960408   -0.942425
  C      1.565276    3.341397   -0.105139
  C      2.181720    3.306417    1.329817
  O      1.756216    2.185858    2.106606
  C      2.905048    2.035763    1.263234
  H     -0.751430    1.906497    0.486629
  H      2.920120    0.635752   -0.566708
  H      3.759705    3.491651   -0.717957
  H      2.640985    2.909231   -2.014524
  H      0.879068    4.141448   -0.376569
  H      2.487213    4.198589    1.864228
  H      3.843532    1.803118    1.751813

 Total Charge           Charge          ....    0
 Multiplicity           Mult            ....    1
 Number of Electrons    NEL             ....   66
 Basis Dimension        Dim             ....  321

ORBITAL ENERGIES
----------------

  NO   OCC          E(Eh)            E(eV)
   0   2.0000     -20.587016      -560.2012
   1   2.0000     -20.521740      -558.4249
   2   2.0000     -15.585404      -424.1004
   3   2.0000     -11.342915      -308.6564
   4   2.0000     -11.302672      -307.5613
   5   2.0000     -11.301998      -307.5430
   6   2.0000     -11.301559      -307.5311
   7   2.0000     -11.295802      -307.3744
   8   2.0000     -11.259499      -306.3865
   9   2.0000      -1.441260       -39.2187
  10   2.0000      -1.379604       -37.5409
  11   2.0000      -1.287560       -35.0363
  12   2.0000      -1.070573       -29.1318
  13   2.0000      -0.974070       -26.5058
  14   2.0000      -0.936429       -25.4815
  15   2.0000      -0.855121       -23.2690
  16   2.0000      -0.809421       -22.0255
  17   2.0000      -0.764659       -20.8074
  18   2.0000      -0.745651       -20.2902
  19   2.0000      -0.710007       -19.3203
  20   2.0000      -0.662589       -18.0300
  21   2.0000      -0.643421       -17.5084
  22   2.0000      -0.593531       -16.1508
  23   2.0000      -0.582652       -15.8548
  24   2.0000      -0.555147       -15.1063
  25   2.0000      -0.539121       -14.6702
  26   2.0000      -0.527754       -14.3609
  27   2.0000      -0.522396       -14.2151
  28   2.0000      -0.486160       -13.2291
  29   2.0000      -0.472431       -12.8555
  30   2.0000      -0.449916       -12.2428
  31   2.0000      -0.419994       -11.4286
  32   2.0000      -0.384429       -10.4609
  33   0.0000       0.134701         3.6654
  34   0.0000       0.148523         4.0415
  35   0.0000       0.160911         4.3786
  36   0.0000       0.167502         4.5580
  37   0.0000       0.181417         4.9366

MULLIKEN ATOMIC CHARGES
-----------------------
   0 O :   -0.326222
   1 C :    0.146670
   2 N :   -0.109266
   3 C :   -0.006667
   4 C :   -0.252962
   5 C :   -0.009640
   6 C :   -0.048178
   7 O :   -0.309730
   8 C :   -0.022031
   9 H :    0.075108
  10 H :    0.167708
  11 H :    0.129274
  12 H :    0.132996
  13 H :    0.157731
  14 H :    0.134916
  15 H :    0.140294
Sum of atomic charges:   -0.0000000

LOEWDIN ATOMIC CHARGES
----------------------
   0 O :    0.085870
   1 C :   -0.404059
   2 N :    0.200107
   3 C :   -0.180268
   4 C :   -0.179397
   5 C :   -0.189399
   6 C :   -0.241852
   7 O :    0.201822
   8 C :   -0.228175
   9 H :    0.110732
  10 H :    0.141997
  11 H :    0.132042
  12 H :    0.137929
  13 H :    0.137407
  14 H :    0.136847
  15 H :    0.138397

  Mayer bond orders larger than 0.1
B(  0-O ,  1-C ) :   1.9561 B(  1-C ,  2-N ) :   1.0532 B(  1-C ,  9-H ) :   0.9324
B(  2-N ,  3-C ) :   0.9047 B(  2-N ,  5-C ) :   0.9166 B(  3-C ,  4-C ) :   0.9215
B(  3-C ,  8-C ) :   0.8586 B(  3-C , 10-H ) :   0.8941 B(  4-C ,  5-C ) :   0.9264
B(  4-C , 11-H ) :   0.9124 B(  4-C , 12-H ) :   0.9090 B(  5-C ,  6-C ) :   0.8382
B(  5-C , 13-H ) :   0.9002 B(  6-C ,  7-O ) :   0.9574 B(  6-C ,  8-C ) :   0.9749
B(  6-C , 14-H ) :   0.9347 B(  7-O ,  8-C ) :   0.9139 B(  8-C , 15-H ) :   0.9304

MP2 TOTAL ENERGY:     -437.122938345 Eh
FINAL SINGLE POINT ENERGY      -437.122938345418

DIPOLE MOMENT
-------------
                                X             Y             Z
Electronic contribution:     -2.73260      -2.81223       2.04288
Nuclear contribution   :      3.85417       4.42633      -2.53182
                        -----------------------------------------
Total Dipole Moment    :      1.12157       1.61411      -0.48894
                        -----------------------------------------
Magnitude (a.u.)       :      2.02542
Magnitude (Debye)      :      5.14821

                             ****ORCA TERMINATED NORMALLY****
TOTAL RUN TIME: 0 days 0 hours 17 minutes 40 seconds 282 msec
