                         Program Version 3.0.3 - RELEASE   -
|  1> ! RI-MP2 RIJK def2-TZVP def2-TZVP/C def2-TZVP/JK TIGHTSCF
|  2> % maxcore 2000
|  3> % mp2 density relaxed end
|  4> *xyz 0 1
|  5>  C        0.0758063563     1.5076065859     0.0438204390
|  6>  C        0.0665553556     0.0149291474    -0.0194927261
|  7>  C       -0.0275882858    -0.7994808019    -1.1188327679
|  8>  O       -0.1389472425    -0.5974269059    -2.4561053494
|  9>  N        0.0073913662    -2.0917479715    -0.6598499755
| 10>  C        0.1218150358    -2.0163683092     0.7052691025
| 11>  N        0.1594307508    -0.7760653849     1.1155518587
| 12>  H        0.9999127357     1.8845739550     0.4957644922
| 13>  H       -0.0065957499     1.9555247621    -0.9537781571
| 14>  H       -0.7582232649     1.8892131418     0.6430696110
| 15>  H       -0.1499664718     0.3511649929    -2.6176623104
| 16>  H       -0.0429604287    -2.9152838839    -1.2355361502
| 17>  H        0.1713471832    -2.8984417278     1.3251932332
| 18> *
| 19>
| 20>                          ****END OF INPUT****

CARTESIAN COORDINATES (ANGSTROEM)
---------------------------------
  C      0.075806    1.507607    0.043820
  C      0.066555    0.014929   -0.019493
  C     -0.027588   -0.799481   -1.118833
  O     -0.138947   -0.597427   -2.456105
  N      0.007391   -2.091748   -0.659850
  C      0.121815   -2.016368    0.705269
  N      0.159431   -0.776065    1.115552
  H      0.999913    1.884574    0.495764
  H     -0.006596    1.955525   -0.953778
  H     -0.758223    1.889213    0.643070
  H     -0.149966    0.351165   -2.617662
  H     -0.042960   -2.915284   -1.235536
  H      0.171347   -2.898442    1.325193

 Total Charge           Charge          ....    0
 Multiplicity           Mult            ....    1
 Number of Electrons    NEL             ....   52
 Basis Dimension        Dim             ....  253

ORBITAL ENERGIES
----------------

  NO   OCC          E(Eh)            E(eV)
   0   2.0000     -20.604681      -560.6819
   1   2.0000     -15.613459      -424.8638
   2   2.0000     -15.540549      -422.8798
   3   2.0000     -11.319593      -308.0218
   4   2.0000     -11.289276      -307.1968
   5   2.0000     -11.236880      -305.7711
   6   2.0000     -11.223667      -305.4115
   7   2.0000      -1.427217       -38.8366
   8   2.0000      -1.327987       -36.1364
   9   2.0000      -1.164886       -31.6981
  10   2.0000      -1.026920       -27.9439
  11   2.0000      -0.938472       -25.5371
  12   2.0000      -0.830977       -22.6120
  13   2.0000      -0.805744       -21.9254
  14   2.0000      -0.744814       -20.2674
  15   2.0000      -0.682890       -18.5824
  16   2.0000      -0.638535       -17.3754
  17   2.0000      -0.628041       -17.0899
  18   2.0000      -0.591591       -16.0980
  19   2.0000      -0.565168       -15.3790
  20   2.0000      -0.546828       -14.8799
  21   2.0000      -0.542138       -14.7523
  22   2.0000      -0.533061       -14.5053
  23   2.0000      -0.430560       -11.7161
  24   2.0000      -0.392522       -10.6811
  25   2.0000      -0.294615        -8.0169
  26   0.0000       0.123322         3.3558
  27   0.0000       0.139645         3.7999
  28   0.0000       0.175074         4.7640
  29   0.0000       0.178837         4.8664
  30   0.0000       0.193713         5.2712

MULLIKEN ATOMIC CHARGES
-----------------------
   0 C :   -0.396693
   1 C :    0.050874
   2 C :    0.185338
   3 O :   -0.431565
   4 N :   -0.274443
   5 C :    0.037652
   6 N :   -0.303914
   7 H :    0.149351
   8 H :    0.089921
   9 H :    0.149354
  10 H :    0.341969
  11 H :    0.253826
  12 H :    0.148331
Sum of atomic charges:   -0.0000000

LOEWDIN ATOMIC CHARGES
----------------------
   0 C :   -0.281405
   1 C :   -0.297349
   2 C :   -0.353906
   3 O :    0.059827
   4 N :    0.185578
   5 C :   -0.324679
   6 N :    0.103435
   7 H :    0.133211
   8 H :    0.119092
   9 H :    0.133214
  10 H :    0.199058
  11 H :    0.195603
  12 H :    0.128320

  Mayer bond orders larger than 0.1
B(  0-C ,  1-C ) :   0.8807 B(  0-C ,  7-H ) :   0.9379 B(  0-C ,  8-H ) :   0.9496
B(  0-C ,  9-H ) :   0.9379 B(  1-C ,  2-C ) :   1.4631 B(  1-C ,  6-N ) :   1.2128
B(  2-C ,  3-O ) :   1.1099 B(  2-C ,  4-N ) :   1.1417 B(  3-O , 10-H ) :   0.8266
B(  4-N ,  5-C ) :   1.1213 B(  4-N , 11-H ) :   0.8610 B(  5-C ,  6-N ) :   1.5927
B(  5-C , 12-H ) :   0.9277

MP2 TOTAL ENERGY:     -340.109846319 Eh
FINAL SINGLE POINT ENERGY      -340.109846319433

DIPOLE MOMENT
-------------
                                X             Y             Z
Electronic contribution:     -0.10137      -4.23258      -1.07767
Nuclear contribution   :      0.01642       3.97188       0.07078
                        -----------------------------------------
Total Dipole Moment    :     -0.08495      -0.26070      -1.00688
                        -----------------------------------------
Magnitude (a.u.)       :      1.04355
Magnitude (Debye)      :      2.65249

                             ****ORCA TERMINATED NORMALLY****
TOTAL RUN TIME: 0 days 0 hours 6 minutes 44 seconds 317 msec
