                         Program Version 3.0.3 - RELEASE   -
|  1> ! RI-MP2 RIJK def2-TZVP def2-TZVP/C def2-TZVP/JK TIGHTSCF
|  2> % maxcore 2000
|  3> % mp2 density relaxed end
|  4> *xyz 0 1
|  5>  O        0.0044371658     1.3700168977     0.0408879831
|  6>  C       -0.0329792371    -0.0079326886     0.0154505732
|  7>  C       -0.4553813470    -0.7914911201     1.2035334957
|  8>  N       -1.4241909402     0.0452109167     1.9321728689
|  9>  C       -2.4071946730    -0.0811097491     0.8025906560
| 10>  C       -1.3572436013    -0.7938588201    -0.0627569394
| 11>  C       -1.6123710824    -1.7978371733    -1.0331788436
| 12>  N       -1.8148193847    -2.6209404283    -1.8232770477
| 13>  H       -0.3463258813     1.6277411951     0.9088153717
| 14>  H        0.7510910056    -0.4432118532    -0.5959273328
| 15>  H        0.1045968984    -1.5915179207     1.6731097663
| 16>  H       -1.7617707342    -0.3983175379     2.7774818079
| 17>  H       -3.2469013090    -0.7357813223     1.0455610366
| 18>  H       -2.7772008194     0.8764676639     0.4252081941
| 19> *
| 20>
| 21>                          ****END OF INPUT****

CARTESIAN COORDINATES (ANGSTROEM)
---------------------------------
  O      0.004437    1.370017    0.040888
  C     -0.032979   -0.007933    0.015451
  C     -0.455381   -0.791491    1.203533
  N     -1.424191    0.045211    1.932173
  C     -2.407195   -0.081110    0.802591
  C     -1.357244   -0.793859   -0.062757
  C     -1.612371   -1.797837   -1.033179
  N     -1.814819   -2.620940   -1.823277
  H     -0.346326    1.627741    0.908815
  H      0.751091   -0.443212   -0.595927
  H      0.104597   -1.591518    1.673110
  H     -1.761771   -0.398318    2.777482
  H     -3.246901   -0.735781    1.045561
  H     -2.777201    0.876468    0.425208

 Total Charge           Charge          ....    0
 Multiplicity           Mult            ....    1
 Number of Electrons    NEL             ....   58
 Basis Dimension        Dim             ....  284

ORBITAL ENERGIES
----------------

  NO   OCC          E(Eh)            E(eV)
   0   2.0000     -20.578939      -559.9814
   1   2.0000     -15.590135      -424.2291
   2   2.0000     -15.573120      -423.7661
   3   2.0000     -11.322445      -308.0994
   4   2.0000     -11.308675      -307.7247
   5   2.0000     -11.296863      -307.4033
   6   2.0000     -11.290468      -307.2293
   7   2.0000     -11.278973      -306.9164
   8   2.0000      -1.402203       -38.1559
   9   2.0000      -1.291873       -35.1537
  10   2.0000      -1.218455       -33.1558
  11   2.0000      -1.102838       -30.0098
  12   2.0000      -0.983697       -26.7677
  13   2.0000      -0.870312       -23.6824
  14   2.0000      -0.841889       -22.9090
  15   2.0000      -0.769611       -20.9422
  16   2.0000      -0.712137       -19.3782
  17   2.0000      -0.672071       -18.2880
  18   2.0000      -0.636155       -17.3106
  19   2.0000      -0.629671       -17.1342
  20   2.0000      -0.582222       -15.8431
  21   2.0000      -0.563617       -15.3368
  22   2.0000      -0.552688       -15.0394
  23   2.0000      -0.549935       -14.9645
  24   2.0000      -0.505418       -13.7531
  25   2.0000      -0.499345       -13.5879
  26   2.0000      -0.451250       -12.2791
  27   2.0000      -0.405667       -11.0388
  28   2.0000      -0.388018       -10.5585
  29   0.0000       0.113672         3.0932
  30   0.0000       0.133964         3.6453
  31   0.0000       0.141938         3.8623
  32   0.0000       0.169141         4.6026
  33   0.0000       0.172655         4.6982

MULLIKEN ATOMIC CHARGES
-----------------------
   0 O :   -0.451348
   1 C :    0.047467
   2 C :   -0.005937
   3 N :   -0.402865
   4 C :   -0.134638
   5 C :    0.113777
   6 C :   -0.277671
   7 N :   -0.050981
   8 H :    0.344507
   9 H :    0.149106
  10 H :    0.153490
  11 H :    0.223084
  12 H :    0.153757
  13 H :    0.138251
Sum of atomic charges:   -0.0000000

LOEWDIN ATOMIC CHARGES
----------------------
   0 O :    0.025791
   1 C :   -0.272942
   2 C :   -0.178411
   3 N :   -0.012827
   4 C :   -0.194900
   5 C :   -0.188860
   6 C :   -0.171720
   7 N :    0.067018
   8 H :    0.191805
   9 H :    0.158375
  10 H :    0.139091
  11 H :    0.169208
  12 H :    0.137102
  13 H :    0.131268

  Mayer bond orders larger than 0.1
B(  0-O ,  1-C ) :   1.0233 B(  0-O ,  8-H ) :   0.8003 B(  1-C ,  2-C ) :   0.9432
B(  1-C ,  5-C ) :   0.7731 B(  1-C ,  9-H ) :   0.9533 B(  2-C ,  3-N ) :   0.9490
B(  2-C ,  5-C ) :   0.7884 B(  2-C , 10-H ) :   0.8973 B(  3-N ,  4-C ) :   0.8891
B(  3-N , 11-H ) :   0.8792 B(  4-C ,  5-C ) :   0.9018 B(  4-C , 12-H ) :   0.9257
B(  4-C , 13-H ) :   0.9235 B(  5-C ,  6-C ) :   0.9172 B(  6-C ,  7-N ) :   2.8700

MP2 TOTAL ENERGY:     -378.047687814 Eh
FINAL SINGLE POINT ENERGY      -378.047687813947

DIPOLE MOMENT
-------------
                                X             Y             Z
Electronic contribution:      0.42537      -2.01738      -3.14377
Nuclear contribution   :     -0.52386       2.28579       4.84445
                        -----------------------------------------
Total Dipole Moment    :     -0.09848       0.26841       1.70068
                        -----------------------------------------
Magnitude (a.u.)       :      1.72454
Magnitude (Debye)      :      4.38344

                             ****ORCA TERMINATED NORMALLY****
TOTAL RUN TIME: 0 days 0 hours 10 minutes 44 seconds 840 msec
