                         Program Version 3.0.3 - RELEASE   -
|  1> ! RI-MP2 RIJK def2-TZVP def2-TZVP/C def2-TZVP/JK TIGHTSCF
|  2> % maxcore 2000
|  3> % mp2 density relaxed end
|  4> *xyz 0 1
|  5>  C        0.0207417353     1.4982952781     0.0590496694
|  6>  C        0.0252926631     0.0009723993     0.0308437029
|  7>  C        0.0272054468    -0.8094298397    -1.0791825762
|  8>  N        0.0355396363    -2.1181219694    -0.6554114083
|  9>  C        0.0256630133    -2.1736707083     0.7181131741
| 10>  C        0.0191624199    -3.4515047249     1.4847908922
| 11>  C        0.0253633732    -0.8699707512     1.1712646854
| 12>  N        0.0175377209    -0.5136898363     2.5549027667
| 13>  H        0.8614778822     1.8979697893     0.6399548056
| 14>  H        0.0918393729     1.9128229402    -0.9507691145
| 15>  H       -0.8942640375     1.9025858669     0.5117641051
| 16>  H        0.0239319963    -0.5632157743    -2.1295398857
| 17>  H        0.0355016364    -2.9200646647    -1.2602151070
| 18>  H        0.9598814820    -4.0095894205     1.3882506137
| 19>  H       -0.1259277123    -3.2186758704     2.5421846087
| 20>  H       -0.7903644385    -4.1206051308     1.1669351352
| 21>  H        0.9409732219    -0.2280992210     2.8696335827
| 22>  H       -0.5943933422     0.2798411778     2.7180906600
| 23> *
| 24>
| 25>                          ****END OF INPUT****

CARTESIAN COORDINATES (ANGSTROEM)
---------------------------------
  C      0.020742    1.498295    0.059050
  C      0.025293    0.000972    0.030844
  C      0.027205   -0.809430   -1.079183
  N      0.035540   -2.118122   -0.655411
  C      0.025663   -2.173671    0.718113
  C      0.019162   -3.451505    1.484791
  C      0.025363   -0.869971    1.171265
  N      0.017538   -0.513690    2.554903
  H      0.861478    1.897970    0.639955
  H      0.091839    1.912823   -0.950769
  H     -0.894264    1.902586    0.511764
  H      0.023932   -0.563216   -2.129540
  H      0.035502   -2.920065   -1.260215
  H      0.959881   -4.009589    1.388251
  H     -0.125928   -3.218676    2.542185
  H     -0.790364   -4.120605    1.166935
  H      0.940973   -0.228099    2.869634
  H     -0.594393    0.279841    2.718091

 Total Charge           Charge          ....    0
 Multiplicity           Mult            ....    1
 Number of Electrons    NEL             ....   60
 Basis Dimension        Dim             ....  308

ORBITAL ENERGIES
----------------

  NO   OCC          E(Eh)            E(eV)
   0   2.0000     -15.587928      -424.1691
   1   2.0000     -15.538729      -422.8303
   2   2.0000     -11.242698      -305.9294
   3   2.0000     -11.237343      -305.7836
   4   2.0000     -11.223681      -305.4119
   5   2.0000     -11.218455      -305.2697
   6   2.0000     -11.215937      -305.2012
   7   2.0000     -11.205621      -304.9204
   8   2.0000      -1.280530       -34.8450
   9   2.0000      -1.172432       -31.9035
  10   2.0000      -1.044041       -28.4098
  11   2.0000      -1.010960       -27.5096
  12   2.0000      -0.938352       -25.5339
  13   2.0000      -0.892588       -24.2886
  14   2.0000      -0.754785       -20.5387
  15   2.0000      -0.740730       -20.1563
  16   2.0000      -0.688669       -18.7396
  17   2.0000      -0.645138       -17.5551
  18   2.0000      -0.595704       -16.2099
  19   2.0000      -0.587000       -15.9731
  20   2.0000      -0.582278       -15.8446
  21   2.0000      -0.560195       -15.2437
  22   2.0000      -0.557944       -15.1824
  23   2.0000      -0.532853       -14.4997
  24   2.0000      -0.518521       -14.1097
  25   2.0000      -0.517697       -14.0872
  26   2.0000      -0.500861       -13.6291
  27   2.0000      -0.402900       -10.9635
  28   2.0000      -0.321218        -8.7408
  29   2.0000      -0.276723        -7.5300
  30   0.0000       0.131067         3.5665
  31   0.0000       0.137946         3.7537
  32   0.0000       0.165794         4.5115
  33   0.0000       0.175376         4.7722
  34   0.0000       0.188101         5.1185

MULLIKEN ATOMIC CHARGES
-----------------------
   0 C :   -0.463705
   1 C :    0.024895
   2 C :   -0.104551
   3 N :   -0.271442
   4 C :    0.113754
   5 C :   -0.466493
   6 C :    0.018559
   7 N :   -0.549628
   8 H :    0.132800
   9 H :    0.135369
  10 H :    0.134245
  11 H :    0.132926
  12 H :    0.236941
  13 H :    0.136855
  14 H :    0.177181
  15 H :    0.132824
  16 H :    0.239769
  17 H :    0.239701
Sum of atomic charges:   -0.0000000

LOEWDIN ATOMIC CHARGES
----------------------
   0 C :   -0.283698
   1 C :   -0.209737
   2 C :   -0.224154
   3 N :    0.191950
   4 C :   -0.239021
   5 C :   -0.284854
   6 C :   -0.246728
   7 N :   -0.122243
   8 H :    0.125902
   9 H :    0.130193
  10 H :    0.125382
  11 H :    0.130811
  12 H :    0.189140
  13 H :    0.126284
  14 H :    0.143200
  15 H :    0.126622
  16 H :    0.161025
  17 H :    0.159927

  Mayer bond orders larger than 0.1
B(  0-C ,  1-C ) :   0.8410 B(  0-C ,  8-H ) :   0.9437 B(  0-C ,  9-H ) :   0.9528
B(  0-C , 10-H ) :   0.9395 B(  1-C ,  2-C ) :   1.4931 B(  1-C ,  6-C ) :   1.2561
B(  2-C ,  3-N ) :   1.1224 B(  2-C , 11-H ) :   0.9149 B(  3-N ,  4-C ) :   1.1397
B(  3-N , 12-H ) :   0.8783 B(  4-C ,  5-C ) :   0.8311 B(  4-C ,  6-C ) :   1.5290
B(  5-C , 13-H ) :   0.9365 B(  5-C , 14-H ) :   0.9457 B(  5-C , 15-H ) :   0.9414
B(  6-C ,  7-N ) :   1.0127 B(  7-N , 16-H ) :   0.8893 B(  7-N , 17-H ) :   0.8992

MP2 TOTAL ENERGY:     -343.417271550 Eh
FINAL SINGLE POINT ENERGY      -343.417271549851

DIPOLE MOMENT
-------------
                                X             Y             Z
Electronic contribution:     -0.05542      -1.48442      -2.14228
Nuclear contribution   :      0.22351       1.34681       1.68805
                        -----------------------------------------
Total Dipole Moment    :      0.16808      -0.13760      -0.45423
                        -----------------------------------------
Magnitude (a.u.)       :      0.50350
Magnitude (Debye)      :      1.27979

                             ****ORCA TERMINATED NORMALLY****
TOTAL RUN TIME: 0 days 0 hours 12 minutes 39 seconds 140 msec
