                         Program Version 3.0.3 - RELEASE   -
|  1> ! RI-MP2 RIJK def2-TZVP def2-TZVP/C def2-TZVP/JK TIGHTSCF
|  2> % maxcore 2000
|  3> % mp2 density relaxed end
|  4> *xyz 0 1
|  5>  C       -0.1178657058     1.4292417721    -0.0244582756
|  6>  O        0.0374386958     0.0301421061     0.0073728976
|  7>  C        0.5972413843    -0.4809651414    -1.1788011463
|  8>  C        0.6747910359    -2.0069563490    -1.0388141882
|  9>  C       -0.6434852226    -2.6278249308    -0.9553926556
| 10>  C       -1.7294113955    -3.1422034147    -0.9258134201
| 11>  C        1.5188851592    -2.6300803238    -2.1791364448
| 12>  C        1.6517520582    -4.1373103209    -2.1788033085
| 13>  O        2.0536721620    -1.9286078797    -3.0030882279
| 14>  H        0.8459774916     1.9447637215    -0.1609488124
| 15>  H       -0.7932447828     1.7460755867    -0.8345191132
| 16>  H       -0.5481758495     1.7311443723     0.9332930482
| 17>  H       -0.0124147808    -0.2158341030    -2.0557303056
| 18>  H        1.6078285997    -0.0832048331    -1.3485601471
| 19>  H        1.2150890569    -2.2211789299    -0.1035981762
| 20>  H       -2.6923139465    -3.5876566814    -0.8793979746
| 21>  H        0.6734421816    -4.5954152265    -2.3516488773
| 22>  H        2.3504611304    -4.4423648526    -2.9581612429
| 23>  H        1.9980087279    -4.4926172219    -1.2021108195
| 24> *
| 25>
| 26>                          ****END OF INPUT****

CARTESIAN COORDINATES (ANGSTROEM)
---------------------------------
  C     -0.117866    1.429242   -0.024458
  O      0.037439    0.030142    0.007373
  C      0.597241   -0.480965   -1.178801
  C      0.674791   -2.006956   -1.038814
  C     -0.643485   -2.627825   -0.955393
  C     -1.729411   -3.142203   -0.925813
  C      1.518885   -2.630080   -2.179136
  C      1.651752   -4.137310   -2.178803
  O      2.053672   -1.928608   -3.003088
  H      0.845977    1.944764   -0.160949
  H     -0.793245    1.746076   -0.834519
  H     -0.548176    1.731144    0.933293
  H     -0.012415   -0.215834   -2.055730
  H      1.607829   -0.083205   -1.348560
  H      1.215089   -2.221179   -0.103598
  H     -2.692314   -3.587657   -0.879398
  H      0.673442   -4.595415   -2.351649
  H      2.350461   -4.442365   -2.958161
  H      1.998009   -4.492617   -1.202111

 Total Charge           Charge          ....    0
 Multiplicity           Mult            ....    1
 Number of Electrons    NEL             ....   68
 Basis Dimension        Dim             ....  339

ORBITAL ENERGIES
----------------

  NO   OCC          E(Eh)            E(eV)
   0   2.0000     -20.560146      -559.4700
   1   2.0000     -20.556473      -559.3701
   2   2.0000     -11.344772      -308.7069
   3   2.0000     -11.284769      -307.0742
   4   2.0000     -11.274101      -306.7839
   5   2.0000     -11.273094      -306.7565
   6   2.0000     -11.243534      -305.9521
   7   2.0000     -11.237343      -305.7836
   8   2.0000     -11.231237      -305.6175
   9   2.0000      -1.402774       -38.1714
  10   2.0000      -1.382821       -37.6285
  11   2.0000      -1.107071       -30.1249
  12   2.0000      -1.014770       -27.6133
  13   2.0000      -1.005876       -27.3713
  14   2.0000      -0.932954       -25.3870
  15   2.0000      -0.860928       -23.4271
  16   2.0000      -0.770681       -20.9713
  17   2.0000      -0.725186       -19.7333
  18   2.0000      -0.688881       -18.7454
  19   2.0000      -0.682452       -18.5705
  20   2.0000      -0.658551       -17.9201
  21   2.0000      -0.638768       -17.3817
  22   2.0000      -0.626731       -17.0542
  23   2.0000      -0.614596       -16.7240
  24   2.0000      -0.587063       -15.9748
  25   2.0000      -0.561850       -15.2887
  26   2.0000      -0.540186       -14.6992
  27   2.0000      -0.524802       -14.2806
  28   2.0000      -0.505717       -13.7613
  29   2.0000      -0.490194       -13.3388
  30   2.0000      -0.443718       -12.0742
  31   2.0000      -0.427892       -11.6435
  32   2.0000      -0.395815       -10.7707
  33   2.0000      -0.385458       -10.4888
  34   0.0000       0.123546         3.3618
  35   0.0000       0.135750         3.6939
  36   0.0000       0.149361         4.0643
  37   0.0000       0.163281         4.4431
  38   0.0000       0.171997         4.6803

MULLIKEN ATOMIC CHARGES
-----------------------
   0 C :   -0.216752
   1 O :   -0.300879
   2 C :   -0.055260
   3 C :   -0.106281
   4 C :   -0.043204
   5 C :   -0.171216
   6 C :    0.196652
   7 C :   -0.410743
   8 O :   -0.277700
   9 H :    0.111883
  10 H :    0.114778
  11 H :    0.140174
  12 H :    0.103758
  13 H :    0.123019
  14 H :    0.132006
  15 H :    0.191794
  16 H :    0.167056
  17 H :    0.154994
  18 H :    0.145921
Sum of atomic charges:   -0.0000000

LOEWDIN ATOMIC CHARGES
----------------------
   0 C :   -0.357515
   1 O :    0.143126
   2 C :   -0.288862
   3 C :   -0.218090
   4 C :   -0.086021
   5 C :   -0.090664
   6 C :   -0.306215
   7 C :   -0.271324
   8 O :    0.163830
   9 H :    0.102258
  10 H :    0.102872
  11 H :    0.114055
  12 H :    0.129396
  13 H :    0.129637
  14 H :    0.186469
  15 H :    0.127914
  16 H :    0.145804
  17 H :    0.134150
  18 H :    0.139181

  Mayer bond orders larger than 0.1
B(  0-C ,  1-O ) :   0.9189 B(  0-C ,  9-H ) :   0.9370 B(  0-C , 10-H ) :   0.9371
B(  0-C , 11-H ) :   0.9388 B(  1-O ,  2-C ) :   0.9540 B(  2-C ,  3-C ) :   0.9382
B(  2-C , 12-H ) :   0.9119 B(  2-C , 13-H ) :   0.9225 B(  3-C ,  4-C ) :   1.0564
B(  3-C ,  6-C ) :   0.8764 B(  3-C , 14-H ) :   0.9015 B(  4-C ,  5-C ) :   2.6230
B(  5-C , 15-H ) :   0.8984 B(  6-C ,  7-C ) :   0.9361 B(  6-C ,  8-O ) :   1.9860
B(  7-C , 16-H ) :   0.9080 B(  7-C , 17-H ) :   0.9364 B(  7-C , 18-H ) :   0.9156

MP2 TOTAL ENERGY:     -422.278025080 Eh
FINAL SINGLE POINT ENERGY      -422.278025080111

DIPOLE MOMENT
-------------
                                X             Y             Z
Electronic contribution:      0.02166      -2.38263      -1.35038
Nuclear contribution   :     -0.20566       2.15210       1.67128
                        -----------------------------------------
Total Dipole Moment    :     -0.18400      -0.23052       0.32091
                        -----------------------------------------
Magnitude (a.u.)       :      0.43587
Magnitude (Debye)      :      1.10788

                             ****ORCA TERMINATED NORMALLY****
TOTAL RUN TIME: 0 days 0 hours 16 minutes 42 seconds 950 msec
