                         Program Version 3.0.3 - RELEASE   -
|  1> ! RI-MP2 RIJK def2-TZVP def2-TZVP/C def2-TZVP/JK TIGHTSCF
|  2> % maxcore 2000
|  3> % mp2 density relaxed end
|  4> *xyz 0 1
|  5>  O        0.2085786253    -0.1580944026     0.1897617104
|  6>  C        0.1065723789     1.0376059001     0.0993117670
|  7>  C        1.2627743547     2.0095659970     0.0185064082
|  8>  C        1.0620986898     3.0222421180    -1.1468973257
|  9>  C        0.9359966315     4.3627199883    -0.4648786269
| 10>  C        1.0718672349     4.2836662506     0.8573800565
| 11>  C        1.3236943843     2.8873034111     1.2939440059
| 12>  C        1.0662447308     2.3756030599     2.6513306133
| 13>  O        2.3970998280     2.6514046419     2.2129770841
| 14>  H       -0.8953166794     1.5300526624     0.0778242016
| 15>  H        2.1875972839     1.4365439706    -0.0671317030
| 16>  H        1.9004468981     2.9993152510    -1.8522150296
| 17>  H        0.1654791357     2.7872856384    -1.7365965535
| 18>  H        0.7577896158     5.2755657019    -1.0219182561
| 19>  H        1.0392686947     5.1060120890     1.5615504812
| 20>  H        0.6739855645     3.0452111976     3.4162824593
| 21>  H        0.8303213887     1.3212099749     2.7912645072
| 22> *
| 23>
| 24>                          ****END OF INPUT****

CARTESIAN COORDINATES (ANGSTROEM)
---------------------------------
  O      0.208579   -0.158094    0.189762
  C      0.106572    1.037606    0.099312
  C      1.262774    2.009566    0.018506
  C      1.062099    3.022242   -1.146897
  C      0.935997    4.362720   -0.464879
  C      1.071867    4.283666    0.857380
  C      1.323694    2.887303    1.293944
  C      1.066245    2.375603    2.651331
  O      2.397100    2.651405    2.212977
  H     -0.895317    1.530053    0.077824
  H      2.187597    1.436544   -0.067132
  H      1.900447    2.999315   -1.852215
  H      0.165479    2.787286   -1.736597
  H      0.757790    5.275566   -1.021918
  H      1.039269    5.106012    1.561550
  H      0.673986    3.045211    3.416282
  H      0.830321    1.321210    2.791265

 Total Charge           Charge          ....    0
 Multiplicity           Mult            ....    1
 Number of Electrons    NEL             ....   66
 Basis Dimension        Dim             ....  327

ORBITAL ENERGIES
----------------

  NO   OCC          E(Eh)            E(eV)
   0   2.0000     -20.576855      -559.9247
   1   2.0000     -20.562929      -559.5458
   2   2.0000     -11.337750      -308.5159
   3   2.0000     -11.311915      -307.8128
   4   2.0000     -11.292465      -307.2836
   5   2.0000     -11.255753      -306.2846
   6   2.0000     -11.255227      -306.2703
   7   2.0000     -11.254217      -306.2428
   8   2.0000     -11.245289      -305.9999
   9   2.0000      -1.422512       -38.7085
  10   2.0000      -1.401887       -38.1473
  11   2.0000      -1.155815       -31.4513
  12   2.0000      -1.022811       -27.8321
  13   2.0000      -0.968448       -26.3528
  14   2.0000      -0.909693       -24.7540
  15   2.0000      -0.848082       -23.0775
  16   2.0000      -0.791348       -21.5337
  17   2.0000      -0.758059       -20.6278
  18   2.0000      -0.714037       -19.4299
  19   2.0000      -0.670304       -18.2399
  20   2.0000      -0.661683       -18.0053
  21   2.0000      -0.643196       -17.5022
  22   2.0000      -0.626003       -17.0344
  23   2.0000      -0.575204       -15.6521
  24   2.0000      -0.566217       -15.4076
  25   2.0000      -0.545427       -14.8418
  26   2.0000      -0.532799       -14.4982
  27   2.0000      -0.519193       -14.1280
  28   2.0000      -0.507458       -13.8086
  29   2.0000      -0.473191       -12.8762
  30   2.0000      -0.453166       -12.3313
  31   2.0000      -0.421403       -11.4670
  32   2.0000      -0.366399        -9.9702
  33   0.0000       0.124521         3.3884
  34   0.0000       0.133134         3.6228
  35   0.0000       0.143637         3.9086
  36   0.0000       0.160888         4.3780
  37   0.0000       0.164528         4.4770

MULLIKEN ATOMIC CHARGES
-----------------------
   0 O :   -0.253828
   1 C :    0.005370
   2 C :    0.097851
   3 C :   -0.232859
   4 C :   -0.160066
   5 C :   -0.214895
   6 C :    0.136690
   7 C :   -0.067224
   8 O :   -0.322141
   9 H :    0.085539
  10 H :    0.118310
  11 H :    0.138112
  12 H :    0.135218
  13 H :    0.139063
  14 H :    0.141474
  15 H :    0.119218
  16 H :    0.134166
Sum of atomic charges:    0.0000000

LOEWDIN ATOMIC CHARGES
----------------------
   0 O :    0.137594
   1 C :   -0.279196
   2 C :   -0.174765
   3 C :   -0.205090
   4 C :   -0.134651
   5 C :   -0.117525
   6 C :   -0.279956
   7 C :   -0.235218
   8 O :    0.174813
   9 H :    0.115839
  10 H :    0.167444
  11 H :    0.146692
  12 H :    0.145820
  13 H :    0.140947
  14 H :    0.147119
  15 H :    0.122184
  16 H :    0.127947

  Mayer bond orders larger than 0.1
B(  0-O ,  1-C ) :   1.9921 B(  1-C ,  2-C ) :   0.8263 B(  1-C ,  9-H ) :   0.9394
B(  2-C ,  3-C ) :   0.9085 B(  2-C ,  6-C ) :   0.8464 B(  2-C , 10-H ) :   0.8995
B(  3-C ,  4-C ) :   0.9335 B(  3-C , 11-H ) :   0.9084 B(  3-C , 12-H ) :   0.9260
B(  4-C ,  5-C ) :   1.7773 B(  4-C , 13-H ) :   0.9241 B(  5-C ,  6-C ) :   0.9508
B(  5-C , 14-H ) :   0.9146 B(  6-C ,  7-C ) :   0.9657 B(  6-C ,  8-O ) :   0.8630
B(  7-C ,  8-O ) :   0.8859 B(  7-C , 15-H ) :   0.9180 B(  7-C , 16-H ) :   0.8949

MP2 TOTAL ENERGY:     -421.106638255 Eh
FINAL SINGLE POINT ENERGY      -421.106638255374

DIPOLE MOMENT
-------------
                                X             Y             Z
Electronic contribution:      1.07959      -2.56624       1.60458
Nuclear contribution   :     -1.63028       3.66063      -1.93072
                        -----------------------------------------
Total Dipole Moment    :     -0.55069       1.09439      -0.32615
                        -----------------------------------------
Magnitude (a.u.)       :      1.26780
Magnitude (Debye)      :      3.22250

                             ****ORCA TERMINATED NORMALLY****
TOTAL RUN TIME: 0 days 0 hours 21 minutes 15 seconds 794 msec
