                         Program Version 3.0.3 - RELEASE   -
|  1> ! RI-MP2 RIJK def2-TZVP def2-TZVP/C def2-TZVP/JK TIGHTSCF
|  2> % maxcore 2000
|  3> % mp2 density relaxed end
|  4> *xyz 0 1
|  5>  C       -0.1918718375     1.5087514124     0.1045147504
|  6>  C        0.0079696896     0.0025832006     0.0224004580
|  7>  O       -1.2037986966    -0.6851483831    -0.1362640362
|  8>  C        1.0703142221    -0.4564867293    -1.0044247002
|  9>  N        2.0665293807    -0.5578587351     0.0894462015
| 10>  C        1.0019339997    -0.5946569886     1.1076473212
| 11>  C        1.2566158647     0.2189481335     2.3500362951
| 12>  O        0.4790047344     0.2904865662     3.2703004030
| 13>  H        0.7705657449     2.0263333607     0.1593448056
| 14>  H       -0.7283085943     1.8590654177    -0.7825241545
| 15>  H       -0.7706203231     1.7807911034     0.9947683086
| 16>  H       -1.8419913187    -0.3260726132     0.4905203752
| 17>  H        0.7723864375    -1.4156520334    -1.4452628437
| 18>  H        1.3377832479     0.2454923005    -1.8013369972
| 19>  H        2.6654065825    -1.3748180982     0.0536010238
| 20>  H        0.6362875979    -1.5912822674     1.3885363553
| 21>  H        2.2118215785     0.7920190432     2.3347916440
| 22> *
| 23>
| 24>                          ****END OF INPUT****

CARTESIAN COORDINATES (ANGSTROEM)
---------------------------------
  C     -0.191872    1.508751    0.104515
  C      0.007970    0.002583    0.022400
  O     -1.203799   -0.685148   -0.136264
  C      1.070314   -0.456487   -1.004425
  N      2.066529   -0.557859    0.089446
  C      1.001934   -0.594657    1.107647
  C      1.256616    0.218948    2.350036
  O      0.479005    0.290487    3.270300
  H      0.770566    2.026333    0.159345
  H     -0.728309    1.859065   -0.782524
  H     -0.770620    1.780791    0.994768
  H     -1.841991   -0.326073    0.490520
  H      0.772386   -1.415652   -1.445263
  H      1.337783    0.245492   -1.801337
  H      2.665407   -1.374818    0.053601
  H      0.636288   -1.591282    1.388536
  H      2.211822    0.792019    2.334792

 Total Charge           Charge          ....    0
 Multiplicity           Mult            ....    1
 Number of Electrons    NEL             ....   62
 Basis Dimension        Dim             ....  302

ORBITAL ENERGIES
----------------

  NO   OCC          E(Eh)            E(eV)
   0   2.0000     -20.570785      -559.7595
   1   2.0000     -20.558763      -559.4324
   2   2.0000     -15.561102      -423.4391
   3   2.0000     -11.330168      -308.3095
   4   2.0000     -11.308725      -307.7260
   5   2.0000     -11.270171      -306.6770
   6   2.0000     -11.261583      -306.4432
   7   2.0000     -11.230853      -305.6070
   8   2.0000      -1.397199       -38.0197
   9   2.0000      -1.384882       -37.6846
  10   2.0000      -1.247504       -33.9463
  11   2.0000      -1.027511       -27.9600
  12   2.0000      -0.975650       -26.5488
  13   2.0000      -0.921317       -25.0703
  14   2.0000      -0.823348       -22.4044
  15   2.0000      -0.758371       -20.6363
  16   2.0000      -0.729431       -19.8488
  17   2.0000      -0.679367       -18.4865
  18   2.0000      -0.657356       -17.8876
  19   2.0000      -0.642740       -17.4898
  20   2.0000      -0.620055       -16.8726
  21   2.0000      -0.593467       -16.1491
  22   2.0000      -0.582669       -15.8552
  23   2.0000      -0.550423       -14.9778
  24   2.0000      -0.537199       -14.6179
  25   2.0000      -0.532217       -14.4824
  26   2.0000      -0.515682       -14.0324
  27   2.0000      -0.477076       -12.9819
  28   2.0000      -0.440941       -11.9986
  29   2.0000      -0.413316       -11.2469
  30   2.0000      -0.395351       -10.7580
  31   0.0000       0.116843         3.1794
  32   0.0000       0.132251         3.5987
  33   0.0000       0.140210         3.8153
  34   0.0000       0.170796         4.6476
  35   0.0000       0.183736         4.9997

MULLIKEN ATOMIC CHARGES
-----------------------
   0 C :   -0.487775
   1 C :    0.267902
   2 O :   -0.452109
   3 C :   -0.153810
   4 N :   -0.365380
   5 C :   -0.015466
   6 C :    0.060129
   7 O :   -0.273995
   8 H :    0.148123
   9 H :    0.151081
  10 H :    0.146866
  11 H :    0.323008
  12 H :    0.119361
  13 H :    0.112719
  14 H :    0.213029
  15 H :    0.113536
  16 H :    0.092783
Sum of atomic charges:   -0.0000000

LOEWDIN ATOMIC CHARGES
----------------------
   0 C :   -0.277819
   1 C :   -0.366979
   2 O :    0.023353
   3 C :   -0.228501
   4 N :   -0.000928
   5 C :   -0.250243
   6 C :   -0.282763
   7 O :    0.127281
   8 H :    0.138105
   9 H :    0.131636
  10 H :    0.130067
  11 H :    0.182932
  12 H :    0.128603
  13 H :    0.122358
  14 H :    0.158834
  15 H :    0.151747
  16 H :    0.112317

  Mayer bond orders larger than 0.1
B(  0-C ,  1-C ) :   0.9303 B(  0-C ,  8-H ) :   0.9267 B(  0-C ,  9-H ) :   0.9315
B(  0-C , 10-H ) :   0.9251 B(  1-C ,  2-O ) :   1.0200 B(  1-C ,  3-C ) :   0.8673
B(  1-C ,  5-C ) :   0.8319 B(  2-O , 11-H ) :   0.8366 B(  3-C ,  4-N ) :   0.9521
B(  3-C , 12-H ) :   0.9148 B(  3-C , 13-H ) :   0.9193 B(  4-N ,  5-C ) :   0.9828
B(  4-N , 14-H ) :   0.8783 B(  5-C ,  6-C ) :   0.8187 B(  5-C , 15-H ) :   0.8959
B(  6-C ,  7-O ) :   1.9927 B(  6-C , 16-H ) :   0.9426

MP2 TOTAL ENERGY:     -400.336504743 Eh
FINAL SINGLE POINT ENERGY      -400.336504743052

DIPOLE MOMENT
-------------
                                X             Y             Z
Electronic contribution:     -0.11485      -2.23060       4.17569
Nuclear contribution   :      0.30695       2.15514      -4.81724
                        -----------------------------------------
Total Dipole Moment    :      0.19210      -0.07546      -0.64155
                        -----------------------------------------
Magnitude (a.u.)       :      0.67393
Magnitude (Debye)      :      1.71300

                             ****ORCA TERMINATED NORMALLY****
TOTAL RUN TIME: 0 days 0 hours 13 minutes 5 seconds 856 msec
