                         Program Version 3.0.3 - RELEASE   -
|  1> ! RI-MP2 RIJK def2-TZVP def2-TZVP/C def2-TZVP/JK TIGHTSCF
|  2> % maxcore 2000
|  3> % mp2 density relaxed end
|  4> *xyz 0 1
|  5>  O       -0.8377295207     0.8095945335     0.1041576255
|  6>  C       -0.2893591768    -0.4987940845    -0.0251408453
|  7>  C        0.6566589804    -0.6040617439    -1.2267643249
|  8>  C       -0.0547613350    -0.2483841707    -2.5471017929
|  9>  C        0.8531087001    -0.2473583906    -3.6905661390
| 10>  N        1.5881782172    -0.2495432441    -4.5822487794
| 11>  C        0.3765129389    -0.9747487266     1.2591895571
| 12>  C        1.0889390057    -0.0355878544     2.1600636207
| 13>  N       -0.2074203485    -0.6175479621     2.5543547364
| 14>  H       -0.1078048656     1.4390175953     0.1330034731
| 15>  H       -1.1650834301    -1.1372919255    -0.2058225735
| 16>  H        1.5126844159     0.0654265181    -1.0753768934
| 17>  H        1.0631460901    -1.6190505022    -1.2865965586
| 18>  H       -0.8648217678    -0.9605286817    -2.7433600841
| 19>  H       -0.5221311215     0.7375027632    -2.4583010727
| 20>  H        0.7321054497    -2.0025253209     1.2046509887
| 21>  H        1.9460529736    -0.3771910809     2.7326759737
| 22>  H        1.1195021320     1.0206731070     1.9029178306
| 23>  H       -0.9323620877     0.0792040511     2.3859832782
| 24> *
| 25>
| 26>                          ****END OF INPUT****

CARTESIAN COORDINATES (ANGSTROEM)
---------------------------------
  O     -0.837730    0.809595    0.104158
  C     -0.289359   -0.498794   -0.025141
  C      0.656659   -0.604062   -1.226764
  C     -0.054761   -0.248384   -2.547102
  C      0.853109   -0.247358   -3.690566
  N      1.588178   -0.249543   -4.582249
  C      0.376513   -0.974749    1.259190
  C      1.088939   -0.035588    2.160064
  N     -0.207420   -0.617548    2.554355
  H     -0.107805    1.439018    0.133003
  H     -1.165083   -1.137292   -0.205823
  H      1.512684    0.065427   -1.075377
  H      1.063146   -1.619051   -1.286597
  H     -0.864822   -0.960529   -2.743360
  H     -0.522131    0.737503   -2.458301
  H      0.732105   -2.002525    1.204651
  H      1.946053   -0.377191    2.732676
  H      1.119502    1.020673    1.902918
  H     -0.932362    0.079204    2.385983

 Total Charge           Charge          ....    0
 Multiplicity           Mult            ....    1
 Number of Electrons    NEL             ....   68
 Basis Dimension        Dim             ....  339

ORBITAL ENERGIES
----------------

  NO   OCC          E(Eh)            E(eV)
   0   2.0000     -20.587714      -560.2202
   1   2.0000     -15.572528      -423.7500
   2   2.0000     -15.566190      -423.5776
   3   2.0000     -11.312846      -307.8382
   4   2.0000     -11.289020      -307.1898
   5   2.0000     -11.277102      -306.8655
   6   2.0000     -11.274832      -306.8038
   7   2.0000     -11.269167      -306.6496
   8   2.0000     -11.265439      -306.5482
   9   2.0000      -1.396301       -37.9953
  10   2.0000      -1.271306       -34.5940
  11   2.0000      -1.222687       -33.2710
  12   2.0000      -1.106487       -30.1090
  13   2.0000      -1.006349       -27.3842
  14   2.0000      -0.900709       -24.5095
  15   2.0000      -0.886520       -24.1234
  16   2.0000      -0.816494       -22.2179
  17   2.0000      -0.734846       -19.9962
  18   2.0000      -0.709249       -19.2996
  19   2.0000      -0.691787       -18.8245
  20   2.0000      -0.664332       -18.0774
  21   2.0000      -0.645603       -17.5677
  22   2.0000      -0.613059       -16.6822
  23   2.0000      -0.587722       -15.9927
  24   2.0000      -0.575234       -15.6529
  25   2.0000      -0.555616       -15.1191
  26   2.0000      -0.541080       -14.7235
  27   2.0000      -0.528098       -14.3703
  28   2.0000      -0.502310       -13.6686
  29   2.0000      -0.480191       -13.0667
  30   2.0000      -0.474902       -12.9228
  31   2.0000      -0.461606       -12.5609
  32   2.0000      -0.452332       -12.3086
  33   2.0000      -0.400881       -10.9085
  34   0.0000       0.109462         2.9786
  35   0.0000       0.128190         3.4882
  36   0.0000       0.147162         4.0045
  37   0.0000       0.155222         4.2238
  38   0.0000       0.169565         4.6141

MULLIKEN ATOMIC CHARGES
-----------------------
   0 O :   -0.480747
   1 C :    0.107898
   2 C :   -0.324634
   3 C :   -0.103471
   4 C :   -0.180279
   5 N :   -0.057731
   6 C :   -0.052085
   7 C :   -0.193958
   8 N :   -0.346061
   9 H :    0.318288
  10 H :    0.109108
  11 H :    0.140868
  12 H :    0.141749
  13 H :    0.156919
  14 H :    0.166861
  15 H :    0.130584
  16 H :    0.130163
  17 H :    0.102307
  18 H :    0.234220
Sum of atomic charges:    0.0000000

LOEWDIN ATOMIC CHARGES
----------------------
   0 O :   -0.008933
   1 C :   -0.337937
   2 C :   -0.232374
   3 C :   -0.243760
   4 C :   -0.195079
   5 N :    0.055964
   6 C :   -0.275979
   7 C :   -0.270874
   8 N :   -0.010405
   9 H :    0.176246
  10 H :    0.153515
  11 H :    0.147152
  12 H :    0.152193
  13 H :    0.165448
  14 H :    0.166135
  15 H :    0.147558
  16 H :    0.126289
  17 H :    0.114656
  18 H :    0.170185

  Mayer bond orders larger than 0.1
B(  0-O ,  1-C ) :   0.8581 B(  0-O ,  9-H ) :   0.8373 B(  1-C ,  2-C ) :   0.9404
B(  1-C ,  6-C ) :   0.9402 B(  1-C , 10-H ) :   0.9099 B(  2-C ,  3-C ) :   0.9010
B(  2-C , 11-H ) :   0.9228 B(  2-C , 12-H ) :   0.9227 B(  3-C ,  4-C ) :   0.9227
B(  3-C , 13-H ) :   0.9039 B(  3-C , 14-H ) :   0.9125 B(  4-C ,  5-N ) :   2.8819
B(  6-C ,  7-C ) :   0.9502 B(  6-C ,  8-N ) :   0.9547 B(  6-C , 15-H ) :   0.9018
B(  7-C ,  8-N ) :   0.9184 B(  7-C , 16-H ) :   0.9201 B(  7-C , 17-H ) :   0.9182
B(  8-N , 18-H ) :   0.8672

MP2 TOTAL ENERGY:     -418.490750984 Eh
FINAL SINGLE POINT ENERGY      -418.490750983784

DIPOLE MOMENT
-------------
                                X             Y             Z
Electronic contribution:      0.15549       0.35233      -5.39477
Nuclear contribution   :     -0.40380      -0.09370       6.13879
                        -----------------------------------------
Total Dipole Moment    :     -0.24831       0.25862       0.74401
                        -----------------------------------------
Magnitude (a.u.)       :      0.82589
Magnitude (Debye)      :      2.09925

                             ****ORCA TERMINATED NORMALLY****
TOTAL RUN TIME: 0 days 0 hours 16 minutes 10 seconds 420 msec
