                         Program Version 3.0.3 - RELEASE   -
|  1> ! RI-MP2 RIJK def2-TZVP def2-TZVP/C def2-TZVP/JK TIGHTSCF
|  2> % maxcore 2000
|  3> % mp2 density relaxed end
|  4> *xyz 0 1
|  5>  C       -0.0555178968     1.5145689102    -0.0666274679
|  6>  C       -0.0240136756     0.0084461714     0.0085786491
|  7>  N       -0.0604047965    -0.6355014298    -1.1680644300
|  8>  C       -0.0335738846    -1.9635342641    -1.1234779805
|  9>  N        0.0255811953    -2.7298002150    -0.0372334120
| 10>  C        0.0620653927    -2.0906830936     1.1392727274
| 11>  C        0.1289901741    -2.9535677331     2.3707901868
| 12>  C        0.0392289479    -0.6892044941     1.2235078596
| 13>  C        0.0814565540     0.0013528604     2.5631241500
| 14>  H        0.8371360124     1.9600539647     0.3861046062
| 15>  H       -0.1045982204     1.8152532389    -1.1134431944
| 16>  H       -0.9237253661     1.9268845014     0.4591647579
| 17>  H       -0.0632476358    -2.4811711086    -2.0800881731
| 18>  H        1.0296843906    -2.7411722840     2.9584934221
| 19>  H       -0.7271919258    -2.7735456190     3.0313115548
| 20>  H        0.1362325621    -4.0036224976     2.0778408337
| 21>  H        0.9885082655    -0.2628119400     3.1194583336
| 22>  H        0.0582761688     1.0871017329     2.4670214788
| 23>  H       -0.7675284020    -0.2939701510     3.1908819480
| 24> *
| 25>
| 26>                          ****END OF INPUT****

CARTESIAN COORDINATES (ANGSTROEM)
---------------------------------
  C     -0.055518    1.514569   -0.066627
  C     -0.024014    0.008446    0.008579
  N     -0.060405   -0.635501   -1.168064
  C     -0.033574   -1.963534   -1.123478
  N      0.025581   -2.729800   -0.037233
  C      0.062065   -2.090683    1.139273
  C      0.128990   -2.953568    2.370790
  C      0.039229   -0.689204    1.223508
  C      0.081457    0.001353    2.563124
  H      0.837136    1.960054    0.386105
  H     -0.104598    1.815253   -1.113443
  H     -0.923725    1.926885    0.459165
  H     -0.063248   -2.481171   -2.080088
  H      1.029684   -2.741172    2.958493
  H     -0.727192   -2.773546    3.031312
  H      0.136233   -4.003622    2.077841
  H      0.988508   -0.262812    3.119458
  H      0.058276    1.087102    2.467021
  H     -0.767528   -0.293970    3.190882

 Total Charge           Charge          ....    0
 Multiplicity           Mult            ....    1
 Number of Electrons    NEL             ....   66
 Basis Dimension        Dim             ....  339

ORBITAL ENERGIES
----------------

  NO   OCC          E(Eh)            E(eV)
   0   2.0000     -15.555767      -423.2939
   1   2.0000     -15.555089      -423.2755
   2   2.0000     -11.298425      -307.4458
   3   2.0000     -11.292526      -307.2853
   4   2.0000     -11.292165      -307.2754
   5   2.0000     -11.240638      -305.8733
   6   2.0000     -11.235333      -305.7290
   7   2.0000     -11.230065      -305.5856
   8   2.0000     -11.229643      -305.5741
   9   2.0000      -1.300945       -35.4005
  10   2.0000      -1.189445       -32.3664
  11   2.0000      -1.102594       -30.0031
  12   2.0000      -1.003035       -27.2940
  13   2.0000      -0.988900       -26.9093
  14   2.0000      -0.931890       -25.3580
  15   2.0000      -0.843683       -22.9578
  16   2.0000      -0.813109       -22.1258
  17   2.0000      -0.716208       -19.4890
  18   2.0000      -0.677083       -18.4244
  19   2.0000      -0.618949       -16.8425
  20   2.0000      -0.595297       -16.1988
  21   2.0000      -0.580725       -15.8023
  22   2.0000      -0.575126       -15.6500
  23   2.0000      -0.571886       -15.5618
  24   2.0000      -0.561688       -15.2843
  25   2.0000      -0.547941       -14.9102
  26   2.0000      -0.539200       -14.6724
  27   2.0000      -0.531677       -14.4677
  28   2.0000      -0.528877       -14.3915
  29   2.0000      -0.455055       -12.3827
  30   2.0000      -0.400167       -10.8891
  31   2.0000      -0.398496       -10.8436
  32   2.0000      -0.345918        -9.4129
  33   0.0000       0.112994         3.0747
  34   0.0000       0.119042         3.2393
  35   0.0000       0.122775         3.3409
  36   0.0000       0.152303         4.1444
  37   0.0000       0.185824         5.0565

MULLIKEN ATOMIC CHARGES
-----------------------
   0 C :   -0.462775
   1 C :    0.143739
   2 N :   -0.250264
   3 C :    0.076457
   4 N :   -0.248700
   5 C :    0.116084
   6 C :   -0.428747
   7 C :   -0.004504
   8 C :   -0.416959
   9 H :    0.145450
  10 H :    0.161692
  11 H :    0.145466
  12 H :    0.128516
  13 H :    0.138559
  14 H :    0.138513
  15 H :    0.161498
  16 H :    0.150972
  17 H :    0.153960
  18 H :    0.151043
Sum of atomic charges:   -0.0000000

LOEWDIN ATOMIC CHARGES
----------------------
   0 C :   -0.269087
   1 C :   -0.211818
   2 N :    0.146042
   3 C :   -0.295932
   4 N :    0.146298
   5 C :   -0.212755
   6 C :   -0.262816
   7 C :   -0.123266
   8 C :   -0.255840
   9 H :    0.132032
  10 H :    0.136308
  11 H :    0.132031
  12 H :    0.132837
  13 H :    0.132741
  14 H :    0.132737
  15 H :    0.136052
  16 H :    0.135980
  17 H :    0.132464
  18 H :    0.135993

  Mayer bond orders larger than 0.1
B(  0-C ,  1-C ) :   0.8741 B(  0-C ,  9-H ) :   0.9352 B(  0-C , 10-H ) :   0.9438
B(  0-C , 11-H ) :   0.9352 B(  1-C ,  2-N ) :   1.4185 B(  1-C ,  7-C ) :   1.3029
B(  2-N ,  3-C ) :   1.3829 B(  3-C ,  4-N ) :   1.3738 B(  3-C , 12-H ) :   0.9404
B(  4-N ,  5-C ) :   1.4254 B(  5-C ,  6-C ) :   0.8979 B(  5-C ,  7-C ) :   1.2829
B(  6-C , 13-H ) :   0.9318 B(  6-C , 14-H ) :   0.9318 B(  6-C , 15-H ) :   0.9444
B(  7-C ,  8-C ) :   0.8575 B(  8-C , 16-H ) :   0.9340 B(  8-C , 17-H ) :   0.9423
B(  8-C , 18-H ) :   0.9341

MP2 TOTAL ENERGY:     -381.457781487 Eh
FINAL SINGLE POINT ENERGY      -381.457781487463

DIPOLE MOMENT
-------------
                                X             Y             Z
Electronic contribution:     -0.21887      -3.75995      -7.03113
Nuclear contribution   :      0.25285       4.34199       8.12144
                        -----------------------------------------
Total Dipole Moment    :      0.03398       0.58204       1.09031
                        -----------------------------------------
Magnitude (a.u.)       :      1.23640
Magnitude (Debye)      :      3.14269

                             ****ORCA TERMINATED NORMALLY****
TOTAL RUN TIME: 0 days 0 hours 17 minutes 36 seconds 199 msec
