                         Program Version 3.0.3 - RELEASE   -
|  1> ! RI-MP2 RIJK def2-TZVP def2-TZVP/C def2-TZVP/JK TIGHTSCF
|  2> % maxcore 2000
|  3> % mp2 density relaxed end
|  4> *xyz 0 1
|  5>  O       -0.0324835089     1.2843560654     0.0057797819
|  6>  C       -0.0789491362    -0.1390719204    -0.0062986238
|  7>  C        0.5704107753    -0.7214707840    -1.2694052761
|  8>  C       -0.0775944979    -0.1880549482    -2.5570594940
|  9>  C        0.7116506182    -0.5655463954    -3.7874984300
| 10>  O        0.2735753887    -1.1597492946    -4.7380005921
| 11>  C        0.5330678478    -0.7139397567     1.2791174810
| 12>  C       -0.0981802535    -0.0993280493     2.5119897019
| 13>  O        0.5173595067     0.4007910667     3.4160088162
| 14>  H        0.8796312894     1.5553720701     0.1639170885
| 15>  H       -1.1516185077    -0.3723069335    -0.0227554765
| 16>  H        1.6416567010    -0.4729237224    -1.2598804456
| 17>  H        0.5050185726    -1.8156593255    -1.2392642100
| 18>  H       -1.1033491625    -0.5501834943    -2.6722534313
| 19>  H       -0.1051744914     0.9080752587    -2.4918089505
| 20>  H        1.7811409481    -0.2451606920    -3.7575476535
| 21>  H        0.3627987048    -1.7991573617     1.3098197724
| 22>  H        1.6151194242    -0.5426033248     1.3176388702
| 23>  H       -1.2113137686    -0.1473710881     2.5288567514
| 24> *
| 25>
| 26>                          ****END OF INPUT****

CARTESIAN COORDINATES (ANGSTROEM)
---------------------------------
  O     -0.032484    1.284356    0.005780
  C     -0.078949   -0.139072   -0.006299
  C      0.570411   -0.721471   -1.269405
  C     -0.077594   -0.188055   -2.557059
  C      0.711651   -0.565546   -3.787498
  O      0.273575   -1.159749   -4.738001
  C      0.533068   -0.713940    1.279117
  C     -0.098180   -0.099328    2.511990
  O      0.517360    0.400791    3.416009
  H      0.879631    1.555372    0.163917
  H     -1.151619   -0.372307   -0.022755
  H      1.641657   -0.472924   -1.259880
  H      0.505019   -1.815659   -1.239264
  H     -1.103349   -0.550183   -2.672253
  H     -0.105174    0.908075   -2.491809
  H      1.781141   -0.245161   -3.757548
  H      0.362799   -1.799157    1.309820
  H      1.615119   -0.542603    1.317639
  H     -1.211314   -0.147371    2.528857

 Total Charge           Charge          ....    0
 Multiplicity           Mult            ....    1
 Number of Electrons    NEL             ....   70
 Basis Dimension        Dim             ....  339

ORBITAL ENERGIES
----------------

  NO   OCC          E(Eh)            E(eV)
   0   2.0000     -20.582015      -560.0651
   1   2.0000     -20.565943      -559.6278
   2   2.0000     -20.563102      -559.5505
   3   2.0000     -11.342451      -308.6438
   4   2.0000     -11.338390      -308.5333
   5   2.0000     -11.315635      -307.9141
   6   2.0000     -11.259365      -306.3829
   7   2.0000     -11.258468      -306.3585
   8   2.0000     -11.249466      -306.1135
   9   2.0000      -1.406189       -38.2643
  10   2.0000      -1.401953       -38.1491
  11   2.0000      -1.389502       -37.8103
  12   2.0000      -1.106323       -30.1046
  13   2.0000      -1.055483       -28.7212
  14   2.0000      -0.950617       -25.8676
  15   2.0000      -0.849088       -23.1049
  16   2.0000      -0.815997       -22.2044
  17   2.0000      -0.798040       -21.7158
  18   2.0000      -0.703421       -19.1411
  19   2.0000      -0.688424       -18.7330
  20   2.0000      -0.679108       -18.4795
  21   2.0000      -0.664903       -18.0929
  22   2.0000      -0.651025       -17.7153
  23   2.0000      -0.636681       -17.3250
  24   2.0000      -0.614235       -16.7142
  25   2.0000      -0.591887       -16.1061
  26   2.0000      -0.568442       -15.4681
  27   2.0000      -0.561824       -15.2880
  28   2.0000      -0.530193       -14.4273
  29   2.0000      -0.522830       -14.2269
  30   2.0000      -0.508201       -13.8288
  31   2.0000      -0.493344       -13.4246
  32   2.0000      -0.475333       -12.9345
  33   2.0000      -0.434311       -11.8182
  34   2.0000      -0.420159       -11.4331
  35   0.0000       0.112078         3.0498
  36   0.0000       0.126160         3.4330
  37   0.0000       0.131522         3.5789
  38   0.0000       0.135293         3.6815
  39   0.0000       0.155981         4.2445

MULLIKEN ATOMIC CHARGES
-----------------------
   0 O :   -0.467324
   1 C :    0.037167
   2 C :   -0.306157
   3 C :   -0.121267
   4 C :    0.088974
   5 O :   -0.261512
   6 C :   -0.169232
   7 C :    0.109831
   8 O :   -0.259144
   9 H :    0.321049
  10 H :    0.103905
  11 H :    0.119857
  12 H :    0.131712
  13 H :    0.122021
  14 H :    0.143927
  15 H :    0.069371
  16 H :    0.136210
  17 H :    0.125137
  18 H :    0.075475
Sum of atomic charges:    0.0000000

LOEWDIN ATOMIC CHARGES
----------------------
   0 O :   -0.008513
   1 C :   -0.348918
   2 C :   -0.250643
   3 C :   -0.260257
   4 C :   -0.299457
   5 O :    0.132387
   6 C :   -0.254107
   7 C :   -0.293037
   8 O :    0.135398
   9 H :    0.180732
  10 H :    0.150179
  11 H :    0.140751
  12 H :    0.146595
  13 H :    0.146101
  14 H :    0.157754
  15 H :    0.108522
  16 H :    0.157067
  17 H :    0.146823
  18 H :    0.112623

  Mayer bond orders larger than 0.1
B(  0-O ,  1-C ) :   0.8899 B(  0-O ,  9-H ) :   0.8369 B(  1-C ,  2-C ) :   0.9306
B(  1-C ,  6-C ) :   0.9286 B(  1-C , 10-H ) :   0.9240 B(  2-C ,  3-C ) :   0.8978
B(  2-C , 11-H ) :   0.9248 B(  2-C , 12-H ) :   0.9225 B(  3-C ,  4-C ) :   0.8711
B(  3-C , 13-H ) :   0.9010 B(  3-C , 14-H ) :   0.9116 B(  4-C ,  5-O ) :   2.0067
B(  4-C , 15-H ) :   0.9409 B(  6-C ,  7-C ) :   0.8741 B(  6-C , 16-H ) :   0.9092
B(  6-C , 17-H ) :   0.8918 B(  7-C ,  8-O ) :   2.0005 B(  7-C , 18-H ) :   0.9356

MP2 TOTAL ENERGY:     -459.439775867 Eh
FINAL SINGLE POINT ENERGY      -459.439775867134

DIPOLE MOMENT
-------------
                                X             Y             Z
Electronic contribution:     -0.24567       1.19368       0.62964
Nuclear contribution   :      0.55543      -1.50179      -0.46076
                        -----------------------------------------
Total Dipole Moment    :      0.30977      -0.30811       0.16889
                        -----------------------------------------
Magnitude (a.u.)       :      0.46841
Magnitude (Debye)      :      1.19060

                             ****ORCA TERMINATED NORMALLY****
TOTAL RUN TIME: 0 days 0 hours 15 minutes 16 seconds 991 msec
