                         Program Version 3.0.3 - RELEASE   -
|  1> ! RI-MP2 RIJK def2-TZVP def2-TZVP/C def2-TZVP/JK TIGHTSCF
|  2> % maxcore 2000
|  3> % mp2 density relaxed end
|  4> *xyz 0 1
|  5>  C        0.7938725770     1.2589974402     0.0757623339
|  6>  N        0.1876375340    -0.0666380955     0.0220079460
|  7>  C       -0.5474335864    -0.5122002558     1.0922162764
|  8>  O       -0.6249127568     0.0404271778     2.1662142695
|  9>  C        0.0677482013    -0.7082740206    -1.2480248883
| 10>  C        1.3385773810    -1.1812544754    -1.9517077385
| 11>  C        0.4133838561    -2.1912019953    -1.3703611138
| 12>  C       -1.0242084566    -0.2191235594    -2.1415503584
| 13>  O       -1.8091262884     0.6440048778    -1.8457813669
| 14>  H        1.8241614723     1.2231883850    -0.2914572567
| 15>  H        0.2220129296     1.9724894393    -0.5261710728
| 16>  H        0.7859330853     1.5807314528     1.1167458176
| 17>  H       -1.0544349471    -1.4694462421     0.8683925649
| 18>  H        1.3853102099    -1.0690076005    -3.0293184859
| 19>  H        2.2650332751    -0.9768217120    -1.4291479260
| 20>  H        0.7063237678    -2.6838964620    -0.4519450207
| 21>  H       -0.1963728239    -2.7914191703    -2.0368517407
| 22>  H       -1.0578647103    -0.7272377041    -3.1338656095
| 23> *
| 24>
| 25>                          ****END OF INPUT****

CARTESIAN COORDINATES (ANGSTROEM)
---------------------------------
  C      0.793873    1.258997    0.075762
  N      0.187638   -0.066638    0.022008
  C     -0.547434   -0.512200    1.092216
  O     -0.624913    0.040427    2.166214
  C      0.067748   -0.708274   -1.248025
  C      1.338577   -1.181254   -1.951708
  C      0.413384   -2.191202   -1.370361
  C     -1.024208   -0.219124   -2.141550
  O     -1.809126    0.644005   -1.845781
  H      1.824161    1.223188   -0.291457
  H      0.222013    1.972489   -0.526171
  H      0.785933    1.580731    1.116746
  H     -1.054435   -1.469446    0.868393
  H      1.385310   -1.069008   -3.029318
  H      2.265033   -0.976822   -1.429148
  H      0.706324   -2.683896   -0.451945
  H     -0.196373   -2.791419   -2.036852
  H     -1.057865   -0.727238   -3.133866

 Total Charge           Charge          ....    0
 Multiplicity           Mult            ....    1
 Number of Electrons    NEL             ....   68
 Basis Dimension        Dim             ....  333

ORBITAL ENERGIES
----------------

  NO   OCC          E(Eh)            E(eV)
   0   2.0000     -20.568892      -559.7080
   1   2.0000     -20.525357      -558.5233
   2   2.0000     -15.597585      -424.4319
   3   2.0000     -11.348883      -308.8188
   4   2.0000     -11.347662      -308.7856
   5   2.0000     -11.308104      -307.7092
   6   2.0000     -11.273511      -306.7678
   7   2.0000     -11.271317      -306.7081
   8   2.0000     -11.257402      -306.3295
   9   2.0000      -1.411481       -38.4083
  10   2.0000      -1.386526       -37.7293
  11   2.0000      -1.274159       -34.6716
  12   2.0000      -1.163250       -31.6536
  13   2.0000      -0.968135       -26.3443
  14   2.0000      -0.935999       -25.4698
  15   2.0000      -0.868145       -23.6234
  16   2.0000      -0.840728       -22.8774
  17   2.0000      -0.764234       -20.7959
  18   2.0000      -0.720918       -19.6172
  19   2.0000      -0.710307       -19.3284
  20   2.0000      -0.671205       -18.2644
  21   2.0000      -0.650555       -17.7025
  22   2.0000      -0.632392       -17.2083
  23   2.0000      -0.615124       -16.7384
  24   2.0000      -0.591155       -16.0861
  25   2.0000      -0.569674       -15.5016
  26   2.0000      -0.557858       -15.1801
  27   2.0000      -0.545881       -14.8542
  28   2.0000      -0.534624       -14.5479
  29   2.0000      -0.495719       -13.4892
  30   2.0000      -0.451863       -12.2958
  31   2.0000      -0.449260       -12.2250
  32   2.0000      -0.427526       -11.6336
  33   2.0000      -0.382614       -10.4115
  34   0.0000       0.112259         3.0547
  35   0.0000       0.129738         3.5304
  36   0.0000       0.146642         3.9903
  37   0.0000       0.150545         4.0965
  38   0.0000       0.165073         4.4919

MULLIKEN ATOMIC CHARGES
-----------------------
   0 C :   -0.335395
   1 N :   -0.063638
   2 C :    0.137789
   3 O :   -0.346717
   4 C :    0.071998
   5 C :   -0.262421
   6 C :   -0.280760
   7 C :    0.069138
   8 O :   -0.259799
   9 H :    0.127832
  10 H :    0.156328
  11 H :    0.179810
  12 H :    0.093852
  13 H :    0.153662
  14 H :    0.157385
  15 H :    0.167187
  16 H :    0.155023
  17 H :    0.078727
Sum of atomic charges:   -0.0000000

LOEWDIN ATOMIC CHARGES
----------------------
   0 C :   -0.274776
   1 N :    0.186266
   2 C :   -0.397302
   3 O :    0.070720
   4 C :   -0.277219
   5 C :   -0.185625
   6 C :   -0.185585
   7 C :   -0.271627
   8 O :    0.146344
   9 H :    0.115984
  10 H :    0.123383
  11 H :    0.135559
  12 H :    0.119350
  13 H :    0.140648
  14 H :    0.145551
  15 H :    0.146084
  16 H :    0.141210
  17 H :    0.121034

  Mayer bond orders larger than 0.1
B(  0-C ,  1-N ) :   0.8556 B(  0-C ,  9-H ) :   0.9335 B(  0-C , 10-H ) :   0.9287
B(  0-C , 11-H ) :   0.9184 B(  1-N ,  2-C ) :   1.0883 B(  1-N ,  4-C ) :   0.9347
B(  2-C ,  3-O ) :   1.9162 B(  2-C , 12-H ) :   0.9302 B(  4-C ,  5-C ) :   0.8298
B(  4-C ,  6-C ) :   0.8344 B(  4-C ,  7-C ) :   0.8904 B(  5-C ,  6-C ) :   0.9101
B(  5-C , 13-H ) :   0.9243 B(  5-C , 14-H ) :   0.9223 B(  6-C , 15-H ) :   0.9208
B(  6-C , 16-H ) :   0.9259 B(  7-C ,  8-O ) :   2.0034 B(  7-C , 17-H ) :   0.9329

MP2 TOTAL ENERGY:     -438.375405958 Eh
FINAL SINGLE POINT ENERGY      -438.375405957653

DIPOLE MOMENT
-------------
                                X             Y             Z
Electronic contribution:     -4.63825       1.14545       2.21771
Nuclear contribution   :      5.80247      -2.11611      -3.68065
                        -----------------------------------------
Total Dipole Moment    :      1.16422      -0.97066      -1.46294
                        -----------------------------------------
Magnitude (a.u.)       :      2.10661
Magnitude (Debye)      :      5.35458

                             ****ORCA TERMINATED NORMALLY****
TOTAL RUN TIME: 0 days 0 hours 18 minutes 26 seconds 458 msec
