                         Program Version 3.0.3 - RELEASE   -
|  1> ! RI-MP2 RIJK def2-TZVP def2-TZVP/C def2-TZVP/JK TIGHTSCF
|  2> % maxcore 2000
|  3> % mp2 density relaxed end
|  4> *xyz 0 1
|  5>  C       -0.1469145817     1.4222681633     0.1030816812
|  6>  N       -0.0313221137    -0.0098385305     0.2434381825
|  7>  C       -1.1302399198    -0.8977192995    -0.0717270763
|  8>  C       -0.4972261977    -2.2831526454     0.1413865648
|  9>  N        0.9272763578    -2.0139232086    -0.0288680929
| 10>  C        1.8442984296    -3.0494607161    -0.1125356484
| 11>  N        3.1034756175    -2.9024802307    -0.1610410566
| 12>  C        1.1996674784    -0.6326161431     0.0983793283
| 13>  O        2.2753176728    -0.0908346933     0.0931933293
| 14>  H        0.8446298173     1.8510962426     0.2553859970
| 15>  H       -0.5071529851     1.7063571966    -0.8969019951
| 16>  H       -0.8385786025     1.8299998529     0.8481730370
| 17>  H       -1.9891410568    -0.7330257125     0.5864583973
| 18>  H       -1.4707432722    -0.7624573432    -1.1111464191
| 19>  H       -0.7083505566    -2.6594492015     1.1508313896
| 20>  H       -0.8555628565    -3.0193421559    -0.5827841679
| 21>  H        1.3213339869    -4.0154625613    -0.1433387772
| 22>  H        3.5475009725    -3.8162934138    -0.2351155035
| 23> *
| 24>
| 25>                          ****END OF INPUT****

CARTESIAN COORDINATES (ANGSTROEM)
---------------------------------
  C     -0.146915    1.422268    0.103082
  N     -0.031322   -0.009839    0.243438
  C     -1.130240   -0.897719   -0.071727
  C     -0.497226   -2.283153    0.141387
  N      0.927276   -2.013923   -0.028868
  C      1.844298   -3.049461   -0.112536
  N      3.103476   -2.902480   -0.161041
  C      1.199667   -0.632616    0.098379
  O      2.275318   -0.090835    0.093193
  H      0.844630    1.851096    0.255386
  H     -0.507153    1.706357   -0.896902
  H     -0.838579    1.830000    0.848173
  H     -1.989141   -0.733026    0.586458
  H     -1.470743   -0.762457   -1.111146
  H     -0.708351   -2.659449    1.150831
  H     -0.855563   -3.019342   -0.582784
  H      1.321334   -4.015463   -0.143339
  H      3.547501   -3.816293   -0.235116

 Total Charge           Charge          ....    0
 Multiplicity           Mult            ....    1
 Number of Electrons    NEL             ....   68
 Basis Dimension        Dim             ....  333

ORBITAL ENERGIES
----------------

  NO   OCC          E(Eh)            E(eV)
   0   2.0000     -20.512170      -558.1645
   1   2.0000     -15.601631      -424.5420
   2   2.0000     -15.584812      -424.0843
   3   2.0000     -15.534826      -422.7241
   4   2.0000     -11.375041      -309.5306
   5   2.0000     -11.320605      -308.0493
   6   2.0000     -11.292351      -307.2805
   7   2.0000     -11.286924      -307.1328
   8   2.0000     -11.259809      -306.3950
   9   2.0000      -1.401018       -38.1236
  10   2.0000      -1.302561       -35.4445
  11   2.0000      -1.246493       -33.9188
  12   2.0000      -1.172213       -31.8975
  13   2.0000      -1.029666       -28.0186
  14   2.0000      -0.967748       -26.3337
  15   2.0000      -0.892569       -24.2880
  16   2.0000      -0.848958       -23.1013
  17   2.0000      -0.733103       -19.9487
  18   2.0000      -0.713910       -19.4265
  19   2.0000      -0.694784       -18.9060
  20   2.0000      -0.672426       -18.2976
  21   2.0000      -0.653860       -17.7924
  22   2.0000      -0.617813       -16.8115
  23   2.0000      -0.601031       -16.3549
  24   2.0000      -0.599598       -16.3159
  25   2.0000      -0.583320       -15.8729
  26   2.0000      -0.557292       -15.1647
  27   2.0000      -0.542360       -14.7584
  28   2.0000      -0.525566       -14.3014
  29   2.0000      -0.483547       -13.1580
  30   2.0000      -0.455837       -12.4039
  31   2.0000      -0.410193       -11.1619
  32   2.0000      -0.388868       -10.5816
  33   2.0000      -0.360060        -9.7977
  34   0.0000       0.120868         3.2890
  35   0.0000       0.140610         3.8262
  36   0.0000       0.144481         3.9315
  37   0.0000       0.155499         4.2314
  38   0.0000       0.173337         4.7167

MULLIKEN ATOMIC CHARGES
-----------------------
   0 C :   -0.324615
   1 N :   -0.139926
   2 C :   -0.145053
   3 C :   -0.165286
   4 N :   -0.067469
   5 C :   -0.031772
   6 N :   -0.331601
   7 C :    0.268985
   8 O :   -0.320917
   9 H :    0.180771
  10 H :    0.124287
  11 H :    0.135738
  12 H :    0.132881
  13 H :    0.109247
  14 H :    0.124296
  15 H :    0.137107
  16 H :    0.095681
  17 H :    0.217644
Sum of atomic charges:   -0.0000000

LOEWDIN ATOMIC CHARGES
----------------------
   0 C :   -0.294915
   1 N :    0.148021
   2 C :   -0.247581
   3 C :   -0.235291
   4 N :    0.197601
   5 C :   -0.329869
   6 N :   -0.067396
   7 C :   -0.468506
   8 O :    0.115607
   9 H :    0.137734
  10 H :    0.114199
  11 H :    0.117769
  12 H :    0.133557
  13 H :    0.127561
  14 H :    0.132398
  15 H :    0.134367
  16 H :    0.120209
  17 H :    0.164535

  Mayer bond orders larger than 0.1
B(  0-C ,  1-N ) :   0.8916 B(  0-C ,  9-H ) :   0.9225 B(  0-C , 10-H ) :   0.9311
B(  0-C , 11-H ) :   0.9333 B(  1-N ,  2-C ) :   0.9114 B(  1-N ,  7-C ) :   1.1169
B(  2-C ,  3-C ) :   0.9535 B(  2-C , 12-H ) :   0.9329 B(  2-C , 13-H ) :   0.9120
B(  3-C ,  4-N ) :   0.9048 B(  3-C , 14-H ) :   0.9159 B(  3-C , 15-H ) :   0.9272
B(  4-N ,  5-C ) :   1.0122 B(  4-N ,  7-C ) :   0.9920 B(  5-C ,  6-N ) :   1.9673
B(  5-C , 16-H ) :   0.9249 B(  6-N , 17-H ) :   0.8516 B(  7-C ,  8-O ) :   1.9885

MP2 TOTAL ENERGY:     -434.583281203 Eh
FINAL SINGLE POINT ENERGY      -434.583281203173

DIPOLE MOMENT
-------------
                                X             Y             Z
Electronic contribution:      5.53148      -1.45126       0.31015
Nuclear contribution   :     -7.69254       0.64572      -0.38651
                        -----------------------------------------
Total Dipole Moment    :     -2.16106      -0.80554      -0.07636
                        -----------------------------------------
Magnitude (a.u.)       :      2.30757
Magnitude (Debye)      :      5.86539

                             ****ORCA TERMINATED NORMALLY****
TOTAL RUN TIME: 0 days 0 hours 16 minutes 17 seconds 976 msec
