                         Program Version 3.0.3 - RELEASE   -
|  1> ! RI-MP2 RIJK def2-TZVP def2-TZVP/C def2-TZVP/JK TIGHTSCF
|  2> % maxcore 2000
|  3> % mp2 density relaxed end
|  4> *xyz 0 1
|  5>  C        0.0376884349     1.4537046609    -0.0065221325
|  6>  N       -0.0016974517    -0.0004019498    -0.0011530009
|  7>  C       -0.0480945536    -0.6809597037     1.2017937972
|  8>  O       -0.0581793942    -0.1355576533     2.2827505243
|  9>  C        0.0081220188    -0.6611218066    -1.2221795716
| 10>  C        0.0499908489    -0.1302882245    -2.4752745581
| 11>  O        0.0422491809    -1.1820534067    -3.3621437336
| 12>  C       -0.0037026890    -2.2764511824    -2.5870428661
| 13>  N       -0.0260745930    -2.0455121431    -1.3144722902
| 14>  H        0.9493722053     1.8116943973    -0.4977390283
| 15>  H       -0.8318649676     1.8600736640    -0.5351191741
| 16>  H        0.0247434347     1.7834312893     1.0311815763
| 17>  H       -0.0743622696    -1.7695931257     1.0573877281
| 18>  H        0.0850881410     0.8580772080    -2.8932405358
| 19>  H       -0.0176077060    -3.2329394139    -3.0853460846
| 20> *
| 21>
| 22>                          ****END OF INPUT****

CARTESIAN COORDINATES (ANGSTROEM)
---------------------------------
  C      0.037688    1.453705   -0.006522
  N     -0.001697   -0.000402   -0.001153
  C     -0.048095   -0.680960    1.201794
  O     -0.058179   -0.135558    2.282751
  C      0.008122   -0.661122   -1.222180
  C      0.049991   -0.130288   -2.475275
  O      0.042249   -1.182053   -3.362144
  C     -0.003703   -2.276451   -2.587043
  N     -0.026075   -2.045512   -1.314472
  H      0.949372    1.811694   -0.497739
  H     -0.831865    1.860074   -0.535119
  H      0.024743    1.783431    1.031182
  H     -0.074362   -1.769593    1.057388
  H      0.085088    0.858077   -2.893241
  H     -0.017608   -3.232939   -3.085346

 Total Charge           Charge          ....    0
 Multiplicity           Mult            ....    1
 Number of Electrons    NEL             ....   66
 Basis Dimension        Dim             ....  315

ORBITAL ENERGIES
----------------

  NO   OCC          E(Eh)            E(eV)
   0   2.0000     -20.652987      -561.9963
   1   2.0000     -20.534086      -558.7609
   2   2.0000     -15.615095      -424.9083
   3   2.0000     -15.585598      -424.1057
   4   2.0000     -11.358170      -309.0715
   5   2.0000     -11.355147      -308.9893
   6   2.0000     -11.325708      -308.1882
   7   2.0000     -11.296433      -307.3916
   8   2.0000     -11.271196      -306.7048
   9   2.0000      -1.503908       -40.9234
  10   2.0000      -1.396168       -37.9917
  11   2.0000      -1.297812       -35.3153
  12   2.0000      -1.233356       -33.5613
  13   2.0000      -1.045765       -28.4567
  14   2.0000      -0.981560       -26.7096
  15   2.0000      -0.886364       -24.1192
  16   2.0000      -0.838945       -22.8289
  17   2.0000      -0.796531       -21.6747
  18   2.0000      -0.770336       -20.9619
  19   2.0000      -0.699567       -19.0362
  20   2.0000      -0.685204       -18.6453
  21   2.0000      -0.654192       -17.8015
  22   2.0000      -0.642497       -17.4832
  23   2.0000      -0.638531       -17.3753
  24   2.0000      -0.604568       -16.4511
  25   2.0000      -0.591304       -16.0902
  26   2.0000      -0.561771       -15.2866
  27   2.0000      -0.547968       -14.9110
  28   2.0000      -0.494804       -13.4643
  29   2.0000      -0.494404       -13.4534
  30   2.0000      -0.436998       -11.8913
  31   2.0000      -0.425012       -11.5652
  32   2.0000      -0.329575        -8.9682
  33   0.0000       0.121892         3.3168
  34   0.0000       0.133772         3.6401
  35   0.0000       0.147989         4.0270
  36   0.0000       0.166081         4.5193
  37   0.0000       0.179452         4.8831

MULLIKEN ATOMIC CHARGES
-----------------------
   0 C :   -0.361019
   1 N :   -0.082002
   2 C :    0.138744
   3 O :   -0.346567
   4 C :    0.185482
   5 C :   -0.106145
   6 O :   -0.189410
   7 C :    0.114665
   8 N :   -0.312884
   9 H :    0.145551
  10 H :    0.145590
  11 H :    0.190628
  12 H :    0.138119
  13 H :    0.172273
  14 H :    0.166976
Sum of atomic charges:    0.0000000

LOEWDIN ATOMIC CHARGES
----------------------
   0 C :   -0.270865
   1 N :    0.186136
   2 C :   -0.371760
   3 O :    0.074816
   4 C :   -0.299954
   5 C :   -0.237708
   6 O :    0.338990
   7 C :   -0.324795
   8 N :    0.119093
   9 H :    0.121942
  10 H :    0.121927
  11 H :    0.138588
  12 H :    0.129222
  13 H :    0.138026
  14 H :    0.136342

  Mayer bond orders larger than 0.1
B(  0-C ,  1-N ) :   0.8542 B(  0-C ,  9-H ) :   0.9304 B(  0-C , 10-H ) :   0.9304
B(  0-C , 11-H ) :   0.9160 B(  1-N ,  2-C ) :   1.0641 B(  1-N ,  4-C ) :   1.0441
B(  2-C ,  3-O ) :   1.9021 B(  2-C , 12-H ) :   0.9258 B(  4-C ,  5-C ) :   1.5322
B(  4-C ,  8-N ) :   1.1439 B(  5-C ,  6-O ) :   1.0057 B(  5-C , 13-H ) :   0.9150
B(  6-O ,  7-C ) :   1.1082 B(  7-C ,  8-N ) :   1.6189 B(  7-C , 14-H ) :   0.9247

MP2 TOTAL ENERGY:     -453.250399397 Eh
FINAL SINGLE POINT ENERGY      -453.250399396971

DIPOLE MOMENT
-------------
                                X             Y             Z
Electronic contribution:     -0.08295      -4.28023      -1.42547
Nuclear contribution   :      0.12566       4.61486      -0.06582
                        -----------------------------------------
Total Dipole Moment    :      0.04271       0.33463      -1.49128
                        -----------------------------------------
Magnitude (a.u.)       :      1.52896
Magnitude (Debye)      :      3.88632

                             ****ORCA TERMINATED NORMALLY****
TOTAL RUN TIME: 0 days 0 hours 14 minutes 39 seconds 541 msec
