                         Program Version 3.0.3 - RELEASE   -
|  1> ! RI-MP2 RIJK def2-TZVP def2-TZVP/C def2-TZVP/JK TIGHTSCF
|  2> % maxcore 2000
|  3> % mp2 density relaxed end
|  4> *xyz 0 1
|  5>  C        0.4498628991     1.0771838190    -0.0945882611
|  6>  C        0.1419199511    -0.3429464634    -0.0232573947
|  7>  C       -0.1231774296    -1.5162963436     0.0259294257
|  8>  C       -0.4417186994    -2.9385774761     0.1033205594
|  9>  C       -1.9465590468    -3.2320356053    -0.0043493726
| 10>  O       -2.4803137242    -2.8151107533    -1.2352890541
| 11>  O        0.1376671562    -3.6874659839    -0.9886532679
| 12>  C        1.4854334925    -3.7087487304    -1.0764067043
| 13>  N        2.0371332815    -4.3702407828    -1.9975036126
| 14>  H        1.0847241667     1.2962079525    -0.9598619527
| 15>  H       -0.4632543400     1.6737249934    -0.1933579370
| 16>  H        0.9786825584     1.4172311801     0.8022695816
| 17>  H       -0.0732096274    -3.3547488817     1.0524928160
| 18>  H       -2.0866013215    -4.3110806069     0.1634773299
| 19>  H       -2.4741990826    -2.6873131395     0.7834815466
| 20>  H       -1.9446675350    -3.2285123508    -1.9228939896
| 21>  H        1.9846369132    -3.1169673640    -0.2999524612
| 22>  H        3.0492610978    -4.2900221132    -1.9239154615
| 23> *
| 24>
| 25>                          ****END OF INPUT****

CARTESIAN COORDINATES (ANGSTROEM)
---------------------------------
  C      0.449863    1.077184   -0.094588
  C      0.141920   -0.342946   -0.023257
  C     -0.123177   -1.516296    0.025929
  C     -0.441719   -2.938577    0.103321
  C     -1.946559   -3.232036   -0.004349
  O     -2.480314   -2.815111   -1.235289
  O      0.137667   -3.687466   -0.988653
  C      1.485433   -3.708749   -1.076407
  N      2.037133   -4.370241   -1.997504
  H      1.084724    1.296208   -0.959862
  H     -0.463254    1.673725   -0.193358
  H      0.978683    1.417231    0.802270
  H     -0.073210   -3.354749    1.052493
  H     -2.086601   -4.311081    0.163477
  H     -2.474199   -2.687313    0.783482
  H     -1.944668   -3.228512   -1.922894
  H      1.984637   -3.116967   -0.299952
  H      3.049261   -4.290022   -1.923915

 Total Charge           Charge          ....    0
 Multiplicity           Mult            ....    1
 Number of Electrons    NEL             ....   68
 Basis Dimension        Dim             ....  333

ORBITAL ENERGIES
----------------

  NO   OCC          E(Eh)            E(eV)
   0   2.0000     -20.601585      -560.5976
   1   2.0000     -20.557576      -559.4001
   2   2.0000     -15.543960      -422.9727
   3   2.0000     -11.341584      -308.6202
   4   2.0000     -11.330118      -308.3082
   5   2.0000     -11.290434      -307.2283
   6   2.0000     -11.257873      -306.3423
   7   2.0000     -11.245526      -306.0063
   8   2.0000     -11.230843      -305.6068
   9   2.0000      -1.437191       -39.1080
  10   2.0000      -1.365933       -37.1689
  11   2.0000      -1.203723       -32.7550
  12   2.0000      -1.085504       -29.5381
  13   2.0000      -1.037137       -28.2219
  14   2.0000      -0.961119       -26.1534
  15   2.0000      -0.876871       -23.8609
  16   2.0000      -0.838633       -22.8204
  17   2.0000      -0.742665       -20.2089
  18   2.0000      -0.720795       -19.6138
  19   2.0000      -0.691890       -18.8273
  20   2.0000      -0.657399       -17.8887
  21   2.0000      -0.642240       -17.4762
  22   2.0000      -0.622833       -16.9481
  23   2.0000      -0.598801       -16.2942
  24   2.0000      -0.597913       -16.2700
  25   2.0000      -0.596081       -16.2202
  26   2.0000      -0.561503       -15.2793
  27   2.0000      -0.549837       -14.9618
  28   2.0000      -0.508251       -13.8302
  29   2.0000      -0.460353       -12.5268
  30   2.0000      -0.442812       -12.0495
  31   2.0000      -0.411201       -11.1893
  32   2.0000      -0.392277       -10.6744
  33   2.0000      -0.383895       -10.4463
  34   0.0000       0.123750         3.3674
  35   0.0000       0.135986         3.7004
  36   0.0000       0.153074         4.1654
  37   0.0000       0.163149         4.4395
  38   0.0000       0.166777         4.5382

MULLIKEN ATOMIC CHARGES
-----------------------
   0 C :   -0.485448
   1 C :    0.080635
   2 C :   -0.014443
   3 C :   -0.141342
   4 C :    0.018303
   5 O :   -0.473908
   6 O :   -0.232990
   7 C :    0.064898
   8 N :   -0.340784
   9 H :    0.167767
  10 H :    0.170959
  11 H :    0.164032
  12 H :    0.133312
  13 H :    0.118213
  14 H :    0.113702
  15 H :    0.334649
  16 H :    0.095732
  17 H :    0.226714
Sum of atomic charges:   -0.0000000

LOEWDIN ATOMIC CHARGES
----------------------
   0 C :   -0.288927
   1 C :   -0.081990
   2 C :   -0.073616
   3 C :   -0.306249
   4 C :   -0.318844
   5 O :   -0.025838
   6 O :    0.248003
   7 C :   -0.392958
   8 N :   -0.078236
   9 H :    0.144592
  10 H :    0.144937
  11 H :    0.142025
  12 H :    0.158483
  13 H :    0.124759
  14 H :    0.136644
  15 H :    0.182499
  16 H :    0.115728
  17 H :    0.168988

  Mayer bond orders larger than 0.1
B(  0-C ,  1-C ) :   0.8485 B(  0-C ,  9-H ) :   0.9408 B(  0-C , 10-H ) :   0.9469
B(  0-C , 11-H ) :   0.9496 B(  1-C ,  2-C ) :   2.7119 B(  2-C ,  3-C ) :   1.0076
B(  3-C ,  4-C ) :   0.9227 B(  3-C ,  5-O ) :   0.1354 B(  3-C ,  6-O ) :   0.8803
B(  3-C , 12-H ) :   0.9804 B(  4-C ,  5-O ) :   0.9521 B(  4-C , 13-H ) :   0.9285
B(  4-C , 14-H ) :   0.9223 B(  5-O , 15-H ) :   0.8273 B(  6-O ,  7-C ) :   1.0438
B(  7-C ,  8-N ) :   1.9588 B(  7-C , 16-H ) :   0.9301 B(  8-N , 17-H ) :   0.8508

MP2 TOTAL ENERGY:     -438.318948606 Eh
FINAL SINGLE POINT ENERGY      -438.318948605865

DIPOLE MOMENT
-------------
                                X             Y             Z
Electronic contribution:     -0.21602      -4.18233      -1.74606
Nuclear contribution   :      0.96918       4.97983       2.87531
                        -----------------------------------------
Total Dipole Moment    :      0.75316       0.79751       1.12925
                        -----------------------------------------
Magnitude (a.u.)       :      1.57432
Magnitude (Debye)      :      4.00159

                             ****ORCA TERMINATED NORMALLY****
TOTAL RUN TIME: 0 days 0 hours 14 minutes 11 seconds 350 msec
