                         Program Version 3.0.3 - RELEASE   -
|  1> ! RI-MP2 RIJK def2-TZVP def2-TZVP/C def2-TZVP/JK TIGHTSCF
|  2> % maxcore 2000
|  3> % mp2 density relaxed end
|  4> *xyz 0 1
|  5>  C        0.1451034631     1.4366279843    -0.2709802732
|  6>  C        0.0466185832    -0.0339142372     0.1506227764
|  7>  O        0.5912056793    -0.2307677019     1.4542868207
|  8>  C       -1.3602213864    -0.5671474538     0.0657968718
|  9>  C       -2.0840314104    -1.1565678610     1.0821593200
| 10>  N       -3.3013621380    -1.4589816268     0.5787277127
| 11>  N       -3.4277789087    -1.1292253566    -0.7294909981
| 12>  C       -2.2557625876    -0.5851585843    -1.0411660457
| 13>  N       -2.0306942392    -0.0597276205    -2.3212368346
| 14>  H        1.1859914942     1.7702904053    -0.2358625696
| 15>  H       -0.2511522940     1.5865263399    -1.2787954643
| 16>  H       -0.4489101222     2.0617294070     0.4068117199
| 17>  H        0.7032215325    -0.6264260974    -0.5024300079
| 18>  H        0.1608528790     0.4044467092     2.0378766744
| 19>  H       -1.8082768126    -1.3821268773     2.0994372384
| 20>  H       -4.0753547349    -1.8955578050     1.0464481308
| 21>  H       -2.7912783275    -0.3090452258    -2.9428150333
| 22>  H       -1.1532432697    -0.3676902480    -2.7228436882
| 23> *
| 24>
| 25>                          ****END OF INPUT****

CARTESIAN COORDINATES (ANGSTROEM)
---------------------------------
  C      0.145103    1.436628   -0.270980
  C      0.046619   -0.033914    0.150623
  O      0.591206   -0.230768    1.454287
  C     -1.360221   -0.567147    0.065797
  C     -2.084031   -1.156568    1.082159
  N     -3.301362   -1.458982    0.578728
  N     -3.427779   -1.129225   -0.729491
  C     -2.255763   -0.585159   -1.041166
  N     -2.030694   -0.059728   -2.321237
  H      1.185991    1.770290   -0.235863
  H     -0.251152    1.586526   -1.278795
  H     -0.448910    2.061729    0.406812
  H      0.703222   -0.626426   -0.502430
  H      0.160853    0.404447    2.037877
  H     -1.808277   -1.382127    2.099437
  H     -4.075355   -1.895558    1.046448
  H     -2.791278   -0.309045   -2.942815
  H     -1.153243   -0.367690   -2.722844

 Total Charge           Charge          ....    0
 Multiplicity           Mult            ....    1
 Number of Electrons    NEL             ....   68
 Basis Dimension        Dim             ....  333

ORBITAL ENERGIES
----------------

  NO   OCC          E(Eh)            E(eV)
   0   2.0000     -20.557714      -559.4039
   1   2.0000     -15.625627      -425.1949
   2   2.0000     -15.569615      -423.6708
   3   2.0000     -15.562130      -423.4671
   4   2.0000     -11.290442      -307.2285
   5   2.0000     -11.287858      -307.1582
   6   2.0000     -11.273515      -306.7679
   7   2.0000     -11.217259      -305.2371
   8   2.0000     -11.215756      -305.1962
   9   2.0000      -1.369012       -37.2527
  10   2.0000      -1.361688       -37.0534
  11   2.0000      -1.211252       -32.9598
  12   2.0000      -1.074157       -29.2293
  13   2.0000      -1.061847       -28.8943
  14   2.0000      -0.996007       -27.1027
  15   2.0000      -0.868271       -23.6269
  16   2.0000      -0.807088       -21.9620
  17   2.0000      -0.773872       -21.0581
  18   2.0000      -0.741413       -20.1749
  19   2.0000      -0.673100       -18.3160
  20   2.0000      -0.662173       -18.0187
  21   2.0000      -0.633916       -17.2497
  22   2.0000      -0.623377       -16.9629
  23   2.0000      -0.605504       -16.4766
  24   2.0000      -0.602358       -16.3910
  25   2.0000      -0.562599       -15.3091
  26   2.0000      -0.537121       -14.6158
  27   2.0000      -0.527408       -14.3515
  28   2.0000      -0.493734       -13.4352
  29   2.0000      -0.476869       -12.9763
  30   2.0000      -0.470037       -12.7904
  31   2.0000      -0.440159       -11.9773
  32   2.0000      -0.339404        -9.2356
  33   2.0000      -0.321522        -8.7491
  34   0.0000       0.130899         3.5619
  35   0.0000       0.136475         3.7137
  36   0.0000       0.146608         3.9894
  37   0.0000       0.159182         4.3316
  38   0.0000       0.179238         4.8773

MULLIKEN ATOMIC CHARGES
-----------------------
   0 C :   -0.382349
   1 C :    0.090583
   2 O :   -0.473765
   3 C :   -0.072354
   4 C :   -0.132358
   5 N :   -0.119482
   6 N :   -0.223850
   7 C :    0.142249
   8 N :   -0.547940
   9 H :    0.140074
  10 H :    0.141870
  11 H :    0.114418
  12 H :    0.103746
  13 H :    0.311278
  14 H :    0.153130
  15 H :    0.254160
  16 H :    0.249345
  17 H :    0.251246
Sum of atomic charges:   -0.0000000

LOEWDIN ATOMIC CHARGES
----------------------
   0 C :   -0.295631
   1 C :   -0.334359
   2 O :   -0.016578
   3 C :   -0.176371
   4 C :   -0.226541
   5 N :    0.120646
   6 N :    0.019082
   7 C :   -0.357979
   8 N :   -0.095184
   9 H :    0.123411
  10 H :    0.129528
  11 H :    0.123391
  12 H :    0.149303
  13 H :    0.174614
  14 H :    0.139003
  15 H :    0.185641
  16 H :    0.171046
  17 H :    0.166978

  Mayer bond orders larger than 0.1
B(  0-C ,  1-C ) :   0.9649 B(  0-C ,  9-H ) :   0.9368 B(  0-C , 10-H ) :   0.9198
B(  0-C , 11-H ) :   0.9204 B(  1-C ,  2-O ) :   0.9195 B(  1-C ,  3-C ) :   0.8978
B(  1-C , 12-H ) :   0.9104 B(  2-O , 13-H ) :   0.8429 B(  3-C ,  4-C ) :   1.4192
B(  3-C ,  7-C ) :   1.2481 B(  4-C ,  5-N ) :   1.2225 B(  4-C ,  6-N ) :   0.1075
B(  4-C , 14-H ) :   0.9000 B(  5-N ,  6-N ) :   1.0498 B(  5-N , 15-H ) :   0.8768
B(  6-N ,  7-C ) :   1.5890 B(  7-C ,  8-N ) :   1.0006 B(  8-N , 16-H ) :   0.8776
B(  8-N , 17-H ) :   0.8698

MP2 TOTAL ENERGY:     -434.570920582 Eh
FINAL SINGLE POINT ENERGY      -434.570920581652

DIPOLE MOMENT
-------------
                                X             Y             Z
Electronic contribution:     -4.71243      -4.58958       1.29317
Nuclear contribution   :      4.53395       4.50763      -1.04643
                        -----------------------------------------
Total Dipole Moment    :     -0.17848      -0.08194       0.24674
                        -----------------------------------------
Magnitude (a.u.)       :      0.31536
Magnitude (Debye)      :      0.80158

                             ****ORCA TERMINATED NORMALLY****
TOTAL RUN TIME: 0 days 0 hours 16 minutes 32 seconds 138 msec
