                         Program Version 3.0.3 - RELEASE   -
|  1> ! RI-MP2 RIJK def2-TZVP def2-TZVP/C def2-TZVP/JK TIGHTSCF
|  2> % maxcore 2000
|  3> % mp2 density relaxed end
|  4> *xyz 0 1
|  5>  C       -0.0387822958     1.5594888490    -0.0047382006
|  6>  C        0.0360337126     0.0309610676     0.0224830983
|  7>  C        0.7784405422    -0.5754989281    -1.1899952890
|  8>  C        1.2912257986    -1.9467677772    -0.7086478637
|  9>  C        1.5177633925    -1.7903531703     0.7932973053
| 10>  C        1.6509554796    -3.0568002498     1.6059190561
| 11>  C        2.2575750101    -0.5377074088     1.2138290952
| 12>  C        0.7420987879    -0.5623287942     1.2478650695
| 13>  C        0.0208516803    -0.4709897809     2.5725302956
| 14>  H        0.9639165640     2.0002021720     0.0295380751
| 15>  H       -0.5291825562     1.9139160645    -0.9179166334
| 16>  H       -0.6049412583     1.9519946912     0.8463740073
| 17>  H       -0.9920109272    -0.3618399520     0.0305486026
| 18>  H        0.1361985464    -0.6507723063    -2.0720781109
| 19>  H        1.6181150340     0.0696425166    -1.4722406225
| 20>  H        0.5287566180    -2.7201369933    -0.8711805726
| 21>  H        2.1911806862    -2.2710356715    -1.2447238223
| 22>  H        2.5366749625    -3.6264821967     1.2994755814
| 23>  H        1.7524196990    -2.8508849508     2.6755725914
| 24>  H        0.7795328570    -3.7094033315     1.4720940532
| 25>  H        2.7636702817    -0.5721573065     2.1740677425
| 26>  H        2.7788085560     0.0608896762     0.4728848612
| 27>  H       -0.1015479829     0.5724066883     2.8864488359
| 28>  H       -0.9806927458    -0.9147540235     2.5123889380
| 29>  H        0.5653680378    -0.9845404841     3.3702720364
| 30> *
| 31>
| 32>                          ****END OF INPUT****

CARTESIAN COORDINATES (ANGSTROEM)
---------------------------------
  C     -0.038782    1.559489   -0.004738
  C      0.036034    0.030961    0.022483
  C      0.778441   -0.575499   -1.189995
  C      1.291226   -1.946768   -0.708648
  C      1.517763   -1.790353    0.793297
  C      1.650955   -3.056800    1.605919
  C      2.257575   -0.537707    1.213829
  C      0.742099   -0.562329    1.247865
  C      0.020852   -0.470990    2.572530
  H      0.963917    2.000202    0.029538
  H     -0.529183    1.913916   -0.917917
  H     -0.604941    1.951995    0.846374
  H     -0.992011   -0.361840    0.030549
  H      0.136199   -0.650772   -2.072078
  H      1.618115    0.069643   -1.472241
  H      0.528757   -2.720137   -0.871181
  H      2.191181   -2.271036   -1.244724
  H      2.536675   -3.626482    1.299476
  H      1.752420   -2.850885    2.675573
  H      0.779533   -3.709403    1.472094
  H      2.763670   -0.572157    2.174068
  H      2.778809    0.060890    0.472885
  H     -0.101548    0.572407    2.886449
  H     -0.980693   -0.914754    2.512389
  H      0.565368   -0.984540    3.370272

 Total Charge           Charge          ....    0
 Multiplicity           Mult            ....    1
 Number of Electrons    NEL             ....   70
 Basis Dimension        Dim             ....  375

ORBITAL ENERGIES
----------------

  NO   OCC          E(Eh)            E(eV)
   0   2.0000     -11.224784      -305.4419
   1   2.0000     -11.223525      -305.4077
   2   2.0000     -11.220533      -305.3262
   3   2.0000     -11.213796      -305.1429
   4   2.0000     -11.211836      -305.0896
   5   2.0000     -11.211833      -305.0895
   6   2.0000     -11.211739      -305.0869
   7   2.0000     -11.210862      -305.0631
   8   2.0000     -11.207313      -304.9665
   9   2.0000      -1.176586       -32.0165
  10   2.0000      -1.043288       -28.3893
  11   2.0000      -1.010571       -27.4990
  12   2.0000      -0.953062       -25.9341
  13   2.0000      -0.939535       -25.5660
  14   2.0000      -0.863203       -23.4889
  15   2.0000      -0.827704       -22.5230
  16   2.0000      -0.740731       -20.1563
  17   2.0000      -0.692816       -18.8525
  18   2.0000      -0.660426       -17.9711
  19   2.0000      -0.609132       -16.5753
  20   2.0000      -0.593712       -16.1557
  21   2.0000      -0.588362       -16.0102
  22   2.0000      -0.569933       -15.5087
  23   2.0000      -0.560201       -15.2438
  24   2.0000      -0.549501       -14.9527
  25   2.0000      -0.543696       -14.7947
  26   2.0000      -0.527612       -14.3571
  27   2.0000      -0.518819       -14.1178
  28   2.0000      -0.503107       -13.6902
  29   2.0000      -0.468008       -12.7351
  30   2.0000      -0.459060       -12.4917
  31   2.0000      -0.454143       -12.3579
  32   2.0000      -0.441195       -12.0055
  33   2.0000      -0.385413       -10.4876
  34   2.0000      -0.365841        -9.9550
  35   0.0000       0.133274         3.6266
  36   0.0000       0.153549         4.1783
  37   0.0000       0.160024         4.3545
  38   0.0000       0.170026         4.6267
  39   0.0000       0.189647         5.1606

MULLIKEN ATOMIC CHARGES
-----------------------
   0 C :   -0.423796
   1 C :   -0.044515
   2 C :   -0.263276
   3 C :   -0.214676
   4 C :    0.100232
   5 C :   -0.416171
   6 C :   -0.352001
   7 C :    0.097229
   8 C :   -0.434933
   9 H :    0.124702
  10 H :    0.132496
  11 H :    0.129623
  12 H :    0.080825
  13 H :    0.124482
  14 H :    0.116266
  15 H :    0.104661
  16 H :    0.112214
  17 H :    0.134331
  18 H :    0.123012
  19 H :    0.126649
  20 H :    0.123713
  21 H :    0.128207
  22 H :    0.136932
  23 H :    0.128541
  24 H :    0.125256
Sum of atomic charges:    0.0000000

LOEWDIN ATOMIC CHARGES
----------------------
   0 C :   -0.290879
   1 C :   -0.228022
   2 C :   -0.226373
   3 C :   -0.208148
   4 C :   -0.230485
   5 C :   -0.269313
   6 C :   -0.169814
   7 C :   -0.211298
   8 C :   -0.266790
   9 H :    0.123906
  10 H :    0.123341
  11 H :    0.121761
  12 H :    0.154976
  13 H :    0.133974
  14 H :    0.136590
  15 H :    0.140425
  16 H :    0.135670
  17 H :    0.127967
  18 H :    0.125286
  19 H :    0.126289
  20 H :    0.137023
  21 H :    0.133588
  22 H :    0.127128
  23 H :    0.127077
  24 H :    0.126123

  Mayer bond orders larger than 0.1
B(  0-C ,  1-C ) :   0.9043 B(  0-C ,  9-H ) :   0.9343 B(  0-C , 10-H ) :   0.9412
B(  0-C , 11-H ) :   0.9403 B(  1-C ,  2-C ) :   0.9273 B(  1-C ,  7-C ) :   0.9149
B(  1-C , 12-H ) :   0.9241 B(  2-C ,  3-C ) :   0.9389 B(  2-C , 13-H ) :   0.9290
B(  2-C , 14-H ) :   0.9348 B(  3-C ,  4-C ) :   0.9309 B(  3-C , 15-H ) :   0.9243
B(  3-C , 16-H ) :   0.9246 B(  4-C ,  5-C ) :   0.8957 B(  4-C ,  6-C ) :   0.8792
B(  4-C ,  7-C ) :   0.8112 B(  5-C , 17-H ) :   0.9422 B(  5-C , 18-H ) :   0.9365
B(  5-C , 19-H ) :   0.9374 B(  6-C ,  7-C ) :   0.8797 B(  6-C , 20-H ) :   0.9285
B(  6-C , 21-H ) :   0.9149 B(  7-C ,  8-C ) :   0.8939 B(  8-C , 22-H ) :   0.9422
B(  8-C , 23-H ) :   0.9386 B(  8-C , 24-H ) :   0.9363

MP2 TOTAL ENERGY:     -351.732859809 Eh
FINAL SINGLE POINT ENERGY      -351.732859809410

DIPOLE MOMENT
-------------
                                X             Y             Z
Electronic contribution:      0.96108      -0.84501      -1.07775
Nuclear contribution   :     -1.03790       0.79491       1.07789
                        -----------------------------------------
Total Dipole Moment    :     -0.07683      -0.05010       0.00015
                        -----------------------------------------
Magnitude (a.u.)       :      0.09172
Magnitude (Debye)      :      0.23313

                             ****ORCA TERMINATED NORMALLY****
TOTAL RUN TIME: 0 days 0 hours 23 minutes 51 seconds 710 msec
