                         Program Version 3.0.3 - RELEASE   -
|  1> ! RI-MP2 RIJK def2-TZVP def2-TZVP/C def2-TZVP/JK TIGHTSCF
|  2> % maxcore 2000
|  3> % mp2 density relaxed end
|  4> *xyz 0 1
|  5>  O        0.9450199152    -0.1544789196     0.2998425429
|  6>  C        0.5959555512     0.7751512733    -0.3784500440
|  7>  C        0.5130841814     2.2083811315     0.1245545128
|  8>  N        0.4833501640     3.1293426586    -0.9960482369
|  9>  C        0.8983397023     4.3047773274    -0.8390111650
| 10>  C        0.9838170521     5.3816725112    -1.9008639492
| 11>  O        1.2010640014     6.5699870805    -1.1529813040
| 12>  C        1.8359331585     6.1667774195     0.0276792845
| 13>  O        1.3598073789     4.8510882244     0.3251558909
| 14>  H        0.2865819121     0.6557554268    -1.4405815215
| 15>  H       -0.4273723431     2.2839263379     0.6938950780
| 16>  H        1.3244481389     2.3893757878     0.8404250343
| 17>  H        1.8152043299     5.1752135054    -2.5918729576
| 18>  H        0.0606680970     5.4772151877    -2.4740205762
| 19>  H        2.9312246510     6.1238397561    -0.0850469970
| 20>  H        1.5577871093     6.8411089316     0.8409453379
| 21> *
| 22>
| 23>                          ****END OF INPUT****

CARTESIAN COORDINATES (ANGSTROEM)
---------------------------------
  O      0.945020   -0.154479    0.299843
  C      0.595956    0.775151   -0.378450
  C      0.513084    2.208381    0.124555
  N      0.483350    3.129343   -0.996048
  C      0.898340    4.304777   -0.839011
  C      0.983817    5.381673   -1.900864
  O      1.201064    6.569987   -1.152981
  C      1.835933    6.166777    0.027679
  O      1.359807    4.851088    0.325156
  H      0.286582    0.655755   -1.440582
  H     -0.427372    2.283926    0.693895
  H      1.324448    2.389376    0.840425
  H      1.815204    5.175214   -2.591873
  H      0.060668    5.477215   -2.474021
  H      2.931225    6.123840   -0.085047
  H      1.557787    6.841109    0.840945

 Total Charge           Charge          ....    0
 Multiplicity           Mult            ....    1
 Number of Electrons    NEL             ....   68
 Basis Dimension        Dim             ....  321

ORBITAL ENERGIES
----------------

  NO   OCC          E(Eh)            E(eV)
   0   2.0000     -20.621054      -561.1274
   1   2.0000     -20.599525      -560.5416
   2   2.0000     -20.552733      -559.2683
   3   2.0000     -15.563133      -423.4944
   4   2.0000     -11.365904      -309.2820
   5   2.0000     -11.359812      -309.1162
   6   2.0000     -11.326854      -308.2194
   7   2.0000     -11.316399      -307.9349
   8   2.0000     -11.270674      -306.6906
   9   2.0000      -1.493344       -40.6359
  10   2.0000      -1.393086       -37.9078
  11   2.0000      -1.387141       -37.7460
  12   2.0000      -1.244890       -33.8752
  13   2.0000      -1.050101       -28.5747
  14   2.0000      -0.979021       -26.6405
  15   2.0000      -0.916177       -24.9304
  16   2.0000      -0.817118       -22.2349
  17   2.0000      -0.791711       -21.5436
  18   2.0000      -0.745184       -20.2775
  19   2.0000      -0.731999       -19.9187
  20   2.0000      -0.690154       -18.7800
  21   2.0000      -0.653381       -17.7794
  22   2.0000      -0.637297       -17.3417
  23   2.0000      -0.632555       -17.2127
  24   2.0000      -0.621484       -16.9114
  25   2.0000      -0.607281       -16.5250
  26   2.0000      -0.585485       -15.9319
  27   2.0000      -0.561465       -15.2782
  28   2.0000      -0.548175       -14.9166
  29   2.0000      -0.505797       -13.7634
  30   2.0000      -0.466770       -12.7015
  31   2.0000      -0.441366       -12.0102
  32   2.0000      -0.424255       -11.5446
  33   2.0000      -0.399879       -10.8813
  34   0.0000       0.123483         3.3601
  35   0.0000       0.132102         3.5947
  36   0.0000       0.158889         4.3236
  37   0.0000       0.165077         4.4920
  38   0.0000       0.167838         4.5671

MULLIKEN ATOMIC CHARGES
-----------------------
   0 O :   -0.268445
   1 C :    0.098304
   2 C :   -0.073135
   3 N :   -0.283873
   4 C :    0.139533
   5 C :   -0.019936
   6 O :   -0.312586
   7 C :    0.116775
   8 O :   -0.273891
   9 H :    0.089140
  10 H :    0.142629
  11 H :    0.137015
  12 H :    0.123760
  13 H :    0.147961
  14 H :    0.101638
  15 H :    0.135114
Sum of atomic charges:   -0.0000000

LOEWDIN ATOMIC CHARGES
----------------------
   0 O :    0.130624
   1 C :   -0.292815
   2 C :   -0.288625
   3 N :    0.096403
   4 C :   -0.374314
   5 C :   -0.257272
   6 O :    0.161800
   7 C :   -0.335937
   8 O :    0.236979
   9 H :    0.111220
  10 H :    0.153552
  11 H :    0.141343
  12 H :    0.136674
  13 H :    0.144028
  14 H :    0.112671
  15 H :    0.123670

  Mayer bond orders larger than 0.1
B(  0-O ,  1-C ) :   2.0026 B(  1-C ,  2-C ) :   0.8859 B(  1-C ,  9-H ) :   0.9323
B(  2-C ,  3-N ) :   0.8440 B(  2-C , 10-H ) :   0.8941 B(  2-C , 11-H ) :   0.8995
B(  3-N ,  4-C ) :   1.9250 B(  4-C ,  5-C ) :   0.9436 B(  4-C ,  8-O ) :   1.0414
B(  5-C ,  6-O ) :   0.9170 B(  5-C , 12-H ) :   0.9141 B(  5-C , 13-H ) :   0.9162
B(  6-O ,  7-C ) :   0.9777 B(  7-C ,  8-O ) :   0.9083 B(  7-C , 14-H ) :   0.9255
B(  7-C , 15-H ) :   0.9262

MP2 TOTAL ENERGY:     -474.270916034 Eh
FINAL SINGLE POINT ENERGY      -474.270916034186

DIPOLE MOMENT
-------------
                                X             Y             Z
Electronic contribution:     -0.34408      -1.42933       0.57114
Nuclear contribution   :      0.55342       2.76579      -0.77733
                        -----------------------------------------
Total Dipole Moment    :      0.20934       1.33646      -0.20619
                        -----------------------------------------
Magnitude (a.u.)       :      1.36838
Magnitude (Debye)      :      3.47814

                             ****ORCA TERMINATED NORMALLY****
TOTAL RUN TIME: 0 days 0 hours 13 minutes 13 seconds 568 msec
