                         Program Version 3.0.3 - RELEASE   -
|  1> ! RI-MP2 RIJK def2-TZVP def2-TZVP/C def2-TZVP/JK TIGHTSCF
|  2> % maxcore 2000
|  3> % mp2 density relaxed end
|  4> *xyz 0 1
|  5>  C        0.1824992550     1.4285581363    -0.0731675918
|  6>  C        0.0282894349    -0.0822016371     0.0200467803
|  7>  O        0.8124554621    -0.7783872101    -0.9760141860
|  8>  C        1.6583335739    -1.3960212785     0.0209016988
|  9>  C        0.8372887298    -0.8012980268     1.1720274200
| 10>  O        1.5966942879     0.0047144643     2.0238511053
| 11>  C       -1.3824460929    -0.4885624469    -0.0443437158
| 12>  N       -2.4906971669    -0.8174814621    -0.0521424113
| 13>  H        1.2281636994     1.6981180708     0.0824260442
| 14>  H       -0.1389842148     1.7687387992    -1.0607577555
| 15>  H       -0.4284025898     1.9300394097     0.6834400886
| 16>  H        1.6632979586    -2.4869359132    -0.0629174072
| 17>  H        2.6840093519    -1.0129445421    -0.0140780778
| 18>  H        0.2306559416    -1.5287055311     1.7201257448
| 19>  H        1.0659382892     0.2395206577     2.7917198933
| 20> *
| 21>
| 22>                          ****END OF INPUT****

CARTESIAN COORDINATES (ANGSTROEM)
---------------------------------
  C      0.182499    1.428558   -0.073168
  C      0.028289   -0.082202    0.020047
  O      0.812455   -0.778387   -0.976014
  C      1.658334   -1.396021    0.020902
  C      0.837289   -0.801298    1.172027
  O      1.596694    0.004714    2.023851
  C     -1.382446   -0.488562   -0.044344
  N     -2.490697   -0.817481   -0.052142
  H      1.228164    1.698118    0.082426
  H     -0.138984    1.768739   -1.060758
  H     -0.428403    1.930039    0.683440
  H      1.663298   -2.486936   -0.062917
  H      2.684009   -1.012945   -0.014078
  H      0.230656   -1.528706    1.720126
  H      1.065938    0.239521    2.791720

 Total Charge           Charge          ....    0
 Multiplicity           Mult            ....    1
 Number of Electrons    NEL             ....   60
 Basis Dimension        Dim             ....  290

ORBITAL ENERGIES
----------------

  NO   OCC          E(Eh)            E(eV)
   0   2.0000     -20.596369      -560.4557
   1   2.0000     -20.580309      -560.0187
   2   2.0000     -15.580197      -423.9587
   3   2.0000     -11.345653      -308.7309
   4   2.0000     -11.322827      -308.1098
   5   2.0000     -11.300323      -307.4974
   6   2.0000     -11.276670      -306.8538
   7   2.0000     -11.244116      -305.9679
   8   2.0000      -1.425336       -38.7854
   9   2.0000      -1.393205       -37.9110
  10   2.0000      -1.224711       -33.3261
  11   2.0000      -1.068089       -29.0642
  12   2.0000      -1.015705       -27.6387
  13   2.0000      -0.923395       -25.1269
  14   2.0000      -0.824513       -22.4361
  15   2.0000      -0.753565       -20.5056
  16   2.0000      -0.736577       -20.0433
  17   2.0000      -0.671705       -18.2780
  18   2.0000      -0.663046       -18.0424
  19   2.0000      -0.615796       -16.7567
  20   2.0000      -0.591374       -16.0921
  21   2.0000      -0.579958       -15.7814
  22   2.0000      -0.570445       -15.5226
  23   2.0000      -0.560507       -15.2522
  24   2.0000      -0.547341       -14.8939
  25   2.0000      -0.501419       -13.6443
  26   2.0000      -0.488436       -13.2910
  27   2.0000      -0.472750       -12.8642
  28   2.0000      -0.458385       -12.4733
  29   2.0000      -0.434535       -11.8243
  30   0.0000       0.107177         2.9164
  31   0.0000       0.144415         3.9297
  32   0.0000       0.151724         4.1286
  33   0.0000       0.164168         4.4672
  34   0.0000       0.168824         4.5939

MULLIKEN ATOMIC CHARGES
-----------------------
   0 C :   -0.410439
   1 C :    0.346196
   2 O :   -0.318997
   3 C :   -0.027925
   4 C :   -0.022939
   5 O :   -0.448033
   6 C :   -0.214339
   7 N :   -0.050228
   8 H :    0.161821
   9 H :    0.155825
  10 H :    0.134185
  11 H :    0.116972
  12 H :    0.112409
  13 H :    0.135343
  14 H :    0.330150
Sum of atomic charges:   -0.0000000

LOEWDIN ATOMIC CHARGES
----------------------
   0 C :   -0.248767
   1 C :   -0.326903
   2 O :    0.175006
   3 C :   -0.237549
   4 C :   -0.289999
   5 O :    0.012896
   6 C :   -0.147339
   7 N :    0.074314
   8 H :    0.137076
   9 H :    0.139452
  10 H :    0.134892
  11 H :    0.124217
  12 H :    0.128682
  13 H :    0.138682
  14 H :    0.185341

  Mayer bond orders larger than 0.1
B(  0-C ,  1-C ) :   0.9142 B(  0-C ,  8-H ) :   0.9261 B(  0-C ,  9-H ) :   0.9267
B(  0-C , 10-H ) :   0.9223 B(  1-C ,  2-O ) :   0.9268 B(  1-C ,  4-C ) :   0.8366
B(  1-C ,  6-C ) :   0.9250 B(  2-O ,  3-C ) :   0.9429 B(  3-C ,  4-C ) :   0.9599
B(  3-C , 11-H ) :   0.9144 B(  3-C , 12-H ) :   0.9054 B(  4-C ,  5-O ) :   1.0931
B(  4-C , 13-H ) :   0.9528 B(  5-O , 14-H ) :   0.8381 B(  6-C ,  7-N ) :   2.8550

MP2 TOTAL ENERGY:     -399.141922451 Eh
FINAL SINGLE POINT ENERGY      -399.141922450685

DIPOLE MOMENT
-------------
                                X             Y             Z
Electronic contribution:     -3.45126      -2.51229      -0.93884
Nuclear contribution   :      4.42427       2.84844       1.95180
                        -----------------------------------------
Total Dipole Moment    :      0.97301       0.33614       1.01296
                        -----------------------------------------
Magnitude (a.u.)       :      1.44424
Magnitude (Debye)      :      3.67096

                             ****ORCA TERMINATED NORMALLY****
TOTAL RUN TIME: 0 days 0 hours 11 minutes 23 seconds 767 msec
