                         Program Version 3.0.3 - RELEASE   -
|  1> ! RI-MP2 RIJK def2-TZVP def2-TZVP/C def2-TZVP/JK TIGHTSCF
|  2> % maxcore 2000
|  3> % mp2 density relaxed end
|  4> *xyz 0 1
|  5>  C       -0.0609551838     1.4872207111     0.0863917722
|  6>  C        0.0173052814    -0.0378916387    -0.0173859027
|  7>  C        0.7301017686    -0.4979532718    -1.2814610117
|  8>  O        0.7596487127    -1.9106382122    -1.3001252123
|  9>  C        1.4003015945    -2.4421394439    -2.4349197030
| 10>  C        1.3572725206    -3.9698345115    -2.3178092352
| 11>  C        1.9978105242    -4.6294477329    -3.4472906162
| 12>  C        2.5320264884    -5.1476186720    -4.3909357621
| 13>  H        0.9372838999     1.9385336755     0.1019254900
| 14>  H       -0.6056634642     1.9180654585    -0.7610009228
| 15>  H       -0.5766674416     1.7925753300     1.0012541557
| 16>  H        0.5446418205    -0.4521409212     0.8495547660
| 17>  H       -0.9888255212    -0.4724942483    -0.0077091174
| 18>  H        0.2097133255    -0.1151167310    -2.1768269712
| 19>  H        1.7572966580    -0.0942036449    -1.3117787808
| 20>  H        0.8960825637    -2.1213665577    -3.3608781256
| 21>  H        2.4456786375    -2.0987311457    -2.4966338151
| 22>  H        1.8438386543    -4.2623405972    -1.3797661568
| 23>  H        0.3101128662    -4.2846157081    -2.2363028000
| 24>  H        3.0001954849    -5.6184456280    -5.2191670612
| 25> *
| 26>
| 27>                          ****END OF INPUT****

CARTESIAN COORDINATES (ANGSTROEM)
---------------------------------
  C     -0.060955    1.487221    0.086392
  C      0.017305   -0.037892   -0.017386
  C      0.730102   -0.497953   -1.281461
  O      0.759649   -1.910638   -1.300125
  C      1.400302   -2.442139   -2.434920
  C      1.357273   -3.969835   -2.317809
  C      1.997811   -4.629448   -3.447291
  C      2.532026   -5.147619   -4.390936
  H      0.937284    1.938534    0.101925
  H     -0.605663    1.918065   -0.761001
  H     -0.576667    1.792575    1.001254
  H      0.544642   -0.452141    0.849555
  H     -0.988826   -0.472494   -0.007709
  H      0.209713   -0.115117   -2.176827
  H      1.757297   -0.094204   -1.311779
  H      0.896083   -2.121367   -3.360878
  H      2.445679   -2.098731   -2.496634
  H      1.843839   -4.262341   -1.379766
  H      0.310113   -4.284616   -2.236303
  H      3.000195   -5.618446   -5.219167

 Total Charge           Charge          ....    0
 Multiplicity           Mult            ....    1
 Number of Electrons    NEL             ....   62
 Basis Dimension        Dim             ....  320

ORBITAL ENERGIES
----------------

  NO   OCC          E(Eh)            E(eV)
   0   2.0000     -20.557875      -559.4082
   1   2.0000     -11.283207      -307.0317
   2   2.0000     -11.275233      -306.8147
   3   2.0000     -11.250269      -306.1354
   4   2.0000     -11.234000      -305.6927
   5   2.0000     -11.221150      -305.3430
   6   2.0000     -11.220421      -305.3232
   7   2.0000     -11.218180      -305.2622
   8   2.0000      -1.381671       -37.5972
   9   2.0000      -1.084736       -29.5172
  10   2.0000      -1.051465       -28.6118
  11   2.0000      -0.990062       -26.9410
  12   2.0000      -0.918753       -25.0005
  13   2.0000      -0.851693       -23.1757
  14   2.0000      -0.810549       -22.0562
  15   2.0000      -0.721547       -19.6343
  16   2.0000      -0.686876       -18.6908
  17   2.0000      -0.674259       -18.3475
  18   2.0000      -0.631505       -17.1841
  19   2.0000      -0.620954       -16.8970
  20   2.0000      -0.601104       -16.3569
  21   2.0000      -0.577609       -15.7175
  22   2.0000      -0.560347       -15.2478
  23   2.0000      -0.524292       -14.2667
  24   2.0000      -0.506704       -13.7881
  25   2.0000      -0.498558       -13.5664
  26   2.0000      -0.478746       -13.0274
  27   2.0000      -0.470540       -12.8040
  28   2.0000      -0.426006       -11.5922
  29   2.0000      -0.386785       -10.5249
  30   2.0000      -0.385782       -10.4977
  31   0.0000       0.133736         3.6391
  32   0.0000       0.148684         4.0459
  33   0.0000       0.166838         4.5399
  34   0.0000       0.170058         4.6275
  35   0.0000       0.178807         4.8656

MULLIKEN ATOMIC CHARGES
-----------------------
   0 C :   -0.407725
   1 C :   -0.163061
   2 C :   -0.064259
   3 O :   -0.283705
   4 C :   -0.058483
   5 C :   -0.253659
   6 C :   -0.060303
   7 C :   -0.176577
   8 H :    0.123895
   9 H :    0.123887
  10 H :    0.138382
  11 H :    0.112051
  12 H :    0.112042
  13 H :    0.089730
  14 H :    0.089746
  15 H :    0.100728
  16 H :    0.100730
  17 H :    0.143688
  18 H :    0.143690
  19 H :    0.189201
Sum of atomic charges:    0.0000000

LOEWDIN ATOMIC CHARGES
----------------------
   0 C :   -0.319513
   1 C :   -0.294811
   2 C :   -0.329570
   3 O :    0.160716
   4 C :   -0.315377
   5 C :   -0.246992
   6 C :   -0.112802
   7 C :   -0.107056
   8 H :    0.120766
   9 H :    0.120767
  10 H :    0.122942
  11 H :    0.137415
  12 H :    0.137410
  13 H :    0.118526
  14 H :    0.118527
  15 H :    0.122616
  16 H :    0.122621
  17 H :    0.158891
  18 H :    0.158895
  19 H :    0.126028

  Mayer bond orders larger than 0.1
B(  0-C ,  1-C ) :   0.9151 B(  0-C ,  8-H ) :   0.9367 B(  0-C ,  9-H ) :   0.9367
B(  0-C , 10-H ) :   0.9399 B(  1-C ,  2-C ) :   0.9534 B(  1-C , 11-H ) :   0.9304
B(  1-C , 12-H ) :   0.9304 B(  2-C ,  3-O ) :   0.9259 B(  2-C , 13-H ) :   0.9226
B(  2-C , 14-H ) :   0.9226 B(  3-O ,  4-C ) :   0.9601 B(  4-C ,  5-C ) :   0.9464
B(  4-C , 15-H ) :   0.9246 B(  4-C , 16-H ) :   0.9247 B(  5-C ,  6-C ) :   1.0261
B(  5-C , 17-H ) :   0.9225 B(  5-C , 18-H ) :   0.9225 B(  6-C ,  7-C ) :   2.6334
B(  7-C , 19-H ) :   0.9067

MP2 TOTAL ENERGY:     -348.350920250 Eh
FINAL SINGLE POINT ENERGY      -348.350920249990

DIPOLE MOMENT
-------------
                                X             Y             Z
Electronic contribution:      2.68344      -9.38607      -4.56977
Nuclear contribution   :     -2.65577       9.82890       4.50813
                        -----------------------------------------
Total Dipole Moment    :      0.02767       0.44283      -0.06164
                        -----------------------------------------
Magnitude (a.u.)       :      0.44795
Magnitude (Debye)      :      1.13860

                             ****ORCA TERMINATED NORMALLY****
TOTAL RUN TIME: 0 days 0 hours 10 minutes 28 seconds 475 msec
