                         Program Version 3.0.3 - RELEASE   -
|  1> ! RI-MP2 RIJK def2-TZVP def2-TZVP/C def2-TZVP/JK TIGHTSCF
|  2> % maxcore 2000
|  3> % mp2 density relaxed end
|  4> *xyz 0 1
|  5>  C        0.0085876978     1.4351157171     0.0182319476
|  6>  N       -0.0496281605    -0.0111984207    -0.0018677405
|  7>  C       -0.0401830263    -0.7664018493    -1.1653974904
|  8>  C        0.0228192948    -2.0763236674    -0.7488336299
|  9>  N        0.0398124513    -3.4045276141    -1.1329760926
| 10>  C        0.0866505900    -4.1386436656     0.0417027925
| 11>  N        0.0921432503    -3.4243471950     1.1340039165
| 12>  C        0.0534705054    -2.1133848082     0.6745679064
| 13>  C        0.0110379065    -0.8049652789     1.1210186394
| 14>  H        1.0388327005     1.8046188237    -0.0507017972
| 15>  H       -0.5644973554     1.8393923605    -0.8202083611
| 16>  H       -0.4338071099     1.8045187760     0.9461427954
| 17>  H       -0.0752963820    -0.2912053176    -2.1307484731
| 18>  H        0.0405681197    -3.7816860881    -2.0635185117
| 19>  H        0.1163165429    -5.2194343644     0.0095768461
| 20>  H        0.0178807449    -0.3683217280     2.1055923626
| 21> *
| 22>
| 23>                          ****END OF INPUT****

CARTESIAN COORDINATES (ANGSTROEM)
---------------------------------
  C      0.008588    1.435116    0.018232
  N     -0.049628   -0.011198   -0.001868
  C     -0.040183   -0.766402   -1.165397
  C      0.022819   -2.076324   -0.748834
  N      0.039812   -3.404528   -1.132976
  C      0.086651   -4.138644    0.041703
  N      0.092143   -3.424347    1.134004
  C      0.053471   -2.113385    0.674568
  C      0.011038   -0.804965    1.121019
  H      1.038833    1.804619   -0.050702
  H     -0.564497    1.839392   -0.820208
  H     -0.433807    1.804519    0.946143
  H     -0.075296   -0.291205   -2.130748
  H      0.040568   -3.781686   -2.063519
  H      0.116317   -5.219434    0.009577
  H      0.017881   -0.368322    2.105592

 Total Charge           Charge          ....    0
 Multiplicity           Mult            ....    1
 Number of Electrons    NEL             ....   64
 Basis Dimension        Dim             ....  321

ORBITAL ENERGIES
----------------

  NO   OCC          E(Eh)            E(eV)
   0   2.0000     -15.604403      -424.6174
   1   2.0000     -15.601707      -424.5440
   2   2.0000     -15.539072      -422.8397
   3   2.0000     -11.303273      -307.5777
   4   2.0000     -11.269792      -306.6666
   5   2.0000     -11.246639      -306.0366
   6   2.0000     -11.245302      -306.0002
   7   2.0000     -11.244979      -305.9914
   8   2.0000     -11.226281      -305.4826
   9   2.0000      -1.329495       -36.1774
  10   2.0000      -1.283695       -34.9311
  11   2.0000      -1.161068       -31.5943
  12   2.0000      -1.059566       -28.8322
  13   2.0000      -0.969494       -26.3813
  14   2.0000      -0.935516       -25.4567
  15   2.0000      -0.821184       -22.3455
  16   2.0000      -0.802217       -21.8294
  17   2.0000      -0.765204       -20.8223
  18   2.0000      -0.717293       -19.5185
  19   2.0000      -0.645607       -17.5679
  20   2.0000      -0.635982       -17.3059
  21   2.0000      -0.635199       -17.2846
  22   2.0000      -0.589847       -16.0506
  23   2.0000      -0.586731       -15.9658
  24   2.0000      -0.574261       -15.6264
  25   2.0000      -0.547893       -14.9089
  26   2.0000      -0.534040       -14.5320
  27   2.0000      -0.497752       -13.5445
  28   2.0000      -0.422598       -11.4995
  29   2.0000      -0.416449       -11.3321
  30   2.0000      -0.304171        -8.2769
  31   2.0000      -0.268556        -7.3078
  32   0.0000       0.133314         3.6277
  33   0.0000       0.134051         3.6477
  34   0.0000       0.139280         3.7900
  35   0.0000       0.176589         4.8052
  36   0.0000       0.187029         5.0893

MULLIKEN ATOMIC CHARGES
-----------------------
   0 C :   -0.324602
   1 N :    0.036314
   2 C :   -0.182530
   3 C :    0.037421
   4 N :   -0.322210
   5 C :    0.070223
   6 N :   -0.273998
   7 C :    0.015117
   8 C :   -0.183124
   9 H :    0.151997
  10 H :    0.147774
  11 H :    0.151495
  12 H :    0.144577
  13 H :    0.244865
  14 H :    0.139515
  15 H :    0.147164
Sum of atomic charges:    0.0000000

LOEWDIN ATOMIC CHARGES
----------------------
   0 C :   -0.272468
   1 N :    0.235543
   2 C :   -0.226687
   3 C :   -0.223570
   4 N :    0.162986
   5 C :   -0.299014
   6 N :    0.102758
   7 C :   -0.238421
   8 C :   -0.199958
   9 H :    0.122027
  10 H :    0.125718
  11 H :    0.127669
  12 H :    0.131679
  13 H :    0.187701
  14 H :    0.128462
  15 H :    0.135575

  Mayer bond orders larger than 0.1
B(  0-C ,  1-N ) :   0.8643 B(  0-C ,  9-H ) :   0.9250 B(  0-C , 10-H ) :   0.9322
B(  0-C , 11-H ) :   0.9328 B(  1-N ,  2-C ) :   1.1564 B(  1-N ,  8-C ) :   1.1791
B(  2-C ,  3-C ) :   1.3467 B(  2-C ,  8-C ) :   0.1084 B(  2-C , 12-H ) :   0.8981
B(  3-C ,  4-N ) :   1.0582 B(  3-C ,  7-C ) :   1.1899 B(  4-N ,  5-C ) :   1.1157
B(  4-N , 13-H ) :   0.8661 B(  5-C ,  6-N ) :   1.6174 B(  5-C , 14-H ) :   0.9283
B(  6-N ,  7-C ) :   1.2707 B(  7-C ,  8-C ) :   1.3800 B(  8-C , 15-H ) :   0.8994

MP2 TOTAL ENERGY:     -396.271068942 Eh
FINAL SINGLE POINT ENERGY      -396.271068941677

DIPOLE MOMENT
-------------
                                X             Y             Z
Electronic contribution:      0.00734      -6.16594       0.40902
Nuclear contribution   :     -0.03149       6.97366      -1.73125
                        -----------------------------------------
Total Dipole Moment    :     -0.02415       0.80772      -1.32222
                        -----------------------------------------
Magnitude (a.u.)       :      1.54960
Magnitude (Debye)      :      3.93878

                             ****ORCA TERMINATED NORMALLY****
TOTAL RUN TIME: 0 days 0 hours 16 minutes 9 seconds 723 msec
