                         Program Version 3.0.3 - RELEASE   -
|  1> ! RI-MP2 RIJK def2-TZVP def2-TZVP/C def2-TZVP/JK TIGHTSCF
|  2> % maxcore 2000
|  3> % mp2 density relaxed end
|  4> *xyz 0 1
|  5>  C        0.1128134608     1.5242495169    -0.0830223810
|  6>  N        0.1395350761     0.0824646852     0.0543457477
|  7>  C        0.9023016358    -0.7569201265    -0.8910874526
|  8>  C        1.4434709858    -1.6036253457     0.2842930089
|  9>  C        2.8312468952    -1.1295396231     0.7824930016
| 10>  C        2.1230925416    -0.0316889242     1.5986628474
| 11>  O        2.5004549095     0.9272325271     2.2111373607
| 12>  C        0.7150502648    -0.5828203625     1.2454469850
| 13>  C       -0.2469795734    -0.8826307050     2.3697344727
| 14>  H        1.1106986970     1.9938012661    -0.1130028581
| 15>  H       -0.4169665948     1.7869627868    -1.0052431985
| 16>  H       -0.4379835290     1.9619786813     0.7552529871
| 17>  H        0.2605064788    -1.2745878925    -1.6134832968
| 18>  H        1.6913446044    -0.2299341128    -1.4498710641
| 19>  H        1.2335081978    -2.6711415985     0.2903512816
| 20>  H        3.3118949807    -1.8491174774     1.4555147865
| 21>  H        3.5655084495    -0.8058588020     0.0385822650
| 22>  H       -0.5479219899     0.0452195799     2.8687721282
| 23>  H       -1.1448954779    -1.3734578521     1.9836800017
| 24>  H        0.2154241671    -1.5269954810     3.1250291769
| 25> *
| 26>
| 27>                          ****END OF INPUT****

CARTESIAN COORDINATES (ANGSTROEM)
---------------------------------
  C      0.112813    1.524250   -0.083022
  N      0.139535    0.082465    0.054346
  C      0.902302   -0.756920   -0.891087
  C      1.443471   -1.603625    0.284293
  C      2.831247   -1.129540    0.782493
  C      2.123093   -0.031689    1.598663
  O      2.500455    0.927233    2.211137
  C      0.715050   -0.582820    1.245447
  C     -0.246980   -0.882631    2.369734
  H      1.110699    1.993801   -0.113003
  H     -0.416967    1.786963   -1.005243
  H     -0.437984    1.961979    0.755253
  H      0.260506   -1.274588   -1.613483
  H      1.691345   -0.229934   -1.449871
  H      1.233508   -2.671142    0.290351
  H      3.311895   -1.849117    1.455515
  H      3.565508   -0.805859    0.038582
  H     -0.547922    0.045220    2.868772
  H     -1.144895   -1.373458    1.983680
  H      0.215424   -1.526995    3.125029

 Total Charge           Charge          ....    0
 Multiplicity           Mult            ....    1
 Number of Electrons    NEL             ....   68
 Basis Dimension        Dim             ....  345

ORBITAL ENERGIES
----------------

  NO   OCC          E(Eh)            E(eV)
   0   2.0000     -20.553933      -559.3010
   1   2.0000     -15.554741      -423.2660
   2   2.0000     -11.327981      -308.2500
   3   2.0000     -11.273982      -306.7807
   4   2.0000     -11.260486      -306.4134
   5   2.0000     -11.245086      -305.9944
   6   2.0000     -11.244499      -305.9784
   7   2.0000     -11.242591      -305.9265
   8   2.0000     -11.223408      -305.4045
   9   2.0000      -1.395007       -37.9601
  10   2.0000      -1.264597       -34.4114
  11   2.0000      -1.100684       -29.9511
  12   2.0000      -1.008901       -27.4536
  13   2.0000      -0.975037       -26.5321
  14   2.0000      -0.888089       -24.1661
  15   2.0000      -0.841806       -22.9067
  16   2.0000      -0.800293       -21.7771
  17   2.0000      -0.687488       -18.7075
  18   2.0000      -0.671823       -18.2812
  19   2.0000      -0.663630       -18.0583
  20   2.0000      -0.655402       -17.8344
  21   2.0000      -0.613565       -16.6960
  22   2.0000      -0.589227       -16.0337
  23   2.0000      -0.586594       -15.9620
  24   2.0000      -0.565808       -15.3964
  25   2.0000      -0.559732       -15.2311
  26   2.0000      -0.557111       -15.1598
  27   2.0000      -0.511270       -13.9124
  28   2.0000      -0.497481       -13.5371
  29   2.0000      -0.488325       -13.2880
  30   2.0000      -0.466017       -12.6810
  31   2.0000      -0.440019       -11.9735
  32   2.0000      -0.412130       -11.2146
  33   2.0000      -0.344023        -9.3614
  34   0.0000       0.128366         3.4930
  35   0.0000       0.133473         3.6320
  36   0.0000       0.155809         4.2398
  37   0.0000       0.157217         4.2781
  38   0.0000       0.171407         4.6642

MULLIKEN ATOMIC CHARGES
-----------------------
   0 C :   -0.319622
   1 N :   -0.136111
   2 C :   -0.207107
   3 C :   -0.076728
   4 C :   -0.219969
   5 C :    0.044235
   6 O :   -0.249986
   7 C :    0.133211
   8 C :   -0.388967
   9 H :    0.115930
  10 H :    0.138543
  11 H :    0.140223
  12 H :    0.115259
  13 H :    0.104339
  14 H :    0.128458
  15 H :    0.139794
  16 H :    0.131794
  17 H :    0.141778
  18 H :    0.137798
  19 H :    0.127126
Sum of atomic charges:    0.0000000

LOEWDIN ATOMIC CHARGES
----------------------
   0 C :   -0.329599
   1 N :    0.120282
   2 C :   -0.225577
   3 C :   -0.158807
   4 C :   -0.195449
   5 C :   -0.276719
   6 O :    0.164736
   7 C :   -0.245417
   8 C :   -0.267854
   9 H :    0.105417
  10 H :    0.119437
  11 H :    0.123015
  12 H :    0.122578
  13 H :    0.122266
  14 H :    0.135862
  15 H :    0.152060
  16 H :    0.137750
  17 H :    0.135258
  18 H :    0.130686
  19 H :    0.130074

  Mayer bond orders larger than 0.1
B(  0-C ,  1-N ) :   0.8923 B(  0-C ,  9-H ) :   0.9221 B(  0-C , 10-H ) :   0.9335
B(  0-C , 11-H ) :   0.9368 B(  1-N ,  2-C ) :   0.9533 B(  1-N ,  7-C ) :   0.9743
B(  2-C ,  3-C ) :   0.9165 B(  2-C , 12-H ) :   0.9167 B(  2-C , 13-H ) :   0.9148
B(  3-C ,  4-C ) :   0.9436 B(  3-C ,  7-C ) :   0.8872 B(  3-C , 14-H ) :   0.9035
B(  4-C ,  5-C ) :   0.9273 B(  4-C ,  7-C ) :  -0.1429 B(  4-C , 15-H ) :   0.8906
B(  4-C , 16-H ) :   0.8993 B(  5-C ,  6-O ) :   2.0372 B(  5-C ,  7-C ) :   0.7969
B(  7-C ,  8-C ) :   0.8797 B(  8-C , 17-H ) :   0.9259 B(  8-C , 18-H ) :   0.9433
B(  8-C , 19-H ) :   0.9304

MP2 TOTAL ENERGY:     -402.431684990 Eh
FINAL SINGLE POINT ENERGY      -402.431684989558

DIPOLE MOMENT
-------------
                                X             Y             Z
Electronic contribution:      3.52237       0.53150       2.28081
Nuclear contribution   :     -3.68977      -1.24173      -2.80113
                        -----------------------------------------
Total Dipole Moment    :     -0.16740      -0.71023      -0.52032
                        -----------------------------------------
Magnitude (a.u.)       :      0.89621
Magnitude (Debye)      :      2.27797

                             ****ORCA TERMINATED NORMALLY****
TOTAL RUN TIME: 0 days 0 hours 22 minutes 30 seconds 468 msec
