                         Program Version 3.0.3 - RELEASE   -
|  1> ! RI-MP2 RIJK def2-TZVP def2-TZVP/C def2-TZVP/JK TIGHTSCF
|  2> % maxcore 2000
|  3> % mp2 density relaxed end
|  4> *xyz 0 1
|  5>  C       -0.0012515727     1.3593469380     0.2404409914
|  6>  N       -0.0368024233    -0.0224882482    -0.1989892617
|  7>  C       -1.1821713063    -0.7633916528    -0.0723189051
|  8>  N       -1.2376355022    -2.0866301216    -0.0845773101
|  9>  C       -2.5813523946    -2.3251533461     0.0102326452
| 10>  N       -3.0811407621    -3.6138160083    -0.0346973811
| 11>  N       -3.3586461858    -1.2598837513     0.0955894710
| 12>  N       -2.4198636127    -0.2423936777     0.0440075989
| 13>  H        1.0088646560     1.7484204852     0.1009976904
| 14>  H       -0.6698278120     1.9715465609    -0.3762332195
| 15>  H       -0.2856619213     1.4923028204     1.2952124797
| 16>  H        0.7897576320    -0.5720861951    -0.0214669069
| 17>  H       -2.4294317285    -4.2970223142     0.3225207437
| 18>  H       -3.9993859341    -3.6993183712     0.3766873970
| 19>  H       -2.7227813124     0.7144458324     0.0414874170
| 20> *
| 21>
| 22>                          ****END OF INPUT****

CARTESIAN COORDINATES (ANGSTROEM)
---------------------------------
  C     -0.001252    1.359347    0.240441
  N     -0.036802   -0.022488   -0.198989
  C     -1.182171   -0.763392   -0.072319
  N     -1.237636   -2.086630   -0.084577
  C     -2.581352   -2.325153    0.010233
  N     -3.081141   -3.613816   -0.034697
  N     -3.358646   -1.259884    0.095589
  N     -2.419864   -0.242394    0.044008
  H      1.008865    1.748420    0.100998
  H     -0.669828    1.971547   -0.376233
  H     -0.285662    1.492303    1.295212
  H      0.789758   -0.572086   -0.021467
  H     -2.429432   -4.297022    0.322521
  H     -3.999386   -3.699318    0.376687
  H     -2.722781    0.714446    0.041487

 Total Charge           Charge          ....    0
 Multiplicity           Mult            ....    1
 Number of Electrons    NEL             ....   60
 Basis Dimension        Dim             ....  290

ORBITAL ENERGIES
----------------

  NO   OCC          E(Eh)            E(eV)
   0   2.0000     -15.619483      -425.0277
   1   2.0000     -15.591487      -424.2659
   2   2.0000     -15.557955      -423.3535
   3   2.0000     -15.552128      -423.1949
   4   2.0000     -15.530312      -422.6013
   5   2.0000     -11.348854      -308.8180
   6   2.0000     -11.313105      -307.8452
   7   2.0000     -11.281329      -306.9806
   8   2.0000      -1.393639       -37.9228
   9   2.0000      -1.261089       -34.3160
  10   2.0000      -1.217439       -33.1282
  11   2.0000      -1.159918       -31.5630
  12   2.0000      -1.063329       -28.9347
  13   2.0000      -0.958743       -26.0887
  14   2.0000      -0.835658       -22.7394
  15   2.0000      -0.801845       -21.8193
  16   2.0000      -0.749550       -20.3963
  17   2.0000      -0.699784       -19.0421
  18   2.0000      -0.662106       -18.0168
  19   2.0000      -0.653221       -17.7751
  20   2.0000      -0.614206       -16.7134
  21   2.0000      -0.605932       -16.4883
  22   2.0000      -0.593151       -16.1404
  23   2.0000      -0.566131       -15.4052
  24   2.0000      -0.495470       -13.4824
  25   2.0000      -0.491782       -13.3821
  26   2.0000      -0.455142       -12.3851
  27   2.0000      -0.429179       -11.6786
  28   2.0000      -0.375113       -10.2074
  29   2.0000      -0.313184        -8.5222
  30   0.0000       0.120773         3.2864
  31   0.0000       0.148950         4.0531
  32   0.0000       0.152788         4.1576
  33   0.0000       0.177680         4.8349
  34   0.0000       0.191779         5.2186

MULLIKEN ATOMIC CHARGES
-----------------------
   0 C :   -0.307269
   1 N :   -0.341849
   2 C :    0.284946
   3 N :   -0.359735
   4 C :    0.259469
   5 N :   -0.514870
   6 N :   -0.288839
   7 N :   -0.176263
   8 H :    0.150650
   9 H :    0.132724
  10 H :    0.141568
  11 H :    0.251925
  12 H :    0.257481
  13 H :    0.254544
  14 H :    0.255519
Sum of atomic charges:   -0.0000000

LOEWDIN ATOMIC CHARGES
----------------------
   0 C :   -0.328422
   1 N :    0.053255
   2 C :   -0.422770
   3 N :    0.075515
   4 C :   -0.479211
   5 N :   -0.073672
   6 N :   -0.012677
   7 N :    0.116602
   8 H :    0.124350
   9 H :    0.116178
  10 H :    0.110109
  11 H :    0.193935
  12 H :    0.172194
  13 H :    0.171146
  14 H :    0.183470

  Mayer bond orders larger than 0.1
B(  0-C ,  1-N ) :   0.9079 B(  0-C ,  8-H ) :   0.9360 B(  0-C ,  9-H ) :   0.9329
B(  0-C , 10-H ) :   0.9302 B(  1-N ,  2-C ) :   1.1218 B(  1-N , 11-H ) :   0.8670
B(  2-C ,  3-N ) :   1.5331 B(  2-C ,  7-N ) :   1.2339 B(  3-N ,  4-C ) :   1.2962
B(  4-C ,  5-N ) :   1.0667 B(  4-C ,  6-N ) :   1.6225 B(  5-N , 12-H ) :   0.8716
B(  5-N , 13-H ) :   0.8751 B(  6-N ,  7-N ) :   0.9629 B(  7-N , 14-H ) :   0.8648

MP2 TOTAL ENERGY:     -391.539532898 Eh
FINAL SINGLE POINT ENERGY      -391.539532898111

DIPOLE MOMENT
-------------
                                X             Y             Z
Electronic contribution:     -2.84738      -3.67943      -0.87183
Nuclear contribution   :      3.54885       4.74769       1.54950
                        -----------------------------------------
Total Dipole Moment    :      0.70147       1.06826       0.67767
                        -----------------------------------------
Magnitude (a.u.)       :      1.44654
Magnitude (Debye)      :      3.67681

                             ****ORCA TERMINATED NORMALLY****
TOTAL RUN TIME: 0 days 0 hours 10 minutes 43 seconds 75 msec
