                         Program Version 3.0.3 - RELEASE   -
|  1> ! RI-MP2 RIJK def2-TZVP def2-TZVP/C def2-TZVP/JK TIGHTSCF
|  2> % maxcore 2000
|  3> % mp2 density relaxed end
|  4> *xyz 0 1
|  5>  C        0.4060534519     1.5359864027     0.0658363325
|  6>  C        0.1535332614     0.0247991325     0.0724313449
|  7>  C        0.5172010888    -0.6123165035    -1.2604819528
|  8>  O        1.9256073386    -0.4739568113    -1.5641328234
|  9>  C        2.0915866910    -1.8982250699    -1.7594567269
| 10>  C        3.2157597605    -2.4503427923    -0.9017664167
| 11>  C        0.5963546641    -2.1591198043    -1.3983307264
| 12>  C        0.2302480264    -3.0372643856    -0.2032327525
| 13>  C        0.3238816410    -4.5370840636    -0.5079966356
| 14>  H        1.4539859609     1.7442784195    -0.1672552992
| 15>  H       -0.2112142562     2.0372615780    -0.6881945245
| 16>  H        0.1751336546     1.9815633634     1.0380098939
| 17>  H        0.7382590560    -0.4434629113     0.8720816898
| 18>  H       -0.9037470734    -0.1817305772     0.2850810880
| 19>  H       -0.0881500891    -0.1477730948    -2.0542652109
| 20>  H        2.3078997316    -2.1122702752    -2.8160654264
| 21>  H        3.0282731936    -2.2954042015     0.1641504182
| 22>  H        3.3647638798    -3.5200200676    -1.0826155362
| 23>  H        4.1465407165    -1.9328016087    -1.1558363784
| 24>  H        0.0333902018    -2.5118167081    -2.2683742088
| 25>  H        0.8580480386    -2.7982329310     0.6618838497
| 26>  H       -0.7978705833    -2.7995346155     0.0985099181
| 27>  H       -0.3362428716    -4.8112574739    -1.3384999056
| 28>  H        1.3412326545    -4.8300872816    -0.7858661023
| 29>  H        0.0328706519    -5.1357037492     0.3607256616
| 30> *
| 31>
| 32>                          ****END OF INPUT****

CARTESIAN COORDINATES (ANGSTROEM)
---------------------------------
  C      0.406053    1.535986    0.065836
  C      0.153533    0.024799    0.072431
  C      0.517201   -0.612317   -1.260482
  O      1.925607   -0.473957   -1.564133
  C      2.091587   -1.898225   -1.759457
  C      3.215760   -2.450343   -0.901766
  C      0.596355   -2.159120   -1.398331
  C      0.230248   -3.037264   -0.203233
  C      0.323882   -4.537084   -0.507997
  H      1.453986    1.744278   -0.167255
  H     -0.211214    2.037262   -0.688195
  H      0.175134    1.981563    1.038010
  H      0.738259   -0.443463    0.872082
  H     -0.903747   -0.181731    0.285081
  H     -0.088150   -0.147773   -2.054265
  H      2.307900   -2.112270   -2.816065
  H      3.028273   -2.295404    0.164150
  H      3.364764   -3.520020   -1.082616
  H      4.146541   -1.932802   -1.155836
  H      0.033390   -2.511817   -2.268374
  H      0.858048   -2.798233    0.661884
  H     -0.797871   -2.799535    0.098510
  H     -0.336243   -4.811257   -1.338500
  H      1.341233   -4.830087   -0.785866
  H      0.032871   -5.135704    0.360726

 Total Charge           Charge          ....    0
 Multiplicity           Mult            ....    1
 Number of Electrons    NEL             ....   72
 Basis Dimension        Dim             ....  375

ORBITAL ENERGIES
----------------

  NO   OCC          E(Eh)            E(eV)
   0   2.0000     -20.535177      -558.7906
   1   2.0000     -11.276014      -306.8359
   2   2.0000     -11.272413      -306.7379
   3   2.0000     -11.227879      -305.5261
   4   2.0000     -11.224787      -305.4420
   5   2.0000     -11.217681      -305.2486
   6   2.0000     -11.217160      -305.2345
   7   2.0000     -11.213269      -305.1286
   8   2.0000     -11.206958      -304.9568
   9   2.0000      -1.368105       -37.2280
  10   2.0000      -1.072913       -29.1954
  11   2.0000      -1.046788       -28.4845
  12   2.0000      -0.998880       -27.1809
  13   2.0000      -0.959477       -26.1087
  14   2.0000      -0.881120       -23.9765
  15   2.0000      -0.841088       -22.8872
  16   2.0000      -0.803932       -21.8761
  17   2.0000      -0.715698       -19.4751
  18   2.0000      -0.689520       -18.7628
  19   2.0000      -0.638769       -17.3818
  20   2.0000      -0.622306       -16.9338
  21   2.0000      -0.613587       -16.6966
  22   2.0000      -0.579274       -15.7629
  23   2.0000      -0.566505       -15.4154
  24   2.0000      -0.559222       -15.2172
  25   2.0000      -0.550741       -14.9864
  26   2.0000      -0.538224       -14.6458
  27   2.0000      -0.519339       -14.1319
  28   2.0000      -0.506958       -13.7950
  29   2.0000      -0.499516       -13.5925
  30   2.0000      -0.488592       -13.2953
  31   2.0000      -0.484920       -13.1954
  32   2.0000      -0.476070       -12.9545
  33   2.0000      -0.431073       -11.7301
  34   2.0000      -0.422021       -11.4838
  35   2.0000      -0.397671       -10.8212
  36   0.0000       0.133512         3.6331
  37   0.0000       0.150859         4.1051
  38   0.0000       0.153907         4.1880
  39   0.0000       0.165924         4.5150
  40   0.0000       0.178581         4.8594

MULLIKEN ATOMIC CHARGES
-----------------------
   0 C :   -0.393601
   1 C :   -0.197802
   2 C :    0.066121
   3 O :   -0.333327
   4 C :    0.076826
   5 C :   -0.401688
   6 C :   -0.058882
   7 C :   -0.234910
   8 C :   -0.393359
   9 H :    0.147473
  10 H :    0.117463
  11 H :    0.131057
  12 H :    0.102870
  13 H :    0.105341
  14 H :    0.077428
  15 H :    0.079315
  16 H :    0.123414
  17 H :    0.121701
  18 H :    0.143546
  19 H :    0.106920
  20 H :    0.112043
  21 H :    0.117105
  22 H :    0.124068
  23 H :    0.125150
  24 H :    0.135729
Sum of atomic charges:   -0.0000000

LOEWDIN ATOMIC CHARGES
----------------------
   0 C :   -0.315782
   1 C :   -0.279130
   2 C :   -0.263104
   3 O :    0.154114
   4 C :   -0.282285
   5 C :   -0.298556
   6 C :   -0.199185
   7 C :   -0.276935
   8 C :   -0.314773
   9 H :    0.127321
  10 H :    0.120322
  11 H :    0.119592
  12 H :    0.137540
  13 H :    0.138773
  14 H :    0.134754
  15 H :    0.132789
  16 H :    0.122711
  17 H :    0.123911
  18 H :    0.130685
  19 H :    0.148698
  20 H :    0.136121
  21 H :    0.140399
  22 H :    0.121043
  23 H :    0.119273
  24 H :    0.121703

  Mayer bond orders larger than 0.1
B(  0-C ,  1-C ) :   0.9203 B(  0-C ,  9-H ) :   0.9373 B(  0-C , 10-H ) :   0.9372
B(  0-C , 11-H ) :   0.9415 B(  1-C ,  2-C ) :   0.9255 B(  1-C , 12-H ) :   0.9302
B(  1-C , 13-H ) :   0.9258 B(  2-C ,  3-O ) :   0.9387 B(  2-C ,  6-C ) :   0.9197
B(  2-C , 14-H ) :   0.9157 B(  3-O ,  4-C ) :   0.9435 B(  4-C ,  5-C ) :   0.9102
B(  4-C ,  6-C ) :   0.9304 B(  4-C , 15-H ) :   0.9149 B(  5-C , 16-H ) :   0.9401
B(  5-C , 17-H ) :   0.9286 B(  5-C , 18-H ) :   0.9315 B(  6-C ,  7-C ) :   0.9187
B(  6-C , 19-H ) :   0.9277 B(  7-C ,  8-C ) :   0.9096 B(  7-C , 20-H ) :   0.9378
B(  7-C , 21-H ) :   0.9321 B(  8-C , 22-H ) :   0.9391 B(  8-C , 23-H ) :   0.9431
B(  8-C , 24-H ) :   0.9422

MP2 TOTAL ENERGY:     -388.810529891 Eh
FINAL SINGLE POINT ENERGY      -388.810529891160

DIPOLE MOMENT
-------------
                                X             Y             Z
Electronic contribution:      1.36079       2.82390      -3.79259
Nuclear contribution   :     -1.76934      -3.39392       3.92519
                        -----------------------------------------
Total Dipole Moment    :     -0.40855      -0.57002       0.13259
                        -----------------------------------------
Magnitude (a.u.)       :      0.71373
Magnitude (Debye)      :      1.81416

                             ****ORCA TERMINATED NORMALLY****
TOTAL RUN TIME: 0 days 0 hours 34 minutes 35 seconds 705 msec
