                         Program Version 3.0.3 - RELEASE   -
|  1> ! RI-MP2 RIJK def2-TZVP def2-TZVP/C def2-TZVP/JK TIGHTSCF
|  2> % maxcore 2000
|  3> % mp2 density relaxed end
|  4> *xyz 0 1
|  5>  O       -0.0593325887     1.2684201211     0.0095178503
|  6>  N        1.1946293712     1.7717765090     0.0001229152
|  7>  C        1.9590217387     0.7210517427    -0.0128069641
|  8>  N        1.2270421979    -0.4479406483    -0.0121559722
|  9>  N        0.0119302176    -0.1246338293     0.0012973737
| 10>  H        3.0355546734     0.7552313348    -0.0229864829
| 11> *
| 12>
| 13>                          ****END OF INPUT****

CARTESIAN COORDINATES (ANGSTROEM)
---------------------------------
  O     -0.059333    1.268420    0.009518
  N      1.194629    1.771777    0.000123
  C      1.959022    0.721052   -0.012807
  N      1.227042   -0.447941   -0.012156
  N      0.011930   -0.124634    0.001297
  H      3.035555    0.755231   -0.022986

 Total Charge           Charge          ....    0
 Multiplicity           Mult            ....    1
 Number of Electrons    NEL             ....   36
 Basis Dimension        Dim             ....  161

ORBITAL ENERGIES
----------------

  NO   OCC          E(Eh)            E(eV)
   0   2.0000     -20.713413      -563.6406
   1   2.0000     -15.736956      -428.2243
   2   2.0000     -15.684029      -426.7841
   3   2.0000     -15.664570      -426.2546
   4   2.0000     -11.341220      -308.6103
   5   2.0000      -1.598693       -43.5027
   6   2.0000      -1.354950       -36.8701
   7   2.0000      -1.229162       -33.4472
   8   2.0000      -0.945652       -25.7325
   9   2.0000      -0.909242       -24.7417
  10   2.0000      -0.774663       -21.0797
  11   2.0000      -0.729256       -19.8441
  12   2.0000      -0.648269       -17.6403
  13   2.0000      -0.605483       -16.4760
  14   2.0000      -0.536182       -14.5902
  15   2.0000      -0.522708       -14.2236
  16   2.0000      -0.513147       -13.9634
  17   2.0000      -0.458289       -12.4707
  18   0.0000       0.064212         1.7473
  19   0.0000       0.157222         4.2782
  20   0.0000       0.161469         4.3938
  21   0.0000       0.210301         5.7226
  22   0.0000       0.217504         5.9186

MULLIKEN ATOMIC CHARGES
-----------------------
   0 O :    0.011614
   1 N :   -0.099634
   2 C :    0.034617
   3 N :   -0.132071
   4 N :    0.003873
   5 H :    0.181601
Sum of atomic charges:   -0.0000000

LOEWDIN ATOMIC CHARGES
----------------------
   0 O :    0.193635
   1 N :    0.019447
   2 C :   -0.342373
   3 N :    0.017813
   4 N :   -0.032641
   5 H :    0.144119

  Mayer bond orders larger than 0.1
B(  0-O ,  1-N ) :   0.9773 B(  0-O ,  4-N ) :   0.9302 B(  1-N ,  2-C ) :   1.5334
B(  1-N ,  4-N ) :   0.1299 B(  2-C ,  3-N ) :   1.1945 B(  2-C ,  5-H ) :   0.9207
B(  3-N ,  4-N ) :   1.4262

MP2 TOTAL ENERGY:     -277.623744587 Eh
FINAL SINGLE POINT ENERGY      -277.623744586551

DIPOLE MOMENT
-------------
                                X             Y             Z
Electronic contribution:     -1.24494       0.03642       0.01217
Nuclear contribution   :      2.04529       0.09914      -0.01909
                        -----------------------------------------
Total Dipole Moment    :      0.80035       0.13556      -0.00692
                        -----------------------------------------
Magnitude (a.u.)       :      0.81178
Magnitude (Debye)      :      2.06337

                             ****ORCA TERMINATED NORMALLY****
TOTAL RUN TIME: 0 days 0 hours 1 minutes 56 seconds 318 msec
