                         Program Version 3.0.3 - RELEASE   -
|  1> ! RI-MP2 RIJK def2-TZVP def2-TZVP/C def2-TZVP/JK TIGHTSCF
|  2> % maxcore 2000
|  3> % mp2 density relaxed end
|  4> *xyz 0 1
|  5>  C       -0.0175340482     1.6275330472    -0.5622976492
|  6>  C       -0.2044711241     0.1494691929    -0.2745030188
|  7>  O        0.8419330728    -0.5552358352    -0.9588759787
|  8>  C        0.8337642755    -1.8997492288    -0.8588969391
|  9>  N        1.8177167304    -2.4434154611    -1.6592678570
| 10>  N       -0.0280527842    -2.5082592863    -0.1415732515
| 11>  C       -0.0179055365    -3.9661687561    -0.1554604060
| 12>  C        1.1972466469    -4.5847477610     0.3925945619
| 13>  C        2.2162539400    -5.0645510064     0.8171866802
| 14>  H        0.9558357921     1.9760986307    -0.2050049903
| 15>  H       -0.0818054008     1.8287619482    -1.6355568295
| 16>  H       -0.7968347172     2.2048501141    -0.0560070263
| 17>  H       -0.1441208095    -0.0714280985     0.7957824006
| 18>  H       -1.1735746256    -0.2187373583    -0.6259692853
| 19>  H        2.5048407449    -1.7750225082    -1.9749725603
| 20>  H        2.2141410918    -3.3078787607    -1.3162797399
| 21>  H       -0.8754469422    -4.3113771240     0.4327148395
| 22>  H       -0.1689175420    -4.3549189673    -1.1761375910
| 23>  H        3.0972398861    -5.4998528011     1.2201258809
| 24> *
| 25>
| 26>                          ****END OF INPUT****

CARTESIAN COORDINATES (ANGSTROEM)
---------------------------------
  C     -0.017534    1.627533   -0.562298
  C     -0.204471    0.149469   -0.274503
  O      0.841933   -0.555236   -0.958876
  C      0.833764   -1.899749   -0.858897
  N      1.817717   -2.443415   -1.659268
  N     -0.028053   -2.508259   -0.141573
  C     -0.017906   -3.966169   -0.155460
  C      1.197247   -4.584748    0.392595
  C      2.216254   -5.064551    0.817187
  H      0.955836    1.976099   -0.205005
  H     -0.081805    1.828762   -1.635557
  H     -0.796835    2.204850   -0.056007
  H     -0.144121   -0.071428    0.795782
  H     -1.173575   -0.218737   -0.625969
  H      2.504841   -1.775023   -1.974973
  H      2.214141   -3.307879   -1.316280
  H     -0.875447   -4.311377    0.432715
  H     -0.168918   -4.354919   -1.176138
  H      3.097240   -5.499853    1.220126

 Total Charge           Charge          ....    0
 Multiplicity           Mult            ....    1
 Number of Electrons    NEL             ....   68
 Basis Dimension        Dim             ....  339

ORBITAL ENERGIES
----------------

  NO   OCC          E(Eh)            E(eV)
   0   2.0000     -20.588504      -560.2417
   1   2.0000     -15.575662      -423.8353
   2   2.0000     -15.522690      -422.3939
   3   2.0000     -11.365072      -309.2593
   4   2.0000     -11.278541      -306.9047
   5   2.0000     -11.276868      -306.8592
   6   2.0000     -11.238181      -305.8064
   7   2.0000     -11.226351      -305.4845
   8   2.0000     -11.218981      -305.2840
   9   2.0000      -1.432678       -38.9852
  10   2.0000      -1.247652       -33.9503
  11   2.0000      -1.172519       -31.9059
  12   2.0000      -1.047597       -28.5066
  13   2.0000      -1.025348       -27.9011
  14   2.0000      -0.947291       -25.7771
  15   2.0000      -0.867278       -23.5998
  16   2.0000      -0.778498       -21.1840
  17   2.0000      -0.736614       -20.0443
  18   2.0000      -0.721799       -19.6412
  19   2.0000      -0.694582       -18.9005
  20   2.0000      -0.673967       -18.3396
  21   2.0000      -0.644322       -17.5329
  22   2.0000      -0.630416       -17.1545
  23   2.0000      -0.600645       -16.3444
  24   2.0000      -0.572686       -15.5836
  25   2.0000      -0.560570       -15.2539
  26   2.0000      -0.540442       -14.7062
  27   2.0000      -0.504244       -13.7212
  28   2.0000      -0.502532       -13.6746
  29   2.0000      -0.447397       -12.1743
  30   2.0000      -0.430067       -11.7027
  31   2.0000      -0.395990       -10.7754
  32   2.0000      -0.383024       -10.4226
  33   2.0000      -0.368563       -10.0291
  34   0.0000       0.135343         3.6829
  35   0.0000       0.149489         4.0678
  36   0.0000       0.166247         4.5238
  37   0.0000       0.167701         4.5634
  38   0.0000       0.173906         4.7322

MULLIKEN ATOMIC CHARGES
-----------------------
   0 C :   -0.359734
   1 C :   -0.040280
   2 O :   -0.278890
   3 C :    0.380841
   4 N :   -0.523616
   5 N :   -0.341752
   6 C :   -0.212633
   7 C :   -0.071157
   8 C :   -0.195367
   9 H :    0.128837
  10 H :    0.129927
  11 H :    0.128241
  12 H :    0.118242
  13 H :    0.114012
  14 H :    0.256770
  15 H :    0.271020
  16 H :    0.152677
  17 H :    0.153434
  18 H :    0.189428
Sum of atomic charges:   -0.0000000

LOEWDIN ATOMIC CHARGES
----------------------
   0 C :   -0.318269
   1 C :   -0.311843
   2 O :    0.238826
   3 C :   -0.493407
   4 N :   -0.047890
   5 N :    0.051697
   6 C :   -0.292753
   7 C :   -0.122802
   8 C :   -0.113288
   9 H :    0.123425
  10 H :    0.123629
  11 H :    0.127046
  12 H :    0.126891
  13 H :    0.126439
  14 H :    0.175266
  15 H :    0.178573
  16 H :    0.151687
  17 H :    0.149812
  18 H :    0.126960

  Mayer bond orders larger than 0.1
B(  0-C ,  1-C ) :   0.9323 B(  0-C ,  9-H ) :   0.9344 B(  0-C , 10-H ) :   0.9346
B(  0-C , 11-H ) :   0.9363 B(  1-C ,  2-O ) :   0.8411 B(  1-C , 12-H ) :   0.9332
B(  1-C , 13-H ) :   0.9321 B(  2-O ,  3-C ) :   1.1048 B(  3-C ,  4-N ) :   1.0997
B(  3-C ,  5-N ) :   1.7254 B(  4-N , 14-H ) :   0.8661 B(  4-N , 15-H ) :   0.8596
B(  5-N ,  6-C ) :   0.9281 B(  6-C ,  7-C ) :   0.9858 B(  6-C , 16-H ) :   0.9299
B(  6-C , 17-H ) :   0.9464 B(  7-C ,  8-C ) :   2.6464 B(  8-C , 18-H ) :   0.9145

MP2 TOTAL ENERGY:     -418.469060323 Eh
FINAL SINGLE POINT ENERGY      -418.469060322625

DIPOLE MOMENT
-------------
                                X             Y             Z
Electronic contribution:      2.17367      -6.30448       0.19147
Nuclear contribution   :     -1.66700       6.42743      -0.34391
                        -----------------------------------------
Total Dipole Moment    :      0.50667       0.12295      -0.15244
                        -----------------------------------------
Magnitude (a.u.)       :      0.54320
Magnitude (Debye)      :      1.38072

                             ****ORCA TERMINATED NORMALLY****
TOTAL RUN TIME: 0 days 0 hours 15 minutes 11 seconds 983 msec
