                         Program Version 3.0.3 - RELEASE   -
|  1> ! RI-MP2 RIJK def2-TZVP def2-TZVP/C def2-TZVP/JK TIGHTSCF
|  2> % maxcore 2000
|  3> % mp2 density relaxed end
|  4> *xyz 0 1
|  5>  O       -0.1039279408     0.0426973035     0.9329471947
|  6>  C       -0.0326811728     1.2194077251     0.6607005340
|  7>  N        0.9936421472     1.8150772387    -0.0431034097
|  8>  C        1.0092760421     3.2680842950    -0.1751679128
|  9>  C        1.2332828339     3.8042662977    -1.5919733029
| 10>  C        2.6853199288     3.6917243173    -2.0624429972
| 11>  C        3.1402166672     2.2661044814    -2.3940793977
| 12>  C        3.0297956243     1.2170167149    -1.3181370464
| 13>  C        2.0989938757     1.0134777623    -0.3814636994
| 14>  H       -0.8070932722     1.9535511004     0.9530539778
| 15>  H        0.0460375765     3.6244289989     0.2021092701
| 16>  H        1.7877255308     3.6794346107     0.4837602439
| 17>  H        0.5569679002     3.2960229691    -2.2909236403
| 18>  H        0.9429039481     4.8615882409    -1.5836014723
| 19>  H        2.8225693601     4.3085278919    -2.9578192194
| 20>  H        3.3406481726     4.1156217359    -1.2898164863
| 21>  H        2.5679131693     1.9160568381    -3.2683073522
| 22>  H        4.1820813859     2.3045914436    -2.7321182443
| 23>  H        3.7879747009     0.4395016064    -1.3647465209
| 24>  H        2.1249415721     0.1101847482     0.2173637012
| 25> *
| 26>
| 27>                          ****END OF INPUT****

CARTESIAN COORDINATES (ANGSTROEM)
---------------------------------
  O     -0.103928    0.042697    0.932947
  C     -0.032681    1.219408    0.660701
  N      0.993642    1.815077   -0.043103
  C      1.009276    3.268084   -0.175168
  C      1.233283    3.804266   -1.591973
  C      2.685320    3.691724   -2.062443
  C      3.140217    2.266104   -2.394079
  C      3.029796    1.217017   -1.318137
  C      2.098994    1.013478   -0.381464
  H     -0.807093    1.953551    0.953054
  H      0.046038    3.624429    0.202109
  H      1.787726    3.679435    0.483760
  H      0.556968    3.296023   -2.290924
  H      0.942904    4.861588   -1.583601
  H      2.822569    4.308528   -2.957819
  H      3.340648    4.115622   -1.289816
  H      2.567913    1.916057   -3.268307
  H      4.182081    2.304591   -2.732118
  H      3.787975    0.439502   -1.364747
  H      2.124942    0.110185    0.217364

 Total Charge           Charge          ....    0
 Multiplicity           Mult            ....    1
 Number of Electrons    NEL             ....   68
 Basis Dimension        Dim             ....  345

ORBITAL ENERGIES
----------------

  NO   OCC          E(Eh)            E(eV)
   0   2.0000     -20.529526      -558.6368
   1   2.0000     -15.601347      -424.5342
   2   2.0000     -11.351778      -308.8976
   3   2.0000     -11.280037      -306.9454
   4   2.0000     -11.264774      -306.5301
   5   2.0000     -11.236850      -305.7702
   6   2.0000     -11.233860      -305.6889
   7   2.0000     -11.232059      -305.6399
   8   2.0000     -11.227084      -305.5045
   9   2.0000      -1.391243       -37.8576
  10   2.0000      -1.266370       -34.4597
  11   2.0000      -1.094254       -29.7762
  12   2.0000      -1.060674       -28.8624
  13   2.0000      -0.967859       -26.3368
  14   2.0000      -0.919247       -25.0140
  15   2.0000      -0.852281       -23.1917
  16   2.0000      -0.798768       -21.7356
  17   2.0000      -0.727648       -19.8003
  18   2.0000      -0.706698       -19.2302
  19   2.0000      -0.674869       -18.3641
  20   2.0000      -0.637480       -17.3467
  21   2.0000      -0.621715       -16.9177
  22   2.0000      -0.618718       -16.8362
  23   2.0000      -0.604996       -16.4628
  24   2.0000      -0.579143       -15.7593
  25   2.0000      -0.560702       -15.2575
  26   2.0000      -0.537575       -14.6282
  27   2.0000      -0.521059       -14.1787
  28   2.0000      -0.490550       -13.3486
  29   2.0000      -0.479927       -13.0595
  30   2.0000      -0.474051       -12.8996
  31   2.0000      -0.437845       -11.9144
  32   2.0000      -0.430758       -11.7215
  33   2.0000      -0.324879        -8.8404
  34   0.0000       0.125425         3.4130
  35   0.0000       0.136159         3.7051
  36   0.0000       0.148950         4.0531
  37   0.0000       0.160067         4.3556
  38   0.0000       0.175220         4.7680

MULLIKEN ATOMIC CHARGES
-----------------------
   0 O :   -0.341333
   1 C :    0.152334
   2 N :   -0.058659
   3 C :   -0.199360
   4 C :   -0.183341
   5 C :   -0.213549
   6 C :   -0.191186
   7 C :   -0.183380
   8 C :   -0.125976
   9 H :    0.077101
  10 H :    0.131368
  11 H :    0.124571
  12 H :    0.114750
  13 H :    0.125403
  14 H :    0.127108
  15 H :    0.109298
  16 H :    0.124052
  17 H :    0.130295
  18 H :    0.131212
  19 H :    0.149292
Sum of atomic charges:   -0.0000000

LOEWDIN ATOMIC CHARGES
----------------------
   0 O :    0.076281
   1 C :   -0.396624
   2 N :    0.188909
   3 C :   -0.251250
   4 C :   -0.265061
   5 C :   -0.268762
   6 C :   -0.260920
   7 C :   -0.189078
   8 C :   -0.195379
   9 H :    0.114173
  10 H :    0.139339
  11 H :    0.138010
  12 H :    0.141492
  13 H :    0.144045
  14 H :    0.140318
  15 H :    0.139261
  16 H :    0.150779
  17 H :    0.146076
  18 H :    0.152622
  19 H :    0.155772

  Mayer bond orders larger than 0.1
B(  0-O ,  1-C ) :   1.9017 B(  1-C ,  2-N ) :   1.0865 B(  1-C ,  9-H ) :   0.9280
B(  2-N ,  3-C ) :   0.9204 B(  2-N ,  8-C ) :   0.9758 B(  3-C ,  4-C ) :   0.9156
B(  3-C , 10-H ) :   0.9238 B(  3-C , 11-H ) :   0.9316 B(  4-C ,  5-C ) :   0.9222
B(  4-C , 12-H ) :   0.9222 B(  4-C , 13-H ) :   0.9247 B(  5-C ,  6-C ) :   0.9299
B(  5-C , 14-H ) :   0.9338 B(  5-C , 15-H ) :   0.9295 B(  6-C ,  7-C ) :   0.9138
B(  6-C , 16-H ) :   0.9237 B(  6-C , 17-H ) :   0.9318 B(  7-C ,  8-C ) :   1.7408
B(  7-C , 18-H ) :   0.9244 B(  8-C , 19-H ) :   0.9206

MP2 TOTAL ENERGY:     -402.489302010 Eh
FINAL SINGLE POINT ENERGY      -402.489302010023

DIPOLE MOMENT
-------------
                                X             Y             Z
Electronic contribution:     -3.75382      -6.24234       5.02312
Nuclear contribution   :      4.18436       7.67045      -5.61685
                        -----------------------------------------
Total Dipole Moment    :      0.43054       1.42811      -0.59373
                        -----------------------------------------
Magnitude (a.u.)       :      1.60542
Magnitude (Debye)      :      4.08065

                             ****ORCA TERMINATED NORMALLY****
TOTAL RUN TIME: 0 days 0 hours 19 minutes 39 seconds 910 msec
