                         Program Version 3.0.3 - RELEASE   -
|  1> ! RI-MP2 RIJK def2-TZVP def2-TZVP/C def2-TZVP/JK TIGHTSCF
|  2> % maxcore 2000
|  3> % mp2 density relaxed end
|  4> *xyz 0 1
|  5>  C       -0.1009331005     1.5740490101     0.0851548943
|  6>  C        0.0186499078     0.0430070185     0.0089229206
|  7>  C        0.7995979886    -0.4477071896    -1.1925269023
|  8>  C        1.8153227965    -1.2591922508    -0.8534121610
|  9>  C        2.7194140634    -1.9003763264    -1.7399834324
| 10>  N        3.4646396682    -2.4473349684    -2.4382730272
| 11>  C        1.8957474112    -1.3813800473     0.6439851949
| 12>  O        2.1432162838    -0.1168646897     1.2845091930
| 13>  C        0.7909476799    -0.5714544273     1.1781277046
| 14>  H        0.8902476124     2.0220237538     0.1882528062
| 15>  H       -0.5756854331     1.9763468575    -0.8144240200
| 16>  H       -0.7063372694     1.8697851776     0.9469979413
| 17>  H       -0.9917902696    -0.3898877286    -0.0200103812
| 18>  H        0.5688470467    -0.1384756084    -2.2055119165
| 19>  H        2.3274826815    -2.2525817653     1.1246574060
| 20>  H        0.2933966226    -0.7868646655     2.1195295995
| 21> *
| 22>
| 23>                          ****END OF INPUT****

CARTESIAN COORDINATES (ANGSTROEM)
---------------------------------
  C     -0.100933    1.574049    0.085155
  C      0.018650    0.043007    0.008923
  C      0.799598   -0.447707   -1.192527
  C      1.815323   -1.259192   -0.853412
  C      2.719414   -1.900376   -1.739983
  N      3.464640   -2.447335   -2.438273
  C      1.895747   -1.381380    0.643985
  O      2.143216   -0.116865    1.284509
  C      0.790948   -0.571454    1.178128
  H      0.890248    2.022024    0.188253
  H     -0.575685    1.976347   -0.814424
  H     -0.706337    1.869785    0.946998
  H     -0.991790   -0.389888   -0.020010
  H      0.568847   -0.138476   -2.205512
  H      2.327483   -2.252582    1.124657
  H      0.293397   -0.786865    2.119530

 Total Charge           Charge          ....    0
 Multiplicity           Mult            ....    1
 Number of Electrons    NEL             ....   64
 Basis Dimension        Dim             ....  321

ORBITAL ENERGIES
----------------

  NO   OCC          E(Eh)            E(eV)
   0   2.0000     -20.587084      -560.2030
   1   2.0000     -15.576715      -423.8640
   2   2.0000     -11.315055      -307.8983
   3   2.0000     -11.307224      -307.6852
   4   2.0000     -11.286973      -307.1341
   5   2.0000     -11.284665      -307.0713
   6   2.0000     -11.280436      -306.9563
   7   2.0000     -11.270941      -306.6979
   8   2.0000     -11.239916      -305.8537
   9   2.0000      -1.434679       -39.0396
  10   2.0000      -1.224131       -33.3103
  11   2.0000      -1.154256       -31.4089
  12   2.0000      -1.057272       -28.7698
  13   2.0000      -0.950395       -25.8616
  14   2.0000      -0.926899       -25.2222
  15   2.0000      -0.846989       -23.0478
  16   2.0000      -0.798934       -21.7401
  17   2.0000      -0.765337       -20.8259
  18   2.0000      -0.680163       -18.5082
  19   2.0000      -0.645952       -17.5772
  20   2.0000      -0.610083       -16.6012
  21   2.0000      -0.603414       -16.4197
  22   2.0000      -0.574804       -15.6412
  23   2.0000      -0.574418       -15.6307
  24   2.0000      -0.557061       -15.1584
  25   2.0000      -0.538154       -14.6439
  26   2.0000      -0.522244       -14.2110
  27   2.0000      -0.506623       -13.7859
  28   2.0000      -0.473140       -12.8748
  29   2.0000      -0.470532       -12.8038
  30   2.0000      -0.440378       -11.9833
  31   2.0000      -0.375234       -10.2106
  32   0.0000       0.074276         2.0212
  33   0.0000       0.126846         3.4517
  34   0.0000       0.150504         4.0954
  35   0.0000       0.158012         4.2997
  36   0.0000       0.170333         4.6350

MULLIKEN ATOMIC CHARGES
-----------------------
   0 C :   -0.426866
   1 C :    0.066063
   2 C :   -0.254542
   3 C :    0.198336
   4 C :   -0.202060
   5 N :   -0.045529
   6 C :   -0.022652
   7 O :   -0.313716
   8 C :    0.006817
   9 H :    0.157477
  10 H :    0.137978
  11 H :    0.137835
  12 H :    0.113328
  13 H :    0.158991
  14 H :    0.145719
  15 H :    0.142819
Sum of atomic charges:   -0.0000000

LOEWDIN ATOMIC CHARGES
----------------------
   0 C :   -0.276912
   1 C :   -0.232809
   2 C :   -0.036969
   3 C :   -0.141633
   4 C :   -0.151667
   5 N :    0.080307
   6 C :   -0.193719
   7 O :    0.182516
   8 C :   -0.217229
   9 H :    0.133186
  10 H :    0.126194
  11 H :    0.127609
  12 H :    0.165714
  13 H :    0.150993
  14 H :    0.145115
  15 H :    0.139304

  Mayer bond orders larger than 0.1
B(  0-C ,  1-C ) :   0.8762 B(  0-C ,  9-H ) :   0.9304 B(  0-C , 10-H ) :   0.9368
B(  0-C , 11-H ) :   0.9341 B(  1-C ,  2-C ) :   0.9247 B(  1-C ,  8-C ) :   0.9305
B(  1-C , 12-H ) :   0.8991 B(  2-C ,  3-C ) :   1.6561 B(  2-C , 13-H ) :   0.9086
B(  3-C ,  4-C ) :   0.9164 B(  3-C ,  6-C ) :   0.8621 B(  4-C ,  5-N ) :   2.8399
B(  6-C ,  7-O ) :   0.9327 B(  6-C ,  8-C ) :   0.9796 B(  6-C , 14-H ) :   0.9328
B(  7-O ,  8-C ) :   0.9078 B(  8-C , 15-H ) :   0.9178

MP2 TOTAL ENERGY:     -400.055529152 Eh
FINAL SINGLE POINT ENERGY      -400.055529152299

DIPOLE MOMENT
-------------
                                X             Y             Z
Electronic contribution:      6.39098      -6.08558      -2.41244
Nuclear contribution   :     -8.04265       6.55808       3.14973
                        -----------------------------------------
Total Dipole Moment    :     -1.65167       0.47250       0.73729
                        -----------------------------------------
Magnitude (a.u.)       :      1.86945
Magnitude (Debye)      :      4.75177

                             ****ORCA TERMINATED NORMALLY****
TOTAL RUN TIME: 0 days 0 hours 16 minutes 57 seconds 704 msec
