                         Program Version 3.0.3 - RELEASE   -
|  1> ! RI-MP2 RIJK def2-TZVP def2-TZVP/C def2-TZVP/JK TIGHTSCF
|  2> % maxcore 2000
|  3> % mp2 density relaxed end
|  4> *xyz 0 1
|  5>  C       -0.0635459811     1.5620375412     0.0008295542
|  6>  C       -0.0373485480     0.0541775357    -0.0209745982
|  7>  C        0.6988386028    -0.7972556200    -1.1295558269
|  8>  C       -0.2151056120    -1.9515935306    -0.5788802406
|  9>  C        0.2861162444    -2.0197505182     0.8728123495
| 10>  C        0.4035422075    -0.7361641942     1.2304431058
| 11>  C       -1.2456415408    -0.8206686961    -0.4083289229
| 12>  N       -2.4606210817    -0.5614440175    -0.6083076985
| 13>  O       -3.1690974649    -1.7033466462    -1.0589079168
| 14>  H        0.9385042430     1.9671800799     0.1775951622
| 15>  H       -0.4317974289     1.9618540386    -0.9482480290
| 16>  H       -0.7214514142     1.9303627989     0.7944585964
| 17>  H        0.4454489337    -0.4865063446    -2.1482443937
| 18>  H        1.7759115937    -0.9319341118    -0.9990829096
| 19>  H       -0.4209269392    -2.8653419682    -1.1282782850
| 20>  H        0.4452153946    -2.9204176549     1.4480656385
| 21>  H        0.6839435443    -0.2987472701     2.1785823293
| 22>  H       -4.0600534732    -1.3525290521    -1.1608484644
| 23> *
| 24>
| 25>                          ****END OF INPUT****

CARTESIAN COORDINATES (ANGSTROEM)
---------------------------------
  C     -0.063546    1.562038    0.000830
  C     -0.037349    0.054178   -0.020975
  C      0.698839   -0.797256   -1.129556
  C     -0.215106   -1.951594   -0.578880
  C      0.286116   -2.019751    0.872812
  C      0.403542   -0.736164    1.230443
  C     -1.245642   -0.820669   -0.408329
  N     -2.460621   -0.561444   -0.608308
  O     -3.169097   -1.703347   -1.058908
  H      0.938504    1.967180    0.177595
  H     -0.431797    1.961854   -0.948248
  H     -0.721451    1.930363    0.794459
  H      0.445449   -0.486506   -2.148244
  H      1.775912   -0.931934   -0.999083
  H     -0.420927   -2.865342   -1.128278
  H      0.445215   -2.920418    1.448066
  H      0.683944   -0.298747    2.178582
  H     -4.060053   -1.352529   -1.160848

 Total Charge           Charge          ....    0
 Multiplicity           Mult            ....    1
 Number of Electrons    NEL             ....   66
 Basis Dimension        Dim             ....  333

ORBITAL ENERGIES
----------------

  NO   OCC          E(Eh)            E(eV)
   0   2.0000     -20.582694      -560.0836
   1   2.0000     -15.602473      -424.5649
   2   2.0000     -11.280363      -306.9543
   3   2.0000     -11.261213      -306.4332
   4   2.0000     -11.255630      -306.2813
   5   2.0000     -11.242592      -305.9265
   6   2.0000     -11.239597      -305.8450
   7   2.0000     -11.236876      -305.7710
   8   2.0000     -11.222711      -305.3855
   9   2.0000      -1.403752       -38.1980
  10   2.0000      -1.225251       -33.3408
  11   2.0000      -1.122848       -30.5543
  12   2.0000      -1.012318       -27.5466
  13   2.0000      -0.986551       -26.8454
  14   2.0000      -0.882869       -24.0241
  15   2.0000      -0.845594       -23.0098
  16   2.0000      -0.740307       -20.1448
  17   2.0000      -0.705682       -19.2026
  18   2.0000      -0.682941       -18.5838
  19   2.0000      -0.672525       -18.3003
  20   2.0000      -0.653478       -17.7820
  21   2.0000      -0.592074       -16.1112
  22   2.0000      -0.582350       -15.8465
  23   2.0000      -0.575313       -15.6551
  24   2.0000      -0.562566       -15.3082
  25   2.0000      -0.536964       -14.6115
  26   2.0000      -0.509857       -13.8739
  27   2.0000      -0.502098       -13.6628
  28   2.0000      -0.482355       -13.1255
  29   2.0000      -0.450634       -12.2624
  30   2.0000      -0.410276       -11.1642
  31   2.0000      -0.384076       -10.4512
  32   2.0000      -0.345313        -9.3964
  33   0.0000       0.131898         3.5891
  34   0.0000       0.142988         3.8909
  35   0.0000       0.155344         4.2271
  36   0.0000       0.166250         4.5239
  37   0.0000       0.172234         4.6867

MULLIKEN ATOMIC CHARGES
-----------------------
   0 C :   -0.422834
   1 C :    0.130720
   2 C :   -0.226361
   3 C :   -0.014327
   4 C :   -0.208167
   5 C :   -0.212854
   6 C :   -0.028269
   7 N :   -0.089349
   8 O :   -0.363215
   9 H :    0.137900
  10 H :    0.142384
  11 H :    0.144079
  12 H :    0.125581
  13 H :    0.122956
  14 H :    0.150506
  15 H :    0.139803
  16 H :    0.136143
  17 H :    0.335305
Sum of atomic charges:    0.0000000

LOEWDIN ATOMIC CHARGES
----------------------
   0 C :   -0.267705
   1 C :   -0.202475
   2 C :   -0.142698
   3 C :   -0.148338
   4 C :   -0.116542
   5 C :   -0.101208
   6 C :   -0.209471
   7 N :    0.023034
   8 O :   -0.084985
   9 H :    0.130257
  10 H :    0.132439
  11 H :    0.134132
  12 H :    0.138254
  13 H :    0.132741
  14 H :    0.141553
  15 H :    0.135899
  16 H :    0.137734
  17 H :    0.167380

  Mayer bond orders larger than 0.1
B(  0-C ,  1-C ) :   0.8409 B(  0-C ,  9-H ) :   0.9409 B(  0-C , 10-H ) :   0.9500
B(  0-C , 11-H ) :   0.9397 B(  1-C ,  2-C ) :   0.9030 B(  1-C ,  5-C ) :   0.9112
B(  1-C ,  6-C ) :   0.9165 B(  2-C ,  3-C ) :   0.9215 B(  2-C , 12-H ) :   0.9161
B(  2-C , 13-H ) :   0.9101 B(  3-C ,  4-C ) :   0.9172 B(  3-C ,  6-C ) :   0.8732
B(  3-C , 14-H ) :   0.8978 B(  4-C ,  5-C ) :   1.7467 B(  4-C , 15-H ) :   0.9286
B(  5-C , 16-H ) :   0.9311 B(  6-C ,  7-N ) :   1.9469 B(  7-N ,  8-O ) :   0.7799
B(  8-O , 17-H ) :   0.8444

MP2 TOTAL ENERGY:     -401.173015709 Eh
FINAL SINGLE POINT ENERGY      -401.173015709248

DIPOLE MOMENT
-------------
                                X             Y             Z
Electronic contribution:     -4.43784      -3.59149      -0.20485
Nuclear contribution   :      4.76689       3.66906       0.20680
                        -----------------------------------------
Total Dipole Moment    :      0.32905       0.07757       0.00195
                        -----------------------------------------
Magnitude (a.u.)       :      0.33807
Magnitude (Debye)      :      0.85931

                             ****ORCA TERMINATED NORMALLY****
TOTAL RUN TIME: 0 days 0 hours 17 minutes 20 seconds 292 msec
