                         Program Version 3.0.3 - RELEASE   -
|  1> ! RI-MP2 RIJK def2-TZVP def2-TZVP/C def2-TZVP/JK TIGHTSCF
|  2> % maxcore 2000
|  3> % mp2 density relaxed end
|  4> *xyz 0 1
|  5>  C        0.6196304832     1.3466177097     0.0943093794
|  6>  C       -0.0781450560     0.0058590515     0.0420655476
|  7>  C       -1.5601430491    -0.0033445710     0.4192385738
|  8>  C       -1.7536654182     0.3804173553     1.8818540983
|  9>  O       -1.8906561870     1.5318017284     2.2383329215
| 10>  C       -1.7330673169    -0.7135312649     2.8341084829
| 11>  C       -1.7342097544    -1.6241420793     3.6213064345
| 12>  C        0.4290870831    -1.0549477583    -0.8413773389
| 13>  O        0.6684884166    -1.1007049160     0.5674637604
| 14>  H        0.5100526279     1.8094000026     1.0787577716
| 15>  H        1.6840025562     1.2229223658    -0.1182127874
| 16>  H        0.1901845159     2.0332409049    -0.6427851580
| 17>  H       -2.0944445394     0.7347668022    -0.1870820557
| 18>  H       -1.9746065241    -0.9975326892     0.2351126627
| 19>  H       -1.7263394388    -2.4223405273     4.3233037456
| 20>  H       -0.2508095324    -1.8139558068    -1.2269318603
| 21>  H        1.3065703335    -0.8642201677    -1.4581348380
| 22> *
| 23>
| 24>                          ****END OF INPUT****

CARTESIAN COORDINATES (ANGSTROEM)
---------------------------------
  C      0.619630    1.346618    0.094309
  C     -0.078145    0.005859    0.042066
  C     -1.560143   -0.003345    0.419239
  C     -1.753665    0.380417    1.881854
  O     -1.890656    1.531802    2.238333
  C     -1.733067   -0.713531    2.834108
  C     -1.734210   -1.624142    3.621306
  C      0.429087   -1.054948   -0.841377
  O      0.668488   -1.100705    0.567464
  H      0.510053    1.809400    1.078758
  H      1.684003    1.222922   -0.118213
  H      0.190185    2.033241   -0.642785
  H     -2.094445    0.734767   -0.187082
  H     -1.974607   -0.997533    0.235113
  H     -1.726339   -2.422341    4.323304
  H     -0.250810   -1.813956   -1.226932
  H      1.306570   -0.864220   -1.458135

 Total Charge           Charge          ....    0
 Multiplicity           Mult            ....    1
 Number of Electrons    NEL             ....   66
 Basis Dimension        Dim             ....  327

ORBITAL ENERGIES
----------------

  NO   OCC          E(Eh)            E(eV)
   0   2.0000     -20.574291      -559.8549
   1   2.0000     -20.565092      -559.6046
   2   2.0000     -11.363666      -309.2211
   3   2.0000     -11.310043      -307.7619
   4   2.0000     -11.290581      -307.2323
   5   2.0000     -11.260324      -306.4090
   6   2.0000     -11.255830      -306.2867
   7   2.0000     -11.250105      -306.1309
   8   2.0000     -11.227604      -305.5186
   9   2.0000      -1.420975       -38.6667
  10   2.0000      -1.406020       -38.2598
  11   2.0000      -1.083449       -29.4821
  12   2.0000      -1.049453       -28.5571
  13   2.0000      -0.986220       -26.8364
  14   2.0000      -0.920460       -25.0470
  15   2.0000      -0.872266       -23.7356
  16   2.0000      -0.791230       -21.5304
  17   2.0000      -0.733590       -19.9620
  18   2.0000      -0.704284       -19.1645
  19   2.0000      -0.678144       -18.4532
  20   2.0000      -0.658254       -17.9120
  21   2.0000      -0.648717       -17.6525
  22   2.0000      -0.603478       -16.4215
  23   2.0000      -0.574533       -15.6338
  24   2.0000      -0.565965       -15.4007
  25   2.0000      -0.545554       -14.8453
  26   2.0000      -0.525061       -14.2876
  27   2.0000      -0.511750       -13.9254
  28   2.0000      -0.469650       -12.7798
  29   2.0000      -0.452459       -12.3120
  30   2.0000      -0.425199       -11.5702
  31   2.0000      -0.416481       -11.3330
  32   2.0000      -0.414674       -11.2838
  33   0.0000       0.077892         2.1196
  34   0.0000       0.139488         3.7957
  35   0.0000       0.156906         4.2696
  36   0.0000       0.165056         4.4914
  37   0.0000       0.169510         4.6126

MULLIKEN ATOMIC CHARGES
-----------------------
   0 C :   -0.420253
   1 C :    0.149145
   2 C :   -0.179553
   3 C :    0.066161
   4 O :   -0.261640
   5 C :    0.036539
   6 C :   -0.116790
   7 C :   -0.086688
   8 O :   -0.333000
   9 H :    0.160635
  10 H :    0.140328
  11 H :    0.133682
  12 H :    0.137162
  13 H :    0.139919
  14 H :    0.201332
  15 H :    0.113867
  16 H :    0.119154
Sum of atomic charges:   -0.0000000

LOEWDIN ATOMIC CHARGES
----------------------
   0 C :   -0.260793
   1 C :   -0.344646
   2 C :   -0.177471
   3 C :   -0.319132
   4 O :    0.178080
   5 C :   -0.057867
   6 C :   -0.035740
   7 C :   -0.244753
   8 O :    0.167756
   9 H :    0.135696
  10 H :    0.133499
  11 H :    0.133419
  12 H :    0.159029
  13 H :    0.157582
  14 H :    0.132416
  15 H :    0.120555
  16 H :    0.122371

  Mayer bond orders larger than 0.1
B(  0-C ,  1-C ) :   0.9209 B(  0-C ,  9-H ) :   0.9267 B(  0-C , 10-H ) :   0.9343
B(  0-C , 11-H ) :   0.9311 B(  1-C ,  2-C ) :   0.8962 B(  1-C ,  7-C ) :   0.9776
B(  1-C ,  8-O ) :   0.8521 B(  2-C ,  3-C ) :   0.9494 B(  2-C , 12-H ) :   0.9196
B(  2-C , 13-H ) :   0.9084 B(  3-C ,  4-O ) :   1.9988 B(  3-C ,  5-C ) :   1.0400
B(  5-C ,  6-C ) :   2.6138 B(  6-C , 14-H ) :   0.8940 B(  7-C ,  8-O ) :   0.9118
B(  7-C , 15-H ) :   0.8995 B(  7-C , 16-H ) :   0.9164

MP2 TOTAL ENERGY:     -421.064087044 Eh
FINAL SINGLE POINT ENERGY      -421.064087044362

DIPOLE MOMENT
-------------
                                X             Y             Z
Electronic contribution:     -3.40218      -1.18852       5.94829
Nuclear contribution   :      3.33924       0.53909      -6.79562
                        -----------------------------------------
Total Dipole Moment    :     -0.06294      -0.64943      -0.84732
                        -----------------------------------------
Magnitude (a.u.)       :      1.06943
Magnitude (Debye)      :      2.71827

                             ****ORCA TERMINATED NORMALLY****
TOTAL RUN TIME: 0 days 0 hours 15 minutes 49 seconds 820 msec
