                         Program Version 3.0.3 - RELEASE   -
|  1> ! RI-MP2 RIJK def2-TZVP def2-TZVP/C def2-TZVP/JK TIGHTSCF
|  2> % maxcore 2000
|  3> % mp2 density relaxed end
|  4> *xyz 0 1
|  5>  C       -0.2531478189     1.5377730503     0.0412347165
|  6>  C       -0.0505914659     0.0359199821     0.0568498859
|  7>  C       -1.2090258859    -0.7537621129    -0.5216491677
|  8>  N        1.3204819187    -0.4128561398    -0.2632362955
|  9>  C        0.7877299614    -0.6260348366     1.0992369025
| 10>  C        1.4807252021     0.0929023981     2.2123949307
| 11>  C        0.8694170890     0.1112202283     3.6039872566
| 12>  C        2.1185665423    -0.6859662333     3.3304481179
| 13>  O        2.0372912136    -2.0812869322     3.2555863688
| 14>  H        0.6329581810     2.0642401148     0.3991255087
| 15>  H       -0.4574647025     1.8847490325    -0.9782326946
| 16>  H       -1.1045774223     1.8234308431     0.6692351446
| 17>  H       -1.3617444530    -0.5027597091    -1.5785342417
| 18>  H       -1.0311338965    -1.8319106093    -0.4511140911
| 19>  H       -2.1439411168    -0.5326780353     0.0058769147
| 20>  H        1.2972475312    -1.2839574646    -0.7882830299
| 21>  H        0.4984177076    -1.6412422370     1.3606460516
| 22>  H        2.0139475076     0.9850515490     1.9036688735
| 23>  H        0.9339304789     1.0163580961     4.1981769521
| 24>  H       -0.0441752403    -0.4594219734     3.7404485879
| 25>  H        3.0612854465    -0.3084450845     3.7259594912
| 26>  H        1.8814923724    -2.4160767664     4.1445204574
| 27> *
| 28>
| 29>                          ****END OF INPUT****

CARTESIAN COORDINATES (ANGSTROEM)
---------------------------------
  C     -0.253148    1.537773    0.041235
  C     -0.050591    0.035920    0.056850
  C     -1.209026   -0.753762   -0.521649
  N      1.320482   -0.412856   -0.263236
  C      0.787730   -0.626035    1.099237
  C      1.480725    0.092902    2.212395
  C      0.869417    0.111220    3.603987
  C      2.118567   -0.685966    3.330448
  O      2.037291   -2.081287    3.255586
  H      0.632958    2.064240    0.399126
  H     -0.457465    1.884749   -0.978233
  H     -1.104577    1.823431    0.669235
  H     -1.361744   -0.502760   -1.578534
  H     -1.031134   -1.831911   -0.451114
  H     -2.143941   -0.532678    0.005877
  H      1.297248   -1.283957   -0.788283
  H      0.498418   -1.641242    1.360646
  H      2.013948    0.985052    1.903669
  H      0.933930    1.016358    4.198177
  H     -0.044175   -0.459422    3.740449
  H      3.061285   -0.308445    3.725959
  H      1.881492   -2.416077    4.144520

 Total Charge           Charge          ....    0
 Multiplicity           Mult            ....    1
 Number of Electrons    NEL             ....   70
 Basis Dimension        Dim             ....  357

ORBITAL ENERGIES
----------------

  NO   OCC          E(Eh)            E(eV)
   0   2.0000     -20.563657      -559.5656
   1   2.0000     -15.541609      -422.9087
   2   2.0000     -11.282087      -307.0012
   3   2.0000     -11.257141      -306.3224
   4   2.0000     -11.248630      -306.0908
   5   2.0000     -11.229206      -305.5622
   6   2.0000     -11.225323      -305.4566
   7   2.0000     -11.219212      -305.2903
   8   2.0000     -11.210104      -305.0424
   9   2.0000      -1.372815       -37.3562
  10   2.0000      -1.253905       -34.1205
  11   2.0000      -1.128047       -30.6957
  12   2.0000      -1.009473       -27.4692
  13   2.0000      -0.939206       -25.5571
  14   2.0000      -0.902454       -24.5570
  15   2.0000      -0.828230       -22.5373
  16   2.0000      -0.790644       -21.5145
  17   2.0000      -0.747544       -20.3417
  18   2.0000      -0.694524       -18.8990
  19   2.0000      -0.675721       -18.3873
  20   2.0000      -0.643057       -17.4985
  21   2.0000      -0.621555       -16.9134
  22   2.0000      -0.590875       -16.0785
  23   2.0000      -0.585203       -15.9242
  24   2.0000      -0.557590       -15.1728
  25   2.0000      -0.544478       -14.8160
  26   2.0000      -0.536510       -14.5992
  27   2.0000      -0.517715       -14.0877
  28   2.0000      -0.514743       -14.0069
  29   2.0000      -0.474627       -12.9152
  30   2.0000      -0.466096       -12.6831
  31   2.0000      -0.447923       -12.1886
  32   2.0000      -0.416424       -11.3315
  33   2.0000      -0.395990       -10.7754
  34   2.0000      -0.360366        -9.8061
  35   0.0000       0.135919         3.6985
  36   0.0000       0.144282         3.9261
  37   0.0000       0.159940         4.3522
  38   0.0000       0.169991         4.6257
  39   0.0000       0.184482         5.0200

MULLIKEN ATOMIC CHARGES
-----------------------
   0 C :   -0.395905
   1 C :    0.137259
   2 C :   -0.386382
   3 N :   -0.391200
   4 C :   -0.083319
   5 C :   -0.067610
   6 C :   -0.298932
   7 C :    0.009233
   8 O :   -0.473823
   9 H :    0.132444
  10 H :    0.127308
  11 H :    0.122586
  12 H :    0.133192
  13 H :    0.126195
  14 H :    0.128566
  15 H :    0.212333
  16 H :    0.133759
  17 H :    0.137972
  18 H :    0.130369
  19 H :    0.132018
  20 H :    0.109408
  21 H :    0.324527
Sum of atomic charges:   -0.0000000

LOEWDIN ATOMIC CHARGES
----------------------
   0 C :   -0.266488
   1 C :   -0.333616
   2 C :   -0.277762
   3 N :    0.023915
   4 C :   -0.223634
   5 C :   -0.191906
   6 C :   -0.218127
   7 C :   -0.317114
   8 O :   -0.005190
   9 H :    0.128665
  10 H :    0.127459
  11 H :    0.126727
  12 H :    0.126798
  13 H :    0.125732
  14 H :    0.128909
  15 H :    0.163867
  16 H :    0.148012
  17 H :    0.154894
  18 H :    0.130837
  19 H :    0.137273
  20 H :    0.130250
  21 H :    0.180500

  Mayer bond orders larger than 0.1
B(  0-C ,  1-C ) :   0.8991 B(  0-C ,  9-H ) :   0.9393 B(  0-C , 10-H ) :   0.9355
B(  0-C , 11-H ) :   0.9384 B(  1-C ,  2-C ) :   0.9221 B(  1-C ,  3-N ) :   0.9465
B(  1-C ,  4-C ) :   0.9207 B(  2-C , 12-H ) :   0.9378 B(  2-C , 13-H ) :   0.9299
B(  2-C , 14-H ) :   0.9274 B(  3-N ,  4-C ) :   0.8934 B(  3-N , 15-H ) :   0.8703
B(  4-C ,  5-C ) :   0.8753 B(  4-C , 16-H ) :   0.9212 B(  5-C ,  6-C ) :   0.8559
B(  5-C ,  7-C ) :   0.8699 B(  5-C ,  8-O ) :  -0.1007 B(  5-C , 17-H ) :   0.9158
B(  6-C ,  7-C ) :   0.9044 B(  6-C , 18-H ) :   0.9207 B(  6-C , 19-H ) :   0.9212
B(  7-C ,  8-O ) :   1.0342 B(  7-C , 20-H ) :   0.9536 B(  8-O , 21-H ) :   0.8402

MP2 TOTAL ENERGY:     -403.620890580 Eh
FINAL SINGLE POINT ENERGY      -403.620890579576

DIPOLE MOMENT
-------------
                                X             Y             Z
Electronic contribution:      5.10194      -3.14764       2.86268
Nuclear contribution   :     -5.67527       3.04113      -2.17676
                        -----------------------------------------
Total Dipole Moment    :     -0.57333      -0.10651       0.68592
                        -----------------------------------------
Magnitude (a.u.)       :      0.90030
Magnitude (Debye)      :      2.28838

                             ****ORCA TERMINATED NORMALLY****
TOTAL RUN TIME: 0 days 0 hours 17 minutes 23 seconds 47 msec
