                         Program Version 3.0.3 - RELEASE   -
|  1> ! RI-MP2 RIJK def2-TZVP def2-TZVP/C def2-TZVP/JK TIGHTSCF
|  2> % maxcore 2000
|  3> % mp2 density relaxed end
|  4> *xyz 0 1
|  5>  C        0.0785750595     1.5315488197     0.0986370511
|  6>  C       -0.0603951890     0.0413474412    -0.0405075252
|  7>  C        0.4775471523    -0.6919800375    -1.3010378497
|  8>  C       -0.6517229334    -1.7468963094    -1.1414861148
|  9>  O       -1.3119737179    -2.2030434398    -2.2832145992
| 10>  C       -0.3729172277    -2.7429419493     0.0181521771
| 11>  C       -0.7287215170    -1.6184579910     1.0210035281
| 12>  O        0.3480844162    -0.6674975617     1.1620371777
| 13>  C       -1.3771560629    -0.7931606483    -0.1225983410
| 14>  H        1.1323848554     1.8013190489     0.2325909305
| 15>  H       -0.2943730312     2.0422618609    -0.7944990935
| 16>  H       -0.4776207013     1.8917345137     0.9690357741
| 17>  H        0.2881421450    -0.0970141927    -2.2006892249
| 18>  H        1.5204154990    -1.0212788640    -1.2771407540
| 19>  H       -0.7017793440    -2.7544290199    -2.7861846106
| 20>  H       -1.1512593220    -3.5132420309     0.0219669726
| 21>  H        0.6164055532    -3.2015749900     0.1047117452
| 22>  H       -1.1783323927    -1.8767661100     1.9808727641
| 23>  H       -2.3961321718    -0.4229625499    -0.1907243076
| 24> *
| 25>
| 26>                          ****END OF INPUT****

CARTESIAN COORDINATES (ANGSTROEM)
---------------------------------
  C      0.078575    1.531549    0.098637
  C     -0.060395    0.041347   -0.040508
  C      0.477547   -0.691980   -1.301038
  C     -0.651723   -1.746896   -1.141486
  O     -1.311974   -2.203043   -2.283215
  C     -0.372917   -2.742942    0.018152
  C     -0.728722   -1.618458    1.021004
  O      0.348084   -0.667498    1.162037
  C     -1.377156   -0.793161   -0.122598
  H      1.132385    1.801319    0.232591
  H     -0.294373    2.042262   -0.794499
  H     -0.477621    1.891735    0.969036
  H      0.288142   -0.097014   -2.200689
  H      1.520415   -1.021279   -1.277141
  H     -0.701779   -2.754429   -2.786185
  H     -1.151259   -3.513242    0.021967
  H      0.616406   -3.201575    0.104712
  H     -1.178332   -1.876766    1.980873
  H     -2.396132   -0.422963   -0.190724

 Total Charge           Charge          ....    0
 Multiplicity           Mult            ....    1
 Number of Electrons    NEL             ....   68
 Basis Dimension        Dim             ....  339

ORBITAL ENERGIES
----------------

  NO   OCC          E(Eh)            E(eV)
   0   2.0000     -20.564268      -559.5822
   1   2.0000     -20.544502      -559.0443
   2   2.0000     -11.292098      -307.2736
   3   2.0000     -11.289674      -307.2077
   4   2.0000     -11.283482      -307.0392
   5   2.0000     -11.229764      -305.5774
   6   2.0000     -11.224041      -305.4217
   7   2.0000     -11.223396      -305.4041
   8   2.0000     -11.217940      -305.2557
   9   2.0000      -1.388667       -37.7876
  10   2.0000      -1.370050       -37.2810
  11   2.0000      -1.131585       -30.7920
  12   2.0000      -1.043288       -28.3893
  13   2.0000      -0.956639       -26.0315
  14   2.0000      -0.916219       -24.9316
  15   2.0000      -0.830003       -22.5855
  16   2.0000      -0.796635       -21.6775
  17   2.0000      -0.711384       -19.3577
  18   2.0000      -0.693007       -18.8577
  19   2.0000      -0.653076       -17.7711
  20   2.0000      -0.648281       -17.6406
  21   2.0000      -0.623801       -16.9745
  22   2.0000      -0.594822       -16.1859
  23   2.0000      -0.591168       -16.0865
  24   2.0000      -0.564902       -15.3718
  25   2.0000      -0.558469       -15.1967
  26   2.0000      -0.545345       -14.8396
  27   2.0000      -0.528536       -14.3822
  28   2.0000      -0.500710       -13.6250
  29   2.0000      -0.461226       -12.5506
  30   2.0000      -0.433257       -11.7895
  31   2.0000      -0.417362       -11.3570
  32   2.0000      -0.397566       -10.8183
  33   2.0000      -0.392046       -10.6681
  34   0.0000       0.135848         3.6966
  35   0.0000       0.146418         3.9842
  36   0.0000       0.164351         4.4722
  37   0.0000       0.184798         5.0286
  38   0.0000       0.191203         5.2029

MULLIKEN ATOMIC CHARGES
-----------------------
   0 C :   -0.401989
   1 C :    0.160727
   2 C :   -0.263483
   3 C :    0.244699
   4 O :   -0.454918
   5 C :   -0.260425
   6 C :    0.024924
   7 O :   -0.323612
   8 C :   -0.165990
   9 H :    0.139434
  10 H :    0.128478
  11 H :    0.136172
  12 H :    0.109473
  13 H :    0.114733
  14 H :    0.319727
  15 H :    0.113374
  16 H :    0.114805
  17 H :    0.119134
  18 H :    0.144737
Sum of atomic charges:    0.0000000

LOEWDIN ATOMIC CHARGES
----------------------
   0 C :   -0.273440
   1 C :   -0.293827
   2 C :   -0.168302
   3 C :   -0.329355
   4 O :    0.013701
   5 C :   -0.192750
   6 C :   -0.230995
   7 O :    0.176518
   8 C :   -0.086475
   9 H :    0.134092
  10 H :    0.130547
  11 H :    0.130899
  12 H :    0.145072
  13 H :    0.129314
  14 H :    0.181525
  15 H :    0.144892
  16 H :    0.127494
  17 H :    0.125342
  18 H :    0.135749

  Mayer bond orders larger than 0.1
B(  0-C ,  1-C ) :   0.8653 B(  0-C ,  9-H ) :   0.9382 B(  0-C , 10-H ) :   0.9344
B(  0-C , 11-H ) :   0.9400 B(  1-C ,  2-C ) :   0.9429 B(  1-C ,  7-O ) :   0.9423
B(  1-C ,  8-C ) :   0.9099 B(  2-C ,  3-C ) :   0.9790 B(  2-C , 12-H ) :   0.9034
B(  2-C , 13-H ) :   0.8945 B(  3-C ,  4-O ) :   1.0386 B(  3-C ,  5-C ) :   0.9562
B(  3-C ,  8-C ) :   0.9402 B(  4-O , 14-H ) :   0.8364 B(  5-C ,  6-C ) :   0.9073
B(  5-C , 15-H ) :   0.9049 B(  5-C , 16-H ) :   0.9032 B(  6-C ,  7-O ) :   0.9506
B(  6-C ,  8-C ) :   0.9442 B(  6-C , 17-H ) :   0.9231 B(  8-C , 18-H ) :   0.8712

MP2 TOTAL ENERGY:     -422.281041085 Eh
FINAL SINGLE POINT ENERGY      -422.281041085067

DIPOLE MOMENT
-------------
                                X             Y             Z
Electronic contribution:     -1.15817      -2.76182       0.37914
Nuclear contribution   :      1.21695       2.60633      -0.76335
                        -----------------------------------------
Total Dipole Moment    :      0.05878      -0.15549      -0.38421
                        -----------------------------------------
Magnitude (a.u.)       :      0.41863
Magnitude (Debye)      :      1.06408

                             ****ORCA TERMINATED NORMALLY****
TOTAL RUN TIME: 0 days 0 hours 17 minutes 28 seconds 584 msec
