                         Program Version 3.0.3 - RELEASE   -
|  1> ! RI-MP2 RIJK def2-TZVP def2-TZVP/C def2-TZVP/JK TIGHTSCF
|  2> % maxcore 2000
|  3> % mp2 density relaxed end
|  4> *xyz 0 1
|  5>  N        0.1041469681     1.4288189499     0.1485941142
|  6>  C        0.0139973824     0.0471796218     0.0156725790
|  7>  C       -1.0340250755    -0.8100683305    -0.0329155119
|  8>  O       -0.5967595362    -2.1329384460    -0.0453192229
|  9>  C        0.7472683306    -2.0628494915    -0.0329356707
| 10>  N        1.7127863262    -2.9361522477    -0.0482347201
| 11>  C        2.8413959036    -2.1301530047    -0.0045560878
| 12>  C        2.5401226899    -0.7883677211     0.0358974613
| 13>  N        1.1517375549    -0.7578367768     0.0154517715
| 14>  H        0.6853532306     1.8561981941    -0.5653201647
| 15>  H       -0.8053855974     1.8721026472     0.1506214557
| 16>  H       -2.0976938602    -0.6572714213    -0.0421768740
| 17>  H        3.8267528914    -2.5711641903    -0.0026034270
| 18>  H        3.1453465417     0.0986698670     0.0935063075
| 19> *
| 20>
| 21>                          ****END OF INPUT****

CARTESIAN COORDINATES (ANGSTROEM)
---------------------------------
  N      0.104147    1.428819    0.148594
  C      0.013997    0.047180    0.015673
  C     -1.034025   -0.810068   -0.032916
  O     -0.596760   -2.132938   -0.045319
  C      0.747268   -2.062849   -0.032936
  N      1.712786   -2.936152   -0.048235
  C      2.841396   -2.130153   -0.004556
  C      2.540123   -0.788368    0.035897
  N      1.151738   -0.757837    0.015452
  H      0.685353    1.856198   -0.565320
  H     -0.805386    1.872103    0.150621
  H     -2.097694   -0.657271   -0.042177
  H      3.826753   -2.571164   -0.002603
  H      3.145347    0.098670    0.093506

 Total Charge           Charge          ....    0
 Multiplicity           Mult            ....    1
 Number of Electrons    NEL             ....   64
 Basis Dimension        Dim             ....  309

ORBITAL ENERGIES
----------------

  NO   OCC          E(Eh)            E(eV)
   0   2.0000     -20.631009      -561.3983
   1   2.0000     -15.633069      -425.3974
   2   2.0000     -15.601958      -424.5509
   3   2.0000     -15.542740      -422.9395
   4   2.0000     -11.357268      -309.0470
   5   2.0000     -11.339722      -308.5695
   6   2.0000     -11.295161      -307.3569
   7   2.0000     -11.263175      -306.4866
   8   2.0000     -11.256147      -306.2953
   9   2.0000      -1.488228       -40.4968
  10   2.0000      -1.341572       -36.5060
  11   2.0000      -1.261200       -34.3190
  12   2.0000      -1.189610       -32.3709
  13   2.0000      -1.031433       -28.0667
  14   2.0000      -1.001369       -27.2486
  15   2.0000      -0.855552       -23.2808
  16   2.0000      -0.834972       -22.7207
  17   2.0000      -0.807984       -21.9864
  18   2.0000      -0.725035       -19.7292
  19   2.0000      -0.700912       -19.0728
  20   2.0000      -0.687778       -18.7154
  21   2.0000      -0.666167       -18.1273
  22   2.0000      -0.642944       -17.4954
  23   2.0000      -0.629019       -17.1165
  24   2.0000      -0.575185       -15.6516
  25   2.0000      -0.571770       -15.5586
  26   2.0000      -0.563185       -15.3250
  27   2.0000      -0.524305       -14.2671
  28   2.0000      -0.447082       -12.1657
  29   2.0000      -0.433909       -11.8073
  30   2.0000      -0.318965        -8.6795
  31   2.0000      -0.315964        -8.5978
  32   0.0000       0.109474         2.9789
  33   0.0000       0.143859         3.9146
  34   0.0000       0.156297         4.2531
  35   0.0000       0.180693         4.9169
  36   0.0000       0.182901         4.9770

MULLIKEN ATOMIC CHARGES
-----------------------
   0 N :   -0.528478
   1 C :    0.163013
   2 C :   -0.098131
   3 O :   -0.218086
   4 C :    0.268569
   5 N :   -0.273914
   6 C :   -0.087909
   7 C :   -0.166706
   8 N :   -0.028018
   9 H :    0.264149
  10 H :    0.255966
  11 H :    0.161229
  12 H :    0.134893
  13 H :    0.153424
Sum of atomic charges:    0.0000000

LOEWDIN ATOMIC CHARGES
----------------------
   0 N :   -0.076214
   1 C :   -0.312883
   2 C :   -0.228723
   3 O :    0.326739
   4 C :   -0.392005
   5 N :    0.096205
   6 C :   -0.248471
   7 C :   -0.230562
   8 N :    0.306377
   9 H :    0.175514
  10 H :    0.177593
  11 H :    0.136860
  12 H :    0.134003
  13 H :    0.135566

  Mayer bond orders larger than 0.1
B(  0-N ,  1-C ) :   1.0290 B(  0-N ,  9-H ) :   0.8611 B(  0-N , 10-H ) :   0.8782
B(  1-C ,  2-C ) :   1.6112 B(  1-C ,  8-N ) :   1.0270 B(  2-C ,  3-O ) :   0.9736
B(  2-C , 11-H ) :   0.9384 B(  3-O ,  4-C ) :   1.0664 B(  4-C ,  5-N ) :   1.6270
B(  4-C ,  8-N ) :   1.1208 B(  5-N ,  6-C ) :   1.2298 B(  6-C ,  7-C ) :   1.5120
B(  6-C , 12-H ) :   0.9421 B(  7-C ,  8-N ) :   1.0462 B(  7-C , 13-H ) :   0.9131

MP2 TOTAL ENERGY:     -432.165523767 Eh
FINAL SINGLE POINT ENERGY      -432.165523767427

DIPOLE MOMENT
-------------
                                X             Y             Z
Electronic contribution:     -1.25187      -3.58480       0.00815
Nuclear contribution   :      0.70186       5.66657      -0.35496
                        -----------------------------------------
Total Dipole Moment    :     -0.55001       2.08177      -0.34682
                        -----------------------------------------
Magnitude (a.u.)       :      2.18096
Magnitude (Debye)      :      5.54355

                             ****ORCA TERMINATED NORMALLY****
TOTAL RUN TIME: 0 days 0 hours 14 minutes 25 seconds 586 msec
