                         Program Version 3.0.3 - RELEASE   -
|  1> ! RI-MP2 RIJK def2-TZVP def2-TZVP/C def2-TZVP/JK TIGHTSCF
|  2> % maxcore 2000
|  3> % mp2 density relaxed end
|  4> *xyz 0 1
|  5>  C       -0.2179254631     1.5406313482     0.0287227696
|  6>  C       -0.1167781597     0.0111539017    -0.0018005360
|  7>  C        0.7119532000    -0.5198929762     1.1737290928
|  8>  N       -1.4584351099    -0.5543740789     0.0720941798
|  9>  C       -1.8490713348    -1.2641424234    -0.8877803074
| 10>  O       -3.0835389093    -1.8136488487    -0.8801821663
| 11>  C       -3.4315440749    -2.6250571668    -2.0065991761
| 12>  C       -4.9220522289    -2.8991602091    -1.8873612042
| 13>  O       -5.6758320041    -1.7067760561    -1.9234232361
| 14>  H        0.7777954405     1.9943873974    -0.0050766415
| 15>  H       -0.7946068793     1.9102843999    -0.8243450919
| 16>  H       -0.7202652966     1.8689233993     0.9438902630
| 17>  H        0.3848710802    -0.2845650966    -0.9417490612
| 18>  H        1.7213964053    -0.0965098303     1.1575437045
| 19>  H        0.2367858537    -0.2535051699     2.1228718178
| 20>  H        0.7940687704    -1.6100318632     1.1316057554
| 21>  H       -1.2561574214    -1.4961458977    -1.7862080364
| 22>  H       -3.2214703785    -2.0845442106    -2.9383320880
| 23>  H       -2.8580079008    -3.5619283186    -1.9960337604
| 24>  H       -5.2452994839    -3.5124525597    -2.7347196373
| 25>  H       -5.1073555452    -3.4718963047    -0.9653527501
| 26>  H       -5.3268821098    -1.1434900461    -1.2226835501
| 27> *
| 28>
| 29>                          ****END OF INPUT****

CARTESIAN COORDINATES (ANGSTROEM)
---------------------------------
  C     -0.217925    1.540631    0.028723
  C     -0.116778    0.011154   -0.001801
  C      0.711953   -0.519893    1.173729
  N     -1.458435   -0.554374    0.072094
  C     -1.849071   -1.264142   -0.887780
  O     -3.083539   -1.813649   -0.880182
  C     -3.431544   -2.625057   -2.006599
  C     -4.922052   -2.899160   -1.887361
  O     -5.675832   -1.706776   -1.923423
  H      0.777795    1.994387   -0.005077
  H     -0.794607    1.910284   -0.824345
  H     -0.720265    1.868923    0.943890
  H      0.384871   -0.284565   -0.941749
  H      1.721396   -0.096510    1.157544
  H      0.236786   -0.253505    2.122872
  H      0.794069   -1.610032    1.131606
  H     -1.256157   -1.496146   -1.786208
  H     -3.221470   -2.084544   -2.938332
  H     -2.858008   -3.561928   -1.996034
  H     -5.245299   -3.512453   -2.734720
  H     -5.107356   -3.471896   -0.965353
  H     -5.326882   -1.143490   -1.222684

 Total Charge           Charge          ....    0
 Multiplicity           Mult            ....    1
 Number of Electrons    NEL             ....   72
 Basis Dimension        Dim             ....  357

ORBITAL ENERGIES
----------------

  NO   OCC          E(Eh)            E(eV)
   0   2.0000     -20.596097      -560.4483
   1   2.0000     -20.557438      -559.3963
   2   2.0000     -15.544072      -422.9757
   3   2.0000     -11.333711      -308.4059
   4   2.0000     -11.299567      -307.4768
   5   2.0000     -11.285414      -307.0917
   6   2.0000     -11.260169      -306.4048
   7   2.0000     -11.210657      -305.0575
   8   2.0000     -11.210544      -305.0544
   9   2.0000      -1.431643       -38.9570
  10   2.0000      -1.363669       -37.1073
  11   2.0000      -1.227779       -33.4096
  12   2.0000      -1.052528       -28.6407
  13   2.0000      -1.012241       -27.5445
  14   2.0000      -0.929392       -25.2900
  15   2.0000      -0.870404       -23.6849
  16   2.0000      -0.833743       -22.6873
  17   2.0000      -0.788260       -21.4496
  18   2.0000      -0.712630       -19.3916
  19   2.0000      -0.695654       -18.9297
  20   2.0000      -0.686228       -18.6732
  21   2.0000      -0.666949       -18.1486
  22   2.0000      -0.605586       -16.4788
  23   2.0000      -0.602788       -16.4027
  24   2.0000      -0.591641       -16.0994
  25   2.0000      -0.574385       -15.6298
  26   2.0000      -0.546811       -14.8795
  27   2.0000      -0.534830       -14.5535
  28   2.0000      -0.525517       -14.3001
  29   2.0000      -0.519989       -14.1496
  30   2.0000      -0.501857       -13.6562
  31   2.0000      -0.486711       -13.2441
  32   2.0000      -0.481901       -13.1132
  33   2.0000      -0.451607       -12.2888
  34   2.0000      -0.413102       -11.2411
  35   2.0000      -0.384816       -10.4714
  36   0.0000       0.135797         3.6952
  37   0.0000       0.147455         4.0124
  38   0.0000       0.149435         4.0663
  39   0.0000       0.158186         4.3044
  40   0.0000       0.173823         4.7300

MULLIKEN ATOMIC CHARGES
-----------------------
   0 C :   -0.375784
   1 C :    0.089089
   2 C :   -0.373648
   3 N :   -0.202947
   4 C :    0.047547
   5 O :   -0.249266
   6 C :   -0.108224
   7 C :   -0.005129
   8 O :   -0.483783
   9 H :    0.120906
  10 H :    0.124793
  11 H :    0.131234
  12 H :    0.052651
  13 H :    0.120672
  14 H :    0.131415
  15 H :    0.123580
  16 H :    0.065979
  17 H :    0.119975
  18 H :    0.114996
  19 H :    0.113700
  20 H :    0.109521
  21 H :    0.332722
Sum of atomic charges:   -0.0000000

LOEWDIN ATOMIC CHARGES
----------------------
   0 C :   -0.293609
   1 C :   -0.349700
   2 C :   -0.293582
   3 N :    0.114501
   4 C :   -0.358813
   5 O :    0.224799
   6 C :   -0.316160
   7 C :   -0.354927
   8 O :   -0.043038
   9 H :    0.122802
  10 H :    0.121549
  11 H :    0.126799
  12 H :    0.130250
  13 H :    0.122707
  14 H :    0.126890
  15 H :    0.121282
  16 H :    0.110312
  17 H :    0.126404
  18 H :    0.126503
  19 H :    0.132527
  20 H :    0.122388
  21 H :    0.180115

  Mayer bond orders larger than 0.1
B(  0-C ,  1-C ) :   0.9186 B(  0-C ,  9-H ) :   0.9339 B(  0-C , 10-H ) :   0.9348
B(  0-C , 11-H ) :   0.9340 B(  1-C ,  2-C ) :   0.9183 B(  1-C ,  3-N ) :   0.8337
B(  1-C , 12-H ) :   0.9168 B(  2-C , 13-H ) :   0.9337 B(  2-C , 14-H ) :   0.9340
B(  2-C , 15-H ) :   0.9348 B(  3-N ,  4-C ) :   1.8968 B(  4-C ,  5-O ) :   1.0594
B(  4-C , 16-H ) :   0.9289 B(  5-O ,  6-C ) :   0.8577 B(  6-C ,  7-C ) :   0.9573
B(  6-C , 17-H ) :   0.9225 B(  6-C , 18-H ) :   0.9161 B(  7-C ,  8-O ) :   0.9396
B(  7-C , 19-H ) :   0.9225 B(  7-C , 20-H ) :   0.9336 B(  8-O , 21-H ) :   0.8315

MP2 TOTAL ENERGY:     -440.759655428 Eh
FINAL SINGLE POINT ENERGY      -440.759655428273

DIPOLE MOMENT
-------------
                                X             Y             Z
Electronic contribution:     -7.60506      -2.98527      -1.84826
Nuclear contribution   :      8.43579       2.45583       1.25499
                        -----------------------------------------
Total Dipole Moment    :      0.83072      -0.52944      -0.59327
                        -----------------------------------------
Magnitude (a.u.)       :      1.14995
Magnitude (Debye)      :      2.92293

                             ****ORCA TERMINATED NORMALLY****
TOTAL RUN TIME: 0 days 0 hours 15 minutes 7 seconds 770 msec
