                         Program Version 3.0.3 - RELEASE   -
|  1> ! RI-MP2 RIJK def2-TZVP def2-TZVP/C def2-TZVP/JK TIGHTSCF
|  2> % maxcore 2000
|  3> % mp2 density relaxed end
|  4> *xyz 0 1
|  5>  C       -0.0566825750     1.6370993457     0.1542758802
|  6>  C       -0.0463184658     0.1044632473     0.0091818315
|  7>  C        0.7748241117    -0.5784509313     1.1246587058
|  8>  C        2.1673840336    -0.1410740084     1.1444010683
|  9>  N        3.2679479587     0.2121720613     1.1413729681
| 10>  C       -1.4845676831    -0.4236044742     0.0862781180
| 11>  N       -2.1383568871    -0.4898291642    -1.1064637965
| 12>  O       -2.0064138105    -0.7321361973     1.1408529906
| 13>  H        0.9618236790     2.0332543617     0.1301082399
| 14>  H       -0.6254185073     2.1031037822    -0.6552804125
| 15>  H       -0.5195889764     1.9257606126     1.1030206343
| 16>  H        0.3904067993    -0.1585592722    -0.9613092660
| 17>  H        0.3038194783    -0.3690378086     2.0897264978
| 18>  H        0.7510800389    -1.6661466653     1.0006129846
| 19>  H       -1.7089181705    -0.2243705356    -1.9749431363
| 20>  H       -3.1070453938    -0.7653298338    -1.1074630078
| 21> *
| 22>
| 23>                          ****END OF INPUT****

CARTESIAN COORDINATES (ANGSTROEM)
---------------------------------
  C     -0.056683    1.637099    0.154276
  C     -0.046318    0.104463    0.009182
  C      0.774824   -0.578451    1.124659
  C      2.167384   -0.141074    1.144401
  N      3.267948    0.212172    1.141373
  C     -1.484568   -0.423604    0.086278
  N     -2.138357   -0.489829   -1.106464
  O     -2.006414   -0.732136    1.140853
  H      0.961824    2.033254    0.130108
  H     -0.625419    2.103104   -0.655280
  H     -0.519589    1.925761    1.103021
  H      0.390407   -0.158559   -0.961309
  H      0.303819   -0.369038    2.089726
  H      0.751080   -1.666147    1.000613
  H     -1.708918   -0.224371   -1.974943
  H     -3.107045   -0.765330   -1.107463

 Total Charge           Charge          ....    0
 Multiplicity           Mult            ....    1
 Number of Electrons    NEL             ....   60
 Basis Dimension        Dim             ....  296

ORBITAL ENERGIES
----------------

  NO   OCC          E(Eh)            E(eV)
   0   2.0000     -20.535072      -558.7877
   1   2.0000     -15.601320      -424.5335
   2   2.0000     -15.570397      -423.6921
   3   2.0000     -11.368965      -309.3653
   4   2.0000     -11.283463      -307.0386
   5   2.0000     -11.278280      -306.8976
   6   2.0000     -11.275141      -306.8122
   7   2.0000     -11.243894      -305.9619
   8   2.0000      -1.400714       -38.1154
   9   2.0000      -1.230079       -33.4721
  10   2.0000      -1.220995       -33.2250
  11   2.0000      -1.116598       -30.3842
  12   2.0000      -0.995614       -27.0920
  13   2.0000      -0.904676       -24.6175
  14   2.0000      -0.801499       -21.8099
  15   2.0000      -0.739470       -20.1220
  16   2.0000      -0.724257       -19.7080
  17   2.0000      -0.672684       -18.3047
  18   2.0000      -0.650029       -17.6882
  19   2.0000      -0.631455       -17.1828
  20   2.0000      -0.596331       -16.2270
  21   2.0000      -0.588584       -16.0162
  22   2.0000      -0.555408       -15.1134
  23   2.0000      -0.549003       -14.9391
  24   2.0000      -0.533747       -14.5240
  25   2.0000      -0.520154       -14.1541
  26   2.0000      -0.462157       -12.5759
  27   2.0000      -0.458407       -12.4739
  28   2.0000      -0.436281       -11.8718
  29   2.0000      -0.433328       -11.7915
  30   0.0000       0.106065         2.8862
  31   0.0000       0.141096         3.8394
  32   0.0000       0.150418         4.0931
  33   0.0000       0.159600         4.3429
  34   0.0000       0.168314         4.5801

MULLIKEN ATOMIC CHARGES
-----------------------
   0 C :   -0.423784
   1 C :   -0.067077
   2 C :   -0.167600
   3 C :   -0.170330
   4 N :   -0.059440
   5 C :    0.279916
   6 N :   -0.478927
   7 O :   -0.350808
   8 H :    0.165165
   9 H :    0.131931
  10 H :    0.150127
  11 H :    0.113725
  12 H :    0.185246
  13 H :    0.164784
  14 H :    0.262874
  15 H :    0.264196
Sum of atomic charges:   -0.0000000

LOEWDIN ATOMIC CHARGES
----------------------
   0 C :   -0.273840
   1 C :   -0.237601
   2 C :   -0.218329
   3 C :   -0.193889
   4 N :    0.054079
   5 C :   -0.459821
   6 N :   -0.007735
   7 O :    0.091359
   8 H :    0.134452
   9 H :    0.125834
  10 H :    0.134366
  11 H :    0.157540
  12 H :    0.174865
  13 H :    0.169653
  14 H :    0.172729
  15 H :    0.176338

  Mayer bond orders larger than 0.1
B(  0-C ,  1-C ) :   0.8962 B(  0-C ,  8-H ) :   0.9306 B(  0-C ,  9-H ) :   0.9297
B(  0-C , 10-H ) :   0.9316 B(  1-C ,  2-C ) :   0.9109 B(  1-C ,  5-C ) :   0.8673
B(  1-C , 11-H ) :   0.9178 B(  2-C ,  3-C ) :   0.9046 B(  2-C , 12-H ) :   0.9115
B(  2-C , 13-H ) :   0.9079 B(  3-C ,  4-N ) :   2.8787 B(  5-C ,  6-N ) :   1.1775
B(  5-C ,  7-O ) :   1.9521 B(  6-N , 14-H ) :   0.8677 B(  6-N , 15-H ) :   0.8557

MP2 TOTAL ENERGY:     -379.347739314 Eh
FINAL SINGLE POINT ENERGY      -379.347739313561

DIPOLE MOMENT
-------------
                                X             Y             Z
Electronic contribution:      1.84977      -3.06954       2.13828
Nuclear contribution   :     -3.11646       3.05863      -3.60050
                        -----------------------------------------
Total Dipole Moment    :     -1.26669      -0.01091      -1.46222
                        -----------------------------------------
Magnitude (a.u.)       :      1.93460
Magnitude (Debye)      :      4.91737

                             ****ORCA TERMINATED NORMALLY****
TOTAL RUN TIME: 0 days 0 hours 11 minutes 3 seconds 904 msec
