                         Program Version 3.0.3 - RELEASE   -
|  1> ! RI-MP2 RIJK def2-TZVP def2-TZVP/C def2-TZVP/JK TIGHTSCF
|  2> % maxcore 2000
|  3> % mp2 density relaxed end
|  4> *xyz 0 1
|  5>  O       -0.9329218539     1.2582468693    -0.2696410359
|  6>  C        0.1757416466     0.8588190789     0.0002102425
|  7>  C        1.3664737595     1.7433085525    -0.0609975788
|  8>  N        1.1526236827     3.2178806980    -0.0286471076
|  9>  C        1.6548955933     2.6163698800    -1.2460423132
| 10>  C        3.1686897556     2.6871162932    -1.3386564996
| 11>  O        3.6793756893     1.9984044352    -0.1823358588
| 12>  C        2.7013845758     1.3403122541     0.4983919877
| 13>  O        2.9253377204     0.5515603239     1.3692076347
| 14>  H        0.3715224938    -0.1841148526     0.3118142865
| 15>  H        0.1402518402     3.3401027601    -0.1156289037
| 16>  H        1.0402476318     2.5707605523    -2.1383083279
| 17>  H        3.5424444150     2.1826544637    -2.2352394498
| 18>  H        3.5374178899     3.7156367514    -1.3133770561
| 19> *
| 20>
| 21>                          ****END OF INPUT****

CARTESIAN COORDINATES (ANGSTROEM)
---------------------------------
  O     -0.932922    1.258247   -0.269641
  C      0.175742    0.858819    0.000210
  C      1.366474    1.743309   -0.060998
  N      1.152624    3.217881   -0.028647
  C      1.654896    2.616370   -1.246042
  C      3.168690    2.687116   -1.338656
  O      3.679376    1.998404   -0.182336
  C      2.701385    1.340312    0.498392
  O      2.925338    0.551560    1.369208
  H      0.371522   -0.184115    0.311814
  H      0.140252    3.340103   -0.115629
  H      1.040248    2.570761   -2.138308
  H      3.542444    2.182654   -2.235239
  H      3.537418    3.715637   -1.313377

 Total Charge           Charge          ....    0
 Multiplicity           Mult            ....    1
 Number of Electrons    NEL             ....   66
 Basis Dimension        Dim             ....  309

ORBITAL ENERGIES
----------------

  NO   OCC          E(Eh)            E(eV)
   0   2.0000     -20.619962      -561.0977
   1   2.0000     -20.586658      -560.1914
   2   2.0000     -20.563257      -559.5547
   3   2.0000     -15.614091      -424.8810
   4   2.0000     -11.402655      -310.2820
   5   2.0000     -11.366703      -309.3037
   6   2.0000     -11.324934      -308.1671
   7   2.0000     -11.320182      -308.0378
   8   2.0000     -11.314212      -307.8754
   9   2.0000      -1.480378       -40.2831
  10   2.0000      -1.427171       -38.8353
  11   2.0000      -1.390061       -37.8255
  12   2.0000      -1.317106       -35.8403
  13   2.0000      -1.029091       -28.0030
  14   2.0000      -1.015445       -27.6317
  15   2.0000      -0.908047       -24.7092
  16   2.0000      -0.845520       -23.0078
  17   2.0000      -0.783372       -21.3166
  18   2.0000      -0.761013       -20.7082
  19   2.0000      -0.709710       -19.3122
  20   2.0000      -0.696270       -18.9465
  21   2.0000      -0.676787       -18.4163
  22   2.0000      -0.665093       -18.0981
  23   2.0000      -0.627947       -17.0873
  24   2.0000      -0.598358       -16.2822
  25   2.0000      -0.590677       -16.0731
  26   2.0000      -0.562834       -15.3155
  27   2.0000      -0.540396       -14.7049
  28   2.0000      -0.520697       -14.1689
  29   2.0000      -0.482423       -13.1274
  30   2.0000      -0.478304       -13.0153
  31   2.0000      -0.457165       -12.4401
  32   2.0000      -0.418081       -11.3766
  33   0.0000       0.084493         2.2992
  34   0.0000       0.132500         3.6055
  35   0.0000       0.140598         3.8259
  36   0.0000       0.162340         4.4175
  37   0.0000       0.172565         4.6957

MULLIKEN ATOMIC CHARGES
-----------------------
   0 O :   -0.287394
   1 C :    0.112076
   2 C :    0.083674
   3 N :   -0.353983
   4 C :   -0.118598
   5 C :    0.018014
   6 O :   -0.221098
   7 C :    0.241818
   8 O :   -0.273098
   9 H :    0.129358
  10 H :    0.246233
  11 H :    0.168110
  12 H :    0.124101
  13 H :    0.130787
Sum of atomic charges:   -0.0000000

LOEWDIN ATOMIC CHARGES
----------------------
   0 O :    0.135848
   1 C :   -0.246803
   2 C :   -0.244015
   3 N :    0.073770
   4 C :   -0.219339
   5 C :   -0.235586
   6 O :    0.266256
   7 C :   -0.429876
   8 O :    0.157618
   9 H :    0.132064
  10 H :    0.186990
  11 H :    0.149626
  12 H :    0.134336
  13 H :    0.139111

  Mayer bond orders larger than 0.1
B(  0-O ,  1-C ) :   1.9000 B(  1-C ,  2-C ) :   0.8806 B(  1-C ,  9-H ) :   0.9352
B(  2-C ,  3-N ) :   0.8534 B(  2-C ,  4-C ) :   0.8487 B(  2-C ,  7-C ) :   0.9078
B(  3-N ,  4-C ) :   0.9756 B(  3-N , 10-H ) :   0.8503 B(  4-C ,  5-C ) :   0.9496
B(  4-C , 11-H ) :   0.8939 B(  5-C ,  6-O ) :   0.8959 B(  5-C , 12-H ) :   0.9297
B(  5-C , 13-H ) :   0.9011 B(  6-O ,  7-C ) :   1.1321 B(  7-C ,  8-O ) :   2.0301

MP2 TOTAL ENERGY:     -473.088977655 Eh
FINAL SINGLE POINT ENERGY      -473.088977654769

DIPOLE MOMENT
-------------
                                X             Y             Z
Electronic contribution:      0.02389      -2.01199       3.01599
Nuclear contribution   :     -0.18513       2.44727      -4.50192
                        -----------------------------------------
Total Dipole Moment    :     -0.16124       0.43529      -1.48593
                        -----------------------------------------
Magnitude (a.u.)       :      1.55675
Magnitude (Debye)      :      3.95694

                             ****ORCA TERMINATED NORMALLY****
TOTAL RUN TIME: 0 days 0 hours 14 minutes 25 seconds 938 msec
