                         Program Version 3.0.3 - RELEASE   -
|  1> ! RI-MP2 RIJK def2-TZVP def2-TZVP/C def2-TZVP/JK TIGHTSCF
|  2> % maxcore 2000
|  3> % mp2 density relaxed end
|  4> *xyz 0 1
|  5>  O       -0.0933097558     1.4646024309    -0.0369109687
|  6>  C       -0.0185918332     0.0686997929    -0.2875852533
|  7>  C       -1.2449594645    -0.5563816265     0.3687509224
|  8>  C       -1.3371066067    -2.0432342544     0.2065968804
|  9>  N       -0.4188075376    -2.7118555787    -0.4524802379
| 10>  O       -0.8090872076    -4.0483188033    -0.4105861717
| 11>  C       -1.9558790864    -4.1390336855     0.2766024956
| 12>  C       -2.3550700968    -2.9158354712     0.7001434827
| 13>  H        0.6720060565     1.8814418411    -0.4427095354
| 14>  H       -0.0186584836    -0.1528427742    -1.3641388134
| 15>  H        0.8953222750    -0.3729580327     0.1340239579
| 16>  H       -1.2412998587    -0.3055988658     1.4365594310
| 17>  H       -2.1457868820    -0.0878360584    -0.0461010264
| 18>  H       -2.3641787119    -5.1325390131     0.3800050489
| 19>  H       -3.2314614966    -2.6618957211     1.2727501879
| 20> *
| 21>
| 22>                          ****END OF INPUT****

CARTESIAN COORDINATES (ANGSTROEM)
---------------------------------
  O     -0.093310    1.464602   -0.036911
  C     -0.018592    0.068700   -0.287585
  C     -1.244959   -0.556382    0.368751
  C     -1.337107   -2.043234    0.206597
  N     -0.418808   -2.711856   -0.452480
  O     -0.809087   -4.048319   -0.410586
  C     -1.955879   -4.139034    0.276602
  C     -2.355070   -2.915835    0.700143
  H      0.672006    1.881442   -0.442710
  H     -0.018658   -0.152843   -1.364139
  H      0.895322   -0.372958    0.134024
  H     -1.241300   -0.305599    1.436559
  H     -2.145787   -0.087836   -0.046101
  H     -2.364179   -5.132539    0.380005
  H     -3.231461   -2.661896    1.272750

 Total Charge           Charge          ....    0
 Multiplicity           Mult            ....    1
 Number of Electrons    NEL             ....   60
 Basis Dimension        Dim             ....  290

ORBITAL ENERGIES
----------------

  NO   OCC          E(Eh)            E(eV)
   0   2.0000     -20.642227      -561.7036
   1   2.0000     -20.558371      -559.4217
   2   2.0000     -15.615190      -424.9109
   3   2.0000     -11.316301      -307.9322
   4   2.0000     -11.286415      -307.1190
   5   2.0000     -11.278636      -306.9073
   6   2.0000     -11.242533      -305.9249
   7   2.0000     -11.238328      -305.8105
   8   2.0000      -1.491977       -40.5988
   9   2.0000      -1.362834       -37.0846
  10   2.0000      -1.176541       -32.0153
  11   2.0000      -1.072380       -29.1809
  12   2.0000      -1.025962       -27.9178
  13   2.0000      -0.873768       -23.7764
  14   2.0000      -0.831933       -22.6381
  15   2.0000      -0.770272       -20.9602
  16   2.0000      -0.732790       -19.9402
  17   2.0000      -0.686181       -18.6719
  18   2.0000      -0.668469       -18.1900
  19   2.0000      -0.645191       -17.5565
  20   2.0000      -0.619503       -16.8575
  21   2.0000      -0.589333       -16.0366
  22   2.0000      -0.556911       -15.1543
  23   2.0000      -0.552136       -15.0244
  24   2.0000      -0.545607       -14.8467
  25   2.0000      -0.504488       -13.7278
  26   2.0000      -0.468530       -12.7494
  27   2.0000      -0.448320       -12.1994
  28   2.0000      -0.411436       -11.1957
  29   2.0000      -0.369916       -10.0659
  30   0.0000       0.124657         3.3921
  31   0.0000       0.137546         3.7428
  32   0.0000       0.150227         4.0879
  33   0.0000       0.168945         4.5972
  34   0.0000       0.181141         4.9291

MULLIKEN ATOMIC CHARGES
-----------------------
   0 O :   -0.465120
   1 C :   -0.069334
   2 C :   -0.181466
   3 C :    0.088139
   4 N :   -0.138458
   5 O :   -0.110660
   6 C :    0.006600
   7 C :   -0.248360
   8 H :    0.318301
   9 H :    0.109364
  10 H :    0.109345
  11 H :    0.132648
  12 H :    0.132642
  13 H :    0.162844
  14 H :    0.153515
Sum of atomic charges:    0.0000000

LOEWDIN ATOMIC CHARGES
----------------------
   0 O :   -0.052098
   1 C :   -0.343397
   2 C :   -0.228452
   3 C :   -0.276117
   4 N :    0.055907
   5 O :    0.273912
   6 C :   -0.264248
   7 C :   -0.174842
   8 H :    0.173398
   9 H :    0.120272
  10 H :    0.120269
  11 H :    0.154151
  12 H :    0.154154
  13 H :    0.138184
  14 H :    0.148909

  Mayer bond orders larger than 0.1
B(  0-O ,  1-C ) :   1.0178 B(  0-O ,  2-C ) :  -0.1060 B(  0-O ,  8-H ) :   0.8487
B(  1-C ,  2-C ) :   0.9534 B(  1-C ,  9-H ) :   0.9335 B(  1-C , 10-H ) :   0.9335
B(  2-C ,  3-C ) :   0.8898 B(  2-C , 11-H ) :   0.9156 B(  2-C , 12-H ) :   0.9155
B(  3-C ,  4-N ) :   1.5594 B(  3-C ,  7-C ) :   1.1701 B(  4-N ,  5-O ) :   0.8670
B(  4-N ,  6-C ) :   0.1023 B(  5-O ,  6-C ) :   1.1210 B(  6-C ,  7-C ) :   1.5691
B(  6-C , 13-H ) :   0.9199 B(  7-C , 14-H ) :   0.9148

MP2 TOTAL ENERGY:     -399.135992349 Eh
FINAL SINGLE POINT ENERGY      -399.135992348783

DIPOLE MOMENT
-------------
                                X             Y             Z
Electronic contribution:      0.07893      -5.36450      -0.83736
Nuclear contribution   :     -0.52224       5.28898       1.09725
                        -----------------------------------------
Total Dipole Moment    :     -0.44331      -0.07552       0.25989
                        -----------------------------------------
Magnitude (a.u.)       :      0.51939
Magnitude (Debye)      :      1.32019

                             ****ORCA TERMINATED NORMALLY****
TOTAL RUN TIME: 0 days 0 hours 9 minutes 52 seconds 790 msec
