                         Program Version 3.0.3 - RELEASE   -
|  1> ! RI-MP2 RIJK def2-TZVP def2-TZVP/C def2-TZVP/JK TIGHTSCF
|  2> % maxcore 2000
|  3> % mp2 density relaxed end
|  4> *xyz 0 1
|  5>  C       -0.1085684563     1.6065975899    -0.0801114216
|  6>  C        0.0816092466     0.1080086702     0.0402379942
|  7>  N        1.0315630324    -0.5525821512    -0.9047549911
|  8>  C        2.4571069026    -0.5716065253    -0.2951873632
|  9>  C        2.8125877933     0.3448554876     0.8147868319
| 10>  C        1.8687926105     0.2873405841     1.7644765523
| 11>  C        0.7531470501    -0.5983488895     1.2796330594
| 12>  O       -0.1542536021    -1.1036582455     2.2098521150
| 13>  C        1.4111071563    -1.5016719973     0.1771509016
| 14>  H        0.8267731038     2.1508510971     0.0664974093
| 15>  H       -0.4863935752     1.8442848047    -1.0798920186
| 16>  H       -0.8398928016     1.9632383197     0.6529898096
| 17>  H       -0.8713254791    -0.4110901626    -0.1072436742
| 18>  H        3.1776591706    -0.8589549373    -1.0507722687
| 19>  H        3.6738657932     1.0006355404     0.7947174590
| 20>  H        1.7781927448     0.9236613629     2.6370823737
| 21>  H        0.3419920050    -1.4466758133     2.9608484147
| 22>  H        1.3759601951    -2.5821504146     0.0730579668
| 23> *
| 24>
| 25>                          ****END OF INPUT****

CARTESIAN COORDINATES (ANGSTROEM)
---------------------------------
  C     -0.108568    1.606598   -0.080111
  C      0.081609    0.108009    0.040238
  N      1.031563   -0.552582   -0.904755
  C      2.457107   -0.571607   -0.295187
  C      2.812588    0.344855    0.814787
  C      1.868793    0.287341    1.764477
  C      0.753147   -0.598349    1.279633
  O     -0.154254   -1.103658    2.209852
  C      1.411107   -1.501672    0.177151
  H      0.826773    2.150851    0.066497
  H     -0.486394    1.844285   -1.079892
  H     -0.839893    1.963238    0.652990
  H     -0.871325   -0.411090   -0.107244
  H      3.177659   -0.858955   -1.050772
  H      3.673866    1.000636    0.794717
  H      1.778193    0.923661    2.637082
  H      0.341992   -1.446676    2.960848
  H      1.375960   -2.582150    0.073058

 Total Charge           Charge          ....    0
 Multiplicity           Mult            ....    1
 Number of Electrons    NEL             ....   66
 Basis Dimension        Dim             ....  333

ORBITAL ENERGIES
----------------

  NO   OCC          E(Eh)            E(eV)
   0   2.0000     -20.572826      -559.8151
   1   2.0000     -15.563584      -423.5066
   2   2.0000     -11.301049      -307.5172
   3   2.0000     -11.266370      -306.5735
   4   2.0000     -11.261965      -306.4537
   5   2.0000     -11.259619      -306.3898
   6   2.0000     -11.240740      -305.8761
   7   2.0000     -11.235584      -305.7358
   8   2.0000     -11.210268      -305.0469
   9   2.0000      -1.386064       -37.7167
  10   2.0000      -1.294917       -35.2365
  11   2.0000      -1.084045       -29.4984
  12   2.0000      -1.034612       -28.1532
  13   2.0000      -0.949722       -25.8432
  14   2.0000      -0.885075       -24.0841
  15   2.0000      -0.825638       -22.4668
  16   2.0000      -0.780901       -21.2494
  17   2.0000      -0.735754       -20.0209
  18   2.0000      -0.712449       -19.3867
  19   2.0000      -0.656619       -17.8675
  20   2.0000      -0.629365       -17.1259
  21   2.0000      -0.604532       -16.4501
  22   2.0000      -0.594237       -16.1700
  23   2.0000      -0.569001       -15.4833
  24   2.0000      -0.563527       -15.3344
  25   2.0000      -0.539843       -14.6899
  26   2.0000      -0.526258       -14.3202
  27   2.0000      -0.490384       -13.3440
  28   2.0000      -0.484521       -13.1845
  29   2.0000      -0.436209       -11.8699
  30   2.0000      -0.412607       -11.2276
  31   2.0000      -0.381224       -10.3736
  32   2.0000      -0.342953        -9.3322
  33   0.0000       0.116574         3.1721
  34   0.0000       0.143119         3.8945
  35   0.0000       0.155239         4.2243
  36   0.0000       0.170098         4.6286
  37   0.0000       0.181537         4.9399

MULLIKEN ATOMIC CHARGES
-----------------------
   0 C :   -0.426736
   1 C :    0.012339
   2 N :   -0.236720
   3 C :   -0.062298
   4 C :   -0.188467
   5 C :   -0.269981
   6 C :    0.323256
   7 O :   -0.457469
   8 C :   -0.113023
   9 H :    0.136885
  10 H :    0.142754
  11 H :    0.134370
  12 H :    0.116979
  13 H :    0.131779
  14 H :    0.137317
  15 H :    0.145024
  16 H :    0.324470
  17 H :    0.149519
Sum of atomic charges:    0.0000000

LOEWDIN ATOMIC CHARGES
----------------------
   0 C :   -0.294049
   1 C :   -0.239149
   2 N :    0.142196
   3 C :   -0.196853
   4 C :   -0.137605
   5 C :   -0.129346
   6 C :   -0.316611
   7 O :    0.026955
   8 C :   -0.149766
   9 H :    0.126507
  10 H :    0.131713
  11 H :    0.130047
  12 H :    0.161376
  13 H :    0.145824
  14 H :    0.140945
  15 H :    0.141508
  16 H :    0.182703
  17 H :    0.133604

  Mayer bond orders larger than 0.1
B(  0-C ,  1-C ) :   0.9141 B(  0-C ,  9-H ) :   0.9333 B(  0-C , 10-H ) :   0.9352
B(  0-C , 11-H ) :   0.9353 B(  1-C ,  2-N ) :   0.9470 B(  1-C ,  6-C ) :   0.9001
B(  1-C , 12-H ) :   0.9130 B(  2-N ,  3-C ) :   0.8383 B(  2-N ,  8-C ) :   0.8808
B(  3-C ,  4-C ) :   0.9751 B(  3-C ,  8-C ) :   0.8727 B(  3-C , 13-H ) :   0.9371
B(  4-C ,  5-C ) :   1.6837 B(  4-C , 14-H ) :   0.9204 B(  5-C ,  6-C ) :   0.9542
B(  5-C , 15-H ) :   0.9206 B(  6-C ,  7-O ) :   1.0303 B(  6-C ,  8-C ) :   0.8910
B(  7-O , 16-H ) :   0.8357 B(  8-C , 17-H ) :   0.8814

MP2 TOTAL ENERGY:     -401.212661152 Eh
FINAL SINGLE POINT ENERGY      -401.212661152409

DIPOLE MOMENT
-------------
                                X             Y             Z
Electronic contribution:      1.22306      -4.18107       0.97700
Nuclear contribution   :     -0.67684       4.23928      -0.28749
                        -----------------------------------------
Total Dipole Moment    :      0.54623       0.05821       0.68952
                        -----------------------------------------
Magnitude (a.u.)       :      0.88158
Magnitude (Debye)      :      2.24080

                             ****ORCA TERMINATED NORMALLY****
TOTAL RUN TIME: 0 days 0 hours 19 minutes 20 seconds 603 msec
