                         Program Version 3.0.3 - RELEASE   -
|  1> ! RI-MP2 RIJK def2-TZVP def2-TZVP/C def2-TZVP/JK TIGHTSCF
|  2> % maxcore 2000
|  3> % mp2 density relaxed end
|  4> *xyz 0 1
|  5>  C        0.0510367680     1.3421735455     0.2944800892
|  6>  O        0.0122998678    -0.0060984323    -0.1677332090
|  7>  C       -1.2447042545    -0.5437449196    -0.1665213632
|  8>  C       -1.8967597733    -1.0946876619     1.1045955100
|  9>  C       -1.6522348153    -2.0357629217    -0.0285842675
| 10>  C       -2.7552308613    -1.8606366921    -1.0704229576
| 11>  O       -4.0563740920    -2.1394956852    -0.6114141366
| 12>  C       -2.3002089838    -0.3709268361    -1.2168428280
| 13>  O       -2.5807674606     0.4940125240    -2.0006914448
| 14>  H        1.0944885885     1.6585554153     0.2454146548
| 15>  H       -0.5589522839     1.9936775364    -0.3414297328
| 16>  H       -0.3033842665     1.4155783169     1.3315954492
| 17>  H       -1.1881447883    -1.1608873326     1.9240389293
| 18>  H       -2.9112961869    -0.8369913893     1.3866421671
| 19>  H       -0.9809851144    -2.8810467314     0.0352671391
| 20>  H       -2.5246884051    -2.3915102662    -2.0073224396
| 21>  H       -4.6761851884    -1.7528582596    -1.2398838596
| 22> *
| 23>
| 24>                          ****END OF INPUT****

CARTESIAN COORDINATES (ANGSTROEM)
---------------------------------
  C      0.051037    1.342174    0.294480
  O      0.012300   -0.006098   -0.167733
  C     -1.244704   -0.543745   -0.166521
  C     -1.896760   -1.094688    1.104596
  C     -1.652235   -2.035763   -0.028584
  C     -2.755231   -1.860637   -1.070423
  O     -4.056374   -2.139496   -0.611414
  C     -2.300209   -0.370927   -1.216843
  O     -2.580767    0.494013   -2.000691
  H      1.094489    1.658555    0.245415
  H     -0.558952    1.993678   -0.341430
  H     -0.303384    1.415578    1.331595
  H     -1.188145   -1.160887    1.924039
  H     -2.911296   -0.836991    1.386642
  H     -0.980985   -2.881047    0.035267
  H     -2.524688   -2.391510   -2.007322
  H     -4.676185   -1.752858   -1.239884

 Total Charge           Charge          ....    0
 Multiplicity           Mult            ....    1
 Number of Electrons    NEL             ....   68
 Basis Dimension        Dim             ....  327

ORBITAL ENERGIES
----------------

  NO   OCC          E(Eh)            E(eV)
   0   2.0000     -20.582255      -560.0716
   1   2.0000     -20.577212      -559.9344
   2   2.0000     -20.558788      -559.4331
   3   2.0000     -11.339218      -308.5558
   4   2.0000     -11.312222      -307.8212
   5   2.0000     -11.308990      -307.7333
   6   2.0000     -11.281611      -306.9882
   7   2.0000     -11.261644      -306.4449
   8   2.0000     -11.254916      -306.2618
   9   2.0000      -1.414537       -38.4915
  10   2.0000      -1.396196       -37.9924
  11   2.0000      -1.381428       -37.5906
  12   2.0000      -1.201386       -32.6914
  13   2.0000      -0.982698       -26.7406
  14   2.0000      -0.953875       -25.9563
  15   2.0000      -0.878923       -23.9167
  16   2.0000      -0.811949       -22.0943
  17   2.0000      -0.743778       -20.2392
  18   2.0000      -0.728509       -19.8237
  19   2.0000      -0.697200       -18.9718
  20   2.0000      -0.675838       -18.3905
  21   2.0000      -0.643233       -17.5033
  22   2.0000      -0.639298       -17.3962
  23   2.0000      -0.623733       -16.9726
  24   2.0000      -0.596382       -16.2284
  25   2.0000      -0.587945       -15.9988
  26   2.0000      -0.545381       -14.8406
  27   2.0000      -0.535021       -14.5587
  28   2.0000      -0.523579       -14.2473
  29   2.0000      -0.500961       -13.6319
  30   2.0000      -0.481185       -13.0937
  31   2.0000      -0.451764       -12.2931
  32   2.0000      -0.404063       -10.9951
  33   2.0000      -0.381631       -10.3847
  34   0.0000       0.121814         3.3147
  35   0.0000       0.146937         3.9984
  36   0.0000       0.150421         4.0932
  37   0.0000       0.161664         4.3991
  38   0.0000       0.177877         4.8403

MULLIKEN ATOMIC CHARGES
-----------------------
   0 C :   -0.218421
   1 O :   -0.300977
   2 C :    0.236231
   3 C :   -0.295465
   4 C :   -0.146697
   5 C :    0.106665
   6 O :   -0.466577
   7 C :    0.039403
   8 O :   -0.264421
   9 H :    0.143627
  10 H :    0.146965
  11 H :    0.118367
  12 H :    0.145450
  13 H :    0.156885
  14 H :    0.158475
  15 H :    0.110673
  16 H :    0.329817
Sum of atomic charges:    0.0000000

LOEWDIN ATOMIC CHARGES
----------------------
   0 C :   -0.320231
   1 O :    0.203368
   2 C :   -0.278156
   3 C :   -0.168996
   4 C :   -0.120608
   5 C :   -0.279425
   6 O :   -0.009447
   7 C :   -0.279222
   8 O :    0.154231
   9 H :    0.115178
  10 H :    0.112884
  11 H :    0.105066
  12 H :    0.149887
  13 H :    0.139777
  14 H :    0.145327
  15 H :    0.145263
  16 H :    0.185105

  Mayer bond orders larger than 0.1
B(  0-C ,  1-O ) :   0.8645 B(  0-C ,  9-H ) :   0.9382 B(  0-C , 10-H ) :   0.9334
B(  0-C , 11-H ) :   0.9345 B(  1-O ,  2-C ) :   1.0088 B(  2-C ,  3-C ) :   0.8469
B(  2-C ,  4-C ) :   0.8197 B(  2-C ,  5-C ) :  -0.1097 B(  2-C ,  7-C ) :   0.8779
B(  3-C ,  4-C ) :   0.9151 B(  3-C , 12-H ) :   0.9208 B(  3-C , 13-H ) :   0.8976
B(  4-C ,  5-C ) :   0.9132 B(  4-C , 14-H ) :   0.8966 B(  5-C ,  6-O ) :   1.0007
B(  5-C ,  7-C ) :   0.8640 B(  5-C , 15-H ) :   0.9205 B(  6-O , 16-H ) :   0.8354
B(  7-C ,  8-O ) :   2.0243

MP2 TOTAL ENERGY:     -458.189642440 Eh
FINAL SINGLE POINT ENERGY      -458.189642440257

DIPOLE MOMENT
-------------
                                X             Y             Z
Electronic contribution:     -2.31921      -1.40565      -3.98983
Nuclear contribution   :      2.49338       1.28639       4.51879
                        -----------------------------------------
Total Dipole Moment    :      0.17417      -0.11926       0.52896
                        -----------------------------------------
Magnitude (a.u.)       :      0.56952
Magnitude (Debye)      :      1.44760

                             ****ORCA TERMINATED NORMALLY****
TOTAL RUN TIME: 0 days 0 hours 15 minutes 12 seconds 557 msec
