                         Program Version 3.0.3 - RELEASE   -
|  1> ! RI-MP2 RIJK def2-TZVP def2-TZVP/C def2-TZVP/JK TIGHTSCF
|  2> % maxcore 2000
|  3> % mp2 density relaxed end
|  4> *xyz 0 1
|  5>  C        0.0087021279     1.5359898278    -0.1312087442
|  6>  O        1.2829704942     2.1542608551     0.0522499573
|  7>  C        2.2307600504     1.4473018986     0.8392741894
|  8>  C        1.7871727485     1.2364132548     2.2908782759
|  9>  O        0.6229095513     0.4293630529     2.4299778324
| 10>  C        0.3516201747    -0.4993181386     1.4147563903
| 11>  C       -0.0254730225     0.0254657507     0.0510261687
| 12>  C        1.2789335293    -0.7306004186     0.2495486196
| 13>  C        2.5463394387     0.0933341479     0.1968000203
| 14>  H       -0.7148123187     1.9918034532     0.5614392081
| 15>  H       -0.3024777672     1.7928052614    -1.1498177104
| 16>  H        3.1188123405     2.0877553139     0.8515989207
| 17>  H        2.6277830587     0.7857019256     2.8427647135
| 18>  H        1.5494724256     2.1969808581     2.7583913498
| 19>  H       -0.1950439335    -1.3429310420     1.8231191076
| 20>  H       -0.8327374287    -0.4690720542    -0.4807421350
| 21>  H        1.3355971605    -1.7424316583    -0.1409203938
| 22>  H        2.8773245328     0.2454612861    -0.8359512709
| 23>  H        3.3587077974    -0.4031799845     0.7410339005
| 24> *
| 25>
| 26>                          ****END OF INPUT****

CARTESIAN COORDINATES (ANGSTROEM)
---------------------------------
  C      0.008702    1.535990   -0.131209
  O      1.282970    2.154261    0.052250
  C      2.230760    1.447302    0.839274
  C      1.787173    1.236413    2.290878
  O      0.622910    0.429363    2.429978
  C      0.351620   -0.499318    1.414756
  C     -0.025473    0.025466    0.051026
  C      1.278934   -0.730600    0.249549
  C      2.546339    0.093334    0.196800
  H     -0.714812    1.991803    0.561439
  H     -0.302478    1.792805   -1.149818
  H      3.118812    2.087755    0.851599
  H      2.627783    0.785702    2.842765
  H      1.549472    2.196981    2.758391
  H     -0.195044   -1.342931    1.823119
  H     -0.832737   -0.469072   -0.480742
  H      1.335597   -1.742432   -0.140920
  H      2.877325    0.245461   -0.835951
  H      3.358708   -0.403180    0.741034

 Total Charge           Charge          ....    0
 Multiplicity           Mult            ....    1
 Number of Electrons    NEL             ....   68
 Basis Dimension        Dim             ....  339

ORBITAL ENERGIES
----------------

  NO   OCC          E(Eh)            E(eV)
   0   2.0000     -20.557793      -559.4060
   1   2.0000     -20.549737      -559.1868
   2   2.0000     -11.282498      -307.0124
   3   2.0000     -11.281035      -306.9726
   4   2.0000     -11.275803      -306.8302
   5   2.0000     -11.275117      -306.8115
   6   2.0000     -11.238020      -305.8021
   7   2.0000     -11.229740      -305.5767
   8   2.0000     -11.229249      -305.5634
   9   2.0000      -1.389895       -37.8210
  10   2.0000      -1.359852       -37.0034
  11   2.0000      -1.147243       -31.2181
  12   2.0000      -1.062002       -28.8986
  13   2.0000      -0.952682       -25.9238
  14   2.0000      -0.922278       -25.0965
  15   2.0000      -0.854022       -23.2391
  16   2.0000      -0.785452       -21.3732
  17   2.0000      -0.727965       -19.8089
  18   2.0000      -0.705171       -19.1887
  19   2.0000      -0.668578       -18.1929
  20   2.0000      -0.639473       -17.4009
  21   2.0000      -0.630000       -17.1432
  22   2.0000      -0.615640       -16.7524
  23   2.0000      -0.602807       -16.4032
  24   2.0000      -0.585829       -15.9412
  25   2.0000      -0.560974       -15.2649
  26   2.0000      -0.546816       -14.8796
  27   2.0000      -0.522231       -14.2106
  28   2.0000      -0.498863       -13.5748
  29   2.0000      -0.488416       -13.2905
  30   2.0000      -0.439658       -11.9637
  31   2.0000      -0.408663       -11.1203
  32   2.0000      -0.397419       -10.8143
  33   2.0000      -0.372637       -10.1400
  34   0.0000       0.132141         3.5957
  35   0.0000       0.156691         4.2638
  36   0.0000       0.172761         4.7011
  37   0.0000       0.180242         4.9046
  38   0.0000       0.189243         5.1496

MULLIKEN ATOMIC CHARGES
-----------------------
   0 C :   -0.040632
   1 O :   -0.324066
   2 C :    0.085981
   3 C :   -0.065262
   4 O :   -0.318624
   5 C :    0.035617
   6 C :   -0.155377
   7 C :   -0.148956
   8 C :   -0.225046
   9 H :    0.099201
  10 H :    0.116414
  11 H :    0.116996
  12 H :    0.094734
  13 H :    0.120119
  14 H :    0.123039
  15 H :    0.127433
  16 H :    0.124962
  17 H :    0.118301
  18 H :    0.115166
Sum of atomic charges:   -0.0000000

LOEWDIN ATOMIC CHARGES
----------------------
   0 C :   -0.279511
   1 O :    0.171077
   2 C :   -0.325020
   3 C :   -0.282073
   4 O :    0.185953
   5 C :   -0.263252
   6 C :   -0.195995
   7 C :   -0.187885
   8 C :   -0.222016
   9 H :    0.129018
  10 H :    0.130930
  11 H :    0.151346
  12 H :    0.128045
  13 H :    0.132960
  14 H :    0.140186
  15 H :    0.149311
  16 H :    0.147965
  17 H :    0.144880
  18 H :    0.144080

  Mayer bond orders larger than 0.1
B(  0-C ,  1-O ) :   0.9352 B(  0-C ,  6-C ) :   0.9502 B(  0-C ,  9-H ) :   0.9259
B(  0-C , 10-H ) :   0.9280 B(  1-O ,  2-C ) :   0.9299 B(  2-C ,  3-C ) :   0.9337
B(  2-C ,  8-C ) :   0.9280 B(  2-C , 11-H ) :   0.9190 B(  3-C ,  4-O ) :   0.9214
B(  3-C , 12-H ) :   0.9169 B(  3-C , 13-H ) :   0.9285 B(  4-O ,  5-C ) :   0.9742
B(  5-C ,  6-C ) :   0.8430 B(  5-C ,  7-C ) :   0.8938 B(  5-C , 14-H ) :   0.9494
B(  6-C ,  7-C ) :   0.8484 B(  6-C , 15-H ) :   0.9120 B(  7-C ,  8-C ) :   0.9641
B(  7-C , 16-H ) :   0.9239 B(  8-C , 17-H ) :   0.9181 B(  8-C , 18-H ) :   0.9212

MP2 TOTAL ENERGY:     -422.307938843 Eh
FINAL SINGLE POINT ENERGY      -422.307938842669

DIPOLE MOMENT
-------------
                                X             Y             Z
Electronic contribution:     -1.23404       0.86774       1.07381
Nuclear contribution   :      1.49123      -1.39268      -1.31071
                        -----------------------------------------
Total Dipole Moment    :      0.25718      -0.52494      -0.23690
                        -----------------------------------------
Magnitude (a.u.)       :      0.63074
Magnitude (Debye)      :      1.60320

                             ****ORCA TERMINATED NORMALLY****
TOTAL RUN TIME: 0 days 0 hours 19 minutes 4 seconds 284 msec
