                         Program Version 3.0.3 - RELEASE   -
|  1> ! RI-MP2 RIJK def2-TZVP def2-TZVP/C def2-TZVP/JK TIGHTSCF
|  2> % maxcore 2000
|  3> % mp2 density relaxed end
|  4> *xyz 0 1
|  5>  C        0.2149933397     0.7591354615     0.4570410572
|  6>  O       -0.4217708152     0.2257769156    -0.6977115548
|  7>  C        0.4039935483    -0.5425803050    -1.5377490433
|  8>  C        0.5238701795    -2.0191534051    -1.1081210825
|  9>  N       -0.8012531622    -2.5426539978    -0.8773140975
| 10>  C        1.4366096712    -2.8264735770    -2.0712587849
| 11>  O        2.4573606888    -2.9363543163    -1.0308528621
| 12>  C        1.6434175649    -2.3301307702    -0.1013894890
| 13>  N        1.7958478697    -2.1784367567     1.1355040685
| 14>  H        0.5365818299    -0.0235869475     1.1523066136
| 15>  H        1.0893672140     1.3645018215     0.1755886221
| 16>  H       -0.5190149705     1.4066502230     0.9425450158
| 17>  H       -0.0774857955    -0.5333982353    -2.5224580856
| 18>  H        1.4054124587    -0.0978917081    -1.6355715908
| 19>  H       -0.7764381583    -3.3486782921    -0.2617459325
| 20>  H       -1.3550178285    -1.8244139180    -0.4188289014
| 21>  H        1.0433711112    -3.8080366934    -2.3451013254
| 22>  H        1.8231494432    -2.3047082527    -2.9512657037
| 23>  H        2.6799019612    -2.5753934661     1.4587518263
| 24> *
| 25>
| 26>                          ****END OF INPUT****

CARTESIAN COORDINATES (ANGSTROEM)
---------------------------------
  C      0.214993    0.759135    0.457041
  O     -0.421771    0.225777   -0.697712
  C      0.403994   -0.542580   -1.537749
  C      0.523870   -2.019153   -1.108121
  N     -0.801253   -2.542654   -0.877314
  C      1.436610   -2.826474   -2.071259
  O      2.457361   -2.936354   -1.030853
  C      1.643418   -2.330131   -0.101389
  N      1.795848   -2.178437    1.135504
  H      0.536582   -0.023587    1.152307
  H      1.089367    1.364502    0.175589
  H     -0.519015    1.406650    0.942545
  H     -0.077486   -0.533398   -2.522458
  H      1.405412   -0.097892   -1.635572
  H     -0.776438   -3.348678   -0.261746
  H     -1.355018   -1.824414   -0.418829
  H      1.043371   -3.808037   -2.345101
  H      1.823149   -2.304708   -2.951266
  H      2.679902   -2.575393    1.458752

 Total Charge           Charge          ....    0
 Multiplicity           Mult            ....    1
 Number of Electrons    NEL             ....   70
 Basis Dimension        Dim             ....  339

ORBITAL ENERGIES
----------------

  NO   OCC          E(Eh)            E(eV)
   0   2.0000     -20.597123      -560.4762
   1   2.0000     -20.565122      -559.6054
   2   2.0000     -15.554437      -423.2577
   3   2.0000     -15.543981      -422.9732
   4   2.0000     -11.341024      -308.6050
   5   2.0000     -11.300882      -307.5126
   6   2.0000     -11.293745      -307.3184
   7   2.0000     -11.290735      -307.2365
   8   2.0000     -11.267363      -306.6005
   9   2.0000      -1.440233       -39.1907
  10   2.0000      -1.383769       -37.6543
  11   2.0000      -1.209612       -32.9152
  12   2.0000      -1.196701       -32.5639
  13   2.0000      -1.028859       -27.9967
  14   2.0000      -0.961827       -26.1726
  15   2.0000      -0.903814       -24.5940
  16   2.0000      -0.864831       -23.5332
  17   2.0000      -0.740359       -20.1462
  18   2.0000      -0.715160       -19.4605
  19   2.0000      -0.697277       -18.9739
  20   2.0000      -0.687184       -18.6992
  21   2.0000      -0.664988       -18.0953
  22   2.0000      -0.652861       -17.7653
  23   2.0000      -0.631816       -17.1926
  24   2.0000      -0.620741       -16.8912
  25   2.0000      -0.567401       -15.4398
  26   2.0000      -0.541335       -14.7305
  27   2.0000      -0.539438       -14.6789
  28   2.0000      -0.527459       -14.3529
  29   2.0000      -0.509862       -13.8741
  30   2.0000      -0.480808       -13.0834
  31   2.0000      -0.452579       -12.3153
  32   2.0000      -0.438473       -11.9315
  33   2.0000      -0.406566       -11.0632
  34   2.0000      -0.399282       -10.8650
  35   0.0000       0.135957         3.6996
  36   0.0000       0.159084         4.3289
  37   0.0000       0.161562         4.3963
  38   0.0000       0.172473         4.6932
  39   0.0000       0.177556         4.8315

MULLIKEN ATOMIC CHARGES
-----------------------
   0 C :   -0.230014
   1 O :   -0.336581
   2 C :   -0.080217
   3 C :    0.222608
   4 N :   -0.539624
   5 C :   -0.056295
   6 O :   -0.260265
   7 C :    0.049750
   8 N :   -0.386167
   9 H :    0.159860
  10 H :    0.108394
  11 H :    0.137538
  12 H :    0.133560
  13 H :    0.117972
  14 H :    0.235576
  15 H :    0.254749
  16 H :    0.118812
  17 H :    0.120329
  18 H :    0.230015
Sum of atomic charges:    0.0000000

LOEWDIN ATOMIC CHARGES
----------------------
   0 C :   -0.346717
   1 O :    0.131477
   2 C :   -0.290311
   3 C :   -0.325073
   4 N :   -0.105346
   5 C :   -0.191062
   6 O :    0.213822
   7 C :   -0.382397
   8 N :   -0.059343
   9 H :    0.111410
  10 H :    0.103806
  11 H :    0.112666
  12 H :    0.140986
  13 H :    0.131959
  14 H :    0.161954
  15 H :    0.168179
  16 H :    0.126408
  17 H :    0.124538
  18 H :    0.173044

  Mayer bond orders larger than 0.1
B(  0-C ,  1-O ) :   0.8776 B(  0-C ,  9-H ) :   0.9243 B(  0-C , 10-H ) :   0.9353
B(  0-C , 11-H ) :   0.9379 B(  1-O ,  2-C ) :   0.9408 B(  2-C ,  3-C ) :   0.8657
B(  2-C , 12-H ) :   0.9297 B(  2-C , 13-H ) :   0.9362 B(  3-C ,  4-N ) :   0.9924
B(  3-C ,  5-C ) :   0.9209 B(  3-C ,  7-C ) :   0.8882 B(  4-N , 14-H ) :   0.8876
B(  4-N , 15-H ) :   0.8695 B(  5-C ,  6-O ) :   0.8915 B(  5-C , 16-H ) :   0.9078
B(  5-C , 17-H ) :   0.9191 B(  6-O ,  7-C ) :   1.0843 B(  7-C ,  8-N ) :   2.0329
B(  8-N , 18-H ) :   0.8463

MP2 TOTAL ENERGY:     -455.585789410 Eh
FINAL SINGLE POINT ENERGY      -455.585789409629

DIPOLE MOMENT
-------------
                                X             Y             Z
Electronic contribution:      2.20956      -3.76051      -0.21665
Nuclear contribution   :     -1.94165       3.75089      -0.03345
                        -----------------------------------------
Total Dipole Moment    :      0.26792      -0.00963      -0.25010
                        -----------------------------------------
Magnitude (a.u.)       :      0.36664
Magnitude (Debye)      :      0.93191

                             ****ORCA TERMINATED NORMALLY****
TOTAL RUN TIME: 0 days 0 hours 18 minutes 4 seconds 87 msec
