                         Program Version 3.0.3 - RELEASE   -
|  1> ! RI-MP2 RIJK def2-TZVP def2-TZVP/C def2-TZVP/JK TIGHTSCF
|  2> % maxcore 2000
|  3> % mp2 density relaxed end
|  4> *xyz 0 1
|  5>  C       -0.1782881715     1.5244696800    -0.1587452163
|  6>  C        0.0718290805     0.0434146245     0.0416471108
|  7>  O        1.1231636270    -0.4831750906    -0.8130656372
|  8>  C        1.7801772053    -1.1187324447     0.2931779631
|  9>  C        2.8985846553    -0.2737887867     0.8766094719
| 10>  C        3.0154645939    -0.5819913142     2.3525884586
| 11>  C        1.9127007137     0.3274975684     1.8782323106
| 12>  O        1.8314296186     1.6505986251     2.2791652309
| 13>  C        0.7609494498    -0.5031874810     1.3167541346
| 14>  H        0.7121100583     2.1163953427     0.0569716632
| 15>  H       -0.4845604754     1.7064350467    -1.1941291552
| 16>  H       -0.9866473236     1.8642691873     0.4982764996
| 17>  H       -0.8559535625    -0.5158296490    -0.1501752470
| 18>  H        1.9427953644    -2.1890787804     0.1354848894
| 19>  H        3.6876825519     0.2048649146     0.3107065916
| 20>  H        2.8110586030    -1.5796275766     2.7363964206
| 21>  H        3.8268826732    -0.0619355405     2.8516702991
| 22>  H        1.6344554659     1.6727185204     3.2220474553
| 23>  H        0.1379879123    -1.0693054461     2.0122404765
| 24> *
| 25>
| 26>                          ****END OF INPUT****

CARTESIAN COORDINATES (ANGSTROEM)
---------------------------------
  C     -0.178288    1.524470   -0.158745
  C      0.071829    0.043415    0.041647
  O      1.123164   -0.483175   -0.813066
  C      1.780177   -1.118732    0.293178
  C      2.898585   -0.273789    0.876609
  C      3.015465   -0.581991    2.352588
  C      1.912701    0.327498    1.878232
  O      1.831430    1.650599    2.279165
  C      0.760949   -0.503187    1.316754
  H      0.712110    2.116395    0.056972
  H     -0.484560    1.706435   -1.194129
  H     -0.986647    1.864269    0.498276
  H     -0.855954   -0.515830   -0.150175
  H      1.942795   -2.189079    0.135485
  H      3.687683    0.204865    0.310707
  H      2.811059   -1.579628    2.736396
  H      3.826883   -0.061936    2.851670
  H      1.634455    1.672719    3.222047
  H      0.137988   -1.069305    2.012240

 Total Charge           Charge          ....    0
 Multiplicity           Mult            ....    1
 Number of Electrons    NEL             ....   68
 Basis Dimension        Dim             ....  339

ORBITAL ENERGIES
----------------

  NO   OCC          E(Eh)            E(eV)
   0   2.0000     -20.572800      -559.8144
   1   2.0000     -20.542001      -558.9763
   2   2.0000     -11.296619      -307.3966
   3   2.0000     -11.286531      -307.1221
   4   2.0000     -11.281856      -306.9949
   5   2.0000     -11.236773      -305.7681
   6   2.0000     -11.236114      -305.7502
   7   2.0000     -11.234600      -305.7090
   8   2.0000     -11.206575      -304.9464
   9   2.0000      -1.388788       -37.7909
  10   2.0000      -1.374009       -37.3887
  11   2.0000      -1.177470       -32.0406
  12   2.0000      -1.023160       -27.8416
  13   2.0000      -0.972258       -26.4565
  14   2.0000      -0.891991       -24.2723
  15   2.0000      -0.826961       -22.5028
  16   2.0000      -0.800471       -21.7819
  17   2.0000      -0.733597       -19.9622
  18   2.0000      -0.695676       -18.9303
  19   2.0000      -0.685923       -18.6649
  20   2.0000      -0.655034       -17.8244
  21   2.0000      -0.629672       -17.1342
  22   2.0000      -0.599293       -16.3076
  23   2.0000      -0.581690       -15.8286
  24   2.0000      -0.571004       -15.5378
  25   2.0000      -0.551142       -14.9973
  26   2.0000      -0.524022       -14.2594
  27   2.0000      -0.509114       -13.8537
  28   2.0000      -0.502714       -13.6795
  29   2.0000      -0.475452       -12.9377
  30   2.0000      -0.435376       -11.8472
  31   2.0000      -0.422758       -11.5038
  32   2.0000      -0.388009       -10.5583
  33   2.0000      -0.383814       -10.4441
  34   0.0000       0.130741         3.5576
  35   0.0000       0.158832         4.3220
  36   0.0000       0.160611         4.3705
  37   0.0000       0.174697         4.7537
  38   0.0000       0.188522         5.1299

MULLIKEN ATOMIC CHARGES
-----------------------
   0 C :   -0.396280
   1 C :    0.065004
   2 O :   -0.341042
   3 C :    0.046394
   4 C :   -0.126620
   5 C :   -0.296068
   6 C :    0.083598
   7 O :   -0.462798
   8 C :   -0.033031
   9 H :    0.155268
  10 H :    0.134312
  11 H :    0.116883
  12 H :    0.082124
  13 H :    0.107478
  14 H :    0.143250
  15 H :    0.133044
  16 H :    0.137718
  17 H :    0.327743
  18 H :    0.123023
Sum of atomic charges:    0.0000000

LOEWDIN ATOMIC CHARGES
----------------------
   0 C :   -0.293602
   1 C :   -0.274452
   2 O :    0.160564
   3 C :   -0.220329
   4 C :   -0.144349
   5 C :   -0.191321
   6 C :   -0.319471
   7 O :    0.032371
   8 C :   -0.140582
   9 H :    0.130453
  10 H :    0.127711
  11 H :    0.127595
  12 H :    0.137165
  13 H :    0.127962
  14 H :    0.142513
  15 H :    0.132352
  16 H :    0.144376
  17 H :    0.185692
  18 H :    0.135353

  Mayer bond orders larger than 0.1
B(  0-C ,  1-C ) :   0.9196 B(  0-C ,  9-H ) :   0.9341 B(  0-C , 10-H ) :   0.9309
B(  0-C , 11-H ) :   0.9281 B(  1-C ,  2-O ) :   0.9203 B(  1-C ,  8-C ) :   0.9010
B(  1-C , 12-H ) :   0.9247 B(  2-O ,  3-C ) :   0.9529 B(  3-C ,  4-C ) :   0.9035
B(  3-C ,  8-C ) :   0.9291 B(  3-C , 13-H ) :   0.9253 B(  4-C ,  5-C ) :   0.8648
B(  4-C ,  6-C ) :   0.8716 B(  4-C , 14-H ) :   0.8930 B(  5-C ,  6-C ) :   0.8933
B(  5-C , 15-H ) :   0.9064 B(  5-C , 16-H ) :   0.9271 B(  6-C ,  7-O ) :   1.0363
B(  6-C ,  8-C ) :   0.8971 B(  7-O , 17-H ) :   0.8323 B(  8-C , 18-H ) :   0.9007

MP2 TOTAL ENERGY:     -422.270071263 Eh
FINAL SINGLE POINT ENERGY      -422.270071262747

DIPOLE MOMENT
-------------
                                X             Y             Z
Electronic contribution:      1.78619      -1.23912      -0.29735
Nuclear contribution   :     -1.95417       1.00013       1.40131
                        -----------------------------------------
Total Dipole Moment    :     -0.16798      -0.23899       1.10396
                        -----------------------------------------
Magnitude (a.u.)       :      1.14196
Magnitude (Debye)      :      2.90262

                             ****ORCA TERMINATED NORMALLY****
TOTAL RUN TIME: 0 days 0 hours 17 minutes 35 seconds 346 msec
