                         Program Version 3.0.3 - RELEASE   -
|  1> ! RI-MP2 RIJK def2-TZVP def2-TZVP/C def2-TZVP/JK TIGHTSCF
|  2> % maxcore 2000
|  3> % mp2 density relaxed end
|  4> *xyz 0 1
|  5>  C        0.0713309383     1.3949999753     0.0517060034
|  6>  O        0.3469418197    -0.0096594698    -0.0217865790
|  7>  C        0.6590688107    -0.5967435201     1.1518431702
|  8>  O        0.7312451840    -0.0114898653     2.1999496631
|  9>  C        0.8537340965    -2.0919722202     0.9496800372
| 10>  N        1.6522618305    -2.6637454730     2.0126070833
| 11>  C        0.9492086721    -2.9908671366     3.2462279901
| 12>  C        1.4021755966    -4.0689434677     2.3251672692
| 13>  H        0.9434072953     1.9390191148     0.4228767501
| 14>  H       -0.1674401643     1.7047118130    -0.9657178127
| 15>  H       -0.7721500592     1.5888512450     0.7193698081
| 16>  H       -0.1585785007    -2.5352677272     0.8712705001
| 17>  H        1.3442333315    -2.2597996763    -0.0137846290
| 18>  H        1.4895905044    -2.7772821046     4.1627830150
| 19>  H       -0.1192104162    -2.7891918567     3.2929985631
| 20>  H        0.6369705797    -4.5926422277     1.7537203149
| 21>  H        2.2832880911    -4.6613649428     2.5529149531
| 22> *
| 23>
| 24>                          ****END OF INPUT****

CARTESIAN COORDINATES (ANGSTROEM)
---------------------------------
  C      0.071331    1.395000    0.051706
  O      0.346942   -0.009659   -0.021787
  C      0.659069   -0.596744    1.151843
  O      0.731245   -0.011490    2.199950
  C      0.853734   -2.091972    0.949680
  N      1.652262   -2.663745    2.012607
  C      0.949209   -2.990867    3.246228
  C      1.402176   -4.068943    2.325167
  H      0.943407    1.939019    0.422877
  H     -0.167440    1.704712   -0.965718
  H     -0.772150    1.588851    0.719370
  H     -0.158579   -2.535268    0.871271
  H      1.344233   -2.259800   -0.013785
  H      1.489591   -2.777282    4.162783
  H     -0.119210   -2.789192    3.292999
  H      0.636971   -4.592642    1.753720
  H      2.283288   -4.661365    2.552915

 Total Charge           Charge          ....    0
 Multiplicity           Mult            ....    1
 Number of Electrons    NEL             ....   62
 Basis Dimension        Dim             ....  302

ORBITAL ENERGIES
----------------

  NO   OCC          E(Eh)            E(eV)
   0   2.0000     -20.603033      -560.6370
   1   2.0000     -20.541856      -558.9723
   2   2.0000     -15.565574      -423.5608
   3   2.0000     -11.376575      -309.5723
   4   2.0000     -11.285544      -307.0953
   5   2.0000     -11.275012      -306.8087
   6   2.0000     -11.258294      -306.3537
   7   2.0000     -11.255191      -306.2693
   8   2.0000      -1.460493       -39.7420
   9   2.0000      -1.360304       -37.0158
  10   2.0000      -1.280523       -34.8448
  11   2.0000      -1.043528       -28.3958
  12   2.0000      -0.962878       -26.2012
  13   2.0000      -0.848714       -23.0947
  14   2.0000      -0.846051       -23.0222
  15   2.0000      -0.772180       -21.0121
  16   2.0000      -0.707887       -19.2626
  17   2.0000      -0.689408       -18.7598
  18   2.0000      -0.681237       -18.5374
  19   2.0000      -0.659768       -17.9532
  20   2.0000      -0.644938       -17.5497
  21   2.0000      -0.601932       -16.3794
  22   2.0000      -0.576139       -15.6775
  23   2.0000      -0.533949       -14.5295
  24   2.0000      -0.530239       -14.4285
  25   2.0000      -0.527110       -14.3434
  26   2.0000      -0.482997       -13.1430
  27   2.0000      -0.470395       -12.8001
  28   2.0000      -0.463711       -12.6182
  29   2.0000      -0.441172       -12.0049
  30   2.0000      -0.382188       -10.3999
  31   0.0000       0.138685         3.7738
  32   0.0000       0.158321         4.3081
  33   0.0000       0.173492         4.7210
  34   0.0000       0.179034         4.8718
  35   0.0000       0.182705         4.9717

MULLIKEN ATOMIC CHARGES
-----------------------
   0 C :   -0.219374
   1 O :   -0.261394
   2 C :    0.304585
   3 O :   -0.319573
   4 C :   -0.140450
   5 N :   -0.218972
   6 C :   -0.166632
   7 C :   -0.175238
   8 H :    0.143288
   9 H :    0.144038
  10 H :    0.138369
  11 H :    0.113774
  12 H :    0.150108
  13 H :    0.132765
  14 H :    0.121455
  15 H :    0.120927
  16 H :    0.132325
Sum of atomic charges:   -0.0000000

LOEWDIN ATOMIC CHARGES
----------------------
   0 C :   -0.310247
   1 O :    0.223622
   2 C :   -0.478090
   3 O :    0.137323
   4 C :   -0.269199
   5 N :    0.098060
   6 C :   -0.260858
   7 C :   -0.267854
   8 H :    0.114888
   9 H :    0.114572
  10 H :    0.113449
  11 H :    0.139103
  12 H :    0.148274
  13 H :    0.127070
  14 H :    0.123873
  15 H :    0.120882
  16 H :    0.125131

  Mayer bond orders larger than 0.1
B(  0-C ,  1-O ) :   0.8385 B(  0-C ,  8-H ) :   0.9400 B(  0-C ,  9-H ) :   0.9335
B(  0-C , 10-H ) :   0.9388 B(  1-O ,  2-C ) :   1.1282 B(  2-C ,  3-O ) :   1.9467
B(  2-C ,  4-C ) :   0.9359 B(  4-C ,  5-N ) :   0.8954 B(  4-C , 11-H ) :   0.8988
B(  4-C , 12-H ) :   0.9097 B(  5-N ,  6-C ) :   0.8923 B(  5-N ,  7-C ) :   0.8791
B(  6-C ,  7-C ) :   0.9375 B(  6-C , 13-H ) :   0.9280 B(  6-C , 14-H ) :   0.9277
B(  7-C , 15-H ) :   0.9269 B(  7-C , 16-H ) :   0.9270

MP2 TOTAL ENERGY:     -400.338154559 Eh
FINAL SINGLE POINT ENERGY      -400.338154558543

DIPOLE MOMENT
-------------
                                X             Y             Z
Electronic contribution:      1.13081       2.04707      -0.18727
Nuclear contribution   :     -1.69619      -2.27952      -0.37632
                        -----------------------------------------
Total Dipole Moment    :     -0.56538      -0.23245      -0.56359
                        -----------------------------------------
Magnitude (a.u.)       :      0.83146
Magnitude (Debye)      :      2.11339

                             ****ORCA TERMINATED NORMALLY****
TOTAL RUN TIME: 0 days 0 hours 10 minutes 54 seconds 619 msec
