                         Program Version 3.0.3 - RELEASE   -
|  1> ! RI-MP2 RIJK def2-TZVP def2-TZVP/C def2-TZVP/JK TIGHTSCF
|  2> % maxcore 2000
|  3> % mp2 density relaxed end
|  4> *xyz 0 1
|  5>  N        0.0780844912     1.3328384285     0.0150574690
|  6>  C       -0.0322448811    -0.0183884294     0.0129910835
|  7>  N       -1.1128621105    -0.7081846208     0.0825695113
|  8>  C       -0.7864288591    -2.1377962322    -0.0391923634
|  9>  C        0.7489856094    -2.2891849021    -0.0916532701
| 10>  C        1.3271572460    -3.0847581392    -1.2779278400
| 11>  O        2.7312770386    -3.1723257326    -1.2175632269
| 12>  C        1.2112479111    -0.8466390760    -0.1392388790
| 13>  O        2.3350394857    -0.4180642409    -0.3000540945
| 14>  H        1.0001924128     1.7165920406     0.1427184350
| 15>  H       -0.7131584764     1.8893095131     0.2912208783
| 16>  H       -1.2291843274    -2.6825260393     0.8012575184
| 17>  H       -1.2616417242    -2.5315342025    -0.9474764650
| 18>  H        1.1408020641    -2.7400727580     0.8280216222
| 19>  H        0.9408987891    -4.1091766259    -1.2554899848
| 20>  H        0.9810650743    -2.6267744534    -2.2205093027
| 21>  H        3.0669748363    -2.2731165898    -1.0990988514
| 22> *
| 23>
| 24>                          ****END OF INPUT****

CARTESIAN COORDINATES (ANGSTROEM)
---------------------------------
  N      0.078084    1.332838    0.015057
  C     -0.032245   -0.018388    0.012991
  N     -1.112862   -0.708185    0.082570
  C     -0.786429   -2.137796   -0.039192
  C      0.748986   -2.289185   -0.091653
  C      1.327157   -3.084758   -1.277928
  O      2.731277   -3.172326   -1.217563
  C      1.211248   -0.846639   -0.139239
  O      2.335039   -0.418064   -0.300054
  H      1.000192    1.716592    0.142718
  H     -0.713158    1.889310    0.291221
  H     -1.229184   -2.682526    0.801258
  H     -1.261642   -2.531534   -0.947476
  H      1.140802   -2.740073    0.828022
  H      0.940899   -4.109177   -1.255490
  H      0.981065   -2.626774   -2.220509
  H      3.066975   -2.273117   -1.099099

 Total Charge           Charge          ....    0
 Multiplicity           Mult            ....    1
 Number of Electrons    NEL             ....   68
 Basis Dimension        Dim             ....  327

ORBITAL ENERGIES
----------------

  NO   OCC          E(Eh)            E(eV)
   0   2.0000     -20.583006      -560.0921
   1   2.0000     -20.554301      -559.3110
   2   2.0000     -15.587811      -424.1659
   3   2.0000     -15.565029      -423.5460
   4   2.0000     -11.358672      -309.0852
   5   2.0000     -11.327543      -308.2381
   6   2.0000     -11.292455      -307.2833
   7   2.0000     -11.271209      -306.7052
   8   2.0000     -11.254734      -306.2569
   9   2.0000      -1.424621       -38.7659
  10   2.0000      -1.363437       -37.1010
  11   2.0000      -1.293519       -35.1984
  12   2.0000      -1.202351       -32.7176
  13   2.0000      -1.064898       -28.9774
  14   2.0000      -0.954318       -25.9683
  15   2.0000      -0.914787       -24.8926
  16   2.0000      -0.830873       -22.6092
  17   2.0000      -0.768606       -20.9148
  18   2.0000      -0.717953       -19.5365
  19   2.0000      -0.710653       -19.3379
  20   2.0000      -0.693685       -18.8761
  21   2.0000      -0.646397       -17.5894
  22   2.0000      -0.633660       -17.2428
  23   2.0000      -0.611850       -16.6493
  24   2.0000      -0.596842       -16.2409
  25   2.0000      -0.580280       -15.7902
  26   2.0000      -0.568788       -15.4775
  27   2.0000      -0.546966       -14.8837
  28   2.0000      -0.529494       -14.4083
  29   2.0000      -0.501081       -13.6351
  30   2.0000      -0.464864       -12.6496
  31   2.0000      -0.444867       -12.1054
  32   2.0000      -0.411060       -11.1855
  33   2.0000      -0.371463       -10.1080
  34   0.0000       0.074035         2.0146
  35   0.0000       0.133970         3.6455
  36   0.0000       0.142742         3.8842
  37   0.0000       0.163978         4.4621
  38   0.0000       0.174105         4.7376

MULLIKEN ATOMIC CHARGES
-----------------------
   0 N :   -0.494151
   1 C :    0.113085
   2 N :   -0.220258
   3 C :   -0.137418
   4 C :   -0.064218
   5 C :   -0.049044
   6 O :   -0.471889
   7 C :    0.173101
   8 O :   -0.331568
   9 H :    0.274159
  10 H :    0.264650
  11 H :    0.128389
  12 H :    0.128341
  13 H :    0.128344
  14 H :    0.123025
  15 H :    0.103320
  16 H :    0.332132
Sum of atomic charges:    0.0000000

LOEWDIN ATOMIC CHARGES
----------------------
   0 N :   -0.011980
   1 C :   -0.360859
   2 N :    0.106640
   3 C :   -0.248496
   4 C :   -0.226947
   5 C :   -0.324443
   6 O :   -0.036406
   7 C :   -0.269453
   8 O :    0.139711
   9 H :    0.180699
  10 H :    0.176564
  11 H :    0.134097
  12 H :    0.137567
  13 H :    0.172835
  14 H :    0.131836
  15 H :    0.122124
  16 H :    0.176511

  Mayer bond orders larger than 0.1
B(  0-N ,  1-C ) :   1.1573 B(  0-N ,  9-H ) :   0.8563 B(  0-N , 10-H ) :   0.8611
B(  1-C ,  2-N ) :   1.7765 B(  1-C ,  7-C ) :   0.9401 B(  2-N ,  3-C ) :   0.9220
B(  3-C ,  4-C ) :   0.9161 B(  3-C , 11-H ) :   0.9205 B(  3-C , 12-H ) :   0.9216
B(  4-C ,  5-C ) :   0.9047 B(  4-C ,  7-C ) :   0.9198 B(  4-C , 13-H ) :   0.8820
B(  5-C ,  6-O ) :   0.9514 B(  5-C , 14-H ) :   0.9335 B(  5-C , 15-H ) :   0.9134
B(  6-O , 16-H ) :   0.8211 B(  7-C ,  8-O ) :   1.8727

MP2 TOTAL ENERGY:     -454.446949154 Eh
FINAL SINGLE POINT ENERGY      -454.446949153730

DIPOLE MOMENT
-------------
                                X             Y             Z
Electronic contribution:      1.64141       3.54735       1.01816
Nuclear contribution   :     -2.14690      -2.99513      -0.62681
                        -----------------------------------------
Total Dipole Moment    :     -0.50549       0.55222       0.39135
                        -----------------------------------------
Magnitude (a.u.)       :      0.84476
Magnitude (Debye)      :      2.14721

                             ****ORCA TERMINATED NORMALLY****
TOTAL RUN TIME: 0 days 0 hours 26 minutes 32 seconds 373 msec
