                         Program Version 3.0.3 - RELEASE   -
|  1> ! RI-MP2 RIJK def2-TZVP def2-TZVP/C def2-TZVP/JK TIGHTSCF
|  2> % maxcore 2000
|  3> % mp2 density relaxed end
|  4> *xyz 0 1
|  5>  O        0.0116314037     1.4662982707     0.0874584306
|  6>  C       -0.0238694003     0.0635311024    -0.0434613362
|  7>  C       -1.4006773068    -0.5688709983    -0.0055064823
|  8>  C       -2.0556298594    -0.5055328822    -1.3719804101
|  9>  O       -1.6926696939     0.4968875012    -2.2872915810
| 10>  C       -0.2928381744     0.3413202402    -2.5505480807
| 11>  C        0.2173847705    -0.5911982596    -1.4519939288
| 12>  C       -0.9920985594    -1.5167138909    -1.1593009230
| 13>  H        0.9222345993     1.7361843005     0.2420596834
| 14>  H        0.6253705408    -0.4180735507     0.6998831708
| 15>  H       -1.9698344374    -0.7914986142     0.8903437752
| 16>  H       -3.1005227252    -0.7840692555    -1.4381147131
| 17>  H       -0.1409606286    -0.0843413232    -3.5533876693
| 18>  H        0.1770561877     1.3283956810    -2.5011552219
| 19>  H        1.1976324084    -1.0287321989    -1.6388956483
| 20>  H       -1.0580975648    -2.5914192425    -1.2522817353
| 21> *
| 22>
| 23>                          ****END OF INPUT****

CARTESIAN COORDINATES (ANGSTROEM)
---------------------------------
  O      0.011631    1.466298    0.087458
  C     -0.023869    0.063531   -0.043461
  C     -1.400677   -0.568871   -0.005506
  C     -2.055630   -0.505533   -1.371980
  O     -1.692670    0.496888   -2.287292
  C     -0.292838    0.341320   -2.550548
  C      0.217385   -0.591198   -1.451994
  C     -0.992099   -1.516714   -1.159301
  H      0.922235    1.736184    0.242060
  H      0.625371   -0.418074    0.699883
  H     -1.969834   -0.791499    0.890344
  H     -3.100523   -0.784069   -1.438115
  H     -0.140961   -0.084341   -3.553388
  H      0.177056    1.328396   -2.501155
  H      1.197632   -1.028732   -1.638896
  H     -1.058098   -2.591419   -1.252282

 Total Charge           Charge          ....    0
 Multiplicity           Mult            ....    1
 Number of Electrons    NEL             ....   60
 Basis Dimension        Dim             ....  296

ORBITAL ENERGIES
----------------

  NO   OCC          E(Eh)            E(eV)
   0   2.0000     -20.556567      -559.3726
   1   2.0000     -20.547734      -559.1323
   2   2.0000     -11.289551      -307.2043
   3   2.0000     -11.282628      -307.0159
   4   2.0000     -11.269038      -306.6461
   5   2.0000     -11.239308      -305.8371
   6   2.0000     -11.236764      -305.7679
   7   2.0000     -11.233992      -305.6925
   8   2.0000      -1.384316       -37.6691
   9   2.0000      -1.361031       -37.0355
  10   2.0000      -1.177568       -32.0433
  11   2.0000      -1.018844       -27.7241
  12   2.0000      -0.920399       -25.0453
  13   2.0000      -0.849504       -23.1162
  14   2.0000      -0.789940       -21.4954
  15   2.0000      -0.734880       -19.9971
  16   2.0000      -0.727876       -19.8065
  17   2.0000      -0.686251       -18.6738
  18   2.0000      -0.657322       -17.8866
  19   2.0000      -0.612417       -16.6647
  20   2.0000      -0.603360       -16.4183
  21   2.0000      -0.574984       -15.6461
  22   2.0000      -0.558879       -15.2079
  23   2.0000      -0.518106       -14.0984
  24   2.0000      -0.497393       -13.5347
  25   2.0000      -0.473036       -12.8720
  26   2.0000      -0.469962       -12.7883
  27   2.0000      -0.432505       -11.7691
  28   2.0000      -0.397493       -10.8163
  29   2.0000      -0.367929       -10.0119
  30   0.0000       0.129693         3.5291
  31   0.0000       0.158683         4.3180
  32   0.0000       0.169725         4.6184
  33   0.0000       0.175460         4.7745
  34   0.0000       0.195140         5.3100

MULLIKEN ATOMIC CHARGES
-----------------------
   0 O :   -0.452929
   1 C :    0.014993
   2 C :   -0.133145
   3 C :    0.046741
   4 O :   -0.316355
   5 C :    0.009143
   6 C :   -0.051650
   7 C :   -0.247066
   8 H :    0.313299
   9 H :    0.093675
  10 H :    0.130038
  11 H :    0.127861
  12 H :    0.095209
  13 H :    0.089774
  14 H :    0.133225
  15 H :    0.147186
Sum of atomic charges:    0.0000000

LOEWDIN ATOMIC CHARGES
----------------------
   0 O :   -0.005909
   1 C :   -0.300053
   2 C :   -0.139374
   3 C :   -0.261900
   4 O :    0.179311
   5 C :   -0.267028
   6 C :   -0.189424
   7 C :   -0.135874
   8 H :    0.174183
   9 H :    0.138111
  10 H :    0.135891
  11 H :    0.146651
  12 H :    0.121045
  13 H :    0.127463
  14 H :    0.142381
  15 H :    0.134526

  Mayer bond orders larger than 0.1
B(  0-O ,  1-C ) :   1.1491 B(  0-O ,  8-H ) :   0.8436 B(  1-C ,  2-C ) :   0.9328
B(  1-C ,  6-C ) :   0.8965 B(  1-C ,  9-H ) :   0.9556 B(  2-C ,  3-C ) :   0.8492
B(  2-C ,  7-C ) :   0.7825 B(  2-C , 10-H ) :   0.9127 B(  3-C ,  4-O ) :   0.9888
B(  3-C ,  7-C ) :   0.9292 B(  3-C , 11-H ) :   0.9432 B(  4-O ,  5-C ) :   0.9360
B(  5-C ,  6-C ) :   0.9599 B(  5-C , 12-H ) :   0.9263 B(  5-C , 13-H ) :   0.8968
B(  6-C ,  7-C ) :   0.9033 B(  6-C , 14-H ) :   0.9153 B(  7-C , 15-H ) :   0.9034

MP2 TOTAL ENERGY:     -383.071488470 Eh
FINAL SINGLE POINT ENERGY      -383.071488469907

DIPOLE MOMENT
-------------
                                X             Y             Z
Electronic contribution:     -1.62743       1.36705       0.09405
Nuclear contribution   :      2.53965      -2.13220       0.20220
                        -----------------------------------------
Total Dipole Moment    :      0.91223      -0.76515       0.29625
                        -----------------------------------------
Magnitude (a.u.)       :      1.22694
Magnitude (Debye)      :      3.11863

                             ****ORCA TERMINATED NORMALLY****
TOTAL RUN TIME: 0 days 0 hours 11 minutes 37 seconds 344 msec
