                         Program Version 3.0.3 - RELEASE   -
|  1> ! RI-MP2 RIJK def2-TZVP def2-TZVP/C def2-TZVP/JK TIGHTSCF
|  2> % maxcore 2000
|  3> % mp2 density relaxed end
|  4> *xyz 0 1
|  5>  O        0.1625035219     1.2812039651     0.4148247932
|  6>  C        0.0198502235    -0.0468516157    -0.0268780094
|  7>  C       -1.4468652728    -0.5172319313    -0.1762325994
|  8>  C       -2.0886695448    -0.1719433490    -1.5344159276
|  9>  C       -2.2452130301     1.2716935021    -1.9323376433
| 10>  O       -1.7506390948     2.2337075684    -1.3912665841
| 11>  C       -1.5528832444    -2.0187552898     0.0418523991
| 12>  C       -1.6340307252    -2.5845212561     1.4348288193
| 13>  C       -2.8393486877    -2.6396120509     0.5262255470
| 14>  H       -0.3990222551     1.8342415790    -0.1488963816
| 15>  H        0.5559545671    -0.2275820026    -0.9775221943
| 16>  H        0.5040361181    -0.6729757592     0.7300474317
| 17>  H       -2.0142743290    -0.0126483657     0.6168488912
| 18>  H       -1.5242522120    -0.6446491393    -2.3560577864
| 19>  H       -3.0892010585    -0.6226845608    -1.6053099356
| 20>  H       -2.8861098019     1.4199113691    -2.8294928192
| 21>  H       -0.9855566643    -2.6104505682    -0.6747311696
| 22>  H       -1.1087962167    -3.5081958791     1.6506146137
| 23>  H       -1.6583786828    -1.8843168496     2.2634125608
| 24>  H       -3.6683727999    -1.9758379614     0.7521918630
| 25>  H       -3.1398275106    -3.6003765350     0.1228430615
| 26> *
| 27>
| 28>                          ****END OF INPUT****

CARTESIAN COORDINATES (ANGSTROEM)
---------------------------------
  O      0.162504    1.281204    0.414825
  C      0.019850   -0.046852   -0.026878
  C     -1.446865   -0.517232   -0.176233
  C     -2.088670   -0.171943   -1.534416
  C     -2.245213    1.271694   -1.932338
  O     -1.750639    2.233708   -1.391267
  C     -1.552883   -2.018755    0.041852
  C     -1.634031   -2.584521    1.434829
  C     -2.839349   -2.639612    0.526226
  H     -0.399022    1.834242   -0.148896
  H      0.555955   -0.227582   -0.977522
  H      0.504036   -0.672976    0.730047
  H     -2.014274   -0.012648    0.616849
  H     -1.524252   -0.644649   -2.356058
  H     -3.089201   -0.622685   -1.605310
  H     -2.886110    1.419911   -2.829493
  H     -0.985557   -2.610451   -0.674731
  H     -1.108796   -3.508196    1.650615
  H     -1.658379   -1.884317    2.263413
  H     -3.668373   -1.975838    0.752192
  H     -3.139828   -3.600377    0.122843

 Total Charge           Charge          ....    0
 Multiplicity           Mult            ....    1
 Number of Electrons    NEL             ....   70
 Basis Dimension        Dim             ....  351

ORBITAL ENERGIES
----------------

  NO   OCC          E(Eh)            E(eV)
   0   2.0000     -20.575845      -559.8972
   1   2.0000     -20.527750      -558.5885
   2   2.0000     -11.352197      -308.9090
   3   2.0000     -11.266854      -306.5867
   4   2.0000     -11.254691      -306.2557
   5   2.0000     -11.243349      -305.9471
   6   2.0000     -11.240694      -305.8748
   7   2.0000     -11.233305      -305.6738
   8   2.0000     -11.230998      -305.6110
   9   2.0000      -1.415964       -38.5303
  10   2.0000      -1.339042       -36.4372
  11   2.0000      -1.158653       -31.5286
  12   2.0000      -1.074824       -29.2474
  13   2.0000      -0.971483       -26.4354
  14   2.0000      -0.869138       -23.6504
  15   2.0000      -0.829460       -22.5708
  16   2.0000      -0.805753       -21.9257
  17   2.0000      -0.772020       -21.0077
  18   2.0000      -0.700698       -19.0669
  19   2.0000      -0.682808       -18.5801
  20   2.0000      -0.667662       -18.1680
  21   2.0000      -0.652655       -17.7596
  22   2.0000      -0.627197       -17.0669
  23   2.0000      -0.613944       -16.7063
  24   2.0000      -0.584483       -15.9046
  25   2.0000      -0.565946       -15.4002
  26   2.0000      -0.544425       -14.8146
  27   2.0000      -0.522584       -14.2202
  28   2.0000      -0.509708       -13.8699
  29   2.0000      -0.494307       -13.4508
  30   2.0000      -0.475295       -12.9334
  31   2.0000      -0.447657       -12.1814
  32   2.0000      -0.439226       -11.9519
  33   2.0000      -0.416120       -11.3232
  34   2.0000      -0.404237       -10.9998
  35   0.0000       0.117915         3.2086
  36   0.0000       0.131262         3.5718
  37   0.0000       0.145535         3.9602
  38   0.0000       0.154247         4.1973
  39   0.0000       0.165252         4.4967

MULLIKEN ATOMIC CHARGES
-----------------------
   0 O :   -0.484110
   1 C :   -0.023354
   2 C :   -0.116238
   3 C :   -0.228699
   4 C :    0.136025
   5 O :   -0.315130
   6 C :   -0.125364
   7 C :   -0.264439
   8 C :   -0.259448
   9 H :    0.333537
  10 H :    0.081123
  11 H :    0.118092
  12 H :    0.099447
  13 H :    0.143529
  14 H :    0.148964
  15 H :    0.103437
  16 H :    0.118709
  17 H :    0.133292
  18 H :    0.140204
  19 H :    0.128696
  20 H :    0.131730
Sum of atomic charges:   -0.0000000

LOEWDIN ATOMIC CHARGES
----------------------
   0 O :   -0.047958
   1 C :   -0.329610
   2 C :   -0.244472
   3 C :   -0.248922
   4 C :   -0.282103
   5 O :    0.123208
   6 C :   -0.215958
   7 C :   -0.224802
   8 C :   -0.230104
   9 H :    0.161993
  10 H :    0.115639
  11 H :    0.132908
  12 H :    0.163382
  13 H :    0.163586
  14 H :    0.161150
  15 H :    0.119645
  16 H :    0.150516
  17 H :    0.131688
  18 H :    0.136507
  19 H :    0.133031
  20 H :    0.130672

  Mayer bond orders larger than 0.1
B(  0-O ,  1-C ) :   0.9667 B(  0-O ,  9-H ) :   0.8059 B(  1-C ,  2-C ) :   0.9298
B(  1-C , 10-H ) :   0.9167 B(  1-C , 11-H ) :   0.9318 B(  2-C ,  3-C ) :   0.8915
B(  2-C ,  6-C ) :   0.8927 B(  2-C , 12-H ) :   0.9181 B(  3-C ,  4-C ) :   0.9008
B(  3-C , 13-H ) :   0.8869 B(  3-C , 14-H ) :   0.9119 B(  4-C ,  5-O ) :   1.8945
B(  4-C , 15-H ) :   0.9484 B(  6-C ,  7-C ) :   0.9020 B(  6-C ,  8-C ) :   0.8874
B(  6-C , 16-H ) :   0.9189 B(  7-C ,  8-C ) :   0.9059 B(  7-C , 17-H ) :   0.9328
B(  7-C , 18-H ) :   0.9267 B(  8-C , 19-H ) :   0.9260 B(  8-C , 20-H ) :   0.9291

MP2 TOTAL ENERGY:     -423.511921789 Eh
FINAL SINGLE POINT ENERGY      -423.511921789052

DIPOLE MOMENT
-------------
                                X             Y             Z
Electronic contribution:      0.93067       7.29142      -1.87966
Nuclear contribution   :     -1.80778      -8.42802       1.03845
                        -----------------------------------------
Total Dipole Moment    :     -0.87712      -1.13661      -0.84121
                        -----------------------------------------
Magnitude (a.u.)       :      1.66399
Magnitude (Debye)      :      4.22952

                             ****ORCA TERMINATED NORMALLY****
TOTAL RUN TIME: 0 days 0 hours 18 minutes 4 seconds 730 msec
