                         Program Version 3.0.3 - RELEASE   -
|  1> ! RI-MP2 RIJK def2-TZVP def2-TZVP/C def2-TZVP/JK TIGHTSCF
|  2> % maxcore 2000
|  3> % mp2 density relaxed end
|  4> *xyz 0 1
|  5>  C       -0.1640359176     1.5565495509    -0.0180722980
|  6>  C        0.0016024673     0.0287813207     0.0041450639
|  7>  C        1.2009644270    -0.4538494446    -0.8856354572
|  8>  C        2.0999034974    -0.4910094324     0.3885194908
|  9>  C        0.8053400675    -0.4655628929     1.2582333390
| 10>  C        3.0046870976    -1.6152785191     0.5493440606
| 11>  N        3.7124283277    -2.5211871895     0.6749981637
| 12>  C       -1.2679036490    -0.6358404538    -0.2337522811
| 13>  C       -2.3176034646    -1.1887164548    -0.4305253761
| 14>  H        0.7933495915     2.0569543237     0.1613308769
| 15>  H       -0.5465720999     1.8875088111    -0.9876912872
| 16>  H       -0.8680809185     1.8779866897     0.7546036164
| 17>  H        1.0305592594    -1.4529840263    -1.2873711524
| 18>  H        1.5153637789     0.2144786105    -1.6893486947
| 19>  H        2.6703129361     0.4347886581     0.4988399331
| 20>  H        0.8108743894     0.1936234798     2.1282373207
| 21>  H        0.5047239091    -1.4685518795     1.5621125003
| 22>  H       -3.2429784292    -1.6801544116    -0.6041859887
| 23> *
| 24>
| 25>                          ****END OF INPUT****

CARTESIAN COORDINATES (ANGSTROEM)
---------------------------------
  C     -0.164036    1.556550   -0.018072
  C      0.001602    0.028781    0.004145
  C      1.200964   -0.453849   -0.885635
  C      2.099903   -0.491009    0.388519
  C      0.805340   -0.465563    1.258233
  C      3.004687   -1.615279    0.549344
  N      3.712428   -2.521187    0.674998
  C     -1.267904   -0.635840   -0.233752
  C     -2.317603   -1.188716   -0.430525
  H      0.793350    2.056954    0.161331
  H     -0.546572    1.887509   -0.987691
  H     -0.868081    1.877987    0.754604
  H      1.030559   -1.452984   -1.287371
  H      1.515364    0.214479   -1.689349
  H      2.670313    0.434789    0.498840
  H      0.810874    0.193623    2.128237
  H      0.504724   -1.468552    1.562113
  H     -3.242978   -1.680154   -0.604186

 Total Charge           Charge          ....    0
 Multiplicity           Mult            ....    1
 Number of Electrons    NEL             ....   64
 Basis Dimension        Dim             ....  333

ORBITAL ENERGIES
----------------

  NO   OCC          E(Eh)            E(eV)
   0   2.0000     -15.568511      -423.6407
   1   2.0000     -11.288790      -307.1836
   2   2.0000     -11.284118      -307.0565
   3   2.0000     -11.271574      -306.7151
   4   2.0000     -11.260105      -306.4030
   5   2.0000     -11.260094      -306.4027
   6   2.0000     -11.241858      -305.9065
   7   2.0000     -11.241333      -305.8922
   8   2.0000     -11.233091      -305.6679
   9   2.0000      -1.220891       -33.2221
  10   2.0000      -1.180713       -32.1288
  11   2.0000      -1.059166       -28.8214
  12   2.0000      -1.003847       -27.3161
  13   2.0000      -0.937199       -25.5025
  14   2.0000      -0.923319       -25.1248
  15   2.0000      -0.822763       -22.3885
  16   2.0000      -0.734976       -19.9997
  17   2.0000      -0.712531       -19.3890
  18   2.0000      -0.680531       -18.5182
  19   2.0000      -0.623717       -16.9722
  20   2.0000      -0.615338       -16.7442
  21   2.0000      -0.579596       -15.7716
  22   2.0000      -0.576611       -15.6904
  23   2.0000      -0.556308       -15.1379
  24   2.0000      -0.542017       -14.7490
  25   2.0000      -0.519866       -14.1463
  26   2.0000      -0.501689       -13.6516
  27   2.0000      -0.487848       -13.2750
  28   2.0000      -0.451664       -12.2904
  29   2.0000      -0.444418       -12.0932
  30   2.0000      -0.394313       -10.7298
  31   2.0000      -0.391673       -10.6580
  32   0.0000       0.114766         3.1229
  33   0.0000       0.139294         3.7904
  34   0.0000       0.140401         3.8205
  35   0.0000       0.153532         4.1778
  36   0.0000       0.163646         4.4530

MULLIKEN ATOMIC CHARGES
-----------------------
   0 C :   -0.433988
   1 C :    0.031318
   2 C :   -0.278178
   3 C :    0.053594
   4 C :   -0.278178
   5 C :   -0.245792
   6 N :   -0.049799
   7 C :   -0.028354
   8 C :   -0.120287
   9 H :    0.134786
  10 H :    0.145447
  11 H :    0.145448
  12 H :    0.153442
  13 H :    0.136486
  14 H :    0.148951
  15 H :    0.136486
  16 H :    0.153442
  17 H :    0.195174
Sum of atomic charges:   -0.0000000

LOEWDIN ATOMIC CHARGES
----------------------
   0 C :   -0.246222
   1 C :   -0.261736
   2 C :   -0.133285
   3 C :   -0.214374
   4 C :   -0.133286
   5 C :   -0.178016
   6 N :    0.060418
   7 C :   -0.074042
   8 C :   -0.087389
   9 H :    0.128103
  10 H :    0.132754
  11 H :    0.132754
  12 H :    0.151269
  13 H :    0.135520
  14 H :    0.172405
  15 H :    0.135520
  16 H :    0.151269
  17 H :    0.128336

  Mayer bond orders larger than 0.1
B(  0-C ,  1-C ) :   0.9211 B(  0-C ,  9-H ) :   0.9256 B(  0-C , 10-H ) :   0.9369
B(  0-C , 11-H ) :   0.9369 B(  1-C ,  2-C ) :   0.8626 B(  1-C ,  4-C ) :   0.8626
B(  1-C ,  7-C ) :   1.1842 B(  1-C ,  8-C ) :  -0.1200 B(  2-C ,  3-C ) :   0.9115
B(  2-C , 12-H ) :   0.9169 B(  2-C , 13-H ) :   0.9255 B(  3-C ,  4-C ) :   0.9115
B(  3-C ,  5-C ) :   0.9320 B(  3-C , 14-H ) :   0.8942 B(  4-C , 15-H ) :   0.9255
B(  4-C , 16-H ) :   0.9169 B(  5-C ,  6-N ) :   2.8874 B(  7-C ,  8-C ) :   2.5877
B(  8-C , 17-H ) :   0.8793

MP2 TOTAL ENERGY:     -364.118594640 Eh
FINAL SINGLE POINT ENERGY      -364.118594640195

DIPOLE MOMENT
-------------
                                X             Y             Z
Electronic contribution:      3.24463      -5.78726       0.56723
Nuclear contribution   :     -4.21831       7.05892      -0.74005
                        -----------------------------------------
Total Dipole Moment    :     -0.97368       1.27166      -0.17282
                        -----------------------------------------
Magnitude (a.u.)       :      1.61091
Magnitude (Debye)      :      4.09462

                             ****ORCA TERMINATED NORMALLY****
TOTAL RUN TIME: 0 days 0 hours 17 minutes 9 seconds 897 msec
