                         Program Version 3.0.3 - RELEASE   -
|  1> ! RI-MP2 RIJK def2-TZVP def2-TZVP/C def2-TZVP/JK TIGHTSCF
|  2> % maxcore 2000
|  3> % mp2 density relaxed end
|  4> *xyz 0 1
|  5>  C        0.0192422427     1.5440856741     0.0983805053
|  6>  O        1.4696134737     1.4685657220    -0.0724522382
|  7>  C        1.3178930598     0.1313111889    -0.6314701826
|  8>  C        2.2180626085    -1.0526034081    -0.3182251146
|  9>  C        1.2532245127    -2.2867291243    -0.3493071054
| 10>  C       -0.1266454351    -1.9494509363     0.2662234862
| 11>  C        0.0263109930    -0.8569914716     1.3357568417
| 12>  C       -0.0161740492     0.0136999552     0.0749828027
| 13>  O       -0.8526353937    -0.9725343577    -0.5737206065
| 14>  H       -0.2603374775     2.0527809996     1.0254414247
| 15>  H       -0.4665499475     2.0235743860    -0.7620589402
| 16>  H        1.1511844204     0.2090651564    -1.7165592680
| 17>  H        3.0391115428    -1.1799500306    -1.0288709029
| 18>  H        2.6629767288    -0.9397289182     0.6743393987
| 19>  H        1.0963108847    -2.6231785630    -1.3796955467
| 20>  H        1.6994759469    -3.1239076891     0.1984364192
| 21>  H       -0.7371705227    -2.8337092484     0.4580462541
| 22>  H       -0.8880308485    -0.7332970085     1.9188857244
| 23>  H        0.9041604803    -0.8390052364     1.9826708280
| 24> *
| 25>
| 26>                          ****END OF INPUT****

CARTESIAN COORDINATES (ANGSTROEM)
---------------------------------
  C      0.019242    1.544086    0.098381
  O      1.469613    1.468566   -0.072452
  C      1.317893    0.131311   -0.631470
  C      2.218063   -1.052603   -0.318225
  C      1.253225   -2.286729   -0.349307
  C     -0.126645   -1.949451    0.266223
  C      0.026311   -0.856991    1.335757
  C     -0.016174    0.013700    0.074983
  O     -0.852635   -0.972534   -0.573721
  H     -0.260337    2.052781    1.025441
  H     -0.466550    2.023574   -0.762059
  H      1.151184    0.209065   -1.716559
  H      3.039112   -1.179950   -1.028871
  H      2.662977   -0.939729    0.674339
  H      1.096311   -2.623179   -1.379696
  H      1.699476   -3.123908    0.198436
  H     -0.737171   -2.833709    0.458046
  H     -0.888031   -0.733297    1.918886
  H      0.904160   -0.839005    1.982671

 Total Charge           Charge          ....    0
 Multiplicity           Mult            ....    1
 Number of Electrons    NEL             ....   68
 Basis Dimension        Dim             ....  339

ORBITAL ENERGIES
----------------

  NO   OCC          E(Eh)            E(eV)
   0   2.0000     -20.555711      -559.3493
   1   2.0000     -20.555267      -559.3373
   2   2.0000     -11.295036      -307.3536
   3   2.0000     -11.289905      -307.2139
   4   2.0000     -11.286275      -307.1151
   5   2.0000     -11.275589      -306.8244
   6   2.0000     -11.237643      -305.7918
   7   2.0000     -11.233340      -305.6747
   8   2.0000     -11.233208      -305.6711
   9   2.0000      -1.399184       -38.0737
  10   2.0000      -1.365626       -37.1606
  11   2.0000      -1.089179       -29.6381
  12   2.0000      -1.011901       -27.5352
  13   2.0000      -0.993235       -27.0273
  14   2.0000      -0.930724       -25.3263
  15   2.0000      -0.854498       -23.2521
  16   2.0000      -0.798966       -21.7410
  17   2.0000      -0.729807       -19.8591
  18   2.0000      -0.698975       -19.0201
  19   2.0000      -0.675262       -18.3748
  20   2.0000      -0.652795       -17.7635
  21   2.0000      -0.624452       -16.9922
  22   2.0000      -0.596918       -16.2430
  23   2.0000      -0.578502       -15.7418
  24   2.0000      -0.559821       -15.2335
  25   2.0000      -0.535565       -14.5735
  26   2.0000      -0.526162       -14.3176
  27   2.0000      -0.517205       -14.0739
  28   2.0000      -0.502345       -13.6695
  29   2.0000      -0.492103       -13.3908
  30   2.0000      -0.461390       -12.5551
  31   2.0000      -0.454520       -12.3681
  32   2.0000      -0.410550       -11.1716
  33   2.0000      -0.394598       -10.7376
  34   0.0000       0.135812         3.6956
  35   0.0000       0.159048         4.3279
  36   0.0000       0.165945         4.5156
  37   0.0000       0.167358         4.5541
  38   0.0000       0.182347         4.9619

MULLIKEN ATOMIC CHARGES
-----------------------
   0 C :   -0.007295
   1 O :   -0.322327
   2 C :   -0.010931
   3 C :   -0.190943
   4 C :   -0.321047
   5 C :    0.127476
   6 C :   -0.297391
   7 C :    0.147316
   8 O :   -0.325351
   9 H :    0.115662
  10 H :    0.106354
  11 H :    0.077810
  12 H :    0.139530
  13 H :    0.125063
  14 H :    0.128150
  15 H :    0.125925
  16 H :    0.126743
  17 H :    0.123256
  18 H :    0.132001
Sum of atomic charges:   -0.0000000

LOEWDIN ATOMIC CHARGES
----------------------
   0 C :   -0.220177
   1 O :    0.127967
   2 C :   -0.251686
   3 C :   -0.231509
   4 C :   -0.224595
   5 C :   -0.245613
   6 C :   -0.178899
   7 C :   -0.310361
   8 O :    0.163311
   9 H :    0.123011
  10 H :    0.126613
  11 H :    0.146861
  12 H :    0.135789
  13 H :    0.141731
  14 H :    0.143759
  15 H :    0.142094
  16 H :    0.133803
  17 H :    0.143161
  18 H :    0.134741

  Mayer bond orders larger than 0.1
B(  0-C ,  1-O ) :   0.9349 B(  0-C ,  7-C ) :   0.9338 B(  0-C ,  9-H ) :   0.9104
B(  0-C , 10-H ) :   0.9080 B(  1-O ,  2-C ) :   0.9936 B(  2-C ,  3-C ) :   0.8939
B(  2-C ,  7-C ) :   0.9629 B(  2-C , 11-H ) :   0.9274 B(  3-C ,  4-C ) :   0.9107
B(  3-C , 12-H ) :   0.9386 B(  3-C , 13-H ) :   0.9230 B(  4-C ,  5-C ) :   0.8958
B(  4-C , 14-H ) :   0.9294 B(  4-C , 15-H ) :   0.9182 B(  5-C ,  6-C ) :   0.9592
B(  5-C ,  8-O ) :   0.8824 B(  5-C , 16-H ) :   0.9209 B(  6-C ,  7-C ) :   0.9206
B(  6-C , 17-H ) :   0.9049 B(  6-C , 18-H ) :   0.9133 B(  7-C ,  8-O ) :   0.9815

MP2 TOTAL ENERGY:     -422.278899532 Eh
FINAL SINGLE POINT ENERGY      -422.278899532467

DIPOLE MOMENT
-------------
                                X             Y             Z
Electronic contribution:     -2.07563       2.89532      -1.10737
Nuclear contribution   :      2.14600      -3.48426       1.51769
                        -----------------------------------------
Total Dipole Moment    :      0.07036      -0.58895       0.41032
                        -----------------------------------------
Magnitude (a.u.)       :      0.72123
Magnitude (Debye)      :      1.83322

                             ****ORCA TERMINATED NORMALLY****
TOTAL RUN TIME: 0 days 0 hours 20 minutes 1 seconds 949 msec
