                         Program Version 3.0.3 - RELEASE   -
|  1> ! RI-MP2 RIJK def2-TZVP def2-TZVP/C def2-TZVP/JK TIGHTSCF
|  2> % maxcore 2000
|  3> % mp2 density relaxed end
|  4> *xyz 0 1
|  5>  C        0.2995788633     1.3215885901    -0.2577239967
|  6>  N        0.1081588223    -0.1013920474    -0.0879921937
|  7>  C        0.4832437520    -0.6922947476     0.9744388657
|  8>  N        0.3820497809    -2.0560179794     1.1450755932
|  9>  C       -0.3301523427    -2.8560933915     0.1933437087
| 10>  C        0.4211906349    -3.4245420559    -0.9806225987
| 11>  C       -0.0092912061    -4.3238487373     0.1522708496
| 12>  C        1.0862613262    -0.0215751998     2.1244674641
| 13>  N        1.5491687105     0.5268495551     3.0312108880
| 14>  H        0.7534229811     1.8315693693     0.6034907416
| 15>  H        0.9313173705     1.4982911852    -1.1363071168
| 16>  H       -0.6688051350     1.7899789275    -0.4680860049
| 17>  H        0.3983640752    -2.3820734128     2.0996016676
| 18>  H       -1.3583565180    -2.5502770571     0.0133823326
| 19>  H       -0.1009311325    -3.4894606519    -1.9278716749
| 20>  H        1.4741933829    -3.1813056445    -1.0534252789
| 21>  H        0.7623057069    -4.6862814001     0.8230579696
| 22>  H       -0.8279022324    -5.0158737317    -0.0074874162
| 23> *
| 24>
| 25>                          ****END OF INPUT****

CARTESIAN COORDINATES (ANGSTROEM)
---------------------------------
  C      0.299579    1.321589   -0.257724
  N      0.108159   -0.101392   -0.087992
  C      0.483244   -0.692295    0.974439
  N      0.382050   -2.056018    1.145076
  C     -0.330152   -2.856093    0.193344
  C      0.421191   -3.424542   -0.980623
  C     -0.009291   -4.323849    0.152271
  C      1.086261   -0.021575    2.124467
  N      1.549169    0.526850    3.031211
  H      0.753423    1.831569    0.603491
  H      0.931317    1.498291   -1.136307
  H     -0.668805    1.789979   -0.468086
  H      0.398364   -2.382073    2.099602
  H     -1.358357   -2.550277    0.013382
  H     -0.100931   -3.489461   -1.927872
  H      1.474193   -3.181306   -1.053425
  H      0.762306   -4.686281    0.823058
  H     -0.827902   -5.015874   -0.007487

 Total Charge           Charge          ....    0
 Multiplicity           Mult            ....    1
 Number of Electrons    NEL             ....   66
 Basis Dimension        Dim             ....  333

ORBITAL ENERGIES
----------------

  NO   OCC          E(Eh)            E(eV)
   0   2.0000     -15.598609      -424.4597
   1   2.0000     -15.596256      -424.3957
   2   2.0000     -15.565499      -423.5588
   3   2.0000     -11.360460      -309.1338
   4   2.0000     -11.293507      -307.3119
   5   2.0000     -11.276457      -306.8480
   6   2.0000     -11.255275      -306.2716
   7   2.0000     -11.239560      -305.8440
   8   2.0000     -11.233304      -305.6737
   9   2.0000      -1.310467       -35.6596
  10   2.0000      -1.236378       -33.6436
  11   2.0000      -1.211843       -32.9759
  12   2.0000      -1.129004       -30.7218
  13   2.0000      -0.969175       -26.3726
  14   2.0000      -0.902855       -24.5679
  15   2.0000      -0.838542       -22.8179
  16   2.0000      -0.806117       -21.9356
  17   2.0000      -0.752556       -20.4781
  18   2.0000      -0.703190       -19.1348
  19   2.0000      -0.665070       -18.0975
  20   2.0000      -0.648425       -17.6445
  21   2.0000      -0.612703       -16.6725
  22   2.0000      -0.586475       -15.9588
  23   2.0000      -0.580971       -15.8090
  24   2.0000      -0.562484       -15.3060
  25   2.0000      -0.543553       -14.7908
  26   2.0000      -0.526502       -14.3268
  27   2.0000      -0.492294       -13.3960
  28   2.0000      -0.485461       -13.2101
  29   2.0000      -0.439432       -11.9576
  30   2.0000      -0.437024       -11.8920
  31   2.0000      -0.422997       -11.5103
  32   2.0000      -0.363575        -9.8934
  33   0.0000       0.099263         2.7011
  34   0.0000       0.131444         3.5768
  35   0.0000       0.151757         4.1295
  36   0.0000       0.159230         4.3329
  37   0.0000       0.168980         4.5982

MULLIKEN ATOMIC CHARGES
-----------------------
   0 C :   -0.288608
   1 N :   -0.253130
   2 C :    0.321812
   3 N :   -0.352651
   4 C :   -0.000214
   5 C :   -0.226082
   6 C :   -0.264771
   7 C :   -0.220523
   8 N :   -0.038005
   9 H :    0.119735
  10 H :    0.141838
  11 H :    0.141574
  12 H :    0.249534
  13 H :    0.124513
  14 H :    0.135080
  15 H :    0.133287
  16 H :    0.138909
  17 H :    0.137702
Sum of atomic charges:   -0.0000000

LOEWDIN ATOMIC CHARGES
----------------------
   0 C :   -0.328127
   1 N :    0.104263
   2 C :   -0.352583
   3 N :    0.124435
   4 C :   -0.266417
   5 C :   -0.217253
   6 C :   -0.228723
   7 C :   -0.155108
   8 N :    0.083642
   9 H :    0.113921
  10 H :    0.121312
  11 H :    0.121154
  12 H :    0.195426
  13 H :    0.143338
  14 H :    0.134100
  15 H :    0.137737
  16 H :    0.135132
  17 H :    0.133750

  Mayer bond orders larger than 0.1
B(  0-C ,  1-N ) :   0.8888 B(  0-C ,  9-H ) :   0.9208 B(  0-C , 10-H ) :   0.9298
B(  0-C , 11-H ) :   0.9323 B(  1-N ,  2-C ) :   1.7890 B(  2-C ,  3-N ) :   1.1061
B(  2-C ,  7-C ) :   0.8696 B(  3-N ,  4-C ) :   0.8738 B(  3-N , 12-H ) :   0.8672
B(  4-C ,  5-C ) :   0.8930 B(  4-C ,  6-C ) :   0.8801 B(  4-C , 13-H ) :   0.9355
B(  5-C ,  6-C ) :   0.8986 B(  5-C , 14-H ) :   0.9277 B(  5-C , 15-H ) :   0.9293
B(  6-C , 16-H ) :   0.9256 B(  6-C , 17-H ) :   0.9319 B(  7-C ,  8-N ) :   2.8333

MP2 TOTAL ENERGY:     -397.422346466 Eh
FINAL SINGLE POINT ENERGY      -397.422346466055

DIPOLE MOMENT
-------------
                                X             Y             Z
Electronic contribution:      1.88935       3.42598       6.15823
Nuclear contribution   :     -2.37569      -4.25617      -6.64694
                        -----------------------------------------
Total Dipole Moment    :     -0.48634      -0.83019      -0.48871
                        -----------------------------------------
Magnitude (a.u.)       :      1.07916
Magnitude (Debye)      :      2.74300

                             ****ORCA TERMINATED NORMALLY****
TOTAL RUN TIME: 0 days 0 hours 17 minutes 25 seconds 450 msec
