                         Program Version 3.0.3 - RELEASE   -
|  1> ! RI-MP2 RIJK def2-TZVP def2-TZVP/C def2-TZVP/JK TIGHTSCF
|  2> % maxcore 2000
|  3> % mp2 density relaxed end
|  4> *xyz 0 1
|  5>  C        0.0418640332     1.4833345563    -0.1259566240
|  6>  C       -0.0329475074    -0.0045392169     0.0650309230
|  7>  C       -1.2720194125    -0.7876936521    -0.3435122724
|  8>  O       -1.1497937629    -2.0702118424     0.2670437897
|  9>  C       -0.2937467526    -1.9678798716     1.3840793376
| 10>  C       -0.8265982065    -2.2944281520     2.7575984013
| 11>  C        0.1181374842    -3.2431148012     2.0382718623
| 12>  C        0.5797629185    -0.7798866890     1.1500068400
| 13>  O        1.1658542552    -0.7634829169    -0.1620958892
| 14>  H        0.9800383274     1.8723904410     0.2765216227
| 15>  H       -0.0021009515     1.7402959178    -1.1900695750
| 16>  H       -0.7919963717     1.9847876966     0.3760737634
| 17>  H       -2.1742889025    -0.2602397611     0.0055593829
| 18>  H       -1.3500525601    -0.9382154339    -1.4253071943
| 19>  H       -0.4571371201    -1.7390213983     3.6140856801
| 20>  H       -1.8704784094    -2.5812948733     2.8129036985
| 21>  H       -0.3064388434    -4.1525280171     1.6284672887
| 22>  H        1.1380987590    -3.3368912234     2.3944094173
| 23>  H        1.1690268930    -0.3462215024     1.9533034375
| 24> *
| 25>
| 26>                          ****END OF INPUT****

CARTESIAN COORDINATES (ANGSTROEM)
---------------------------------
  C      0.041864    1.483335   -0.125957
  C     -0.032948   -0.004539    0.065031
  C     -1.272019   -0.787694   -0.343512
  O     -1.149794   -2.070212    0.267044
  C     -0.293747   -1.967880    1.384079
  C     -0.826598   -2.294428    2.757598
  C      0.118137   -3.243115    2.038272
  C      0.579763   -0.779887    1.150007
  O      1.165854   -0.763483   -0.162096
  H      0.980038    1.872390    0.276522
  H     -0.002101    1.740296   -1.190070
  H     -0.791996    1.984788    0.376074
  H     -2.174289   -0.260240    0.005559
  H     -1.350053   -0.938215   -1.425307
  H     -0.457137   -1.739021    3.614086
  H     -1.870478   -2.581295    2.812904
  H     -0.306439   -4.152528    1.628467
  H      1.138099   -3.336891    2.394409
  H      1.169027   -0.346222    1.953303

 Total Charge           Charge          ....    0
 Multiplicity           Mult            ....    1
 Number of Electrons    NEL             ....   68
 Basis Dimension        Dim             ....  339

ORBITAL ENERGIES
----------------

  NO   OCC          E(Eh)            E(eV)
   0   2.0000     -20.565273      -559.6095
   1   2.0000     -20.560265      -559.4733
   2   2.0000     -11.294321      -307.3341
   3   2.0000     -11.292035      -307.2719
   4   2.0000     -11.288425      -307.1737
   5   2.0000     -11.282846      -307.0219
   6   2.0000     -11.234619      -305.7095
   7   2.0000     -11.229776      -305.5777
   8   2.0000     -11.228189      -305.5345
   9   2.0000      -1.429017       -38.8855
  10   2.0000      -1.369002       -37.2524
  11   2.0000      -1.139540       -31.0085
  12   2.0000      -1.036992       -28.2180
  13   2.0000      -0.951373       -25.8882
  14   2.0000      -0.937471       -25.5099
  15   2.0000      -0.833204       -22.6726
  16   2.0000      -0.792411       -21.5626
  17   2.0000      -0.775269       -21.0961
  18   2.0000      -0.702444       -19.1145
  19   2.0000      -0.666987       -18.1496
  20   2.0000      -0.642336       -17.4788
  21   2.0000      -0.640914       -17.4402
  22   2.0000      -0.597776       -16.2663
  23   2.0000      -0.592388       -16.1197
  24   2.0000      -0.575088       -15.6489
  25   2.0000      -0.543116       -14.7789
  26   2.0000      -0.538621       -14.6566
  27   2.0000      -0.525176       -14.2908
  28   2.0000      -0.519391       -14.1333
  29   2.0000      -0.485195       -13.2028
  30   2.0000      -0.456555       -12.4235
  31   2.0000      -0.443548       -12.0696
  32   2.0000      -0.409003       -11.1295
  33   2.0000      -0.374084       -10.1793
  34   0.0000       0.135435         3.6854
  35   0.0000       0.152831         4.1587
  36   0.0000       0.172066         4.6822
  37   0.0000       0.175275         4.7695
  38   0.0000       0.190387         5.1807

MULLIKEN ATOMIC CHARGES
-----------------------
   0 C :   -0.412918
   1 C :    0.134064
   2 C :   -0.011669
   3 O :   -0.300648
   4 C :    0.220158
   5 C :   -0.321094
   6 C :   -0.283445
   7 C :   -0.003121
   8 O :   -0.326073
   9 H :    0.146737
  10 H :    0.142324
  11 H :    0.135978
  12 H :    0.087317
  13 H :    0.117832
  14 H :    0.126690
  15 H :    0.134986
  16 H :    0.138852
  17 H :    0.135308
  18 H :    0.138721
Sum of atomic charges:    0.0000000

LOEWDIN ATOMIC CHARGES
----------------------
   0 C :   -0.265704
   1 C :   -0.324259
   2 C :   -0.249061
   3 O :    0.212756
   4 C :   -0.317489
   5 C :   -0.204114
   6 C :   -0.195821
   7 C :   -0.205622
   8 O :    0.192547
   9 H :    0.135936
  10 H :    0.133388
  11 H :    0.133077
  12 H :    0.128077
  13 H :    0.133994
  14 H :    0.131341
  15 H :    0.138454
  16 H :    0.142189
  17 H :    0.136214
  18 H :    0.144098

  Mayer bond orders larger than 0.1
B(  0-C ,  1-C ) :   0.8835 B(  0-C ,  9-H ) :   0.9393 B(  0-C , 10-H ) :   0.9367
B(  0-C , 11-H ) :   0.9301 B(  1-C ,  2-C ) :   0.9688 B(  1-C ,  7-C ) :   0.9713
B(  1-C ,  8-O ) :   0.8908 B(  2-C ,  3-O ) :   0.9493 B(  2-C , 12-H ) :   0.9120
B(  2-C , 13-H ) :   0.9099 B(  3-O ,  4-C ) :   1.0015 B(  4-C ,  5-C ) :   0.8487
B(  4-C ,  6-C ) :   0.8545 B(  4-C ,  7-C ) :   0.9097 B(  5-C ,  6-C ) :   0.9277
B(  5-C , 14-H ) :   0.9159 B(  5-C , 15-H ) :   0.9172 B(  6-C , 16-H ) :   0.9217
B(  6-C , 17-H ) :   0.9215 B(  7-C ,  8-O ) :   0.8984 B(  7-C , 18-H ) :   0.8999

MP2 TOTAL ENERGY:     -422.289679898 Eh
FINAL SINGLE POINT ENERGY      -422.289679898491

DIPOLE MOMENT
-------------
                                X             Y             Z
Electronic contribution:      1.37566      -2.69064      -2.12195
Nuclear contribution   :     -1.67172       3.45087       2.68539
                        -----------------------------------------
Total Dipole Moment    :     -0.29605       0.76023       0.56344
                        -----------------------------------------
Magnitude (a.u.)       :      0.99149
Magnitude (Debye)      :      2.52018

                             ****ORCA TERMINATED NORMALLY****
TOTAL RUN TIME: 0 days 0 hours 16 minutes 16 seconds 97 msec
