                         Program Version 3.0.3 - RELEASE   -
|  1> ! RI-MP2 RIJK def2-TZVP def2-TZVP/C def2-TZVP/JK TIGHTSCF
|  2> % maxcore 2000
|  3> % mp2 density relaxed end
|  4> *xyz 0 1
|  5>  O        0.1048240008     1.3409193325    -0.1072710124
|  6>  C       -0.0021816610    -0.0469737154    -0.0550713615
|  7>  C       -0.4573425005    -0.7617041114     1.2312644115
|  8>  C       -0.8962872069     0.0740763228     2.3702119010
|  9>  C       -1.8842747872     0.9721159798     2.2731203592
| 10>  C       -2.6845406934     1.1792640806     1.0123641147
| 11>  C       -2.6600783080    -0.0452759268     0.0756154906
| 12>  C       -1.3242799245    -0.7637155965    -0.0081900081
| 13>  O       -1.3756869824    -2.0109988844    -0.6530733738
| 14>  H        0.0456658311     1.6739216663     0.7982154025
| 15>  H        0.7799491394    -0.5520767208    -0.6177310210
| 16>  H        0.0649555900    -1.6833843555     1.4621149648
| 17>  H       -0.3514264690    -0.0353842035     3.3040136088
| 18>  H       -2.1371883589     1.5885208595     3.1317591795
| 19>  H       -3.7239158900     1.4139808945     1.2691306681
| 20>  H       -2.3015691921     2.0575227626     0.4781107980
| 21>  H       -3.3802202506    -0.7908289801     0.4328071102
| 22>  H       -2.9865087106     0.2531063155    -0.9284542129
| 23>  H       -1.4803694763    -1.8479976397    -1.5977225292
| 24> *
| 25>
| 26>                          ****END OF INPUT****

CARTESIAN COORDINATES (ANGSTROEM)
---------------------------------
  O      0.104824    1.340919   -0.107271
  C     -0.002182   -0.046974   -0.055071
  C     -0.457343   -0.761704    1.231264
  C     -0.896287    0.074076    2.370212
  C     -1.884275    0.972116    2.273120
  C     -2.684541    1.179264    1.012364
  C     -2.660078   -0.045276    0.075615
  C     -1.324280   -0.763716   -0.008190
  O     -1.375687   -2.010999   -0.653073
  H      0.045666    1.673922    0.798215
  H      0.779949   -0.552077   -0.617731
  H      0.064956   -1.683384    1.462115
  H     -0.351426   -0.035384    3.304014
  H     -2.137188    1.588521    3.131759
  H     -3.723916    1.413981    1.269131
  H     -2.301569    2.057523    0.478111
  H     -3.380220   -0.790829    0.432807
  H     -2.986509    0.253106   -0.928454
  H     -1.480369   -1.847998   -1.597723

 Total Charge           Charge          ....    0
 Multiplicity           Mult            ....    1
 Number of Electrons    NEL             ....   68
 Basis Dimension        Dim             ....  339

ORBITAL ENERGIES
----------------

  NO   OCC          E(Eh)            E(eV)
   0   2.0000     -20.564476      -559.5878
   1   2.0000     -20.560973      -559.4925
   2   2.0000     -11.286621      -307.1246
   3   2.0000     -11.284572      -307.0688
   4   2.0000     -11.237269      -305.7816
   5   2.0000     -11.235213      -305.7257
   6   2.0000     -11.233375      -305.6757
   7   2.0000     -11.232379      -305.6486
   8   2.0000     -11.229774      -305.5777
   9   2.0000      -1.382075       -37.6082
  10   2.0000      -1.365714       -37.1630
  11   2.0000      -1.150373       -31.3033
  12   2.0000      -1.063027       -28.9264
  13   2.0000      -1.014134       -27.5960
  14   2.0000      -0.893247       -24.3065
  15   2.0000      -0.837197       -22.7813
  16   2.0000      -0.801340       -21.8056
  17   2.0000      -0.725090       -19.7307
  18   2.0000      -0.697836       -18.9891
  19   2.0000      -0.681681       -18.5495
  20   2.0000      -0.650143       -17.6913
  21   2.0000      -0.621584       -16.9142
  22   2.0000      -0.618758       -16.8373
  23   2.0000      -0.607222       -16.5234
  24   2.0000      -0.569386       -15.4938
  25   2.0000      -0.548077       -14.9139
  26   2.0000      -0.536213       -14.5911
  27   2.0000      -0.523601       -14.2479
  28   2.0000      -0.505424       -13.7533
  29   2.0000      -0.485034       -13.1984
  30   2.0000      -0.476292       -12.9606
  31   2.0000      -0.428034       -11.6474
  32   2.0000      -0.377122       -10.2620
  33   2.0000      -0.342139        -9.3101
  34   0.0000       0.126044         3.4298
  35   0.0000       0.144881         3.9424
  36   0.0000       0.156288         4.2528
  37   0.0000       0.167329         4.5533
  38   0.0000       0.178212         4.8494

MULLIKEN ATOMIC CHARGES
-----------------------
   0 O :   -0.459237
   1 C :   -0.037939
   2 C :   -0.045115
   3 C :   -0.238823
   4 C :   -0.230030
   5 C :   -0.168872
   6 C :   -0.242638
   7 C :    0.199059
   8 O :   -0.458505
   9 H :    0.340776
  10 H :    0.126345
  11 H :    0.137081
  12 H :    0.124959
  13 H :    0.125628
  14 H :    0.129228
  15 H :    0.135947
  16 H :    0.128895
  17 H :    0.112248
  18 H :    0.320992
Sum of atomic charges:    0.0000000

LOEWDIN ATOMIC CHARGES
----------------------
   0 O :    0.009239
   1 C :   -0.272980
   2 C :   -0.164001
   3 C :   -0.165016
   4 C :   -0.176132
   5 C :   -0.251391
   6 C :   -0.212554
   7 C :   -0.332787
   8 O :    0.024800
   9 H :    0.184169
  10 H :    0.142081
  11 H :    0.157904
  12 H :    0.147043
  13 H :    0.142631
  14 H :    0.143925
  15 H :    0.147583
  16 H :    0.151004
  17 H :    0.142234
  18 H :    0.182249

  Mayer bond orders larger than 0.1
B(  0-O ,  1-C ) :   1.0004 B(  0-O ,  9-H ) :   0.8186 B(  1-C ,  2-C ) :   0.8490
B(  1-C ,  7-C ) :   0.8509 B(  1-C , 10-H ) :   0.9597 B(  2-C ,  3-C ) :   0.9433
B(  2-C ,  7-C ) :   0.8097 B(  2-C , 11-H ) :   0.9067 B(  3-C ,  4-C ) :   1.7716
B(  3-C , 12-H ) :   0.9415 B(  4-C ,  5-C ) :   0.9484 B(  4-C , 13-H ) :   0.9336
B(  5-C ,  6-C ) :   0.9248 B(  5-C , 14-H ) :   0.9233 B(  5-C , 15-H ) :   0.8933
B(  6-C ,  7-C ) :   0.9471 B(  6-C , 16-H ) :   0.9320 B(  6-C , 17-H ) :   0.9173
B(  7-C ,  8-O ) :   0.9780 B(  8-O , 18-H ) :   0.8400

MP2 TOTAL ENERGY:     -422.315241304 Eh
FINAL SINGLE POINT ENERGY      -422.315241304059

DIPOLE MOMENT
-------------
                                X             Y             Z
Electronic contribution:      2.71201      -1.80686      -1.24078
Nuclear contribution   :     -2.97395       2.03800       1.38697
                        -----------------------------------------
Total Dipole Moment    :     -0.26194       0.23113       0.14620
                        -----------------------------------------
Magnitude (a.u.)       :      0.37869
Magnitude (Debye)      :      0.96256

                             ****ORCA TERMINATED NORMALLY****
TOTAL RUN TIME: 0 days 0 hours 18 minutes 37 seconds 932 msec
