                         Program Version 3.0.3 - RELEASE   -
|  1> ! RI-MP2 RIJK def2-TZVP def2-TZVP/C def2-TZVP/JK TIGHTSCF
|  2> % maxcore 2000
|  3> % mp2 density relaxed end
|  4> *xyz 0 1
|  5>  C        0.1267538358     1.5761482718    -0.1904638312
|  6>  C        0.1017733738     0.0645882706    -0.1385372468
|  7>  C        0.6646422386    -0.8592076276    -1.1841484010
|  8>  C        1.3223517286    -0.8048546549     0.1857431281
|  9>  C        2.5361603261    -0.2282658507    -0.5453540165
| 10>  O        3.6159723067     0.2066567427    -0.2472586396
| 11>  N        1.8987107143    -0.3464635655    -1.7795341601
| 12>  C        2.0801448543     0.4680096260    -2.9603036505
| 13>  H        1.0543356089     1.9558462351    -0.6249998463
| 14>  H       -0.7119539603     1.9596835932    -0.7815475529
| 15>  H        0.0445597927     1.9927899380     0.8185320263
| 16>  H       -0.7985688872    -0.3424123135     0.3226139801
| 17>  H        0.1326084781    -1.6859585700    -1.6382409860
| 18>  H        1.3296629057    -1.5457049007     0.9722296695
| 19>  H        3.0801513169     0.9065211971    -2.9079960462
| 20>  H        2.0135195575    -0.1382035191    -3.8697507804
| 21>  H        1.3410898895     1.2773676577    -3.0274553065
| 22> *
| 23>
| 24>                          ****END OF INPUT****

CARTESIAN COORDINATES (ANGSTROEM)
---------------------------------
  C      0.126754    1.576148   -0.190464
  C      0.101773    0.064588   -0.138537
  C      0.664642   -0.859208   -1.184148
  C      1.322352   -0.804855    0.185743
  C      2.536160   -0.228266   -0.545354
  O      3.615972    0.206657   -0.247259
  N      1.898711   -0.346464   -1.779534
  C      2.080145    0.468010   -2.960304
  H      1.054336    1.955846   -0.625000
  H     -0.711954    1.959684   -0.781548
  H      0.044560    1.992790    0.818532
  H     -0.798569   -0.342412    0.322614
  H      0.132608   -1.685959   -1.638241
  H      1.329663   -1.545705    0.972230
  H      3.080151    0.906521   -2.907996
  H      2.013520   -0.138204   -3.869751
  H      1.341090    1.277368   -3.027455

 Total Charge           Charge          ....    0
 Multiplicity           Mult            ....    1
 Number of Electrons    NEL             ....   60
 Basis Dimension        Dim             ....  302

ORBITAL ENERGIES
----------------

  NO   OCC          E(Eh)            E(eV)
   0   2.0000     -20.528426      -558.6069
   1   2.0000     -15.581752      -424.0010
   2   2.0000     -11.351615      -308.8931
   3   2.0000     -11.284414      -307.0645
   4   2.0000     -11.265026      -306.5369
   5   2.0000     -11.261936      -306.4529
   6   2.0000     -11.251234      -306.1616
   7   2.0000     -11.230902      -305.6084
   8   2.0000      -1.390923       -37.8489
   9   2.0000      -1.293262       -35.1915
  10   2.0000      -1.126214       -30.6458
  11   2.0000      -1.004166       -27.3248
  12   2.0000      -0.939662       -25.5695
  13   2.0000      -0.875242       -23.8165
  14   2.0000      -0.791192       -21.5294
  15   2.0000      -0.724540       -19.7157
  16   2.0000      -0.699354       -19.0304
  17   2.0000      -0.665390       -18.1062
  18   2.0000      -0.651761       -17.7353
  19   2.0000      -0.608610       -16.5611
  20   2.0000      -0.585725       -15.9384
  21   2.0000      -0.580793       -15.8042
  22   2.0000      -0.569313       -15.4918
  23   2.0000      -0.540798       -14.7159
  24   2.0000      -0.534865       -14.5544
  25   2.0000      -0.517836       -14.0910
  26   2.0000      -0.462816       -12.5939
  27   2.0000      -0.421981       -11.4827
  28   2.0000      -0.418393       -11.3850
  29   2.0000      -0.364795        -9.9266
  30   0.0000       0.132674         3.6102
  31   0.0000       0.149114         4.0576
  32   0.0000       0.163981         4.4621
  33   0.0000       0.173015         4.7080
  34   0.0000       0.183113         4.9827

MULLIKEN ATOMIC CHARGES
-----------------------
   0 C :   -0.389367
   1 C :   -0.085736
   2 C :   -0.035435
   3 C :   -0.186267
   4 C :    0.186632
   5 O :   -0.314139
   6 N :   -0.132921
   7 C :   -0.326056
   8 H :    0.146062
   9 H :    0.132676
  10 H :    0.142721
  11 H :    0.119600
  12 H :    0.146256
  13 H :    0.154491
  14 H :    0.167029
  15 H :    0.144931
  16 H :    0.129522
Sum of atomic charges:    0.0000000

LOEWDIN ATOMIC CHARGES
----------------------
   0 C :   -0.286077
   1 C :   -0.200960
   2 C :   -0.180283
   3 C :   -0.126044
   4 C :   -0.401073
   5 O :    0.114002
   6 N :    0.190188
   7 C :   -0.305675
   8 H :    0.131632
   9 H :    0.126859
  10 H :    0.131294
  11 H :    0.158249
  12 H :    0.137755
  13 H :    0.142740
  14 H :    0.134307
  15 H :    0.118745
  16 H :    0.114342

  Mayer bond orders larger than 0.1
B(  0-C ,  1-C ) :   0.9142 B(  0-C ,  8-H ) :   0.9335 B(  0-C ,  9-H ) :   0.9347
B(  0-C , 10-H ) :   0.9336 B(  1-C ,  2-C ) :   0.8862 B(  1-C ,  3-C ) :   0.8352
B(  1-C , 11-H ) :   0.9213 B(  2-C ,  3-C ) :   0.8491 B(  2-C ,  6-N ) :   0.9185
B(  2-C , 12-H ) :   0.9166 B(  3-C ,  4-C ) :   0.9069 B(  3-C , 13-H ) :   0.9112
B(  4-C ,  5-O ) :   1.9964 B(  4-C ,  6-N ) :   1.1223 B(  6-N ,  7-C ) :   0.8746
B(  7-C , 14-H ) :   0.9256 B(  7-C , 15-H ) :   0.9376 B(  7-C , 16-H ) :   0.9253

MP2 TOTAL ENERGY:     -363.229935627 Eh
FINAL SINGLE POINT ENERGY      -363.229935627117

DIPOLE MOMENT
-------------
                                X             Y             Z
Electronic contribution:      4.74089      -3.83079       2.15259
Nuclear contribution   :     -6.16773       3.69391      -2.64207
                        -----------------------------------------
Total Dipole Moment    :     -1.42684      -0.13688      -0.48948
                        -----------------------------------------
Magnitude (a.u.)       :      1.51466
Magnitude (Debye)      :      3.84996

                             ****ORCA TERMINATED NORMALLY****
TOTAL RUN TIME: 0 days 0 hours 13 minutes 19 seconds 644 msec
