                         Program Version 3.0.3 - RELEASE   -
|  1> ! RI-MP2 RIJK def2-TZVP def2-TZVP/C def2-TZVP/JK TIGHTSCF
|  2> % maxcore 2000
|  3> % mp2 density relaxed end
|  4> *xyz 0 1
|  5>  O       -0.0000148096     1.4727411324    -0.0567615148
|  6>  C        0.0311380023     0.0561387481     0.0069759106
|  7>  C        0.9159186508    -0.4494990806     1.1627197716
|  8>  C        1.6081178175    -1.7878713604     0.8599079502
|  9>  C        0.6992511596    -3.0230875719     0.7925551726
| 10>  C       -0.5066163723    -2.9267766405    -0.1582509770
| 11>  C       -1.6016903849    -1.9630097124     0.3379683221
| 12>  C       -1.4186319893    -0.4676028772     0.0252069947
| 13>  O       -2.0951599378     0.3230269883     1.0166941164
| 14>  H       -0.7286313946     1.7377028089     0.5203572668
| 15>  H        0.4898146076    -0.2720260206    -0.9345788852
| 16>  H        1.6822476495     0.3169945971     1.3155141676
| 17>  H        0.3367533470    -0.5042653193     2.0932106633
| 18>  H        2.1449002574    -1.6870593968    -0.0941929086
| 19>  H        2.3785590404    -1.9700964350     1.6186004354
| 20>  H        1.3121744816    -3.8851730020     0.5018009573
| 21>  H        0.3202366943    -3.2479699108     1.7991598243
| 22>  H       -0.1778956799    -2.6543144699    -1.1700009305
| 23>  H       -0.9480938825    -3.9257717095    -0.2487557100
| 24>  H       -2.5732752168    -2.2737996905    -0.0659757627
| 25>  H       -1.6827331287    -2.0560823850     1.4274302104
| 26>  H       -1.8441144610    -0.2382297275    -0.9627011111
| 27>  H       -3.0429783607     0.2294484450     0.8872603865
| 28> *
| 29>
| 30>                          ****END OF INPUT****

CARTESIAN COORDINATES (ANGSTROEM)
---------------------------------
  O     -0.000015    1.472741   -0.056762
  C      0.031138    0.056139    0.006976
  C      0.915919   -0.449499    1.162720
  C      1.608118   -1.787871    0.859908
  C      0.699251   -3.023088    0.792555
  C     -0.506616   -2.926777   -0.158251
  C     -1.601690   -1.963010    0.337968
  C     -1.418632   -0.467603    0.025207
  O     -2.095160    0.323027    1.016694
  H     -0.728631    1.737703    0.520357
  H      0.489815   -0.272026   -0.934579
  H      1.682248    0.316995    1.315514
  H      0.336753   -0.504265    2.093211
  H      2.144900   -1.687059   -0.094193
  H      2.378559   -1.970096    1.618600
  H      1.312174   -3.885173    0.501801
  H      0.320237   -3.247970    1.799160
  H     -0.177896   -2.654314   -1.170001
  H     -0.948094   -3.925772   -0.248756
  H     -2.573275   -2.273800   -0.065976
  H     -1.682733   -2.056082    1.427430
  H     -1.844114   -0.238230   -0.962701
  H     -3.042978    0.229448    0.887260

 Total Charge           Charge          ....    0
 Multiplicity           Mult            ....    1
 Number of Electrons    NEL             ....   72
 Basis Dimension        Dim             ....  363

ORBITAL ENERGIES
----------------

  NO   OCC          E(Eh)            E(eV)
   0   2.0000     -20.565700      -559.6212
   1   2.0000     -20.535277      -558.7933
   2   2.0000     -11.283034      -307.0270
   3   2.0000     -11.270244      -306.6789
   4   2.0000     -11.226360      -305.4848
   5   2.0000     -11.225609      -305.4643
   6   2.0000     -11.220067      -305.3135
   7   2.0000     -11.217913      -305.2549
   8   2.0000     -11.210154      -305.0438
   9   2.0000      -1.378936       -37.5228
  10   2.0000      -1.337029       -36.3824
  11   2.0000      -1.100441       -29.9445
  12   2.0000      -1.026535       -27.9334
  13   2.0000      -1.008976       -27.4556
  14   2.0000      -0.886146       -24.1133
  15   2.0000      -0.877447       -23.8766
  16   2.0000      -0.777189       -21.1484
  17   2.0000      -0.774561       -21.0769
  18   2.0000      -0.710445       -19.3322
  19   2.0000      -0.667408       -18.1611
  20   2.0000      -0.644583       -17.5400
  21   2.0000      -0.623337       -16.9619
  22   2.0000      -0.602386       -16.3918
  23   2.0000      -0.582125       -15.8404
  24   2.0000      -0.579613       -15.7721
  25   2.0000      -0.561249       -15.2723
  26   2.0000      -0.555838       -15.1251
  27   2.0000      -0.524922       -14.2838
  28   2.0000      -0.517924       -14.0934
  29   2.0000      -0.492496       -13.4015
  30   2.0000      -0.474757       -12.9188
  31   2.0000      -0.464654       -12.6439
  32   2.0000      -0.454985       -12.3808
  33   2.0000      -0.447777       -12.1846
  34   2.0000      -0.434745       -11.8300
  35   2.0000      -0.415433       -11.3045
  36   0.0000       0.124813         3.3963
  37   0.0000       0.140377         3.8199
  38   0.0000       0.152435         4.1480
  39   0.0000       0.165431         4.5016
  40   0.0000       0.189373         5.1531

MULLIKEN ATOMIC CHARGES
-----------------------
   0 O :   -0.482017
   1 C :    0.138149
   2 C :   -0.213863
   3 C :   -0.262877
   4 C :   -0.231028
   5 C :   -0.229640
   6 C :   -0.235758
   7 C :   -0.011289
   8 O :   -0.504002
   9 H :    0.329901
  10 H :    0.089015
  11 H :    0.132279
  12 H :    0.114877
  13 H :    0.112954
  14 H :    0.122017
  15 H :    0.122175
  16 H :    0.107745
  17 H :    0.115267
  18 H :    0.125406
  19 H :    0.119508
  20 H :    0.121668
  21 H :    0.097852
  22 H :    0.321662
Sum of atomic charges:    0.0000000

LOEWDIN ATOMIC CHARGES
----------------------
   0 O :   -0.022182
   1 C :   -0.332995
   2 C :   -0.248188
   3 C :   -0.272207
   4 C :   -0.272815
   5 C :   -0.264087
   6 C :   -0.256530
   7 C :   -0.327226
   8 O :   -0.034642
   9 H :    0.176020
  10 H :    0.145702
  11 H :    0.145555
  12 H :    0.140215
  13 H :    0.138142
  14 H :    0.138972
  15 H :    0.137666
  16 H :    0.137327
  17 H :    0.137686
  18 H :    0.139193
  19 H :    0.136258
  20 H :    0.145116
  21 H :    0.137215
  22 H :    0.175804

  Mayer bond orders larger than 0.1
B(  0-O ,  1-C ) :   0.9854 B(  0-O ,  9-H ) :   0.8202 B(  1-C ,  2-C ) :   0.9035
B(  1-C ,  7-C ) :   0.9123 B(  1-C , 10-H ) :   0.9314 B(  2-C ,  3-C ) :   0.9050
B(  2-C , 11-H ) :   0.9278 B(  2-C , 12-H ) :   0.9142 B(  3-C ,  4-C ) :   0.9316
B(  3-C , 13-H ) :   0.9361 B(  3-C , 14-H ) :   0.9310 B(  4-C ,  5-C ) :   0.9196
B(  4-C , 15-H ) :   0.9344 B(  4-C , 16-H ) :   0.9336 B(  5-C ,  6-C ) :   0.8936
B(  5-C , 17-H ) :   0.9335 B(  5-C , 18-H ) :   0.9298 B(  6-C ,  7-C ) :   0.9111
B(  6-C , 19-H ) :   0.9215 B(  6-C , 20-H ) :   0.9252 B(  7-C ,  8-O ) :   0.9208
B(  7-C , 21-H ) :   0.9470 B(  8-O , 22-H ) :   0.8443

MP2 TOTAL ENERGY:     -424.747460664 Eh
FINAL SINGLE POINT ENERGY      -424.747460663672

DIPOLE MOMENT
-------------
                                X             Y             Z
Electronic contribution:     -2.45985       6.29559      -0.39437
Nuclear contribution   :      1.73847      -7.13641       0.37695
                        -----------------------------------------
Total Dipole Moment    :     -0.72138      -0.84082      -0.01742
                        -----------------------------------------
Magnitude (a.u.)       :      1.10801
Magnitude (Debye)      :      2.81633

                             ****ORCA TERMINATED NORMALLY****
TOTAL RUN TIME: 0 days 0 hours 20 minutes 1 seconds 220 msec
