                         Program Version 3.0.3 - RELEASE   -
|  1> ! RI-MP2 RIJK def2-TZVP def2-TZVP/C def2-TZVP/JK TIGHTSCF
|  2> % maxcore 2000
|  3> % mp2 density relaxed end
|  4> *xyz 0 1
|  5>  N       -0.0495611013     1.3358027324    -0.0287795325
|  6>  C        0.0088460746    -0.0594773365    -0.0362401086
|  7>  O        1.0687604396    -0.6635871404    -0.0527355769
|  8>  N       -1.2085249567    -0.6835814741     0.0332668776
|  9>  C       -2.5103414191    -0.0550023445     0.2469632420
| 10>  C       -3.3662077879    -1.1490332115     0.9384387976
| 11>  C       -2.6722841403    -2.4631774726     0.6070046189
| 12>  C       -2.3252309697    -2.7510621967    -0.8402175024
| 13>  C       -1.3073276704    -2.1199398146     0.0793413613
| 14>  H        0.8488632163     1.7344631676    -0.2586800500
| 15>  H       -0.8174507336     1.7742596291    -0.5150227639
| 16>  H       -2.4062298709     0.8409726676     0.8650026097
| 17>  H       -2.9689218340     0.2483429519    -0.7052072393
| 18>  H       -3.3543879844    -1.0035147851     2.0233465695
| 19>  H       -4.4092716000    -1.1061296609     0.6112161969
| 20>  H       -2.8150445475    -3.2989150881     1.2816104904
| 21>  H       -2.1727174314    -3.7893903680    -1.1136468833
| 22>  H       -2.7665753855    -2.1429717037    -1.6236644314
| 23>  H       -0.3892119777    -2.6227128921     0.3462180946
| 24> *
| 25>
| 26>                          ****END OF INPUT****

CARTESIAN COORDINATES (ANGSTROEM)
---------------------------------
  N     -0.049561    1.335803   -0.028780
  C      0.008846   -0.059477   -0.036240
  O      1.068760   -0.663587   -0.052736
  N     -1.208525   -0.683581    0.033267
  C     -2.510341   -0.055002    0.246963
  C     -3.366208   -1.149033    0.938439
  C     -2.672284   -2.463177    0.607005
  C     -2.325231   -2.751062   -0.840218
  C     -1.307328   -2.119940    0.079341
  H      0.848863    1.734463   -0.258680
  H     -0.817451    1.774260   -0.515023
  H     -2.406230    0.840973    0.865003
  H     -2.968922    0.248343   -0.705207
  H     -3.354388   -1.003515    2.023347
  H     -4.409272   -1.106130    0.611216
  H     -2.815045   -3.298915    1.281610
  H     -2.172717   -3.789390   -1.113647
  H     -2.766575   -2.142972   -1.623664
  H     -0.389212   -2.622713    0.346218

 Total Charge           Charge          ....    0
 Multiplicity           Mult            ....    1
 Number of Electrons    NEL             ....   68
 Basis Dimension        Dim             ....  339

ORBITAL ENERGIES
----------------

  NO   OCC          E(Eh)            E(eV)
   0   2.0000     -20.498750      -557.7994
   1   2.0000     -15.579034      -423.9271
   2   2.0000     -15.573503      -423.7766
   3   2.0000     -11.367914      -309.3367
   4   2.0000     -11.275415      -306.8196
   5   2.0000     -11.264311      -306.5175
   6   2.0000     -11.240262      -305.8631
   7   2.0000     -11.236791      -305.7686
   8   2.0000     -11.228861      -305.5528
   9   2.0000      -1.383412       -37.6446
  10   2.0000      -1.268542       -34.5188
  11   2.0000      -1.198778       -32.6204
  12   2.0000      -1.118820       -30.4446
  13   2.0000      -1.029853       -28.0237
  14   2.0000      -0.889915       -24.2158
  15   2.0000      -0.859350       -23.3841
  16   2.0000      -0.786625       -21.4051
  17   2.0000      -0.752139       -20.4667
  18   2.0000      -0.739445       -20.1213
  19   2.0000      -0.679368       -18.4865
  20   2.0000      -0.669371       -18.2145
  21   2.0000      -0.634892       -17.2763
  22   2.0000      -0.614136       -16.7115
  23   2.0000      -0.600229       -16.3330
  24   2.0000      -0.579514       -15.7694
  25   2.0000      -0.557838       -15.1796
  26   2.0000      -0.541568       -14.7368
  27   2.0000      -0.530353       -14.4316
  28   2.0000      -0.493497       -13.4287
  29   2.0000      -0.463704       -12.6180
  30   2.0000      -0.434040       -11.8108
  31   2.0000      -0.419884       -11.4256
  32   2.0000      -0.414046       -11.2668
  33   2.0000      -0.347855        -9.4656
  34   0.0000       0.123082         3.3492
  35   0.0000       0.146870         3.9965
  36   0.0000       0.159059         4.3282
  37   0.0000       0.174159         4.7391
  38   0.0000       0.186619         5.0782

MULLIKEN ATOMIC CHARGES
-----------------------
   0 N :   -0.527307
   1 C :    0.326328
   2 O :   -0.410464
   3 N :   -0.096586
   4 C :   -0.235711
   5 C :   -0.202645
   6 C :   -0.115206
   7 C :   -0.258868
   8 C :   -0.066377
   9 H :    0.259744
  10 H :    0.253033
  11 H :    0.144101
  12 H :    0.125946
  13 H :    0.121845
  14 H :    0.125107
  15 H :    0.133920
  16 H :    0.133709
  17 H :    0.131491
  18 H :    0.157940
Sum of atomic charges:    0.0000000

LOEWDIN ATOMIC CHARGES
----------------------
   0 N :   -0.072503
   1 C :   -0.552511
   2 O :    0.043438
   3 N :    0.205168
   4 C :   -0.245216
   5 C :   -0.225941
   6 C :   -0.204343
   7 C :   -0.201208
   8 C :   -0.201526
   9 H :    0.174925
  10 H :    0.164468
  11 H :    0.135998
  12 H :    0.125926
  13 H :    0.143420
  14 H :    0.138360
  15 H :    0.145547
  16 H :    0.136809
  17 H :    0.135212
  18 H :    0.153977

  Mayer bond orders larger than 0.1
B(  0-N ,  1-C ) :   1.0674 B(  0-N ,  9-H ) :   0.8712 B(  0-N , 10-H ) :   0.8686
B(  1-C ,  2-O ) :   1.9077 B(  1-C ,  3-N ) :   1.1345 B(  3-N ,  4-C ) :   0.9038
B(  3-N ,  8-C ) :   0.8915 B(  4-C ,  5-C ) :   0.9550 B(  4-C , 11-H ) :   0.9092
B(  4-C , 12-H ) :   0.9250 B(  5-C ,  6-C ) :   0.9443 B(  5-C , 13-H ) :   0.9226
B(  5-C , 14-H ) :   0.9347 B(  6-C ,  7-C ) :   0.8833 B(  6-C ,  8-C ) :   0.8598
B(  6-C , 15-H ) :   0.9299 B(  7-C ,  8-C ) :   0.8674 B(  7-C , 16-H ) :   0.9288
B(  7-C , 17-H ) :   0.9222 B(  8-C , 18-H ) :   0.9420

MP2 TOTAL ENERGY:     -418.537175746 Eh
FINAL SINGLE POINT ENERGY      -418.537175746000

DIPOLE MOMENT
-------------
                                X             Y             Z
Electronic contribution:      5.92257       0.78229      -0.13229
Nuclear contribution   :     -7.38959      -0.27787      -0.04761
                        -----------------------------------------
Total Dipole Moment    :     -1.46701       0.50442      -0.17990
                        -----------------------------------------
Magnitude (a.u.)       :      1.56171
Magnitude (Debye)      :      3.96954

                             ****ORCA TERMINATED NORMALLY****
TOTAL RUN TIME: 0 days 0 hours 20 minutes 3 seconds 942 msec
