                         Program Version 3.0.3 - RELEASE   -
|  1> ! RI-MP2 RIJK def2-TZVP def2-TZVP/C def2-TZVP/JK TIGHTSCF
|  2> % maxcore 2000
|  3> % mp2 density relaxed end
|  4> *xyz 0 1
|  5>  N       -0.0218517775     1.4341941406     0.1569529256
|  6>  C        0.0098878394     0.0361668947     0.0456947519
|  7>  C       -1.0807473285    -0.8207133997     0.0174382644
|  8>  N       -0.6118584031    -2.1069292126    -0.0109227591
|  9>  C        0.7612072263    -2.0966033498    -0.0067848585
| 10>  C        1.1731615127    -0.7708977323     0.0306533988
| 11>  C        1.5143289379    -3.2879158673    -0.0392692005
| 12>  N        2.1218413667    -4.2758135185    -0.0677454825
| 13>  H        0.7764804202     1.8778116667    -0.2774930213
| 14>  H       -0.8703452925     1.8430001105    -0.2116822690
| 15>  H       -2.1380114247    -0.6109576032     0.0230225918
| 16>  H       -1.1768201132    -2.9375017725    -0.0412877963
| 17>  H        2.1983409363    -0.4358046267     0.0505248146
| 18> *
| 19>
| 20>                          ****END OF INPUT****

CARTESIAN COORDINATES (ANGSTROEM)
---------------------------------
  N     -0.021852    1.434194    0.156953
  C      0.009888    0.036167    0.045695
  C     -1.080747   -0.820713    0.017438
  N     -0.611858   -2.106929   -0.010923
  C      0.761207   -2.096603   -0.006785
  C      1.173162   -0.770898    0.030653
  C      1.514329   -3.287916   -0.039269
  N      2.121841   -4.275814   -0.067745
  H      0.776480    1.877812   -0.277493
  H     -0.870345    1.843000   -0.211682
  H     -2.138011   -0.610958    0.023023
  H     -1.176820   -2.937502   -0.041288
  H      2.198341   -0.435805    0.050525

 Total Charge           Charge          ....    0
 Multiplicity           Mult            ....    1
 Number of Electrons    NEL             ....   56
 Basis Dimension        Dim             ....  278

ORBITAL ENERGIES
----------------

  NO   OCC          E(Eh)            E(eV)
   0   2.0000     -15.633509      -425.4094
   1   2.0000     -15.574775      -423.8112
   2   2.0000     -15.570544      -423.6960
   3   2.0000     -11.302700      -307.5621
   4   2.0000     -11.279935      -306.9426
   5   2.0000     -11.276776      -306.8567
   6   2.0000     -11.272888      -306.7509
   7   2.0000     -11.245610      -306.0086
   8   2.0000      -1.325508       -36.0689
   9   2.0000      -1.219641       -33.1881
  10   2.0000      -1.212687       -32.9989
  11   2.0000      -1.059106       -28.8197
  12   2.0000      -1.019786       -27.7498
  13   2.0000      -0.860778       -23.4230
  14   2.0000      -0.799178       -21.7468
  15   2.0000      -0.792456       -21.5638
  16   2.0000      -0.694849       -18.9078
  17   2.0000      -0.643359       -17.5067
  18   2.0000      -0.637307       -17.3420
  19   2.0000      -0.613783       -16.7019
  20   2.0000      -0.608027       -16.5453
  21   2.0000      -0.563277       -15.3275
  22   2.0000      -0.553212       -15.0537
  23   2.0000      -0.507584       -13.8121
  24   2.0000      -0.480207       -13.0671
  25   2.0000      -0.469023       -12.7628
  26   2.0000      -0.351960        -9.5773
  27   2.0000      -0.301973        -8.2171
  28   0.0000       0.099552         2.7090
  29   0.0000       0.121261         3.2997
  30   0.0000       0.125409         3.4126
  31   0.0000       0.163586         4.4514
  32   0.0000       0.170127         4.6294

MULLIKEN ATOMIC CHARGES
-----------------------
   0 N :   -0.518480
   1 C :    0.211059
   2 C :   -0.165592
   3 N :   -0.280083
   4 C :    0.294789
   5 C :   -0.333935
   6 C :   -0.206101
   7 N :   -0.052779
   8 H :    0.250626
   9 H :    0.244384
  10 H :    0.151812
  11 H :    0.258228
  12 H :    0.146072
Sum of atomic charges:    0.0000000

LOEWDIN ATOMIC CHARGES
----------------------
   0 N :   -0.090495
   1 C :   -0.272964
   2 C :   -0.212952
   3 N :    0.221231
   4 C :   -0.238919
   5 C :   -0.123123
   6 C :   -0.171279
   7 N :    0.066764
   8 H :    0.169277
   9 H :    0.167304
  10 H :    0.135731
  11 H :    0.201480
  12 H :    0.147946

  Mayer bond orders larger than 0.1
B(  0-N ,  1-C ) :   1.0092 B(  0-N ,  8-H ) :   0.8782 B(  0-N ,  9-H ) :   0.8796
B(  1-C ,  2-C ) :   1.4266 B(  1-C ,  5-C ) :   1.3286 B(  2-C ,  3-N ) :   1.1494
B(  2-C , 10-H ) :   0.9088 B(  3-N ,  4-C ) :   1.1135 B(  3-N , 11-H ) :   0.8689
B(  4-C ,  5-C ) :   1.3962 B(  4-C ,  6-C ) :   0.8965 B(  5-C , 12-H ) :   0.9172
B(  6-C ,  7-N ) :   2.8578

MP2 TOTAL ENERGY:     -357.067273601 Eh
FINAL SINGLE POINT ENERGY      -357.067273601144

DIPOLE MOMENT
-------------
                                X             Y             Z
Electronic contribution:      1.84463      -5.17166       0.04855
Nuclear contribution   :     -3.24488       6.44662      -0.48138
                        -----------------------------------------
Total Dipole Moment    :     -1.40025       1.27496      -0.43283
                        -----------------------------------------
Magnitude (a.u.)       :      1.94257
Magnitude (Debye)      :      4.93761

                             ****ORCA TERMINATED NORMALLY****
TOTAL RUN TIME: 0 days 0 hours 9 minutes 49 seconds 430 msec
