                         Program Version 3.0.3 - RELEASE   -
|  1> ! RI-MP2 RIJK def2-TZVP def2-TZVP/C def2-TZVP/JK TIGHTSCF
|  2> % maxcore 2000
|  3> % mp2 density relaxed end
|  4> *xyz 0 1
|  5>  O        0.0664472981     0.0527059039    -0.3463156416
|  6>  C        0.0189298780     1.2284962554    -0.0711036148
|  7>  C       -1.2324586705     2.0453850726     0.2552870571
|  8>  C       -0.8235427171     3.5246053292     0.0978384624
|  9>  C        0.7129074708     3.5574315045     0.0807631298
| 10>  O        1.4000547058     4.5419338773     0.1621619030
| 11>  C        1.1982179858     2.1425552291    -0.0266863047
| 12>  C        2.4666094557     1.6767554846     0.6458553910
| 13>  N        2.4184510080     1.8004077274    -0.7904489630
| 14>  H       -2.0650984534     1.7330445462    -0.3787073939
| 15>  H       -1.5169583273     1.8150552465     1.2891867088
| 16>  H       -1.1660063087     3.9346427290    -0.8596199650
| 17>  H       -1.2076482540     4.1850249298     0.8783360034
| 18>  H        3.0458623038     2.4417311927     1.1551786548
| 19>  H        2.4390926425     0.6896481304     1.0999085466
| 20>  H        2.2419577326     0.8777206114    -1.1951638139
| 21> *
| 22>
| 23>                          ****END OF INPUT****

CARTESIAN COORDINATES (ANGSTROEM)
---------------------------------
  O      0.066447    0.052706   -0.346316
  C      0.018930    1.228496   -0.071104
  C     -1.232459    2.045385    0.255287
  C     -0.823543    3.524605    0.097838
  C      0.712907    3.557432    0.080763
  O      1.400055    4.541934    0.162162
  C      1.198218    2.142555   -0.026686
  C      2.466609    1.676755    0.645855
  N      2.418451    1.800408   -0.790449
  H     -2.065098    1.733045   -0.378707
  H     -1.516958    1.815055    1.289187
  H     -1.166006    3.934643   -0.859620
  H     -1.207648    4.185025    0.878336
  H      3.045862    2.441731    1.155179
  H      2.439093    0.689648    1.099909
  H      2.241958    0.877721   -1.195164

 Total Charge           Charge          ....    0
 Multiplicity           Mult            ....    1
 Number of Electrons    NEL             ....   66
 Basis Dimension        Dim             ....  321

ORBITAL ENERGIES
----------------

  NO   OCC          E(Eh)            E(eV)
   0   2.0000     -20.567890      -559.6807
   1   2.0000     -20.559518      -559.4529
   2   2.0000     -15.597322      -424.4247
   3   2.0000     -11.354239      -308.9645
   4   2.0000     -11.347645      -308.7851
   5   2.0000     -11.295524      -307.3668
   6   2.0000     -11.289142      -307.1932
   7   2.0000     -11.263994      -306.5089
   8   2.0000     -11.261195      -306.4327
   9   2.0000      -1.414385       -38.4874
  10   2.0000      -1.403800       -38.1993
  11   2.0000      -1.297360       -35.3029
  12   2.0000      -1.128732       -30.7143
  13   2.0000      -0.968183       -26.3456
  14   2.0000      -0.942607       -25.6496
  15   2.0000      -0.902160       -24.5490
  16   2.0000      -0.802070       -21.8254
  17   2.0000      -0.745459       -20.2850
  18   2.0000      -0.705243       -19.1906
  19   2.0000      -0.683282       -18.5930
  20   2.0000      -0.665493       -18.1090
  21   2.0000      -0.649975       -17.6867
  22   2.0000      -0.606507       -16.5039
  23   2.0000      -0.603230       -16.4147
  24   2.0000      -0.582147       -15.8410
  25   2.0000      -0.577979       -15.7276
  26   2.0000      -0.557409       -15.1679
  27   2.0000      -0.527017       -14.3409
  28   2.0000      -0.506918       -13.7939
  29   2.0000      -0.486647       -13.2424
  30   2.0000      -0.449322       -12.2267
  31   2.0000      -0.425724       -11.5845
  32   2.0000      -0.401051       -10.9132
  33   0.0000       0.081623         2.2211
  34   0.0000       0.120347         3.2748
  35   0.0000       0.148694         4.0462
  36   0.0000       0.156053         4.2464
  37   0.0000       0.165962         4.5160

MULLIKEN ATOMIC CHARGES
-----------------------
   0 O :   -0.295839
   1 C :    0.166768
   2 C :   -0.222201
   3 C :   -0.228874
   4 C :    0.132017
   5 O :   -0.261711
   6 C :    0.118027
   7 C :   -0.184092
   8 N :   -0.363826
   9 H :    0.152198
  10 H :    0.145172
  11 H :    0.148608
  12 H :    0.148154
  13 H :    0.152610
  14 H :    0.151273
  15 H :    0.241714
Sum of atomic charges:    0.0000000

LOEWDIN ATOMIC CHARGES
----------------------
   0 O :    0.149656
   1 C :   -0.296950
   2 C :   -0.209697
   3 C :   -0.210061
   4 C :   -0.286649
   5 O :    0.171774
   6 C :   -0.244713
   7 C :   -0.202834
   8 N :    0.055313
   9 H :    0.150570
  10 H :    0.158502
  11 H :    0.158883
  12 H :    0.149781
  13 H :    0.139512
  14 H :    0.133095
  15 H :    0.183819

  Mayer bond orders larger than 0.1
B(  0-O ,  1-C ) :   1.9714 B(  1-C ,  2-C ) :   0.9221 B(  1-C ,  6-C ) :   0.8906
B(  2-C ,  3-C ) :   0.8886 B(  2-C ,  9-H ) :   0.9133 B(  2-C , 10-H ) :   0.8996
B(  3-C ,  4-C ) :   0.9348 B(  3-C , 11-H ) :   0.9044 B(  3-C , 12-H ) :   0.9103
B(  4-C ,  5-O ) :   2.0647 B(  4-C ,  6-C ) :   0.8223 B(  6-C ,  7-C ) :   0.8290
B(  6-C ,  8-N ) :   0.8191 B(  7-C ,  8-N ) :   0.9968 B(  7-C , 13-H ) :   0.9139
B(  7-C , 14-H ) :   0.9129 B(  8-N , 15-H ) :   0.8543

MP2 TOTAL ENERGY:     -437.181202294 Eh
FINAL SINGLE POINT ENERGY      -437.181202293673

DIPOLE MOMENT
-------------
                                X             Y             Z
Electronic contribution:      2.13172      -0.06600      -1.31853
Nuclear contribution   :     -2.90634      -0.24134       1.87061
                        -----------------------------------------
Total Dipole Moment    :     -0.77462      -0.30734       0.55209
                        -----------------------------------------
Magnitude (a.u.)       :      0.99965
Magnitude (Debye)      :      2.54091

                             ****ORCA TERMINATED NORMALLY****
TOTAL RUN TIME: 0 days 0 hours 16 minutes 36 seconds 254 msec
