                         Program Version 3.0.3 - RELEASE   -
|  1> ! RI-MP2 RIJK def2-TZVP def2-TZVP/C def2-TZVP/JK TIGHTSCF
|  2> % maxcore 2000
|  3> % mp2 density relaxed end
|  4> *xyz 0 1
|  5>  C        0.0395095586     1.5352856400     0.0645703971
|  6>  C       -0.0610261697     0.0155823105    -0.0288076075
|  7>  O        0.7096104093    -0.6301940374     0.9881643765
|  8>  C       -1.4917066109    -0.4767139120     0.1680219998
|  9>  N       -1.5077797516    -1.9267702554     0.1577843866
| 10>  C       -2.6583741562    -2.6293099978    -0.0238934956
| 11>  N       -3.7766593443    -2.0773275276    -0.3223857032
| 12>  C       -2.4961019999    -4.0702088865     0.1222429121
| 13>  N       -2.4136161342    -5.2179540563     0.2362404945
| 14>  H        1.0752967743     1.8624941064    -0.0749002185
| 15>  H       -0.5685008580     2.0163412930    -0.7082946281
| 16>  H       -0.2991588870     1.8825088190     1.0452839686
| 17>  H        0.2825586896    -0.3183470948    -1.0203917614
| 18>  H        1.6393955570    -0.4354678034     0.8366527883
| 19>  H       -1.8908493208    -0.0838429336     1.1147237798
| 20>  H       -2.1387921309    -0.1139446099    -0.6337618789
| 21>  H       -0.7231021084    -2.3744501834     0.6059590906
| 22>  H       -4.5010579468    -2.7752406309    -0.4685369409
| 23> *
| 24>
| 25>                          ****END OF INPUT****

CARTESIAN COORDINATES (ANGSTROEM)
---------------------------------
  C      0.039510    1.535286    0.064570
  C     -0.061026    0.015582   -0.028808
  O      0.709610   -0.630194    0.988164
  C     -1.491707   -0.476714    0.168022
  N     -1.507780   -1.926770    0.157784
  C     -2.658374   -2.629310   -0.023893
  N     -3.776659   -2.077328   -0.322386
  C     -2.496102   -4.070209    0.122243
  N     -2.413616   -5.217954    0.236240
  H      1.075297    1.862494   -0.074900
  H     -0.568501    2.016341   -0.708295
  H     -0.299159    1.882509    1.045284
  H      0.282559   -0.318347   -1.020392
  H      1.639396   -0.435468    0.836653
  H     -1.890849   -0.083843    1.114724
  H     -2.138792   -0.113945   -0.633762
  H     -0.723102   -2.374450    0.605959
  H     -4.501058   -2.775241   -0.468537

 Total Charge           Charge          ....    0
 Multiplicity           Mult            ....    1
 Number of Electrons    NEL             ....   68
 Basis Dimension        Dim             ....  333

ORBITAL ENERGIES
----------------

  NO   OCC          E(Eh)            E(eV)
   0   2.0000     -20.576534      -559.9160
   1   2.0000     -15.599040      -424.4715
   2   2.0000     -15.594142      -424.3382
   3   2.0000     -15.554326      -423.2547
   4   2.0000     -11.366627      -309.3017
   5   2.0000     -11.301827      -307.5384
   6   2.0000     -11.293306      -307.3065
   7   2.0000     -11.272013      -306.7271
   8   2.0000     -11.234738      -305.7128
   9   2.0000      -1.384026       -37.6613
  10   2.0000      -1.305172       -35.5155
  11   2.0000      -1.234836       -33.6016
  12   2.0000      -1.183528       -32.2054
  13   2.0000      -1.058434       -28.8015
  14   2.0000      -0.971476       -26.4352
  15   2.0000      -0.879615       -23.9356
  16   2.0000      -0.826437       -22.4885
  17   2.0000      -0.785984       -21.3877
  18   2.0000      -0.724785       -19.7224
  19   2.0000      -0.677288       -18.4299
  20   2.0000      -0.648547       -17.6479
  21   2.0000      -0.640754       -17.4358
  22   2.0000      -0.608275       -16.5520
  23   2.0000      -0.585781       -15.9399
  24   2.0000      -0.577701       -15.7200
  25   2.0000      -0.565155       -15.3786
  26   2.0000      -0.547831       -14.9072
  27   2.0000      -0.537640       -14.6299
  28   2.0000      -0.506997       -13.7961
  29   2.0000      -0.496921       -13.5219
  30   2.0000      -0.468073       -12.7369
  31   2.0000      -0.461784       -12.5658
  32   2.0000      -0.451158       -12.2766
  33   2.0000      -0.374657       -10.1949
  34   0.0000       0.100788         2.7426
  35   0.0000       0.115533         3.1438
  36   0.0000       0.136583         3.7166
  37   0.0000       0.152007         4.1363
  38   0.0000       0.169213         4.6045

MULLIKEN ATOMIC CHARGES
-----------------------
   0 C :   -0.411078
   1 C :    0.081879
   2 O :   -0.490307
   3 C :   -0.104237
   4 N :   -0.317743
   5 C :    0.316421
   6 N :   -0.416660
   7 C :   -0.201773
   8 N :   -0.049766
   9 H :    0.131253
  10 H :    0.133239
  11 H :    0.141227
  12 H :    0.095762
  13 H :    0.323121
  14 H :    0.124337
  15 H :    0.151533
  16 H :    0.263180
  17 H :    0.229611
Sum of atomic charges:    0.0000000

LOEWDIN ATOMIC CHARGES
----------------------
   0 C :   -0.298790
   1 C :   -0.376384
   2 O :   -0.029826
   3 C :   -0.252164
   4 N :    0.122879
   5 C :   -0.398131
   6 N :   -0.053988
   7 C :   -0.148931
   8 N :    0.081506
   9 H :    0.123271
  10 H :    0.130486
  11 H :    0.128744
  12 H :    0.136261
  13 H :    0.177231
  14 H :    0.139164
  15 H :    0.150114
  16 H :    0.198499
  17 H :    0.170057

  Mayer bond orders larger than 0.1
B(  0-C ,  1-C ) :   0.9246 B(  0-C ,  9-H ) :   0.9354 B(  0-C , 10-H ) :   0.9298
B(  0-C , 11-H ) :   0.9309 B(  1-C ,  2-O ) :   0.9320 B(  1-C ,  3-C ) :   0.9243
B(  1-C , 12-H ) :   0.9294 B(  2-O , 13-H ) :   0.8429 B(  3-C ,  4-N ) :   0.8679
B(  3-C , 14-H ) :   0.9257 B(  3-C , 15-H ) :   0.9239 B(  4-N ,  5-C ) :   1.1624
B(  4-N , 16-H ) :   0.8579 B(  5-C ,  6-N ) :   1.8514 B(  5-C ,  7-C ) :   0.8825
B(  6-N , 17-H ) :   0.8641 B(  7-C ,  8-N ) :   2.8282

MP2 TOTAL ENERGY:     -434.564139923 Eh
FINAL SINGLE POINT ENERGY      -434.564139923471

DIPOLE MOMENT
-------------
                                X             Y             Z
Electronic contribution:     -4.44702     -11.99391       0.50950
Nuclear contribution   :      5.53144      13.42939      -0.74069
                        -----------------------------------------
Total Dipole Moment    :      1.08442       1.43548      -0.23119
                        -----------------------------------------
Magnitude (a.u.)       :      1.81384
Magnitude (Debye)      :      4.61042

                             ****ORCA TERMINATED NORMALLY****
TOTAL RUN TIME: 0 days 0 hours 16 minutes 56 seconds 483 msec
