                         Program Version 3.0.3 - RELEASE   -
|  1> ! RI-MP2 RIJK def2-TZVP def2-TZVP/C def2-TZVP/JK TIGHTSCF
|  2> % maxcore 2000
|  3> % mp2 density relaxed end
|  4> *xyz 0 1
|  5>  C       -0.0605192749     1.4868006097     0.0737748656
|  6>  C        1.3007099331     0.8169271908    -0.0422031197
|  7>  C        0.0328862514     0.0002099507    -0.0426801313
|  8>  O       -0.2980154317    -0.6851067521     1.1452091068
|  9>  C       -0.2402550142    -2.1076974046     1.0554700340
| 10>  C       -0.6475356508    -2.6030189518    -0.3373588978
| 11>  C        0.3831256618    -2.0797010279    -1.3729690773
| 12>  C       -0.4033000329    -0.7418103701    -1.2934597763
| 13>  C       -1.6618762400    -1.5902126915    -0.9447443464
| 14>  H       -0.3372078782     1.8806873486     1.0452519124
| 15>  H       -0.4369974605     2.0511598186    -0.7727348876
| 16>  H        1.8554994340     0.9250838945    -0.9688850625
| 17>  H        1.9087670626     0.7807559284     0.8544878810
| 18>  H        0.7693429504    -2.4733230815     1.3045218765
| 19>  H       -0.9306178158    -2.4744777237     1.8229411663
| 20>  H       -0.8889702304    -3.6685361654    -0.3200174532
| 21>  H        1.4391725822    -2.0675563383    -1.0857275198
| 22>  H        0.2720131047    -2.5649586015    -2.3462654401
| 23>  H       -0.4172528839    -0.0831199708    -2.1645302271
| 24>  H       -2.1419717868    -1.9880209675    -1.8417814719
| 25>  H       -2.4092848401    -1.1482165046    -0.2823288716
| 26> *
| 27>
| 28>                          ****END OF INPUT****

CARTESIAN COORDINATES (ANGSTROEM)
---------------------------------
  C     -0.060519    1.486801    0.073775
  C      1.300710    0.816927   -0.042203
  C      0.032886    0.000210   -0.042680
  O     -0.298015   -0.685107    1.145209
  C     -0.240255   -2.107697    1.055470
  C     -0.647536   -2.603019   -0.337359
  C      0.383126   -2.079701   -1.372969
  C     -0.403300   -0.741810   -1.293460
  C     -1.661876   -1.590213   -0.944744
  H     -0.337208    1.880687    1.045252
  H     -0.436997    2.051160   -0.772735
  H      1.855499    0.925084   -0.968885
  H      1.908767    0.780756    0.854488
  H      0.769343   -2.473323    1.304522
  H     -0.930618   -2.474478    1.822941
  H     -0.888970   -3.668536   -0.320017
  H      1.439173   -2.067556   -1.085728
  H      0.272013   -2.564959   -2.346265
  H     -0.417253   -0.083120   -2.164530
  H     -2.141972   -1.988021   -1.841781
  H     -2.409285   -1.148217   -0.282329

 Total Charge           Charge          ....    0
 Multiplicity           Mult            ....    1
 Number of Electrons    NEL             ....   68
 Basis Dimension        Dim             ....  351

ORBITAL ENERGIES
----------------

  NO   OCC          E(Eh)            E(eV)
   0   2.0000     -20.549862      -559.1902
   1   2.0000     -11.280569      -306.9599
   2   2.0000     -11.271583      -306.7154
   3   2.0000     -11.233230      -305.6717
   4   2.0000     -11.231594      -305.6272
   5   2.0000     -11.221608      -305.3555
   6   2.0000     -11.220662      -305.3297
   7   2.0000     -11.217447      -305.2422
   8   2.0000     -11.216689      -305.2216
   9   2.0000      -1.375922       -37.4407
  10   2.0000      -1.145620       -31.1739
  11   2.0000      -1.125426       -30.6244
  12   2.0000      -0.967492       -26.3268
  13   2.0000      -0.900155       -24.4945
  14   2.0000      -0.859743       -23.3948
  15   2.0000      -0.822235       -22.3742
  16   2.0000      -0.803569       -21.8662
  17   2.0000      -0.704668       -19.1750
  18   2.0000      -0.683572       -18.6009
  19   2.0000      -0.661695       -18.0056
  20   2.0000      -0.641673       -17.4608
  21   2.0000      -0.627343       -17.0709
  22   2.0000      -0.582916       -15.8620
  23   2.0000      -0.559907       -15.2358
  24   2.0000      -0.550361       -14.9761
  25   2.0000      -0.535357       -14.5678
  26   2.0000      -0.518805       -14.1174
  27   2.0000      -0.511142       -13.9089
  28   2.0000      -0.461990       -12.5714
  29   2.0000      -0.453791       -12.3483
  30   2.0000      -0.440813       -11.9951
  31   2.0000      -0.426281       -11.5997
  32   2.0000      -0.400875       -10.9084
  33   2.0000      -0.367032        -9.9874
  34   0.0000       0.139905         3.8070
  35   0.0000       0.154318         4.1992
  36   0.0000       0.161245         4.3877
  37   0.0000       0.174551         4.7498
  38   0.0000       0.184993         5.0339

MULLIKEN ATOMIC CHARGES
-----------------------
   0 C :   -0.283228
   1 C :   -0.301124
   2 C :    0.132230
   3 O :   -0.306883
   4 C :   -0.073802
   5 C :   -0.034016
   6 C :   -0.300466
   7 C :    0.022843
   8 C :   -0.300648
   9 H :    0.131466
  10 H :    0.126104
  11 H :    0.122102
  12 H :    0.130346
  13 H :    0.089092
  14 H :    0.118756
  15 H :    0.114931
  16 H :    0.119806
  17 H :    0.118970
  18 H :    0.120317
  19 H :    0.123440
  20 H :    0.129762
Sum of atomic charges:    0.0000000

LOEWDIN ATOMIC CHARGES
----------------------
   0 C :   -0.203336
   1 C :   -0.210644
   2 C :   -0.319779
   3 O :    0.207979
   4 C :   -0.278889
   5 C :   -0.230700
   6 C :   -0.197924
   7 C :   -0.185582
   8 C :   -0.188452
   9 H :    0.138724
  10 H :    0.132565
  11 H :    0.131729
  12 H :    0.136390
  13 H :    0.123017
  14 H :    0.130057
  15 H :    0.137936
  16 H :    0.128117
  17 H :    0.135460
  18 H :    0.143561
  19 H :    0.136811
  20 H :    0.132958

  Mayer bond orders larger than 0.1
B(  0-C ,  1-C ) :   0.9469 B(  0-C ,  2-C ) :   0.8587 B(  0-C ,  9-H ) :   0.9227
B(  0-C , 10-H ) :   0.9214 B(  1-C ,  2-C ) :   0.8683 B(  1-C , 11-H ) :   0.9148
B(  1-C , 12-H ) :   0.9205 B(  2-C ,  3-O ) :   0.9990 B(  2-C ,  7-C ) :   0.8665
B(  3-O ,  4-C ) :   0.9320 B(  4-C ,  5-C ) :   0.9151 B(  4-C , 13-H ) :   0.9204
B(  4-C , 14-H ) :   0.9320 B(  5-C ,  6-C ) :   0.9158 B(  5-C ,  8-C ) :   0.9159
B(  5-C , 15-H ) :   0.9178 B(  6-C ,  7-C ) :   0.9031 B(  6-C , 16-H ) :   0.9227
B(  6-C , 17-H ) :   0.9234 B(  7-C ,  8-C ) :   0.9060 B(  7-C , 18-H ) :   0.9039
B(  8-C , 19-H ) :   0.9277 B(  8-C , 20-H ) :   0.9179

MP2 TOTAL ENERGY:     -386.388681956 Eh
FINAL SINGLE POINT ENERGY      -386.388681956080

DIPOLE MOMENT
-------------
                                X             Y             Z
Electronic contribution:     -0.69813       0.42291       2.05793
Nuclear contribution   :      0.72680      -0.75071      -2.50581
                        -----------------------------------------
Total Dipole Moment    :      0.02867      -0.32780      -0.44789
                        -----------------------------------------
Magnitude (a.u.)       :      0.55577
Magnitude (Debye)      :      1.41265

                             ****ORCA TERMINATED NORMALLY****
TOTAL RUN TIME: 0 days 0 hours 20 minutes 6 seconds 215 msec
