                         Program Version 3.0.3 - RELEASE   -
|  1> ! RI-MP2 RIJK def2-TZVP def2-TZVP/C def2-TZVP/JK TIGHTSCF
|  2> % maxcore 2000
|  3> % mp2 density relaxed end
|  4> *xyz 0 1
|  5>  C        0.0605203423     1.5492108399    -0.0844637631
|  6>  C        0.0206717398     0.0151749404     0.0575163697
|  7>  C        0.7864805706    -0.4331043479     1.3159430632
|  8>  C       -1.3981758307    -0.5283117633     0.0230157126
|  9>  C       -1.8308984907    -1.2538014832    -1.0129964521
| 10>  C       -3.2098617283    -1.8484031643    -1.1394777945
| 11>  C       -3.9847362975    -1.8122573517     0.1846413255
| 12>  C       -3.7899641538    -0.4626681107     0.8820564576
| 13>  C       -2.3072018807    -0.2242306587     1.1991045303
| 14>  H        1.0959517470     1.9027002535    -0.1374259482
| 15>  H       -0.4569330586     1.8743124976    -0.9920748880
| 16>  H       -0.4103232168     2.0484934491     0.7691375422
| 17>  H        0.5420476531    -0.4042875188    -0.8123651287
| 18>  H        0.3401451389    -0.0191063884     2.2264777288
| 19>  H        0.7914441237    -1.5236749730     1.4096021954
| 20>  H        1.8260295525    -0.0910181111     1.2759014838
| 21>  H       -1.1509585089    -1.4392150060    -1.8435984203
| 22>  H       -3.7697948182    -1.3065938059    -1.9175054147
| 23>  H       -3.1339592202    -2.8802060650    -1.5067910864
| 24>  H       -5.0474082867    -2.0120472289     0.0096982536
| 25>  H       -3.6174026793    -2.6111729442     0.8421285424
| 26>  H       -4.1540114850     0.3389718800     0.2259486586
| 27>  H       -4.3827866599    -0.4106933384     1.8019015158
| 28>  H       -2.0112155556    -0.8457643807     2.0570019268
| 29>  H       -2.1607467969     0.8114175493     1.5295687000
| 30> *
| 31>
| 32>                          ****END OF INPUT****

CARTESIAN COORDINATES (ANGSTROEM)
---------------------------------
  C      0.060520    1.549211   -0.084464
  C      0.020672    0.015175    0.057516
  C      0.786481   -0.433104    1.315943
  C     -1.398176   -0.528312    0.023016
  C     -1.830898   -1.253801   -1.012996
  C     -3.209862   -1.848403   -1.139478
  C     -3.984736   -1.812257    0.184641
  C     -3.789964   -0.462668    0.882056
  C     -2.307202   -0.224231    1.199105
  H      1.095952    1.902700   -0.137426
  H     -0.456933    1.874312   -0.992075
  H     -0.410323    2.048493    0.769138
  H      0.542048   -0.404288   -0.812365
  H      0.340145   -0.019106    2.226478
  H      0.791444   -1.523675    1.409602
  H      1.826030   -0.091018    1.275901
  H     -1.150959   -1.439215   -1.843598
  H     -3.769795   -1.306594   -1.917505
  H     -3.133959   -2.880206   -1.506791
  H     -5.047408   -2.012047    0.009698
  H     -3.617403   -2.611173    0.842129
  H     -4.154011    0.338972    0.225949
  H     -4.382787   -0.410693    1.801902
  H     -2.011216   -0.845764    2.057002
  H     -2.160747    0.811418    1.529569

 Total Charge           Charge          ....    0
 Multiplicity           Mult            ....    1
 Number of Electrons    NEL             ....   70
 Basis Dimension        Dim             ....  375

ORBITAL ENERGIES
----------------

  NO   OCC          E(Eh)            E(eV)
   0   2.0000     -11.225862      -305.4712
   1   2.0000     -11.220085      -305.3140
   2   2.0000     -11.217772      -305.2511
   3   2.0000     -11.217036      -305.2311
   4   2.0000     -11.214714      -305.1679
   5   2.0000     -11.213706      -305.1405
   6   2.0000     -11.209575      -305.0280
   7   2.0000     -11.209401      -305.0233
   8   2.0000     -11.209220      -305.0184
   9   2.0000      -1.124942       -30.6112
  10   2.0000      -1.064978       -28.9795
  11   2.0000      -0.997592       -27.1459
  12   2.0000      -0.981629       -26.7115
  13   2.0000      -0.924358       -25.1531
  14   2.0000      -0.852954       -23.2100
  15   2.0000      -0.819361       -22.2960
  16   2.0000      -0.775218       -21.0948
  17   2.0000      -0.687917       -18.7192
  18   2.0000      -0.649494       -17.6736
  19   2.0000      -0.613075       -16.6826
  20   2.0000      -0.606734       -16.5101
  21   2.0000      -0.581190       -15.8150
  22   2.0000      -0.576466       -15.6865
  23   2.0000      -0.558956       -15.2100
  24   2.0000      -0.542676       -14.7670
  25   2.0000      -0.535614       -14.5748
  26   2.0000      -0.526721       -14.3328
  27   2.0000      -0.513512       -13.9734
  28   2.0000      -0.492763       -13.4088
  29   2.0000      -0.475454       -12.9378
  30   2.0000      -0.466689       -12.6992
  31   2.0000      -0.460613       -12.5339
  32   2.0000      -0.441003       -12.0003
  33   2.0000      -0.424133       -11.5412
  34   2.0000      -0.328716        -8.9448
  35   0.0000       0.129122         3.5136
  36   0.0000       0.152393         4.1468
  37   0.0000       0.161276         4.3886
  38   0.0000       0.167224         4.5504
  39   0.0000       0.174158         4.7391

MULLIKEN ATOMIC CHARGES
-----------------------
   0 C :   -0.408123
   1 C :   -0.029181
   2 C :   -0.415919
   3 C :    0.041876
   4 C :   -0.225792
   5 C :   -0.165829
   6 C :   -0.222773
   7 C :   -0.201694
   8 C :   -0.273691
   9 H :    0.128731
  10 H :    0.134610
  11 H :    0.118215
  12 H :    0.080706
  13 H :    0.127369
  14 H :    0.134036
  15 H :    0.130768
  16 H :    0.109870
  17 H :    0.112442
  18 H :    0.120896
  19 H :    0.121492
  20 H :    0.104926
  21 H :    0.105305
  22 H :    0.122543
  23 H :    0.124146
  24 H :    0.125072
Sum of atomic charges:    0.0000000

LOEWDIN ATOMIC CHARGES
----------------------
   0 C :   -0.289270
   1 C :   -0.270106
   2 C :   -0.289262
   3 C :   -0.152517
   4 C :   -0.148776
   5 C :   -0.257992
   6 C :   -0.260670
   7 C :   -0.257607
   8 C :   -0.224945
   9 H :    0.122433
  10 H :    0.124137
  11 H :    0.119575
  12 H :    0.154556
  13 H :    0.122349
  14 H :    0.124319
  15 H :    0.122551
  16 H :    0.142017
  17 H :    0.142590
  18 H :    0.141102
  19 H :    0.133951
  20 H :    0.138881
  21 H :    0.139864
  22 H :    0.134247
  23 H :    0.145685
  24 H :    0.142889

  Mayer bond orders larger than 0.1
B(  0-C ,  1-C ) :   0.9168 B(  0-C ,  9-H ) :   0.9359 B(  0-C , 10-H ) :   0.9404
B(  0-C , 11-H ) :   0.9315 B(  1-C ,  2-C ) :   0.9092 B(  1-C ,  3-C ) :   0.8933
B(  1-C , 12-H ) :   0.9352 B(  2-C , 13-H ) :   0.9314 B(  2-C , 14-H ) :   0.9397
B(  2-C , 15-H ) :   0.9363 B(  3-C ,  4-C ) :   1.7577 B(  3-C ,  8-C ) :   0.9170
B(  4-C ,  5-C ) :   0.9359 B(  4-C , 16-H ) :   0.9232 B(  5-C ,  6-C ) :   0.9477
B(  5-C , 17-H ) :   0.9139 B(  5-C , 18-H ) :   0.9285 B(  6-C ,  7-C ) :   0.9139
B(  6-C , 19-H ) :   0.9341 B(  6-C , 20-H ) :   0.9334 B(  7-C ,  8-C ) :   0.9518
B(  7-C , 21-H ) :   0.9327 B(  7-C , 22-H ) :   0.9357 B(  8-C , 23-H ) :   0.9191
B(  8-C , 24-H ) :   0.9249

MP2 TOTAL ENERGY:     -351.736333100 Eh
FINAL SINGLE POINT ENERGY      -351.736333100099

DIPOLE MOMENT
-------------
                                X             Y             Z
Electronic contribution:     -1.79083      -1.89350      -1.91822
Nuclear contribution   :      1.73719       1.89248       1.96230
                        -----------------------------------------
Total Dipole Moment    :     -0.05364      -0.00102       0.04408
                        -----------------------------------------
Magnitude (a.u.)       :      0.06944
Magnitude (Debye)      :      0.17649

                             ****ORCA TERMINATED NORMALLY****
TOTAL RUN TIME: 0 days 0 hours 26 minutes 15 seconds 84 msec
