                         Program Version 3.0.3 - RELEASE   -
|  1> ! RI-MP2 RIJK def2-TZVP def2-TZVP/C def2-TZVP/JK TIGHTSCF
|  2> % maxcore 2000
|  3> % mp2 density relaxed end
|  4> *xyz 0 1
|  5>  O       -0.1156442375     1.3650001354     0.1663992163
|  6>  C       -0.0696898157    -0.0248536302     0.2469027654
|  7>  C       -0.9820915350    -0.7525842401     1.2139538303
|  8>  C       -1.2379591078    -0.8028666548    -0.2795330592
|  9>  O       -2.2333316149     0.0064086298    -0.8392037253
| 10>  C       -3.5338806270    -0.5068241265    -0.7420746568
| 11>  C       -4.4176987717    -0.1044680720     0.4075971455
| 12>  C       -4.6464633605     0.4580971177    -0.9830403323
| 13>  H       -0.9220440777     1.5811642622    -0.3200101593
| 14>  H        0.9307969691    -0.4157235558     0.0851618533
| 15>  H       -0.6279563050    -1.6524471730     1.7059449198
| 16>  H       -1.6405194637    -0.1288815083     1.8068676367
| 17>  H       -1.0753518059    -1.7390225365    -0.8125278227
| 18>  H       -3.6303321665    -1.5182400235    -1.1343155695
| 19>  H       -5.1178787007    -0.8309662110     0.8050508353
| 20>  H       -3.9960641573     0.5704887343     1.1427661249
| 21>  H       -4.3633740890     1.4915214176    -1.1486344657
| 22>  H       -5.5050886733     0.1259617845    -1.5551440866
| 23> *
| 24>
| 25>                          ****END OF INPUT****

CARTESIAN COORDINATES (ANGSTROEM)
---------------------------------
  O     -0.115644    1.365000    0.166399
  C     -0.069690   -0.024854    0.246903
  C     -0.982092   -0.752584    1.213954
  C     -1.237959   -0.802867   -0.279533
  O     -2.233332    0.006409   -0.839204
  C     -3.533881   -0.506824   -0.742075
  C     -4.417699   -0.104468    0.407597
  C     -4.646463    0.458097   -0.983040
  H     -0.922044    1.581164   -0.320010
  H      0.930797   -0.415724    0.085162
  H     -0.627956   -1.652447    1.705945
  H     -1.640519   -0.128882    1.806868
  H     -1.075352   -1.739023   -0.812528
  H     -3.630332   -1.518240   -1.134316
  H     -5.117879   -0.830966    0.805051
  H     -3.996064    0.570489    1.142766
  H     -4.363374    1.491521   -1.148634
  H     -5.505089    0.125962   -1.555144

 Total Charge           Charge          ....    0
 Multiplicity           Mult            ....    1
 Number of Electrons    NEL             ....   62
 Basis Dimension        Dim             ....  308

ORBITAL ENERGIES
----------------

  NO   OCC          E(Eh)            E(eV)
   0   2.0000     -20.578690      -559.9746
   1   2.0000     -20.552233      -559.2547
   2   2.0000     -11.291374      -307.2539
   3   2.0000     -11.287469      -307.1476
   4   2.0000     -11.282348      -307.0083
   5   2.0000     -11.232413      -305.6495
   6   2.0000     -11.231677      -305.6295
   7   2.0000     -11.225113      -305.4509
   8   2.0000      -1.407742       -38.3066
   9   2.0000      -1.359891       -37.0045
  10   2.0000      -1.146895       -31.2086
  11   2.0000      -1.106137       -30.0995
  12   2.0000      -0.860086       -23.4041
  13   2.0000      -0.837055       -22.7774
  14   2.0000      -0.822863       -22.3913
  15   2.0000      -0.798350       -21.7242
  16   2.0000      -0.715389       -19.4667
  17   2.0000      -0.702455       -19.1148
  18   2.0000      -0.666583       -18.1386
  19   2.0000      -0.650833       -17.7101
  20   2.0000      -0.599325       -16.3085
  21   2.0000      -0.595884       -16.2148
  22   2.0000      -0.564836       -15.3700
  23   2.0000      -0.544500       -14.8166
  24   2.0000      -0.534965       -14.5571
  25   2.0000      -0.523500       -14.2452
  26   2.0000      -0.506361       -13.7788
  27   2.0000      -0.432107       -11.7582
  28   2.0000      -0.424900       -11.5621
  29   2.0000      -0.396818       -10.7980
  30   2.0000      -0.383613       -10.4386
  31   0.0000       0.148590         4.0433
  32   0.0000       0.153510         4.1772
  33   0.0000       0.163051         4.4368
  34   0.0000       0.166690         4.5359
  35   0.0000       0.192213         5.2304

MULLIKEN ATOMIC CHARGES
-----------------------
   0 O :   -0.476219
   1 C :    0.051245
   2 C :   -0.250595
   3 C :    0.005425
   4 O :   -0.328644
   5 C :    0.063234
   6 C :   -0.265106
   7 C :   -0.258852
   8 H :    0.334473
   9 H :    0.116776
  10 H :    0.127145
  11 H :    0.133011
  12 H :    0.112577
  13 H :    0.103222
  14 H :    0.130835
  15 H :    0.130064
  16 H :    0.137601
  17 H :    0.133807
Sum of atomic charges:   -0.0000000

LOEWDIN ATOMIC CHARGES
----------------------
   0 O :   -0.003255
   1 C :   -0.315406
   2 C :   -0.220223
   3 C :   -0.301863
   4 O :    0.211486
   5 C :   -0.306843
   6 C :   -0.232458
   7 C :   -0.226133
   8 H :    0.182219
   9 H :    0.135917
  10 H :    0.132490
  11 H :    0.139059
  12 H :    0.132761
  13 H :    0.135090
  14 H :    0.131042
  15 H :    0.134726
  16 H :    0.138441
  17 H :    0.132951

  Mayer bond orders larger than 0.1
B(  0-O ,  1-C ) :   0.9940 B(  0-O ,  8-H ) :   0.8190 B(  1-C ,  2-C ) :   0.8633
B(  1-C ,  3-C ) :   0.9080 B(  1-C ,  9-H ) :   0.9473 B(  2-C ,  3-C ) :   0.8765
B(  2-C , 10-H ) :   0.9104 B(  2-C , 11-H ) :   0.9190 B(  3-C ,  4-O ) :   0.9030
B(  3-C , 12-H ) :   0.9250 B(  4-O ,  5-C ) :   0.9272 B(  5-C ,  6-C ) :   0.8874
B(  5-C ,  7-C ) :   0.8967 B(  5-C , 13-H ) :   0.9297 B(  6-C ,  7-C ) :   0.9069
B(  6-C , 14-H ) :   0.9210 B(  6-C , 15-H ) :   0.9275 B(  7-C , 16-H ) :   0.9229
B(  7-C , 17-H ) :   0.9248

MP2 TOTAL ENERGY:     -384.245623076 Eh
FINAL SINGLE POINT ENERGY      -384.245623076052

DIPOLE MOMENT
-------------
                                X             Y             Z
Electronic contribution:      3.68035       1.44532      -1.55927
Nuclear contribution   :     -4.37944      -2.22354       1.50425
                        -----------------------------------------
Total Dipole Moment    :     -0.69909      -0.77822      -0.05503
                        -----------------------------------------
Magnitude (a.u.)       :      1.04756
Magnitude (Debye)      :      2.66269

                             ****ORCA TERMINATED NORMALLY****
TOTAL RUN TIME: 0 days 0 hours 10 minutes 59 seconds 703 msec
