                         Program Version 3.0.3 - RELEASE   -
|  1> ! RI-MP2 RIJK def2-TZVP def2-TZVP/C def2-TZVP/JK TIGHTSCF
|  2> % maxcore 2000
|  3> % mp2 density relaxed end
|  4> *xyz 0 1
|  5>  C        0.1368096788     1.5328994718     0.0921598703
|  6>  C        0.0611724215     0.0381037457     0.0229277017
|  7>  C        0.3764928356    -0.7780152319    -1.0473553813
|  8>  N        0.1578544423    -2.0618932103    -0.6599681765
|  9>  N       -0.2858823724    -2.1362898280     0.6109225383
| 10>  C       -0.3445291889    -0.8722975061     1.0238715865
| 11>  C        0.3293731549    -3.2792660172    -1.3984922532
| 12>  C        0.0170669994    -3.3499889540    -2.8683291843
| 13>  C        1.4497341763    -3.4389002133    -2.3892015038
| 14>  H        0.8247011206     1.8691957863     0.8762217899
| 15>  H        0.4870709059     1.9545760850    -0.8543128982
| 16>  H       -0.8401123096     1.9795091459     0.3093154330
| 17>  H        0.7336386695    -0.5326228919    -2.0353801601
| 18>  H       -0.6768969988    -0.6561594204     2.0294876159
| 19>  H        0.0665027608    -4.1181109121    -0.7684421290
| 20>  H       -0.4688785443    -4.2439098921    -3.2427711361
| 21>  H       -0.2947909213    -2.4331885784    -3.3564244380
| 22>  H        2.0921073909    -2.5819022420    -2.5591040143
| 23>  H        1.9596576087    -4.3947988371    -2.4300647108
| 24> *
| 25>
| 26>                          ****END OF INPUT****

CARTESIAN COORDINATES (ANGSTROEM)
---------------------------------
  C      0.136810    1.532899    0.092160
  C      0.061172    0.038104    0.022928
  C      0.376493   -0.778015   -1.047355
  N      0.157854   -2.061893   -0.659968
  N     -0.285882   -2.136290    0.610923
  C     -0.344529   -0.872298    1.023872
  C      0.329373   -3.279266   -1.398492
  C      0.017067   -3.349989   -2.868329
  C      1.449734   -3.438900   -2.389202
  H      0.824701    1.869196    0.876222
  H      0.487071    1.954576   -0.854313
  H     -0.840112    1.979509    0.309315
  H      0.733639   -0.532623   -2.035380
  H     -0.676897   -0.656159    2.029488
  H      0.066503   -4.118111   -0.768442
  H     -0.468879   -4.243910   -3.242771
  H     -0.294791   -2.433189   -3.356424
  H      2.092107   -2.581902   -2.559104
  H      1.959658   -4.394799   -2.430065

 Total Charge           Charge          ....    0
 Multiplicity           Mult            ....    1
 Number of Electrons    NEL             ....   66
 Basis Dimension        Dim             ....  339

ORBITAL ENERGIES
----------------

  NO   OCC          E(Eh)            E(eV)
   0   2.0000     -15.633898      -425.4200
   1   2.0000     -15.578041      -423.9000
   2   2.0000     -11.280228      -306.9506
   3   2.0000     -11.261914      -306.4523
   4   2.0000     -11.239494      -305.8422
   5   2.0000     -11.239221      -305.8348
   6   2.0000     -11.238565      -305.8169
   7   2.0000     -11.224856      -305.4439
   8   2.0000     -11.220872      -305.3354
   9   2.0000      -1.372939       -37.3596
  10   2.0000      -1.173485       -31.9322
  11   2.0000      -1.073652       -29.2156
  12   2.0000      -1.069440       -29.1009
  13   2.0000      -0.953616       -25.9492
  14   2.0000      -0.853790       -23.2328
  15   2.0000      -0.840007       -22.8578
  16   2.0000      -0.786560       -21.4034
  17   2.0000      -0.760909       -20.7054
  18   2.0000      -0.705775       -19.2051
  19   2.0000      -0.669312       -18.2129
  20   2.0000      -0.619887       -16.8680
  21   2.0000      -0.612291       -16.6613
  22   2.0000      -0.585880       -15.9426
  23   2.0000      -0.568544       -15.4709
  24   2.0000      -0.562692       -15.3116
  25   2.0000      -0.541493       -14.7348
  26   2.0000      -0.530055       -14.4235
  27   2.0000      -0.521669       -14.1953
  28   2.0000      -0.454165       -12.3585
  29   2.0000      -0.449453       -12.2302
  30   2.0000      -0.441527       -12.0146
  31   2.0000      -0.339330        -9.2336
  32   2.0000      -0.320365        -8.7176
  33   0.0000       0.140597         3.8258
  34   0.0000       0.148902         4.0518
  35   0.0000       0.154342         4.1998
  36   0.0000       0.160815         4.3760
  37   0.0000       0.174898         4.7592

MULLIKEN ATOMIC CHARGES
-----------------------
   0 C :   -0.420856
   1 C :    0.011121
   2 C :   -0.182714
   3 N :    0.157129
   4 N :   -0.262861
   5 C :   -0.123871
   6 C :   -0.086964
   7 C :   -0.256290
   8 C :   -0.256465
   9 H :    0.143782
  10 H :    0.134052
  11 H :    0.143786
  12 H :    0.149670
  13 H :    0.128778
  14 H :    0.154117
  15 H :    0.139632
  16 H :    0.144289
  17 H :    0.143933
  18 H :    0.139730
Sum of atomic charges:   -0.0000000

LOEWDIN ATOMIC CHARGES
----------------------
   0 C :   -0.274498
   1 C :   -0.225713
   2 C :   -0.204321
   3 N :    0.218206
   4 N :    0.046929
   5 C :   -0.255093
   6 C :   -0.228885
   7 C :   -0.219877
   8 C :   -0.220015
   9 H :    0.130857
  10 H :    0.129839
  11 H :    0.130879
  12 H :    0.138979
  13 H :    0.134141
  14 H :    0.156644
  15 H :    0.134727
  16 H :    0.136274
  17 H :    0.136134
  18 H :    0.134790

  Mayer bond orders larger than 0.1
B(  0-C ,  1-C ) :   0.8519 B(  0-C ,  9-H ) :   0.9360 B(  0-C , 10-H ) :   0.9520
B(  0-C , 11-H ) :   0.9363 B(  1-C ,  2-C ) :   1.4343 B(  1-C ,  5-C ) :   1.3028
B(  2-C ,  3-N ) :   1.1966 B(  2-C ,  4-N ) :   0.1034 B(  2-C , 12-H ) :   0.8927
B(  3-N ,  4-N ) :   1.0070 B(  3-N ,  6-C ) :   0.8867 B(  4-N ,  5-C ) :   1.4707
B(  5-C , 13-H ) :   0.9397 B(  6-C ,  7-C ) :   0.8718 B(  6-C ,  8-C ) :   0.8726
B(  6-C , 14-H ) :   0.9334 B(  7-C ,  8-C ) :   0.8734 B(  7-C , 15-H ) :   0.9254
B(  7-C , 16-H ) :   0.9281 B(  8-C , 17-H ) :   0.9278 B(  8-C , 18-H ) :   0.9255

MP2 TOTAL ENERGY:     -381.393855651 Eh
FINAL SINGLE POINT ENERGY      -381.393855650788

DIPOLE MOMENT
-------------
                                X             Y             Z
Electronic contribution:     -1.29373      -2.40157       3.35283
Nuclear contribution   :      1.60820       2.54405      -4.24090
                        -----------------------------------------
Total Dipole Moment    :      0.31447       0.14248      -0.88806
                        -----------------------------------------
Magnitude (a.u.)       :      0.95281
Magnitude (Debye)      :      2.42185

                             ****ORCA TERMINATED NORMALLY****
TOTAL RUN TIME: 0 days 0 hours 17 minutes 41 seconds 139 msec
