                         Program Version 3.0.3 - RELEASE   -
|  1> ! RI-MP2 RIJK def2-TZVP def2-TZVP/C def2-TZVP/JK TIGHTSCF
|  2> % maxcore 2000
|  3> % mp2 density relaxed end
|  4> *xyz 0 1
|  5>  C        0.0771310055     1.5312764310    -0.0245135335
|  6>  C        0.1954851876     0.0203269092     0.0579588586
|  7>  O        0.4215565615    -0.4803238936    -1.2602901405
|  8>  C        0.5945118420    -1.8391257927    -1.3202951778
|  9>  C        1.8592460749    -2.5523520764    -0.8777469867
| 10>  C        1.3750369613    -2.6674320094    -2.3005502400
| 11>  O        0.3434719560    -3.6540113408    -2.3988466948
| 12>  C       -0.5223597091    -2.8646690529    -1.5359268453
| 13>  H        0.9948245244     1.9664691562    -0.4302223763
| 14>  H       -0.7541101920     1.8175541905    -0.6749227683
| 15>  H       -0.0982917540     1.9530270950     0.9696029540
| 16>  H        1.0276838185    -0.2764658678     0.7127657448
| 17>  H       -0.7235201733    -0.4193251373     0.4744042614
| 18>  H        2.7048821170    -1.8834921363    -0.7461458729
| 19>  H        1.8356706708    -3.4207808942    -0.2244956161
| 20>  H        1.9499856544    -2.4306917565    -3.1874807101
| 21>  H       -0.8869367379    -3.4358218372    -0.6744841478
| 22>  H       -1.3641855975    -2.4533750568    -2.1044472388
| 23> *
| 24>
| 25>                          ****END OF INPUT****

CARTESIAN COORDINATES (ANGSTROEM)
---------------------------------
  C      0.077131    1.531276   -0.024514
  C      0.195485    0.020327    0.057959
  O      0.421557   -0.480324   -1.260290
  C      0.594512   -1.839126   -1.320295
  C      1.859246   -2.552352   -0.877747
  C      1.375037   -2.667432   -2.300550
  O      0.343472   -3.654011   -2.398847
  C     -0.522360   -2.864669   -1.535927
  H      0.994825    1.966469   -0.430222
  H     -0.754110    1.817554   -0.674923
  H     -0.098292    1.953027    0.969603
  H      1.027684   -0.276466    0.712766
  H     -0.723520   -0.419325    0.474404
  H      2.704882   -1.883492   -0.746146
  H      1.835671   -3.420781   -0.224496
  H      1.949986   -2.430692   -3.187481
  H     -0.886937   -3.435822   -0.674484
  H     -1.364186   -2.453375   -2.104447

 Total Charge           Charge          ....    0
 Multiplicity           Mult            ....    1
 Number of Electrons    NEL             ....   62
 Basis Dimension        Dim             ....  308

ORBITAL ENERGIES
----------------

  NO   OCC          E(Eh)            E(eV)
   0   2.0000     -20.571707      -559.7846
   1   2.0000     -20.554767      -559.3236
   2   2.0000     -11.292740      -307.2911
   3   2.0000     -11.285773      -307.1015
   4   2.0000     -11.284725      -307.0730
   5   2.0000     -11.283479      -307.0391
   6   2.0000     -11.234106      -305.6956
   7   2.0000     -11.221553      -305.3540
   8   2.0000      -1.407980       -38.3131
   9   2.0000      -1.378561       -37.5126
  10   2.0000      -1.112327       -30.2680
  11   2.0000      -1.022478       -27.8230
  12   2.0000      -0.947828       -25.7917
  13   2.0000      -0.859532       -23.3891
  14   2.0000      -0.820478       -22.3263
  15   2.0000      -0.756245       -20.5785
  16   2.0000      -0.720948       -19.6180
  17   2.0000      -0.679887       -18.5007
  18   2.0000      -0.649317       -17.6688
  19   2.0000      -0.635704       -17.2984
  20   2.0000      -0.608337       -16.5537
  21   2.0000      -0.566199       -15.4071
  22   2.0000      -0.554542       -15.0899
  23   2.0000      -0.546580       -14.8732
  24   2.0000      -0.542662       -14.7666
  25   2.0000      -0.529909       -14.4196
  26   2.0000      -0.497957       -13.5501
  27   2.0000      -0.488938       -13.3047
  28   2.0000      -0.441428       -12.0119
  29   2.0000      -0.394624       -10.7383
  30   2.0000      -0.376565       -10.2469
  31   0.0000       0.133502         3.6328
  32   0.0000       0.161460         4.3936
  33   0.0000       0.167555         4.5594
  34   0.0000       0.175433         4.7738
  35   0.0000       0.193415         5.2631

MULLIKEN ATOMIC CHARGES
-----------------------
   0 C :   -0.359080
   1 C :   -0.042622
   2 O :   -0.284025
   3 C :    0.071559
   4 C :   -0.280401
   5 C :    0.026861
   6 O :   -0.327333
   7 C :   -0.013429
   8 H :    0.130550
   9 H :    0.132108
  10 H :    0.124759
  11 H :    0.103293
  12 H :    0.097979
  13 H :    0.134682
  14 H :    0.134714
  15 H :    0.138033
  16 H :    0.106160
  17 H :    0.106194
Sum of atomic charges:   -0.0000000

LOEWDIN ATOMIC CHARGES
----------------------
   0 C :   -0.316012
   1 C :   -0.327279
   2 O :    0.217247
   3 C :   -0.343358
   4 C :   -0.198126
   5 C :   -0.228022
   6 O :    0.142517
   7 C :   -0.221492
   8 H :    0.124718
   9 H :    0.125072
  10 H :    0.125710
  11 H :    0.120055
  12 H :    0.119064
  13 H :    0.146494
  14 H :    0.133772
  15 H :    0.133269
  16 H :    0.118431
  17 H :    0.127940

  Mayer bond orders larger than 0.1
B(  0-C ,  1-C ) :   0.9544 B(  0-C ,  8-H ) :   0.9358 B(  0-C ,  9-H ) :   0.9352
B(  0-C , 10-H ) :   0.9311 B(  1-C ,  2-O ) :   0.8716 B(  1-C , 11-H ) :   0.9250
B(  1-C , 12-H ) :   0.9233 B(  2-O ,  3-C ) :   1.0415 B(  3-C ,  4-C ) :   0.8849
B(  3-C ,  5-C ) :   0.9442 B(  3-C ,  7-C ) :   0.9636 B(  4-C ,  5-C ) :   0.8694
B(  4-C , 13-H ) :   0.9172 B(  4-C , 14-H ) :   0.8966 B(  5-C ,  6-O ) :   0.9713
B(  5-C , 15-H ) :   0.9083 B(  6-O ,  7-C ) :   0.9305 B(  7-C , 16-H ) :   0.9094
B(  7-C , 17-H ) :   0.9070

MP2 TOTAL ENERGY:     -384.238890041 Eh
FINAL SINGLE POINT ENERGY      -384.238890040680

DIPOLE MOMENT
-------------
                                X             Y             Z
Electronic contribution:      0.55971      -5.79094      -4.91989
Nuclear contribution   :     -0.53545       6.34466       5.68339
                        -----------------------------------------
Total Dipole Moment    :      0.02426       0.55372       0.76351
                        -----------------------------------------
Magnitude (a.u.)       :      0.94347
Magnitude (Debye)      :      2.39811

                             ****ORCA TERMINATED NORMALLY****
TOTAL RUN TIME: 0 days 0 hours 11 minutes 51 seconds 661 msec
