                         Program Version 3.0.3 - RELEASE   -
|  1> ! RI-MP2 RIJK def2-TZVP def2-TZVP/C def2-TZVP/JK TIGHTSCF
|  2> % maxcore 2000
|  3> % mp2 density relaxed end
|  4> *xyz 0 1
|  5>  N       -0.1986902858     1.3263924120     0.0111815642
|  6>  C       -0.0836343909     0.0716278607     0.0036014671
|  7>  O       -1.1912641466    -0.7024129455     0.0085383934
|  8>  C       -0.9704244724    -2.1093911068    -0.0018305861
|  9>  C       -2.3454321302    -2.7616853481     0.0080157905
| 10>  C       -2.2643568211    -4.2663908978    -0.0008112862
| 11>  O       -1.2402025915    -4.9025790487    -0.0139878486
| 12>  C       -3.5712076612    -4.9594081735     0.0085556360
| 13>  N       -4.5972496772    -5.4921664008     0.0159280770
| 14>  H        0.7207999470     1.7627236627     0.0058927922
| 15>  H        0.8529743285    -0.5028169604    -0.0073317015
| 16>  H       -0.4103933767    -2.4104786012    -0.8953328189
| 17>  H       -0.3928689679    -2.4208610971     0.8768345026
| 18>  H       -2.9199436468    -2.4440900175     0.8879298945
| 19>  H       -2.9369783574    -2.4348720881    -0.8571108863
| 20> *
| 21>
| 22>                          ****END OF INPUT****

CARTESIAN COORDINATES (ANGSTROEM)
---------------------------------
  N     -0.198690    1.326392    0.011182
  C     -0.083634    0.071628    0.003601
  O     -1.191264   -0.702413    0.008538
  C     -0.970424   -2.109391   -0.001831
  C     -2.345432   -2.761685    0.008016
  C     -2.264357   -4.266391   -0.000811
  O     -1.240203   -4.902579   -0.013988
  C     -3.571208   -4.959408    0.008556
  N     -4.597250   -5.492166    0.015928
  H      0.720800    1.762724    0.005893
  H      0.852974   -0.502817   -0.007332
  H     -0.410393   -2.410479   -0.895333
  H     -0.392869   -2.420861    0.876835
  H     -2.919944   -2.444090    0.887930
  H     -2.936978   -2.434872   -0.857111

 Total Charge           Charge          ....    0
 Multiplicity           Mult            ....    1
 Number of Electrons    NEL             ....   66
 Basis Dimension        Dim             ....  315

ORBITAL ENERGIES
----------------

  NO   OCC          E(Eh)            E(eV)
   0   2.0000     -20.614785      -560.9568
   1   2.0000     -20.611224      -560.8599
   2   2.0000     -15.620083      -425.0441
   3   2.0000     -15.554242      -423.2524
   4   2.0000     -11.413150      -310.5676
   5   2.0000     -11.352246      -308.9103
   6   2.0000     -11.325160      -308.1733
   7   2.0000     -11.306909      -307.6766
   8   2.0000     -11.287194      -307.1402
   9   2.0000      -1.458619       -39.6910
  10   2.0000      -1.446834       -39.3703
  11   2.0000      -1.255660       -34.1683
  12   2.0000      -1.214677       -33.0530
  13   2.0000      -1.105693       -30.0874
  14   2.0000      -0.981432       -26.7061
  15   2.0000      -0.878582       -23.9074
  16   2.0000      -0.846329       -23.0298
  17   2.0000      -0.753718       -20.5097
  18   2.0000      -0.728492       -19.8233
  19   2.0000      -0.714358       -19.4387
  20   2.0000      -0.699500       -19.0344
  21   2.0000      -0.653930       -17.7943
  22   2.0000      -0.639395       -17.3988
  23   2.0000      -0.609303       -16.5800
  24   2.0000      -0.595264       -16.1980
  25   2.0000      -0.570760       -15.5312
  26   2.0000      -0.544546       -14.8179
  27   2.0000      -0.529478       -14.4078
  28   2.0000      -0.507835       -13.8189
  29   2.0000      -0.499594       -13.5946
  30   2.0000      -0.494470       -13.4552
  31   2.0000      -0.450720       -12.2647
  32   2.0000      -0.417999       -11.3743
  33   0.0000       0.050892         1.3849
  34   0.0000       0.112265         3.0549
  35   0.0000       0.131686         3.5833
  36   0.0000       0.138792         3.7767
  37   0.0000       0.150056         4.0832

MULLIKEN ATOMIC CHARGES
-----------------------
   0 N :   -0.333606
   1 C :    0.064355
   2 O :   -0.209670
   3 C :   -0.086153
   4 C :   -0.239935
   5 C :    0.300715
   6 O :   -0.239016
   7 C :   -0.151469
   8 N :   -0.028455
   9 H :    0.229261
  10 H :    0.090239
  11 H :    0.130465
  12 H :    0.130466
  13 H :    0.171397
  14 H :    0.171407
Sum of atomic charges:   -0.0000000

LOEWDIN ATOMIC CHARGES
----------------------
   0 N :   -0.072616
   1 C :   -0.396598
   2 O :    0.235926
   3 C :   -0.294213
   4 C :   -0.222175
   5 C :   -0.317620
   6 O :    0.209969
   7 C :   -0.133222
   8 N :    0.106746
   9 H :    0.170310
  10 H :    0.109784
  11 H :    0.132239
  12 H :    0.132238
  13 H :    0.169621
  14 H :    0.169611

  Mayer bond orders larger than 0.1
B(  0-N ,  1-C ) :   1.9622 B(  0-N ,  9-H ) :   0.8489 B(  1-C ,  2-O ) :   1.0406
B(  1-C , 10-H ) :   0.9276 B(  2-O ,  3-C ) :   0.9079 B(  3-C ,  4-C ) :   0.9619
B(  3-C , 11-H ) :   0.9201 B(  3-C , 12-H ) :   0.9202 B(  4-C ,  5-C ) :   0.9317
B(  4-C , 13-H ) :   0.8925 B(  4-C , 14-H ) :   0.8925 B(  5-C ,  6-O ) :   1.9441
B(  5-C ,  7-C ) :   0.9135 B(  7-C ,  8-N ) :   2.7941

MP2 TOTAL ENERGY:     -453.208821504 Eh
FINAL SINGLE POINT ENERGY      -453.208821503594

DIPOLE MOMENT
-------------
                                X             Y             Z
Electronic contribution:     -3.92205      -6.32961       0.00286
Nuclear contribution   :      5.15167       6.57695      -0.01283
                        -----------------------------------------
Total Dipole Moment    :      1.22962       0.24734      -0.00997
                        -----------------------------------------
Magnitude (a.u.)       :      1.25429
Magnitude (Debye)      :      3.18814

                             ****ORCA TERMINATED NORMALLY****
TOTAL RUN TIME: 0 days 0 hours 12 minutes 17 seconds 75 msec
