                         Program Version 3.0.3 - RELEASE   -
|  1> ! RI-MP2 RIJK def2-TZVP def2-TZVP/C def2-TZVP/JK TIGHTSCF
|  2> % maxcore 2000
|  3> % mp2 density relaxed end
|  4> *xyz 0 1
|  5>  O       -0.0439224045    -0.0304034794    -0.0559989228
|  6>  C       -0.0208722733     1.1789792020    -0.0590735284
|  7>  N       -1.1399851922     2.0476262472    -0.0555708167
|  8>  C       -0.6659375139     3.3307203973     0.1110685978
|  9>  C        0.6902424407     3.3487852229     0.0914395056
| 10>  N        1.0975512729     2.0189353809    -0.0502277551
| 11>  C        1.0627479988     4.7247927981     0.0040763354
| 12>  C       -0.1209505916     5.4098210333    -0.0031281585
| 13>  O       -1.2108606501     4.5529222559     0.0347657433
| 14>  H       -2.0599866494     1.6923175100     0.1419558099
| 15>  H        2.0161720900     1.6351585658     0.0869828445
| 16>  H        2.0461261395     5.1658209823    -0.0213701659
| 17>  H       -0.3666398467     6.4566502637     0.0294872308
| 18> *
| 19>
| 20>                          ****END OF INPUT****

CARTESIAN COORDINATES (ANGSTROEM)
---------------------------------
  O     -0.043922   -0.030403   -0.055999
  C     -0.020872    1.178979   -0.059074
  N     -1.139985    2.047626   -0.055571
  C     -0.665938    3.330720    0.111069
  C      0.690242    3.348785    0.091440
  N      1.097551    2.018935   -0.050228
  C      1.062748    4.724793    0.004076
  C     -0.120951    5.409821   -0.003128
  O     -1.210861    4.552922    0.034766
  H     -2.059987    1.692318    0.141956
  H      2.016172    1.635159    0.086983
  H      2.046126    5.165821   -0.021370
  H     -0.366640    6.456650    0.029487

 Total Charge           Charge          ....    0
 Multiplicity           Mult            ....    1
 Number of Electrons    NEL             ....   64
 Basis Dimension        Dim             ....  303

ORBITAL ENERGIES
----------------

  NO   OCC          E(Eh)            E(eV)
   0   2.0000     -20.646806      -561.8281
   1   2.0000     -20.522615      -558.4487
   2   2.0000     -15.621430      -425.0807
   3   2.0000     -15.612765      -424.8449
   4   2.0000     -11.392933      -310.0175
   5   2.0000     -11.330621      -308.3219
   6   2.0000     -11.301570      -307.5314
   7   2.0000     -11.269356      -306.6548
   8   2.0000     -11.260084      -306.4025
   9   2.0000      -1.483175       -40.3592
  10   2.0000      -1.408080       -38.3158
  11   2.0000      -1.311943       -35.6998
  12   2.0000      -1.213885       -33.0315
  13   2.0000      -1.091890       -29.7118
  14   2.0000      -0.997997       -27.1569
  15   2.0000      -0.875825       -23.8324
  16   2.0000      -0.829583       -22.5741
  17   2.0000      -0.813686       -22.1415
  18   2.0000      -0.763780       -20.7835
  19   2.0000      -0.689862       -18.7721
  20   2.0000      -0.684142       -18.6164
  21   2.0000      -0.682961       -18.5843
  22   2.0000      -0.647692       -17.6246
  23   2.0000      -0.619193       -16.8491
  24   2.0000      -0.602985       -16.4080
  25   2.0000      -0.594924       -16.1887
  26   2.0000      -0.556075       -15.1316
  27   2.0000      -0.491906       -13.3855
  28   2.0000      -0.478876       -13.0309
  29   2.0000      -0.452016       -12.3000
  30   2.0000      -0.389479       -10.5982
  31   2.0000      -0.285524        -7.7695
  32   0.0000       0.131650         3.5824
  33   0.0000       0.135836         3.6963
  34   0.0000       0.150778         4.1029
  35   0.0000       0.168177         4.5763
  36   0.0000       0.181529         4.9397

MULLIKEN ATOMIC CHARGES
-----------------------
   0 O :   -0.352576
   1 C :    0.281293
   2 N :   -0.307109
   3 C :    0.236395
   4 C :    0.093796
   5 N :   -0.309801
   6 C :   -0.242609
   7 C :   -0.002654
   8 O :   -0.225368
   9 H :    0.264891
  10 H :    0.258769
  11 H :    0.148345
  12 H :    0.156628
Sum of atomic charges:   -0.0000000

LOEWDIN ATOMIC CHARGES
----------------------
   0 O :    0.062272
   1 C :   -0.489534
   2 N :    0.169682
   3 C :   -0.319536
   4 C :   -0.221865
   5 N :    0.169149
   6 C :   -0.167342
   7 C :   -0.224064
   8 O :    0.348143
   9 H :    0.197678
  10 H :    0.194941
  11 H :    0.146903
  12 H :    0.133573

  Mayer bond orders larger than 0.1
B(  0-O ,  1-C ) :   2.0024 B(  1-C ,  2-N ) :   1.0503 B(  1-C ,  5-N ) :   1.1080
B(  2-N ,  3-C ) :   1.0726 B(  2-N ,  9-H ) :   0.8552 B(  3-C ,  4-C ) :   1.4405
B(  3-C ,  8-O ) :   1.0778 B(  4-C ,  5-N ) :   1.0095 B(  4-C ,  6-C ) :   1.1847
B(  5-N , 10-H ) :   0.8589 B(  6-C ,  7-C ) :   1.5696 B(  6-C , 11-H ) :   0.9199
B(  7-C ,  8-O ) :   0.9929 B(  7-C , 12-H ) :   0.9319

MP2 TOTAL ENERGY:     -452.054756601 Eh
FINAL SINGLE POINT ENERGY      -452.054756601419

DIPOLE MOMENT
-------------
                                X             Y             Z
Electronic contribution:     -1.47127      -1.87112      -0.00975
Nuclear contribution   :      1.75013       3.09565       0.21687
                        -----------------------------------------
Total Dipole Moment    :      0.27886       1.22453       0.20712
                        -----------------------------------------
Magnitude (a.u.)       :      1.27285
Magnitude (Debye)      :      3.23532

                             ****ORCA TERMINATED NORMALLY****
TOTAL RUN TIME: 0 days 0 hours 13 minutes 39 seconds 137 msec
