                         Program Version 3.0.3 - RELEASE   -
|  1> ! RI-MP2 RIJK def2-TZVP def2-TZVP/C def2-TZVP/JK TIGHTSCF
|  2> % maxcore 2000
|  3> % mp2 density relaxed end
|  4> *xyz 0 1
|  5>  C       -0.2444058465     1.4783481995     0.0492495027
|  6>  C       -0.0052696470    -0.0375678980    -0.0231461527
|  7>  O        0.6617340306    -0.4111585623    -1.2257566788
|  8>  C        0.7008671698    -0.5252183406     1.1642196592
|  9>  C        1.3161916249    -0.9093623301     2.1347083958
| 10>  C        2.0027599866    -1.3457180206     3.2232546894
| 11>  C        2.6128117747    -1.7257575801     4.1984685847
| 12>  C        3.3563638505    -2.2407934867     5.3447403067
| 13>  O        2.9508901892    -3.5395699056     5.7494658571
| 14>  H        0.7080802643     2.0137934556     0.1156645763
| 15>  H       -0.7697326807     1.8024430808    -0.8527200851
| 16>  H       -0.8428521777     1.7377702045     0.9271036510
| 17>  H       -0.9769206133    -0.5436205217    -0.0829745443
| 18>  H        1.5683229118    -0.0888118413    -1.1671971555
| 19>  H        4.4344654206    -2.2053670859     5.1175808513
| 20>  H        3.1977397964    -1.5935523949     6.2149665764
| 21>  H        2.9830015657    -4.1096523626     4.9738282059
| 22> *
| 23>
| 24>                          ****END OF INPUT****

CARTESIAN COORDINATES (ANGSTROEM)
---------------------------------
  C     -0.244406    1.478348    0.049250
  C     -0.005270   -0.037568   -0.023146
  O      0.661734   -0.411159   -1.225757
  C      0.700867   -0.525218    1.164220
  C      1.316192   -0.909362    2.134708
  C      2.002760   -1.345718    3.223255
  C      2.612812   -1.725758    4.198469
  C      3.356364   -2.240793    5.344740
  O      2.950890   -3.539570    5.749466
  H      0.708080    2.013793    0.115665
  H     -0.769733    1.802443   -0.852720
  H     -0.842852    1.737770    0.927104
  H     -0.976921   -0.543621   -0.082975
  H      1.568323   -0.088812   -1.167197
  H      4.434465   -2.205367    5.117581
  H      3.197740   -1.593552    6.214967
  H      2.983002   -4.109652    4.973828

 Total Charge           Charge          ....    0
 Multiplicity           Mult            ....    1
 Number of Electrons    NEL             ....   66
 Basis Dimension        Dim             ....  327

ORBITAL ENERGIES
----------------

  NO   OCC          E(Eh)            E(eV)
   0   2.0000     -20.574271      -559.8544
   1   2.0000     -20.570776      -559.7593
   2   2.0000     -11.320399      -308.0437
   3   2.0000     -11.317117      -307.9544
   4   2.0000     -11.259840      -306.3958
   5   2.0000     -11.258057      -306.3473
   6   2.0000     -11.255205      -306.2697
   7   2.0000     -11.253672      -306.2280
   8   2.0000     -11.234194      -305.6980
   9   2.0000      -1.379009       -37.5247
  10   2.0000      -1.377829       -37.4926
  11   2.0000      -1.100551       -29.9475
  12   2.0000      -1.062839       -28.9213
  13   2.0000      -1.016035       -27.6477
  14   2.0000      -0.958161       -26.0729
  15   2.0000      -0.887864       -24.1600
  16   2.0000      -0.816590       -22.2205
  17   2.0000      -0.734580       -19.9889
  18   2.0000      -0.722153       -19.6508
  19   2.0000      -0.669642       -18.2219
  20   2.0000      -0.651015       -17.7150
  21   2.0000      -0.629199       -17.1214
  22   2.0000      -0.627974       -17.0880
  23   2.0000      -0.573890       -15.6163
  24   2.0000      -0.549810       -14.9611
  25   2.0000      -0.546623       -14.8744
  26   2.0000      -0.522962       -14.2305
  27   2.0000      -0.492745       -13.4083
  28   2.0000      -0.487691       -13.2707
  29   2.0000      -0.471116       -12.8197
  30   2.0000      -0.466644       -12.6980
  31   2.0000      -0.355421        -9.6715
  32   2.0000      -0.354104        -9.6356
  33   0.0000       0.101539         2.7630
  34   0.0000       0.109531         2.9805
  35   0.0000       0.128819         3.5054
  36   0.0000       0.140787         3.8310
  37   0.0000       0.166393         4.5278

MULLIKEN ATOMIC CHARGES
-----------------------
   0 C :   -0.354991
   1 C :    0.084652
   2 O :   -0.452919
   3 C :   -0.113478
   4 C :   -0.008052
   5 C :   -0.023197
   6 C :   -0.083390
   7 C :   -0.037071
   8 O :   -0.454989
   9 H :    0.119743
  10 H :    0.145767
  11 H :    0.134205
  12 H :    0.121334
  13 H :    0.318730
  14 H :    0.137863
  15 H :    0.143250
  16 H :    0.322543
Sum of atomic charges:    0.0000000

LOEWDIN ATOMIC CHARGES
----------------------
   0 C :   -0.282327
   1 C :   -0.362334
   2 O :   -0.009638
   3 C :   -0.010404
   4 C :   -0.057408
   5 C :   -0.061385
   6 C :   -0.037560
   7 C :   -0.333394
   8 O :   -0.035976
   9 H :    0.124808
  10 H :    0.128155
  11 H :    0.130490
  12 H :    0.162653
  13 H :    0.178787
  14 H :    0.137472
  15 H :    0.148805
  16 H :    0.179256

  Mayer bond orders larger than 0.1
B(  0-C ,  1-C ) :   0.9745 B(  0-C ,  9-H ) :   0.9195 B(  0-C , 10-H ) :   0.9394
B(  0-C , 11-H ) :   0.9270 B(  1-C ,  2-O ) :   0.9220 B(  1-C ,  3-C ) :   0.9334
B(  1-C , 12-H ) :   0.9059 B(  2-O , 13-H ) :   0.8390 B(  3-C ,  4-C ) :   2.5856
B(  3-C ,  6-C ) :   0.1046 B(  4-C ,  5-C ) :   1.2746 B(  5-C ,  6-C ) :   2.6117
B(  6-C ,  7-C ) :   0.8290 B(  7-C ,  8-O ) :   0.9518 B(  7-C , 14-H ) :   0.9753
B(  7-C , 15-H ) :   0.9199 B(  8-O , 16-H ) :   0.8408

MP2 TOTAL ENERGY:     -421.046184415 Eh
FINAL SINGLE POINT ENERGY      -421.046184415073

DIPOLE MOMENT
-------------
                                X             Y             Z
Electronic contribution:      1.91665      -4.48791       2.52736
Nuclear contribution   :     -1.52034       5.02693      -2.68666
                        -----------------------------------------
Total Dipole Moment    :      0.39632       0.53902      -0.15930
                        -----------------------------------------
Magnitude (a.u.)       :      0.68774
Magnitude (Debye)      :      1.74810

                             ****ORCA TERMINATED NORMALLY****
TOTAL RUN TIME: 0 days 0 hours 11 minutes 26 seconds 679 msec
