                         Program Version 3.0.3 - RELEASE   -
|  1> ! RI-MP2 RIJK def2-TZVP def2-TZVP/C def2-TZVP/JK TIGHTSCF
|  2> % maxcore 2000
|  3> % mp2 density relaxed end
|  4> *xyz 0 1
|  5>  C       -0.6068137773     1.7145335518    -0.5015254757
|  6>  C       -0.4328400549     0.2208132612    -0.2191903859
|  7>  C       -1.7222473353    -0.4696371014     0.2326611869
|  8>  C       -1.5629276910    -1.9903795738     0.4018822115
|  9>  C       -1.3868909893    -2.7613730338    -0.9106065740
| 10>  O       -2.0942600018     0.1247957332     1.4750385512
| 11>  C       -3.4858005169     0.1295148179     1.7842417741
| 12>  C       -3.5982607621     0.1418406112     3.3057237230
| 13>  C       -4.1868916025     1.3315250081     1.1444555634
| 14>  H        0.3439082488     2.1757258546    -0.7862059329
| 15>  H       -1.3153677193     1.8836803372    -1.3206415346
| 16>  H       -0.9869378319     2.2298282903     0.3838010091
| 17>  H       -0.0534246088    -0.2843826687    -1.1143135980
| 18>  H        0.3175726056     0.0747501598     0.5681013598
| 19>  H       -2.5068841482    -0.2782415065    -0.5191507187
| 20>  H       -0.7138270388    -2.1760482842     1.0711980899
| 21>  H       -2.4503992901    -2.3716601618     0.9207066640
| 22>  H       -0.4630293260    -2.4871966792    -1.4288689082
| 23>  H       -1.3501865438    -3.8394793809    -0.7266429782
| 24>  H       -2.2202586728    -2.5717675105    -1.5969277635
| 25>  H       -3.9497877726    -0.7942102215     1.4041417425
| 26>  H       -3.1056371614     1.0311539369     3.7120401550
| 27>  H       -4.6464908397     0.1542285206     3.6196663068
| 28>  H       -3.1137688965    -0.7400318769     3.7331207126
| 29>  H       -3.7657106139     2.2646426998     1.5322100357
| 30>  H       -4.0690605000     1.3303013389     0.0568207745
| 31>  H       -5.2593591794     1.3170979878     1.3656428598
| 32> *
| 33>
| 34>                          ****END OF INPUT****

CARTESIAN COORDINATES (ANGSTROEM)
---------------------------------
  C     -0.606814    1.714534   -0.501525
  C     -0.432840    0.220813   -0.219190
  C     -1.722247   -0.469637    0.232661
  C     -1.562928   -1.990380    0.401882
  C     -1.386891   -2.761373   -0.910607
  O     -2.094260    0.124796    1.475039
  C     -3.485801    0.129515    1.784242
  C     -3.598261    0.141841    3.305724
  C     -4.186892    1.331525    1.144456
  H      0.343908    2.175726   -0.786206
  H     -1.315368    1.883680   -1.320642
  H     -0.986938    2.229828    0.383801
  H     -0.053425   -0.284383   -1.114314
  H      0.317573    0.074750    0.568101
  H     -2.506884   -0.278242   -0.519151
  H     -0.713827   -2.176048    1.071198
  H     -2.450399   -2.371660    0.920707
  H     -0.463029   -2.487197   -1.428869
  H     -1.350187   -3.839479   -0.726643
  H     -2.220259   -2.571768   -1.596928
  H     -3.949788   -0.794210    1.404142
  H     -3.105637    1.031154    3.712040
  H     -4.646491    0.154229    3.619666
  H     -3.113769   -0.740032    3.733121
  H     -3.765711    2.264643    1.532210
  H     -4.069060    1.330301    0.056821
  H     -5.259359    1.317098    1.365643

 Total Charge           Charge          ....    0
 Multiplicity           Mult            ....    1
 Number of Electrons    NEL             ....   74
 Basis Dimension        Dim             ....  387

ORBITAL ENERGIES
----------------

  NO   OCC          E(Eh)            E(eV)
   0   2.0000     -20.539200      -558.9000
   1   2.0000     -11.275236      -306.8148
   2   2.0000     -11.270978      -306.6989
   3   2.0000     -11.215821      -305.1980
   4   2.0000     -11.214602      -305.1648
   5   2.0000     -11.212803      -305.1159
   6   2.0000     -11.210795      -305.0612
   7   2.0000     -11.208370      -304.9952
   8   2.0000     -11.204652      -304.8941
   9   2.0000      -1.361998       -37.0618
  10   2.0000      -1.080454       -29.4006
  11   2.0000      -1.028508       -27.9871
  12   2.0000      -1.011351       -27.5203
  13   2.0000      -0.933020       -25.3888
  14   2.0000      -0.908708       -24.7272
  15   2.0000      -0.836146       -22.7527
  16   2.0000      -0.797963       -21.7137
  17   2.0000      -0.770509       -20.9666
  18   2.0000      -0.675998       -18.3948
  19   2.0000      -0.634490       -17.2654
  20   2.0000      -0.623419       -16.9641
  21   2.0000      -0.600510       -16.3407
  22   2.0000      -0.586554       -15.9610
  23   2.0000      -0.584833       -15.9141
  24   2.0000      -0.560121       -15.2417
  25   2.0000      -0.541879       -14.7453
  26   2.0000      -0.536384       -14.5958
  27   2.0000      -0.526822       -14.3355
  28   2.0000      -0.518669       -14.1137
  29   2.0000      -0.502638       -13.6775
  30   2.0000      -0.496014       -13.4972
  31   2.0000      -0.491435       -13.3726
  32   2.0000      -0.476908       -12.9773
  33   2.0000      -0.469365       -12.7721
  34   2.0000      -0.458354       -12.4724
  35   2.0000      -0.441543       -12.0150
  36   2.0000      -0.400336       -10.8937
  37   0.0000       0.135476         3.6865
  38   0.0000       0.149033         4.0554
  39   0.0000       0.155977         4.2443
  40   0.0000       0.164550         4.4776
  41   0.0000       0.186303         5.0696

MULLIKEN ATOMIC CHARGES
-----------------------
   0 C :   -0.397360
   1 C :   -0.189601
   2 C :    0.054684
   3 C :   -0.163967
   4 C :   -0.423281
   5 O :   -0.314014
   6 C :    0.081847
   7 C :   -0.363932
   8 C :   -0.382159
   9 H :    0.132658
  10 H :    0.112280
  11 H :    0.140145
  12 H :    0.105925
  13 H :    0.108474
  14 H :    0.066834
  15 H :    0.110442
  16 H :    0.106766
  17 H :    0.128537
  18 H :    0.136979
  19 H :    0.123998
  20 H :    0.066235
  21 H :    0.127095
  22 H :    0.117770
  23 H :    0.132160
  24 H :    0.125779
  25 H :    0.126488
  26 H :    0.129218
Sum of atomic charges:    0.0000000

LOEWDIN ATOMIC CHARGES
----------------------
   0 C :   -0.319972
   1 C :   -0.272110
   2 C :   -0.328090
   3 C :   -0.276467
   4 C :   -0.320362
   5 O :    0.199605
   6 C :   -0.377512
   7 C :   -0.294575
   8 C :   -0.300738
   9 H :    0.119881
  10 H :    0.118379
  11 H :    0.123812
  12 H :    0.137931
  13 H :    0.141435
  14 H :    0.137258
  15 H :    0.138743
  16 H :    0.135772
  17 H :    0.118360
  18 H :    0.122351
  19 H :    0.120639
  20 H :    0.132588
  21 H :    0.126012
  22 H :    0.123673
  23 H :    0.123968
  24 H :    0.124983
  25 H :    0.119813
  26 H :    0.124625

  Mayer bond orders larger than 0.1
B(  0-C ,  1-C ) :   0.9228 B(  0-C ,  9-H ) :   0.9398 B(  0-C , 10-H ) :   0.9381
B(  0-C , 11-H ) :   0.9390 B(  1-C ,  2-C ) :   0.9224 B(  1-C , 12-H ) :   0.9325
B(  1-C , 13-H ) :   0.9245 B(  2-C ,  3-C ) :   0.9234 B(  2-C ,  5-O ) :   0.8793
B(  2-C , 14-H ) :   0.9281 B(  3-C ,  4-C ) :   0.9061 B(  3-C , 15-H ) :   0.9315
B(  3-C , 16-H ) :   0.9320 B(  4-C , 17-H ) :   0.9402 B(  4-C , 18-H ) :   0.9402
B(  4-C , 19-H ) :   0.9375 B(  5-O ,  6-C ) :   0.8935 B(  6-C ,  7-C ) :   0.9307
B(  6-C ,  8-C ) :   0.9263 B(  6-C , 20-H ) :   0.9253 B(  7-C , 21-H ) :   0.9333
B(  7-C , 22-H ) :   0.9331 B(  7-C , 23-H ) :   0.9378 B(  8-C , 24-H ) :   0.9340
B(  8-C , 25-H ) :   0.9336 B(  8-C , 26-H ) :   0.9321

MP2 TOTAL ENERGY:     -390.025886312 Eh
FINAL SINGLE POINT ENERGY      -390.025886311907

DIPOLE MOMENT
-------------
                                X             Y             Z
Electronic contribution:      0.63801      -0.09783       2.18378
Nuclear contribution   :     -0.94509      -0.12145      -2.42591
                        -----------------------------------------
Total Dipole Moment    :     -0.30708      -0.21928      -0.24214
                        -----------------------------------------
Magnitude (a.u.)       :      0.44834
Magnitude (Debye)      :      1.13960

                             ****ORCA TERMINATED NORMALLY****
TOTAL RUN TIME: 0 days 0 hours 22 minutes 2 seconds 750 msec
