                         Program Version 3.0.3 - RELEASE   -
|  1> ! RI-MP2 RIJK def2-TZVP def2-TZVP/C def2-TZVP/JK TIGHTSCF
|  2> % maxcore 2000
|  3> % mp2 density relaxed end
|  4> *xyz 0 1
|  5>  C        0.1195583523     1.3673438674    -0.3284496858
|  6>  C        0.1202390332    -0.0827056446     0.1124801755
|  7>  O        0.2541371929    -0.9624972217    -0.9988358476
|  8>  C        1.3172407340    -1.8857038649    -0.7437396984
|  9>  C        2.4897194087    -1.5859819072    -1.6726828357
| 10>  C        1.5768516051    -1.7107438347     0.7793492528
| 11>  C        0.6499529814    -2.6259157765     1.5941966429
| 12>  C        3.0234933774    -1.8631159905     1.2328407605
| 13>  O        1.2123839585    -0.3338323841     0.9634118984
| 14>  H        1.0612478961     1.6060771929    -0.8289239529
| 15>  H       -0.7081002387     1.5424753817    -1.0206950396
| 16>  H       -0.0029823908     2.0231164191     0.5381929886
| 17>  H       -0.8273106509    -0.3239882293     0.6264960900
| 18>  H        0.9388230965    -2.8950687087    -0.9490556330
| 19>  H        2.9212117140    -0.6041197689    -1.4581070516
| 20>  H        3.2755911097    -2.3429552614    -1.5834926912
| 21>  H        2.1354663664    -1.5821941091    -2.7071354318
| 22>  H        0.9674642272    -3.6699016238     1.5068482880
| 23>  H        0.6762201326    -2.3435292990     2.6504830792
| 24>  H       -0.3837062833    -2.5612746970     1.2429577930
| 25>  H        3.6741850039    -1.1501591673     0.7235835018
| 26>  H        3.0954321700    -1.6813581975     2.3090158765
| 27>  H        3.3874588836    -2.8760681648     1.0356417905
| 28> *
| 29>
| 30>                          ****END OF INPUT****

CARTESIAN COORDINATES (ANGSTROEM)
---------------------------------
  C      0.119558    1.367344   -0.328450
  C      0.120239   -0.082706    0.112480
  O      0.254137   -0.962497   -0.998836
  C      1.317241   -1.885704   -0.743740
  C      2.489719   -1.585982   -1.672683
  C      1.576852   -1.710744    0.779349
  C      0.649953   -2.625916    1.594197
  C      3.023493   -1.863116    1.232841
  O      1.212384   -0.333832    0.963412
  H      1.061248    1.606077   -0.828924
  H     -0.708100    1.542475   -1.020695
  H     -0.002982    2.023116    0.538193
  H     -0.827311   -0.323988    0.626496
  H      0.938823   -2.895069   -0.949056
  H      2.921212   -0.604120   -1.458107
  H      3.275591   -2.342955   -1.583493
  H      2.135466   -1.582194   -2.707135
  H      0.967464   -3.669902    1.506848
  H      0.676220   -2.343529    2.650483
  H     -0.383706   -2.561275    1.242958
  H      3.674185   -1.150159    0.723584
  H      3.095432   -1.681358    2.309016
  H      3.387459   -2.876068    1.035642

 Total Charge           Charge          ....    0
 Multiplicity           Mult            ....    1
 Number of Electrons    NEL             ....   72
 Basis Dimension        Dim             ....  363

ORBITAL ENERGIES
----------------

  NO   OCC          E(Eh)            E(eV)
   0   2.0000     -20.556435      -559.3690
   1   2.0000     -20.550978      -559.2205
   2   2.0000     -11.325268      -308.1762
   3   2.0000     -11.290634      -307.2338
   4   2.0000     -11.280889      -306.9686
   5   2.0000     -11.218582      -305.2731
   6   2.0000     -11.218129      -305.2608
   7   2.0000     -11.214454      -305.1608
   8   2.0000     -11.211404      -305.0778
   9   2.0000      -1.431177       -38.9443
  10   2.0000      -1.324694       -36.0468
  11   2.0000      -1.092100       -29.7175
  12   2.0000      -1.000834       -27.2341
  13   2.0000      -0.985503       -26.8169
  14   2.0000      -0.943848       -25.6834
  15   2.0000      -0.865211       -23.5436
  16   2.0000      -0.812126       -22.0991
  17   2.0000      -0.777384       -21.1537
  18   2.0000      -0.704555       -19.1719
  19   2.0000      -0.655639       -17.8408
  20   2.0000      -0.631451       -17.1827
  21   2.0000      -0.623294       -16.9607
  22   2.0000      -0.600597       -16.3431
  23   2.0000      -0.566316       -15.4102
  24   2.0000      -0.563677       -15.3384
  25   2.0000      -0.559830       -15.2337
  26   2.0000      -0.543287       -14.7836
  27   2.0000      -0.533469       -14.5164
  28   2.0000      -0.529369       -14.4048
  29   2.0000      -0.522798       -14.2261
  30   2.0000      -0.509915       -13.8755
  31   2.0000      -0.503288       -13.6952
  32   2.0000      -0.497075       -13.5261
  33   2.0000      -0.454915       -12.3789
  34   2.0000      -0.427696       -11.6382
  35   2.0000      -0.407416       -11.0864
  36   0.0000       0.132937         3.6174
  37   0.0000       0.157981         4.2989
  38   0.0000       0.161674         4.3994
  39   0.0000       0.181757         4.9459
  40   0.0000       0.193686         5.2705

MULLIKEN ATOMIC CHARGES
-----------------------
   0 C :   -0.365135
   1 C :    0.204465
   2 O :   -0.332451
   3 C :    0.121410
   4 C :   -0.444290
   5 C :    0.186769
   6 C :   -0.452768
   7 C :   -0.390527
   8 O :   -0.312978
   9 H :    0.124136
  10 H :    0.131802
  11 H :    0.130715
  12 H :    0.063635
  13 H :    0.093850
  14 H :    0.141211
  15 H :    0.125067
  16 H :    0.144751
  17 H :    0.132172
  18 H :    0.139641
  19 H :    0.148070
  20 H :    0.139332
  21 H :    0.140902
  22 H :    0.130219
Sum of atomic charges:   -0.0000000

LOEWDIN ATOMIC CHARGES
----------------------
   0 C :   -0.290735
   1 C :   -0.418469
   2 O :    0.183769
   3 C :   -0.294417
   4 C :   -0.295078
   5 C :   -0.371523
   6 C :   -0.270848
   7 C :   -0.264868
   8 O :    0.216923
   9 H :    0.125621
  10 H :    0.128852
  11 H :    0.128126
  12 H :    0.121503
  13 H :    0.144412
  14 H :    0.126117
  15 H :    0.124309
  16 H :    0.128621
  17 H :    0.128063
  18 H :    0.128727
  19 H :    0.130199
  20 H :    0.129519
  21 H :    0.131472
  22 H :    0.129702

  Mayer bond orders larger than 0.1
B(  0-C ,  1-C ) :   0.9153 B(  0-C ,  9-H ) :   0.9345 B(  0-C , 10-H ) :   0.9336
B(  0-C , 11-H ) :   0.9345 B(  1-C ,  2-O ) :   0.9404 B(  1-C ,  8-O ) :   0.9777
B(  1-C , 12-H ) :   0.9229 B(  2-O ,  3-C ) :   0.9268 B(  3-C ,  4-C ) :   0.8811
B(  3-C ,  5-C ) :   0.9092 B(  3-C , 13-H ) :   0.9092 B(  4-C , 14-H ) :   0.9447
B(  4-C , 15-H ) :   0.9293 B(  4-C , 16-H ) :   0.9362 B(  5-C ,  6-C ) :   0.9238
B(  5-C ,  7-C ) :   0.8837 B(  5-C ,  8-O ) :   0.9157 B(  6-C , 17-H ) :   0.9317
B(  6-C , 18-H ) :   0.9390 B(  6-C , 19-H ) :   0.9263 B(  7-C , 20-H ) :   0.9360
B(  7-C , 21-H ) :   0.9343 B(  7-C , 22-H ) :   0.9393

MP2 TOTAL ENERGY:     -424.750728580 Eh
FINAL SINGLE POINT ENERGY      -424.750728580162

DIPOLE MOMENT
-------------
                                X             Y             Z
Electronic contribution:     -3.04979       1.44805      -0.47465
Nuclear contribution   :      3.25931      -1.83445       0.61812
                        -----------------------------------------
Total Dipole Moment    :      0.20952      -0.38641       0.14347
                        -----------------------------------------
Magnitude (a.u.)       :      0.46238
Magnitude (Debye)      :      1.17527

                             ****ORCA TERMINATED NORMALLY****
TOTAL RUN TIME: 0 days 0 hours 20 minutes 53 seconds 720 msec
