                         Program Version 3.0.3 - RELEASE   -
|  1> ! RI-MP2 RIJK def2-TZVP def2-TZVP/C def2-TZVP/JK TIGHTSCF
|  2> % maxcore 2000
|  3> % mp2 density relaxed end
|  4> *xyz 0 1
|  5>  C       -0.0089317175     1.5334068534    -0.0846067913
|  6>  C        0.0662301987     0.0060398338    -0.0671991714
|  7>  N        0.8414945750    -0.5300729636    -1.1996118882
|  8>  C        1.7776898099    -1.2449215844    -0.7054066679
|  9>  C        2.7821630206    -1.9567114678    -1.5670893838
| 10>  O        2.5508407109    -1.7012565478    -2.9231240074
| 11>  N        1.7936163568    -1.3229147741     0.6799020030
| 12>  C        0.7538425148    -0.5393197917     1.1901615376
| 13>  N        0.4156118874    -0.2950495384     2.3876424802
| 14>  H        0.9946555676     1.9684811704    -0.0711634880
| 15>  H       -0.5212881582     1.8756055576    -0.9869985610
| 16>  H       -0.5507555357     1.8825560978     0.7976230466
| 17>  H       -0.9513567762    -0.4010864114    -0.1163925962
| 18>  H        3.7953893224    -1.6330125902    -1.2753234237
| 19>  H        2.7274994087    -3.0378053527    -1.3552221983
| 20>  H        1.7700387187    -1.1252964759    -2.9510049260
| 21>  H        2.4875845053    -1.7953796801     1.2352578022
| 22>  H        1.0188334108    -0.7622863549     3.0661389335
| 23> *
| 24>
| 25>                          ****END OF INPUT****

CARTESIAN COORDINATES (ANGSTROEM)
---------------------------------
  C     -0.008932    1.533407   -0.084607
  C      0.066230    0.006040   -0.067199
  N      0.841495   -0.530073   -1.199612
  C      1.777690   -1.244922   -0.705407
  C      2.782163   -1.956711   -1.567089
  O      2.550841   -1.701257   -2.923124
  N      1.793616   -1.322915    0.679902
  C      0.753843   -0.539320    1.190162
  N      0.415612   -0.295050    2.387642
  H      0.994656    1.968481   -0.071163
  H     -0.521288    1.875606   -0.986999
  H     -0.550756    1.882556    0.797623
  H     -0.951357   -0.401086   -0.116393
  H      3.795389   -1.633013   -1.275323
  H      2.727499   -3.037805   -1.355222
  H      1.770039   -1.125296   -2.951005
  H      2.487585   -1.795380    1.235258
  H      1.018833   -0.762286    3.066139

 Total Charge           Charge          ....    0
 Multiplicity           Mult            ....    1
 Number of Electrons    NEL             ....   68
 Basis Dimension        Dim             ....  333

ORBITAL ENERGIES
----------------

  NO   OCC          E(Eh)            E(eV)
   0   2.0000     -20.559400      -559.4497
   1   2.0000     -15.618625      -425.0044
   2   2.0000     -15.555234      -423.2794
   3   2.0000     -15.541520      -422.9063
   4   2.0000     -11.336532      -308.4827
   5   2.0000     -11.331980      -308.3589
   6   2.0000     -11.306571      -307.6674
   7   2.0000     -11.275497      -306.8219
   8   2.0000     -11.221500      -305.3525
   9   2.0000      -1.379929       -37.5498
  10   2.0000      -1.345801       -36.6211
  11   2.0000      -1.217545       -33.1311
  12   2.0000      -1.169093       -31.8126
  13   2.0000      -1.043065       -28.3832
  14   2.0000      -0.978444       -26.6248
  15   2.0000      -0.890480       -24.2312
  16   2.0000      -0.817711       -22.2510
  17   2.0000      -0.791186       -21.5293
  18   2.0000      -0.749089       -20.3838
  19   2.0000      -0.690929       -18.8011
  20   2.0000      -0.672068       -18.2879
  21   2.0000      -0.651053       -17.7161
  22   2.0000      -0.630222       -17.1492
  23   2.0000      -0.608282       -16.5522
  24   2.0000      -0.580458       -15.7951
  25   2.0000      -0.547405       -14.8957
  26   2.0000      -0.533836       -14.5264
  27   2.0000      -0.520230       -14.1562
  28   2.0000      -0.505342       -13.7511
  29   2.0000      -0.475028       -12.9262
  30   2.0000      -0.470382       -12.7998
  31   2.0000      -0.444973       -12.1083
  32   2.0000      -0.420208       -11.4344
  33   2.0000      -0.360699        -9.8151
  34   0.0000       0.109280         2.9737
  35   0.0000       0.132131         3.5955
  36   0.0000       0.154080         4.1927
  37   0.0000       0.162735         4.4283
  38   0.0000       0.180752         4.9185

MULLIKEN ATOMIC CHARGES
-----------------------
   0 C :   -0.382965
   1 C :    0.134181
   2 N :   -0.352011
   3 C :    0.206297
   4 C :   -0.020634
   5 O :   -0.479043
   6 N :   -0.319271
   7 C :    0.014066
   8 N :   -0.362389
   9 H :    0.122850
  10 H :    0.141454
  11 H :    0.148948
  12 H :    0.128405
  13 H :    0.114172
  14 H :    0.116198
  15 H :    0.341202
  16 H :    0.242134
  17 H :    0.206406
Sum of atomic charges:   -0.0000000

LOEWDIN ATOMIC CHARGES
----------------------
   0 C :   -0.276010
   1 C :   -0.252299
   2 N :    0.095713
   3 C :   -0.325466
   4 C :   -0.318512
   5 O :   -0.030551
   6 N :    0.153038
   7 C :   -0.329607
   8 N :   -0.064455
   9 H :    0.126643
  10 H :    0.127822
  11 H :    0.133942
  12 H :    0.164180
  13 H :    0.132436
  14 H :    0.133036
  15 H :    0.182141
  16 H :    0.187952
  17 H :    0.159997

  Mayer bond orders larger than 0.1
B(  0-C ,  1-C ) :   0.9212 B(  0-C ,  9-H ) :   0.9287 B(  0-C , 10-H ) :   0.9361
B(  0-C , 11-H ) :   0.9290 B(  1-C ,  2-N ) :   0.9333 B(  1-C ,  7-C ) :   0.8711
B(  1-C , 12-H ) :   0.9055 B(  2-N ,  3-C ) :   1.7211 B(  3-C ,  4-C ) :   0.9199
B(  3-C ,  6-N ) :   1.0441 B(  4-C ,  5-O ) :   1.0325 B(  4-C , 13-H ) :   0.9198
B(  4-C , 14-H ) :   0.9175 B(  5-O , 15-H ) :   0.8015 B(  6-N ,  7-C ) :   1.0484
B(  6-N , 16-H ) :   0.8648 B(  7-C ,  8-N ) :   2.0844 B(  8-N , 17-H ) :   0.8525

MP2 TOTAL ENERGY:     -434.574519581 Eh
FINAL SINGLE POINT ENERGY      -434.574519581214

DIPOLE MOMENT
-------------
                                X             Y             Z
Electronic contribution:      1.06879      -3.36225      -0.04434
Nuclear contribution   :     -0.43280       2.90764       0.88506
                        -----------------------------------------
Total Dipole Moment    :      0.63599      -0.45461       0.84072
                        -----------------------------------------
Magnitude (a.u.)       :      1.14802
Magnitude (Debye)      :      2.91803

                             ****ORCA TERMINATED NORMALLY****
TOTAL RUN TIME: 0 days 0 hours 16 minutes 27 seconds 89 msec
