                         Program Version 3.0.3 - RELEASE   -
|  1> ! RI-MP2 RIJK def2-TZVP def2-TZVP/C def2-TZVP/JK TIGHTSCF
|  2> % maxcore 2000
|  3> % mp2 density relaxed end
|  4> *xyz 0 1
|  5>  C       -0.5006345090     1.4625858884     0.2573075797
|  6>  C       -0.0612638697     0.0408805734     0.0075738920
|  7>  C       -0.8238955214    -1.1099837875     0.5620819750
|  8>  N        0.4758510290    -0.7303784333     1.1541829533
|  9>  C        1.6092474142    -1.5185678352     0.6536150828
| 10>  C        1.6023015962    -1.5103609861    -0.9026409319
| 11>  C        3.0063289271    -1.5166898287    -1.5090742203
| 12>  O        0.8519057763    -2.6172056945    -1.4298685586
| 13>  C        0.7866038315    -0.2411815750    -1.2289999720
| 14>  H        0.3573328171     2.1449936511     0.2622775898
| 15>  H       -1.1925614080     1.8002011389    -0.5228898798
| 16>  H       -1.0059920509     1.5469950488     1.2227226135
| 17>  H       -1.6744473733    -0.9165741631     1.2111614500
| 18>  H       -0.8809912166    -2.0205703436    -0.0244933703
| 19>  H        2.5275498304    -1.0498199651     1.0268717620
| 20>  H        1.5770093271    -2.5412441749     1.0478807400
| 21>  H        3.5535780675    -2.4199774236    -1.2119743084
| 22>  H        2.9474102945    -1.5030207091    -2.6011974894
| 23>  H        3.5895999988    -0.6521316376    -1.1779101232
| 24>  H        1.3036891285    -3.4272668826    -1.1691501251
| 25>  H        0.1955796468    -0.3943752546    -2.1359532066
| 26>  H        1.4595556741     0.6050798138    -1.4074234924
| 27> *
| 28>
| 29>                          ****END OF INPUT****

CARTESIAN COORDINATES (ANGSTROEM)
---------------------------------
  C     -0.500635    1.462586    0.257308
  C     -0.061264    0.040881    0.007574
  C     -0.823896   -1.109984    0.562082
  N      0.475851   -0.730378    1.154183
  C      1.609247   -1.518568    0.653615
  C      1.602302   -1.510361   -0.902641
  C      3.006329   -1.516690   -1.509074
  O      0.851906   -2.617206   -1.429869
  C      0.786604   -0.241182   -1.229000
  H      0.357333    2.144994    0.262278
  H     -1.192561    1.800201   -0.522890
  H     -1.005992    1.546995    1.222723
  H     -1.674447   -0.916574    1.211161
  H     -0.880991   -2.020570   -0.024493
  H      2.527550   -1.049820    1.026872
  H      1.577009   -2.541244    1.047881
  H      3.553578   -2.419977   -1.211974
  H      2.947410   -1.503021   -2.601197
  H      3.589600   -0.652132   -1.177910
  H      1.303689   -3.427267   -1.169150
  H      0.195580   -0.394375   -2.135953
  H      1.459556    0.605080   -1.407423

 Total Charge           Charge          ....    0
 Multiplicity           Mult            ....    1
 Number of Electrons    NEL             ....   70
 Basis Dimension        Dim             ....  357

ORBITAL ENERGIES
----------------

  NO   OCC          E(Eh)            E(eV)
   0   2.0000     -20.556194      -559.3625
   1   2.0000     -15.547839      -423.0782
   2   2.0000     -11.289179      -307.1942
   3   2.0000     -11.255914      -306.2890
   4   2.0000     -11.247140      -306.0502
   5   2.0000     -11.236815      -305.7693
   6   2.0000     -11.222832      -305.3888
   7   2.0000     -11.222394      -305.3769
   8   2.0000     -11.213549      -305.1362
   9   2.0000      -1.365245       -37.1502
  10   2.0000      -1.270392       -34.5691
  11   2.0000      -1.057418       -28.7738
  12   2.0000      -1.021298       -27.7909
  13   2.0000      -0.949043       -25.8248
  14   2.0000      -0.937041       -25.4982
  15   2.0000      -0.834696       -22.7132
  16   2.0000      -0.775798       -21.1105
  17   2.0000      -0.746755       -20.3202
  18   2.0000      -0.679137       -18.4803
  19   2.0000      -0.662768       -18.0348
  20   2.0000      -0.632421       -17.2091
  21   2.0000      -0.607927       -16.5425
  22   2.0000      -0.590357       -16.0644
  23   2.0000      -0.572621       -15.5818
  24   2.0000      -0.563442       -15.3320
  25   2.0000      -0.558924       -15.2091
  26   2.0000      -0.535514       -14.5721
  27   2.0000      -0.527741       -14.3606
  28   2.0000      -0.516471       -14.0539
  29   2.0000      -0.502909       -13.6849
  30   2.0000      -0.464808       -12.6481
  31   2.0000      -0.449670       -12.2362
  32   2.0000      -0.434146       -11.8137
  33   2.0000      -0.423226       -11.5166
  34   2.0000      -0.357687        -9.7331
  35   0.0000       0.123256         3.3540
  36   0.0000       0.152665         4.1542
  37   0.0000       0.171690         4.6719
  38   0.0000       0.186832         5.0840
  39   0.0000       0.192646         5.2422

MULLIKEN ATOMIC CHARGES
-----------------------
   0 C :   -0.449127
   1 C :    0.152503
   2 C :   -0.198721
   3 N :   -0.240270
   4 C :   -0.197429
   5 C :    0.244407
   6 C :   -0.431468
   7 O :   -0.477802
   8 C :   -0.241350
   9 H :    0.123730
  10 H :    0.129577
  11 H :    0.141336
  12 H :    0.118874
  13 H :    0.140031
  14 H :    0.117366
  15 H :    0.108623
  16 H :    0.124481
  17 H :    0.147767
  18 H :    0.128191
  19 H :    0.311453
  20 H :    0.128369
  21 H :    0.119459
Sum of atomic charges:    0.0000000

LOEWDIN ATOMIC CHARGES
----------------------
   0 C :   -0.269587
   1 C :   -0.299248
   2 C :   -0.222094
   3 N :    0.119783
   4 C :   -0.247431
   5 C :   -0.381366
   6 C :   -0.284242
   7 O :   -0.003890
   8 C :   -0.173783
   9 H :    0.125732
  10 H :    0.127870
  11 H :    0.131778
  12 H :    0.125231
  13 H :    0.131819
  14 H :    0.137753
  15 H :    0.131263
  16 H :    0.123653
  17 H :    0.129773
  18 H :    0.127166
  19 H :    0.171535
  20 H :    0.150383
  21 H :    0.147903

  Mayer bond orders larger than 0.1
B(  0-C ,  1-C ) :   0.8768 B(  0-C ,  9-H ) :   0.9403 B(  0-C , 10-H ) :   0.9411
B(  0-C , 11-H ) :   0.9418 B(  1-C ,  2-C ) :   0.9381 B(  1-C ,  3-N ) :   0.8117
B(  1-C ,  8-C ) :   0.9721 B(  2-C ,  3-N ) :   0.8956 B(  2-C , 12-H ) :   0.9156
B(  2-C , 13-H ) :   0.8977 B(  3-N ,  4-C ) :   0.9564 B(  4-C ,  5-C ) :   0.9448
B(  4-C , 14-H ) :   0.9215 B(  4-C , 15-H ) :   0.9247 B(  5-C ,  6-C ) :   0.8970
B(  5-C ,  7-O ) :   0.8971 B(  5-C ,  8-C ) :   0.8849 B(  6-C , 16-H ) :   0.9282
B(  6-C , 17-H ) :   0.9453 B(  6-C , 18-H ) :   0.9323 B(  7-O , 19-H ) :   0.8427
B(  8-C , 20-H ) :   0.9035 B(  8-C , 21-H ) :   0.9234

MP2 TOTAL ENERGY:     -403.659336531 Eh
FINAL SINGLE POINT ENERGY      -403.659336530866

DIPOLE MOMENT
-------------
                                X             Y             Z
Electronic contribution:     -1.82171      -2.79888       1.16263
Nuclear contribution   :      2.31711       2.60314      -1.48888
                        -----------------------------------------
Total Dipole Moment    :      0.49540      -0.19574      -0.32625
                        -----------------------------------------
Magnitude (a.u.)       :      0.62464
Magnitude (Debye)      :      1.58770

                             ****ORCA TERMINATED NORMALLY****
TOTAL RUN TIME: 0 days 0 hours 19 minutes 46 seconds 794 msec
