                         Program Version 3.0.3 - RELEASE   -
|  1> ! RI-MP2 RIJK def2-TZVP def2-TZVP/C def2-TZVP/JK TIGHTSCF
|  2> % maxcore 2000
|  3> % mp2 density relaxed end
|  4> *xyz 0 1
|  5>  N        0.2940114693     0.9950280572    -1.1571670442
|  6>  C        0.0907812820     0.0651778935    -0.3286158117
|  7>  O        1.0317539696    -0.3878078307     0.5422679102
|  8>  C        0.5826023896    -1.3770872820     1.4786326638
|  9>  C       -0.1017298992    -2.5245855219     0.7496517903
| 10>  O       -1.0546956361    -2.0744528801    -0.2113476290
| 11>  C       -1.2478802313    -0.6663466680    -0.2851526938
| 12>  C       -2.1199230498    -0.1529564732     0.7806159906
| 13>  C       -2.8449754578     0.2576392223     1.6468284079
| 14>  H        1.2381347525     1.3716372390    -1.0472637637
| 15>  H        1.4749045894    -1.7316901880     1.9984132214
| 16>  H       -0.0871879598    -0.9113785614     2.2082243553
| 17>  H        0.6453136797    -3.1199239789     0.2105364566
| 18>  H       -0.5990174913    -3.1755272991     1.4806065998
| 19>  H       -1.7271602940    -0.4840155180    -1.2495452054
| 20>  H       -3.4903025727     0.6264548494     2.4059463219
| 21> *
| 22>
| 23>                          ****END OF INPUT****

CARTESIAN COORDINATES (ANGSTROEM)
---------------------------------
  N      0.294011    0.995028   -1.157167
  C      0.090781    0.065178   -0.328616
  O      1.031754   -0.387808    0.542268
  C      0.582602   -1.377087    1.478633
  C     -0.101730   -2.524586    0.749652
  O     -1.054696   -2.074453   -0.211348
  C     -1.247880   -0.666347   -0.285153
  C     -2.119923   -0.152956    0.780616
  C     -2.844975    0.257639    1.646828
  H      1.238135    1.371637   -1.047264
  H      1.474905   -1.731690    1.998413
  H     -0.087188   -0.911379    2.208224
  H      0.645314   -3.119924    0.210536
  H     -0.599017   -3.175527    1.480607
  H     -1.727160   -0.484016   -1.249545
  H     -3.490303    0.626455    2.405946

 Total Charge           Charge          ....    0
 Multiplicity           Mult            ....    1
 Number of Electrons    NEL             ....   66
 Basis Dimension        Dim             ....  321

ORBITAL ENERGIES
----------------

  NO   OCC          E(Eh)            E(eV)
   0   2.0000     -20.606576      -560.7334
   1   2.0000     -20.582230      -560.0709
   2   2.0000     -15.542139      -422.9231
   3   2.0000     -11.349204      -308.8276
   4   2.0000     -11.333050      -308.3880
   5   2.0000     -11.306608      -307.6685
   6   2.0000     -11.299193      -307.4667
   7   2.0000     -11.249744      -306.1211
   8   2.0000     -11.243389      -305.9482
   9   2.0000      -1.448253       -39.4090
  10   2.0000      -1.392053       -37.8797
  11   2.0000      -1.209776       -32.9197
  12   2.0000      -1.077266       -29.3139
  13   2.0000      -1.034011       -28.1369
  14   2.0000      -0.975101       -26.5339
  15   2.0000      -0.889249       -24.1977
  16   2.0000      -0.790200       -21.5024
  17   2.0000      -0.753338       -20.4994
  18   2.0000      -0.725655       -19.7461
  19   2.0000      -0.709793       -19.3144
  20   2.0000      -0.705074       -19.1860
  21   2.0000      -0.651280       -17.7222
  22   2.0000      -0.631681       -17.1889
  23   2.0000      -0.598149       -16.2765
  24   2.0000      -0.591145       -16.0859
  25   2.0000      -0.584222       -15.8975
  26   2.0000      -0.530960       -14.4481
  27   2.0000      -0.498470       -13.5641
  28   2.0000      -0.464623       -12.6430
  29   2.0000      -0.442547       -12.0423
  30   2.0000      -0.412565       -11.2265
  31   2.0000      -0.405148       -11.0246
  32   2.0000      -0.400561       -10.8998
  33   0.0000       0.135933         3.6989
  34   0.0000       0.144158         3.9227
  35   0.0000       0.149967         4.0808
  36   0.0000       0.156528         4.2594
  37   0.0000       0.169492         4.6121

MULLIKEN ATOMIC CHARGES
-----------------------
   0 N :   -0.370036
   1 C :    0.112701
   2 O :   -0.255374
   3 C :   -0.115026
   4 C :   -0.045956
   5 O :   -0.309647
   6 C :    0.211668
   7 C :   -0.150343
   8 C :   -0.161050
   9 H :    0.223416
  10 H :    0.145845
  11 H :    0.143602
  12 H :    0.116094
  13 H :    0.114623
  14 H :    0.143233
  15 H :    0.196251
Sum of atomic charges:   -0.0000000

LOEWDIN ATOMIC CHARGES
----------------------
   0 N :   -0.040256
   1 C :   -0.386435
   2 O :    0.245006
   3 C :   -0.287218
   4 C :   -0.303640
   5 O :    0.187476
   6 C :   -0.275678
   7 C :   -0.080330
   8 C :   -0.077653
   9 H :    0.170001
  10 H :    0.138853
  11 H :    0.135155
  12 H :    0.130709
  13 H :    0.132616
  14 H :    0.181491
  15 H :    0.129902

  Mayer bond orders larger than 0.1
B(  0-N ,  1-C ) :   2.0596 B(  0-N ,  9-H ) :   0.8542 B(  1-C ,  2-O ) :   1.1025
B(  1-C ,  6-C ) :   0.8846 B(  2-O ,  3-C ) :   0.8670 B(  3-C ,  4-C ) :   0.9528
B(  3-C , 10-H ) :   0.9178 B(  3-C , 11-H ) :   0.9290 B(  4-C ,  5-O ) :   0.9275
B(  4-C , 12-H ) :   0.9255 B(  4-C , 13-H ) :   0.9187 B(  5-O ,  6-C ) :   0.9072
B(  6-C ,  7-C ) :   1.1019 B(  6-C , 14-H ) :   0.8873 B(  7-C ,  8-C ) :   2.6098
B(  8-C , 15-H ) :   0.8980

MP2 TOTAL ENERGY:     -437.113032852 Eh
FINAL SINGLE POINT ENERGY      -437.113032852453

DIPOLE MOMENT
-------------
                                X             Y             Z
Electronic contribution:     -0.86128       1.93210      -2.14052
Nuclear contribution   :      1.12589      -2.47091       3.32883
                        -----------------------------------------
Total Dipole Moment    :      0.26461      -0.53881       1.18830
                        -----------------------------------------
Magnitude (a.u.)       :      1.33132
Magnitude (Debye)      :      3.38394

                             ****ORCA TERMINATED NORMALLY****
TOTAL RUN TIME: 0 days 0 hours 15 minutes 36 seconds 579 msec
