                         Program Version 3.0.3 - RELEASE   -
|  1> ! RI-MP2 RIJK def2-TZVP def2-TZVP/C def2-TZVP/JK TIGHTSCF
|  2> % maxcore 2000
|  3> % mp2 density relaxed end
|  4> *xyz 0 1
|  5>  C       -0.1126898906     1.6268033671    -0.1495054386
|  6>  C        1.4441507319     1.6439124051     0.0526375863
|  7>  C        1.3305308556     0.1639983616     0.5498125762
|  8>  C       -0.1447242854     0.0672297641     0.0503206984
|  9>  C       -0.3448396308    -0.8051624814    -1.2344794563
| 10>  C        0.3399839852    -0.0388343063    -2.3233150723
| 11>  C        1.6670117884     0.0793570110    -2.3985105139
| 12>  C        2.2704316415     1.4417614030    -2.5360812233
| 13>  C        2.4526713957     2.0008357638    -1.0784958347
| 14>  H       -0.6158972845     2.1396208754     0.6752151398
| 15>  H       -0.5120273940     2.0326013630    -1.0795257722
| 16>  H        1.7226888693     2.3112781823     0.8751730265
| 17>  H        2.0398248546    -0.5583350868     0.1400113475
| 18>  H        1.3893093800     0.1011892009     1.6406781514
| 19>  H       -0.8500395641    -0.2658810778     0.8183075525
| 20>  H        0.1028059860    -1.7905558955    -1.0589267138
| 21>  H       -1.4123164732    -0.9540821736    -1.4306942949
| 22>  H       -0.2540089373     0.7630552614    -2.7598313462
| 23>  H        2.3032195501    -0.6964649981    -1.9740046956
| 24>  H        3.2417550107     1.4704391382    -3.0431761927
| 25>  H        1.5884462981     2.0929321506    -3.0943716144
| 26>  H        2.5184402916     3.0944467332    -1.1469044825
| 27>  H        3.4333969712     1.6704489689    -0.7102278672
| 28> *
| 29>
| 30>                          ****END OF INPUT****

CARTESIAN COORDINATES (ANGSTROEM)
---------------------------------
  C     -0.112690    1.626803   -0.149505
  C      1.444151    1.643912    0.052638
  C      1.330531    0.163998    0.549813
  C     -0.144724    0.067230    0.050321
  C     -0.344840   -0.805162   -1.234479
  C      0.339984   -0.038834   -2.323315
  C      1.667012    0.079357   -2.398511
  C      2.270432    1.441761   -2.536081
  C      2.452671    2.000836   -1.078496
  H     -0.615897    2.139621    0.675215
  H     -0.512027    2.032601   -1.079526
  H      1.722689    2.311278    0.875173
  H      2.039825   -0.558335    0.140011
  H      1.389309    0.101189    1.640678
  H     -0.850040   -0.265881    0.818308
  H      0.102806   -1.790556   -1.058927
  H     -1.412316   -0.954082   -1.430694
  H     -0.254009    0.763055   -2.759831
  H      2.303220   -0.696465   -1.974005
  H      3.241755    1.470439   -3.043176
  H      1.588446    2.092932   -3.094372
  H      2.518440    3.094447   -1.146904
  H      3.433397    1.670449   -0.710228

 Total Charge           Charge          ....    0
 Multiplicity           Mult            ....    1
 Number of Electrons    NEL             ....   68
 Basis Dimension        Dim             ....  363

ORBITAL ENERGIES
----------------

  NO   OCC          E(Eh)            E(eV)
   0   2.0000     -11.226016      -305.4754
   1   2.0000     -11.225038      -305.4488
   2   2.0000     -11.223989      -305.4203
   3   2.0000     -11.223515      -305.4074
   4   2.0000     -11.223261      -305.4005
   5   2.0000     -11.215716      -305.1951
   6   2.0000     -11.215586      -305.1916
   7   2.0000     -11.213673      -305.1395
   8   2.0000     -11.212524      -305.1083
   9   2.0000      -1.139034       -30.9947
  10   2.0000      -1.068276       -29.0693
  11   2.0000      -1.035477       -28.1768
  12   2.0000      -0.920042       -25.0356
  13   2.0000      -0.895860       -24.3776
  14   2.0000      -0.893271       -24.3071
  15   2.0000      -0.771740       -21.0001
  16   2.0000      -0.748777       -20.3752
  17   2.0000      -0.711611       -19.3639
  18   2.0000      -0.659950       -17.9582
  19   2.0000      -0.630178       -17.1480
  20   2.0000      -0.625308       -17.0155
  21   2.0000      -0.586241       -15.9524
  22   2.0000      -0.567223       -15.4349
  23   2.0000      -0.536973       -14.6118
  24   2.0000      -0.530611       -14.4386
  25   2.0000      -0.528092       -14.3701
  26   2.0000      -0.518073       -14.0975
  27   2.0000      -0.494982       -13.4691
  28   2.0000      -0.471994       -12.8436
  29   2.0000      -0.445076       -12.1111
  30   2.0000      -0.427182       -11.6242
  31   2.0000      -0.415220       -11.2987
  32   2.0000      -0.411927       -11.2091
  33   2.0000      -0.324568        -8.8319
  34   0.0000       0.134923         3.6714
  35   0.0000       0.140883         3.8336
  36   0.0000       0.153528         4.1777
  37   0.0000       0.157974         4.2987
  38   0.0000       0.165011         4.4902

MULLIKEN ATOMIC CHARGES
-----------------------
   0 C :   -0.302490
   1 C :    0.020995
   2 C :   -0.315573
   3 C :    0.035171
   4 C :   -0.251427
   5 C :   -0.164905
   6 C :   -0.123870
   7 C :   -0.219044
   8 C :   -0.272154
   9 H :    0.118266
  10 H :    0.118100
  11 H :    0.099114
  12 H :    0.115183
  13 H :    0.118192
  14 H :    0.100241
  15 H :    0.119232
  16 H :    0.118558
  17 H :    0.108438
  18 H :    0.110153
  19 H :    0.121505
  20 H :    0.112265
  21 H :    0.119507
  22 H :    0.114542
Sum of atomic charges:    0.0000000

LOEWDIN ATOMIC CHARGES
----------------------
   0 C :   -0.201114
   1 C :   -0.220114
   2 C :   -0.205037
   3 C :   -0.206505
   4 C :   -0.238184
   5 C :   -0.175994
   6 C :   -0.173740
   7 C :   -0.255540
   8 C :   -0.237487
   9 H :    0.132729
  10 H :    0.126502
  11 H :    0.144575
  12 H :    0.126294
  13 H :    0.132982
  14 H :    0.135425
  15 H :    0.144420
  16 H :    0.136481
  17 H :    0.140462
  18 H :    0.138984
  19 H :    0.133958
  20 H :    0.141278
  21 H :    0.137927
  22 H :    0.141698

  Mayer bond orders larger than 0.1
B(  0-C ,  1-C ) :   0.9030 B(  0-C ,  3-C ) :   0.9004 B(  0-C ,  9-H ) :   0.9169
B(  0-C , 10-H ) :   0.9276 B(  1-C ,  2-C ) :   0.8933 B(  1-C ,  8-C ) :   0.8956
B(  1-C , 11-H ) :   0.9262 B(  2-C ,  3-C ) :   0.9000 B(  2-C , 12-H ) :   0.9331
B(  2-C , 13-H ) :   0.9136 B(  3-C ,  4-C ) :   0.8880 B(  3-C , 14-H ) :   0.9224
B(  4-C ,  5-C ) :   0.9359 B(  4-C , 15-H ) :   0.9270 B(  4-C , 16-H ) :   0.9297
B(  5-C ,  6-C ) :   1.7663 B(  5-C , 17-H ) :   0.9390 B(  6-C ,  7-C ) :   0.9217
B(  6-C , 18-H ) :   0.9345 B(  7-C ,  8-C ) :   0.9113 B(  7-C , 19-H ) :   0.9335
B(  7-C , 20-H ) :   0.9273 B(  8-C , 21-H ) :   0.9310 B(  8-C , 22-H ) :   0.9339

MP2 TOTAL ENERGY:     -350.472382458 Eh
FINAL SINGLE POINT ENERGY      -350.472382457813

DIPOLE MOMENT
-------------
                                X             Y             Z
Electronic contribution:     -0.68275      -1.29574      -1.28166
Nuclear contribution   :      0.70306       1.49165       1.62392
                        -----------------------------------------
Total Dipole Moment    :      0.02031       0.19591       0.34226
                        -----------------------------------------
Magnitude (a.u.)       :      0.39489
Magnitude (Debye)      :      1.00372

                             ****ORCA TERMINATED NORMALLY****
TOTAL RUN TIME: 0 days 0 hours 22 minutes 33 seconds 397 msec
