                         Program Version 3.0.3 - RELEASE   -
|  1> ! RI-MP2 RIJK def2-TZVP def2-TZVP/C def2-TZVP/JK TIGHTSCF
|  2> % maxcore 2000
|  3> % mp2 density relaxed end
|  4> *xyz 0 1
|  5>  C       -0.0916477649     1.5871101562     0.0485781691
|  6>  C        0.0088980820     0.0819127484    -0.0327899951
|  7>  O       -1.1150043333    -0.6057455479     0.4225835677
|  8>  C        0.6585526413    -0.6259567222    -1.1967780494
|  9>  C        1.2584172733     0.1117216506    -2.3443456724
| 10>  O        1.0951609246    -0.2221619499    -3.4902005651
| 11>  C        1.3386510927    -0.6293621728     0.1909475422
| 12>  C        2.5453722243     0.1125648019     0.4170959237
| 13>  N        3.5048163181     0.7285135284     0.6169706550
| 14>  H        0.8199509244     2.0845068861    -0.2872043568
| 15>  H       -0.9321907787     1.9379733422    -0.5563260947
| 16>  H       -0.2636723215     1.8914805328     1.0875757251
| 17>  H       -1.3095708023    -0.3069872213     1.3190640875
| 18>  H        0.1895434234    -1.5632369068    -1.4738550777
| 19>  H        1.8789236710     0.9940467741    -2.0817714425
| 20>  H        1.2781682155    -1.5763486499     0.7156677636
| 21> *
| 22>
| 23>                          ****END OF INPUT****

CARTESIAN COORDINATES (ANGSTROEM)
---------------------------------
  C     -0.091648    1.587110    0.048578
  C      0.008898    0.081913   -0.032790
  O     -1.115004   -0.605746    0.422584
  C      0.658553   -0.625957   -1.196778
  C      1.258417    0.111722   -2.344346
  O      1.095161   -0.222162   -3.490201
  C      1.338651   -0.629362    0.190948
  C      2.545372    0.112565    0.417096
  N      3.504816    0.728514    0.616971
  H      0.819951    2.084507   -0.287204
  H     -0.932191    1.937973   -0.556326
  H     -0.263672    1.891481    1.087576
  H     -1.309571   -0.306987    1.319064
  H      0.189543   -1.563237   -1.473855
  H      1.878924    0.994047   -2.081771
  H      1.278168   -1.576349    0.715668

 Total Charge           Charge          ....    0
 Multiplicity           Mult            ....    1
 Number of Electrons    NEL             ....   66
 Basis Dimension        Dim             ....  321

ORBITAL ENERGIES
----------------

  NO   OCC          E(Eh)            E(eV)
   0   2.0000     -20.604283      -560.6710
   1   2.0000     -20.572060      -559.7942
   2   2.0000     -15.587159      -424.1482
   3   2.0000     -11.351614      -308.8931
   4   2.0000     -11.351495      -308.8899
   5   2.0000     -11.306699      -307.6709
   6   2.0000     -11.292851      -307.2941
   7   2.0000     -11.283250      -307.0328
   8   2.0000     -11.259176      -306.3778
   9   2.0000      -1.421681       -38.6859
  10   2.0000      -1.410704       -38.3872
  11   2.0000      -1.240580       -33.7579
  12   2.0000      -1.189616       -32.3711
  13   2.0000      -1.019958       -27.7545
  14   2.0000      -0.963515       -26.2186
  15   2.0000      -0.892648       -24.2902
  16   2.0000      -0.794223       -21.6119
  17   2.0000      -0.749584       -20.3972
  18   2.0000      -0.730121       -19.8676
  19   2.0000      -0.697527       -18.9807
  20   2.0000      -0.654956       -17.8223
  21   2.0000      -0.632561       -17.2129
  22   2.0000      -0.622946       -16.9512
  23   2.0000      -0.598580       -16.2882
  24   2.0000      -0.584192       -15.8967
  25   2.0000      -0.569313       -15.4918
  26   2.0000      -0.562976       -15.3193
  27   2.0000      -0.542026       -14.7493
  28   2.0000      -0.516956       -14.0671
  29   2.0000      -0.498339       -13.5605
  30   2.0000      -0.454522       -12.3682
  31   2.0000      -0.444047       -12.0831
  32   2.0000      -0.415641       -11.3102
  33   0.0000       0.102862         2.7990
  34   0.0000       0.111624         3.0374
  35   0.0000       0.141366         3.8468
  36   0.0000       0.147936         4.0255
  37   0.0000       0.158561         4.3147

MULLIKEN ATOMIC CHARGES
-----------------------
   0 C :   -0.401095
   1 C :    0.164631
   2 O :   -0.434520
   3 C :   -0.044535
   4 C :    0.052160
   5 O :   -0.249049
   6 C :   -0.046610
   7 C :   -0.214661
   8 N :   -0.047185
   9 H :    0.145301
  10 H :    0.164709
  11 H :    0.136437
  12 H :    0.327996
  13 H :    0.163677
  14 H :    0.106314
  15 H :    0.176431
Sum of atomic charges:   -0.0000000

LOEWDIN ATOMIC CHARGES
----------------------
   0 C :   -0.257186
   1 C :   -0.336074
   2 O :    0.048530
   3 C :   -0.134087
   4 C :   -0.272933
   5 O :    0.148134
   6 C :   -0.154909
   7 C :   -0.184860
   8 N :    0.069229
   9 H :    0.138675
  10 H :    0.138962
  11 H :    0.134299
  12 H :    0.188662
  13 H :    0.171596
  14 H :    0.123262
  15 H :    0.178701

  Mayer bond orders larger than 0.1
B(  0-C ,  1-C ) :   0.9660 B(  0-C ,  9-H ) :   0.9208 B(  0-C , 10-H ) :   0.9326
B(  0-C , 11-H ) :   0.9151 B(  1-C ,  2-O ) :   1.0303 B(  1-C ,  3-C ) :   0.8130
B(  1-C ,  6-C ) :   0.8090 B(  2-O , 12-H ) :   0.8323 B(  3-C ,  4-C ) :   0.8653
B(  3-C ,  6-C ) :   0.7989 B(  3-C , 13-H ) :   0.9047 B(  4-C ,  5-O ) :   1.9863
B(  4-C , 14-H ) :   0.9485 B(  6-C ,  7-C ) :   0.9227 B(  6-C , 15-H ) :   0.9034
B(  7-C ,  8-N ) :   2.8274

MP2 TOTAL ENERGY:     -437.170381798 Eh
FINAL SINGLE POINT ENERGY      -437.170381797895

DIPOLE MOMENT
-------------
                                X             Y             Z
Electronic contribution:      3.52593      -2.80949      -1.68393
Nuclear contribution   :     -4.70847       2.81125       2.81054
                        -----------------------------------------
Total Dipole Moment    :     -1.18253       0.00176       1.12662
                        -----------------------------------------
Magnitude (a.u.)       :      1.63330
Magnitude (Debye)      :      4.15151

                             ****ORCA TERMINATED NORMALLY****
TOTAL RUN TIME: 0 days 0 hours 17 minutes 15 seconds 312 msec
