                         Program Version 3.0.3 - RELEASE   -
|  1> ! RI-MP2 RIJK def2-TZVP def2-TZVP/C def2-TZVP/JK TIGHTSCF
|  2> % maxcore 2000
|  3> % mp2 density relaxed end
|  4> *xyz 0 1
|  5>  O       -0.3991158277     0.5923274746     0.8032979808
|  6>  C        0.2118882355     0.9032253470    -0.1891121401
|  7>  C        1.3873308944     1.8127937305    -0.1936350620
|  8>  N        2.2815631618     1.6746446559    -1.3731537259
|  9>  C        1.5229650794     2.8913834299    -1.2274891683
| 10>  C        0.4692209751     3.4201086966    -2.2114625150
| 11>  C        0.7363153223     4.8455074456    -1.6425174302
| 12>  C        2.0225382387     4.3142702485    -0.9414353112
| 13>  H       -0.0667484924     0.5278942036    -1.1986155714
| 14>  H        1.8164313312     2.0113436801     0.7857427715
| 15>  H        3.2500738144     1.8058186383    -1.0897765724
| 16>  H        0.8033611758     3.3058425801    -3.2466935087
| 17>  H       -0.5475881308     3.0319029363    -2.1263794556
| 18>  H        0.8739279027     5.6458787369    -2.3709391140
| 19>  H       -0.0257932084     5.1527679963    -0.9233298397
| 20>  H        2.1806627343     4.5915318947     0.1036369825
| 21>  H        2.9313194237     4.5443809952    -1.5079158902
| 22> *
| 23>
| 24>                          ****END OF INPUT****

CARTESIAN COORDINATES (ANGSTROEM)
---------------------------------
  O     -0.399116    0.592327    0.803298
  C      0.211888    0.903225   -0.189112
  C      1.387331    1.812794   -0.193635
  N      2.281563    1.674645   -1.373154
  C      1.522965    2.891383   -1.227489
  C      0.469221    3.420109   -2.211463
  C      0.736315    4.845507   -1.642517
  C      2.022538    4.314270   -0.941435
  H     -0.066748    0.527894   -1.198616
  H      1.816431    2.011344    0.785743
  H      3.250074    1.805819   -1.089777
  H      0.803361    3.305843   -3.246694
  H     -0.547588    3.031903   -2.126379
  H      0.873928    5.645879   -2.370939
  H     -0.025793    5.152768   -0.923330
  H      2.180663    4.591532    0.103637
  H      2.931319    4.544381   -1.507916

 Total Charge           Charge          ....    0
 Multiplicity           Mult            ....    1
 Number of Electrons    NEL             ....   60
 Basis Dimension        Dim             ....  302

ORBITAL ENERGIES
----------------

  NO   OCC          E(Eh)            E(eV)
   0   2.0000     -20.554098      -559.3054
   1   2.0000     -15.578943      -423.9246
   2   2.0000     -11.329554      -308.2928
   3   2.0000     -11.287541      -307.1496
   4   2.0000     -11.274200      -306.7866
   5   2.0000     -11.242315      -305.9189
   6   2.0000     -11.237961      -305.8005
   7   2.0000     -11.237121      -305.7776
   8   2.0000      -1.392811       -37.9003
   9   2.0000      -1.288433       -35.0601
  10   2.0000      -1.121843       -30.5269
  11   2.0000      -0.957155       -26.0455
  12   2.0000      -0.923576       -25.1318
  13   2.0000      -0.874696       -23.8017
  14   2.0000      -0.801023       -21.7969
  15   2.0000      -0.759112       -20.6565
  16   2.0000      -0.698580       -19.0093
  17   2.0000      -0.668674       -18.1955
  18   2.0000      -0.651544       -17.7294
  19   2.0000      -0.639835       -17.4108
  20   2.0000      -0.582976       -15.8636
  21   2.0000      -0.560928       -15.2636
  22   2.0000      -0.542172       -14.7533
  23   2.0000      -0.528422       -14.3791
  24   2.0000      -0.510191       -13.8830
  25   2.0000      -0.476248       -12.9594
  26   2.0000      -0.463885       -12.6229
  27   2.0000      -0.447532       -12.1780
  28   2.0000      -0.425402       -11.5758
  29   2.0000      -0.395282       -10.7562
  30   0.0000       0.120275         3.2728
  31   0.0000       0.130749         3.5579
  32   0.0000       0.139296         3.7904
  33   0.0000       0.160064         4.3556
  34   0.0000       0.176745         4.8095

MULLIKEN ATOMIC CHARGES
-----------------------
   0 O :   -0.269021
   1 C :    0.034602
   2 C :   -0.043979
   3 N :   -0.388366
   4 C :    0.092102
   5 C :   -0.191730
   6 C :   -0.240925
   7 C :   -0.205650
   8 H :    0.098934
   9 H :    0.139188
  10 H :    0.229238
  11 H :    0.121188
  12 H :    0.129620
  13 H :    0.125405
  14 H :    0.123155
  15 H :    0.126833
  16 H :    0.119407
Sum of atomic charges:    0.0000000

LOEWDIN ATOMIC CHARGES
----------------------
   0 O :    0.129873
   1 C :   -0.285962
   2 C :   -0.226611
   3 N :    0.040343
   4 C :   -0.274057
   5 C :   -0.195196
   6 C :   -0.227948
   7 C :   -0.202247
   8 H :    0.118681
   9 H :    0.146774
  10 H :    0.174096
  11 H :    0.141036
  12 H :    0.130801
  13 H :    0.126008
  14 H :    0.135081
  15 H :    0.131009
  16 H :    0.138319

  Mayer bond orders larger than 0.1
B(  0-O ,  1-C ) :   1.9911 B(  1-C ,  2-C ) :   0.8506 B(  1-C ,  8-H ) :   0.9613
B(  2-C ,  3-N ) :   0.9342 B(  2-C ,  4-C ) :   0.8126 B(  2-C ,  8-H ) :  -0.1016
B(  2-C ,  9-H ) :   0.9204 B(  3-N ,  4-C ) :   0.8822 B(  3-N , 10-H ) :   0.8632
B(  4-C ,  5-C ) :   0.8955 B(  4-C ,  7-C ) :   0.8932 B(  5-C ,  6-C ) :   0.9495
B(  5-C , 11-H ) :   0.9154 B(  5-C , 12-H ) :   0.9273 B(  6-C ,  7-C ) :   0.9529
B(  6-C , 13-H ) :   0.9345 B(  6-C , 14-H ) :   0.9234 B(  7-C , 15-H ) :   0.9217
B(  7-C , 16-H ) :   0.9157

MP2 TOTAL ENERGY:     -363.207551565 Eh
FINAL SINGLE POINT ENERGY      -363.207551564851

DIPOLE MOMENT
-------------
                                X             Y             Z
Electronic contribution:     -1.13622      -6.21206       3.17890
Nuclear contribution   :      1.91222       7.24897      -3.62090
                        -----------------------------------------
Total Dipole Moment    :      0.77600       1.03691      -0.44200
                        -----------------------------------------
Magnitude (a.u.)       :      1.36847
Magnitude (Debye)      :      3.47838

                             ****ORCA TERMINATED NORMALLY****
TOTAL RUN TIME: 0 days 0 hours 13 minutes 31 seconds 608 msec
