                         Program Version 3.0.3 - RELEASE   -
|  1> ! RI-MP2 RIJK def2-TZVP def2-TZVP/C def2-TZVP/JK TIGHTSCF
|  2> % maxcore 2000
|  3> % mp2 density relaxed end
|  4> *xyz 0 1
|  5>  C        0.2596539170     1.5175807610     0.0671891450
|  6>  O        1.1305650745     0.4507547803    -0.3092956558
|  7>  C       -0.2290427170     0.1334771792     0.0078337917
|  8>  C       -0.4638870413    -0.6998895594     1.2344903757
|  9>  C       -1.9459735333    -0.9768440474     1.6481427243
| 10>  C       -1.6037212910    -2.4824216784     1.8578248655
| 11>  C       -0.2843928743    -2.2255570856     1.1274017455
| 12>  C        0.3591945395    -2.9934733372     0.0582665784
| 13>  O        0.9203672526    -2.9146568963     1.3775902924
| 14>  H        0.4677367523     1.9701067903     1.0361054047
| 15>  H        0.0050517454     2.2179761846    -0.7271851541
| 16>  H       -0.8254411851    -0.1520075064    -0.8619420573
| 17>  H        0.1291961325    -0.3109122089     2.0683640613
| 18>  H       -2.3167224721    -0.4297961529     2.5159021898
| 19>  H       -2.6374583256    -0.8197002145     0.8156263393
| 20>  H       -1.4323811468    -2.7325313172     2.9087555992
| 21>  H       -2.2853012188    -3.2195943748     1.4273205531
| 22>  H       -0.0389157497    -3.9683305307    -0.2216683936
| 23>  H        0.9249778013    -2.4758868358    -0.7147514752
| 24> *
| 25>
| 26>                          ****END OF INPUT****

CARTESIAN COORDINATES (ANGSTROEM)
---------------------------------
  C      0.259654    1.517581    0.067189
  O      1.130565    0.450755   -0.309296
  C     -0.229043    0.133477    0.007834
  C     -0.463887   -0.699890    1.234490
  C     -1.945974   -0.976844    1.648143
  C     -1.603721   -2.482422    1.857825
  C     -0.284393   -2.225557    1.127402
  C      0.359195   -2.993473    0.058267
  O      0.920367   -2.914657    1.377590
  H      0.467737    1.970107    1.036105
  H      0.005052    2.217976   -0.727185
  H     -0.825441   -0.152008   -0.861942
  H      0.129196   -0.310912    2.068364
  H     -2.316722   -0.429796    2.515902
  H     -2.637458   -0.819700    0.815626
  H     -1.432381   -2.732531    2.908756
  H     -2.285301   -3.219594    1.427321
  H     -0.038916   -3.968331   -0.221668
  H      0.924978   -2.475887   -0.714751

 Total Charge           Charge          ....    0
 Multiplicity           Mult            ....    1
 Number of Electrons    NEL             ....   68
 Basis Dimension        Dim             ....  339

ORBITAL ENERGIES
----------------

  NO   OCC          E(Eh)            E(eV)
   0   2.0000     -20.569915      -559.7358
   1   2.0000     -20.564081      -559.5771
   2   2.0000     -11.291048      -307.2450
   3   2.0000     -11.290786      -307.2379
   4   2.0000     -11.285966      -307.1068
   5   2.0000     -11.279015      -306.9176
   6   2.0000     -11.241433      -305.8949
   7   2.0000     -11.237714      -305.7937
   8   2.0000     -11.232493      -305.6517
   9   2.0000      -1.414230       -38.4832
  10   2.0000      -1.410027       -38.3688
  11   2.0000      -1.135106       -30.8878
  12   2.0000      -0.975005       -26.5312
  13   2.0000      -0.917999       -24.9800
  14   2.0000      -0.907413       -24.6920
  15   2.0000      -0.865969       -23.5642
  16   2.0000      -0.830697       -22.6044
  17   2.0000      -0.753003       -20.4903
  18   2.0000      -0.702984       -19.1292
  19   2.0000      -0.673708       -18.3325
  20   2.0000      -0.668418       -18.1886
  21   2.0000      -0.652102       -17.7446
  22   2.0000      -0.608670       -16.5628
  23   2.0000      -0.582124       -15.8404
  24   2.0000      -0.562326       -15.3017
  25   2.0000      -0.532682       -14.4950
  26   2.0000      -0.518129       -14.0990
  27   2.0000      -0.510629       -13.8949
  28   2.0000      -0.482180       -13.1208
  29   2.0000      -0.471893       -12.8409
  30   2.0000      -0.458046       -12.4641
  31   2.0000      -0.443950       -12.0805
  32   2.0000      -0.421741       -11.4761
  33   2.0000      -0.411145       -11.1878
  34   0.0000       0.137478         3.7410
  35   0.0000       0.149821         4.0768
  36   0.0000       0.159159         4.3309
  37   0.0000       0.169758         4.6194
  38   0.0000       0.183337         4.9889

MULLIKEN ATOMIC CHARGES
-----------------------
   0 C :   -0.068971
   1 O :   -0.332627
   2 C :   -0.040193
   3 C :    0.076589
   4 C :   -0.305665
   5 C :   -0.164765
   6 C :    0.049226
   7 C :   -0.099962
   8 O :   -0.330145
   9 H :    0.115325
  10 H :    0.117044
  11 H :    0.129894
  12 H :    0.110733
  13 H :    0.124899
  14 H :    0.120735
  15 H :    0.125332
  16 H :    0.121713
  17 H :    0.115088
  18 H :    0.135751
Sum of atomic charges:    0.0000000

LOEWDIN ATOMIC CHARGES
----------------------
   0 C :   -0.263698
   1 O :    0.146198
   2 C :   -0.278348
   3 C :   -0.177083
   4 C :   -0.200239
   5 C :   -0.195518
   6 C :   -0.300465
   7 C :   -0.232713
   8 O :    0.175354
   9 H :    0.120807
  10 H :    0.119070
  11 H :    0.140096
  12 H :    0.164041
  13 H :    0.127754
  14 H :    0.135515
  15 H :    0.142910
  16 H :    0.130139
  17 H :    0.120021
  18 H :    0.126159

  Mayer bond orders larger than 0.1
B(  0-C ,  1-O ) :   0.9238 B(  0-C ,  2-C ) :   0.9824 B(  0-C ,  9-H ) :   0.9073
B(  0-C , 10-H ) :   0.9209 B(  1-O ,  2-C ) :   0.8534 B(  2-C ,  3-C ) :   0.9142
B(  2-C , 11-H ) :   0.9082 B(  3-C ,  4-C ) :   0.9242 B(  3-C ,  6-C ) :   0.8636
B(  3-C , 12-H ) :   0.8957 B(  4-C ,  5-C ) :   0.9482 B(  4-C , 13-H ) :   0.9363
B(  4-C , 14-H ) :   0.9113 B(  5-C ,  6-C ) :   0.8852 B(  5-C , 15-H ) :   0.9108
B(  5-C , 16-H ) :   0.9236 B(  6-C ,  7-C ) :   0.9943 B(  6-C ,  8-O ) :   0.8985
B(  7-C ,  8-O ) :   0.9055 B(  7-C , 17-H ) :   0.9178 B(  7-C , 18-H ) :   0.9035

MP2 TOTAL ENERGY:     -422.254761500 Eh
FINAL SINGLE POINT ENERGY      -422.254761499985

DIPOLE MOMENT
-------------
                                X             Y             Z
Electronic contribution:      4.62423      -0.87186      -0.63227
Nuclear contribution   :     -5.82750       1.26682       0.48006
                        -----------------------------------------
Total Dipole Moment    :     -1.20328       0.39496      -0.15222
                        -----------------------------------------
Magnitude (a.u.)       :      1.27555
Magnitude (Debye)      :      3.24220

                             ****ORCA TERMINATED NORMALLY****
TOTAL RUN TIME: 0 days 0 hours 15 minutes 37 seconds 995 msec
