                         Program Version 3.0.3 - RELEASE   -
|  1> ! RI-MP2 RIJK def2-TZVP def2-TZVP/C def2-TZVP/JK TIGHTSCF
|  2> % maxcore 2000
|  3> % mp2 density relaxed end
|  4> *xyz 0 1
|  5>  O        0.1004455708    -0.3245957893     0.4876538044
|  6>  C        0.0643812836     0.8852415286     0.4922508313
|  7>  C        1.1892429367     1.7400282688     0.2209920118
|  8>  C        2.1136231987     2.4875727817     0.0003986207
|  9>  C        3.2313812149     3.3701404077    -0.2791312892
| 10>  C        3.9072880673     3.1222392383    -1.6681966236
| 11>  C        4.3738933823     4.5035871995    -2.0567956313
| 12>  C        3.8291707670     5.4549263941    -1.3014732265
| 13>  C        2.8913601007     4.8940901431    -0.2604830295
| 14>  H       -0.8755973534     1.4313854768     0.7145906047
| 15>  H        3.9967223962     3.1941722020     0.4869603351
| 16>  H        4.7138274725     2.3860966813    -1.5960658132
| 17>  H        3.1867515154     2.7280061745    -2.3964786779
| 18>  H        5.0451120024     4.6717962912    -2.8913580089
| 19>  H        3.9874384256     6.5204432108    -1.4234555164
| 20>  H        1.8432274369     5.0702711560    -0.5357404724
| 21>  H        3.0302152724     5.3259514447     0.7358505509
| 22> *
| 23>
| 24>                          ****END OF INPUT****

CARTESIAN COORDINATES (ANGSTROEM)
---------------------------------
  O      0.100446   -0.324596    0.487654
  C      0.064381    0.885242    0.492251
  C      1.189243    1.740028    0.220992
  C      2.113623    2.487573    0.000399
  C      3.231381    3.370140   -0.279131
  C      3.907288    3.122239   -1.668197
  C      4.373893    4.503587   -2.056796
  C      3.829171    5.454926   -1.301473
  C      2.891360    4.894090   -0.260483
  H     -0.875597    1.431385    0.714591
  H      3.996722    3.194172    0.486960
  H      4.713827    2.386097   -1.596066
  H      3.186752    2.728006   -2.396479
  H      5.045112    4.671796   -2.891358
  H      3.987438    6.520443   -1.423456
  H      1.843227    5.070271   -0.535740
  H      3.030215    5.325951    0.735851

 Total Charge           Charge          ....    0
 Multiplicity           Mult            ....    1
 Number of Electrons    NEL             ....   64
 Basis Dimension        Dim             ....  327

ORBITAL ENERGIES
----------------

  NO   OCC          E(Eh)            E(eV)
   0   2.0000     -20.564275      -559.5824
   1   2.0000     -11.354856      -308.9813
   2   2.0000     -11.272740      -306.7469
   3   2.0000     -11.264613      -306.5257
   4   2.0000     -11.246617      -306.0360
   5   2.0000     -11.246419      -306.0306
   6   2.0000     -11.239612      -305.8454
   7   2.0000     -11.239043      -305.8299
   8   2.0000     -11.237865      -305.7979
   9   2.0000      -1.399393       -38.0794
  10   2.0000      -1.160779       -31.5864
  11   2.0000      -1.071089       -29.1458
  12   2.0000      -0.996163       -27.1070
  13   2.0000      -0.978194       -26.6180
  14   2.0000      -0.898273       -24.4432
  15   2.0000      -0.826437       -22.4885
  16   2.0000      -0.745978       -20.2991
  17   2.0000      -0.723052       -19.6753
  18   2.0000      -0.699224       -19.0269
  19   2.0000      -0.678808       -18.4713
  20   2.0000      -0.654430       -17.8080
  21   2.0000      -0.573176       -15.5969
  22   2.0000      -0.562407       -15.3039
  23   2.0000      -0.553112       -15.0509
  24   2.0000      -0.545972       -14.8566
  25   2.0000      -0.527912       -14.3652
  26   2.0000      -0.521368       -14.1871
  27   2.0000      -0.512105       -13.9351
  28   2.0000      -0.450579       -12.2609
  29   2.0000      -0.398527       -10.8445
  30   2.0000      -0.395303       -10.7568
  31   2.0000      -0.361505        -9.8370
  32   0.0000       0.082230         2.2376
  33   0.0000       0.127622         3.4728
  34   0.0000       0.146202         3.9784
  35   0.0000       0.157537         4.2868
  36   0.0000       0.162165         4.4127

MULLIKEN ATOMIC CHARGES
-----------------------
   0 O :   -0.256824
   1 C :    0.023022
   2 C :    0.098652
   3 C :   -0.031320
   4 C :   -0.165924
   5 C :   -0.173067
   6 C :   -0.173871
   7 C :   -0.175364
   8 C :   -0.171604
   9 H :    0.103652
  10 H :    0.131625
  11 H :    0.133793
  12 H :    0.131084
  13 H :    0.134329
  14 H :    0.133843
  15 H :    0.127124
  16 H :    0.130849
Sum of atomic charges:   -0.0000000

LOEWDIN ATOMIC CHARGES
----------------------
   0 O :    0.143640
   1 C :   -0.297309
   2 C :   -0.063753
   3 C :   -0.011517
   4 C :   -0.205765
   5 C :   -0.197260
   6 C :   -0.160126
   7 C :   -0.160712
   8 C :   -0.201065
   9 H :    0.123175
  10 H :    0.177600
  11 H :    0.141097
  12 H :    0.147881
  13 H :    0.138830
  14 H :    0.138485
  15 H :    0.146685
  16 H :    0.140114

  Mayer bond orders larger than 0.1
B(  0-O ,  1-C ) :   2.0193 B(  1-C ,  2-C ) :   0.8248 B(  1-C ,  9-H ) :   1.0153
B(  2-C ,  3-C ) :   2.6783 B(  2-C ,  4-C ) :  -0.1414 B(  2-C ,  9-H ) :  -0.1128
B(  3-C ,  4-C ) :   1.1035 B(  4-C ,  5-C ) :   0.9155 B(  4-C ,  8-C ) :   0.9259
B(  4-C , 10-H ) :   0.9119 B(  5-C ,  6-C ) :   0.9325 B(  5-C , 11-H ) :   0.9218
B(  5-C , 12-H ) :   0.9151 B(  6-C ,  7-C ) :   1.7892 B(  6-C , 13-H ) :   0.9251
B(  7-C ,  8-C ) :   0.9355 B(  7-C , 14-H ) :   0.9254 B(  8-C , 15-H ) :   0.9145
B(  8-C , 16-H ) :   0.9205

MP2 TOTAL ENERGY:     -383.982071819 Eh
FINAL SINGLE POINT ENERGY      -383.982071819136

DIPOLE MOMENT
-------------
                                X             Y             Z
Electronic contribution:     -4.95356      -6.47729       2.66640
Nuclear contribution   :      5.47644       7.84502      -2.87630
                        -----------------------------------------
Total Dipole Moment    :      0.52288       1.36773      -0.20991
                        -----------------------------------------
Magnitude (a.u.)       :      1.47924
Magnitude (Debye)      :      3.75992

                             ****ORCA TERMINATED NORMALLY****
TOTAL RUN TIME: 0 days 0 hours 14 minutes 27 seconds 807 msec
