                         Program Version 3.0.3 - RELEASE   -
|  1> ! RI-MP2 RIJK def2-TZVP def2-TZVP/C def2-TZVP/JK TIGHTSCF
|  2> % maxcore 2000
|  3> % mp2 density relaxed end
|  4> *xyz 0 1
|  5>  O       -0.2180640249     1.5112291582    -0.1164554758
|  6>  C        0.0022233232     0.1308136482     0.0228006526
|  7>  C       -1.2773142319    -0.7470942477     0.1873854691
|  8>  C       -0.7900460282    -1.6378231452    -0.9719357647
|  9>  C       -0.6433542294    -3.1469140197    -1.0305417052
| 10>  C       -1.5581439671    -2.4514391438    -1.9863096743
| 11>  C        0.3053219278    -0.6610054909    -1.2717692552
| 12>  O        1.0549338355    -0.4710016304    -2.1911372989
| 13>  H        0.4732067277     1.8530774791    -0.6957187300
| 14>  H        0.7499121266    -0.0923955374     0.8012438568
| 15>  H       -1.3984643857    -1.2273721474     1.1598283394
| 16>  H       -2.1746783298    -0.1740522447    -0.0568535979
| 17>  H        0.2978615469    -3.5364819262    -1.4035161628
| 18>  H       -1.0807129931    -3.7086277139    -0.2117271806
| 19>  H       -2.6286419239    -2.5393981527    -1.8348421659
| 20>  H       -1.2447418136    -2.3500297855    -3.0200433967
| 21> *
| 22>
| 23>                          ****END OF INPUT****

CARTESIAN COORDINATES (ANGSTROEM)
---------------------------------
  O     -0.218064    1.511229   -0.116455
  C      0.002223    0.130814    0.022801
  C     -1.277314   -0.747094    0.187385
  C     -0.790046   -1.637823   -0.971936
  C     -0.643354   -3.146914   -1.030542
  C     -1.558144   -2.451439   -1.986310
  C      0.305322   -0.661005   -1.271769
  O      1.054934   -0.471002   -2.191137
  H      0.473207    1.853077   -0.695719
  H      0.749912   -0.092396    0.801244
  H     -1.398464   -1.227372    1.159828
  H     -2.174678   -0.174052   -0.056854
  H      0.297862   -3.536482   -1.403516
  H     -1.080713   -3.708628   -0.211727
  H     -2.628642   -2.539398   -1.834842
  H     -1.244742   -2.350030   -3.020043

 Total Charge           Charge          ....    0
 Multiplicity           Mult            ....    1
 Number of Electrons    NEL             ....   60
 Basis Dimension        Dim             ....  296

ORBITAL ENERGIES
----------------

  NO   OCC          E(Eh)            E(eV)
   0   2.0000     -20.571504      -559.7791
   1   2.0000     -20.557706      -559.4036
   2   2.0000     -11.332491      -308.3727
   3   2.0000     -11.298092      -307.4367
   4   2.0000     -11.255264      -306.2713
   5   2.0000     -11.251554      -306.1704
   6   2.0000     -11.247978      -306.0730
   7   2.0000     -11.242185      -305.9154
   8   2.0000      -1.402153       -38.1545
   9   2.0000      -1.374557       -37.4036
  10   2.0000      -1.180762       -32.1302
  11   2.0000      -1.080593       -29.4044
  12   2.0000      -0.875890       -23.8342
  13   2.0000      -0.856747       -23.3133
  14   2.0000      -0.842407       -22.9231
  15   2.0000      -0.726517       -19.7695
  16   2.0000      -0.705018       -19.1845
  17   2.0000      -0.679199       -18.4820
  18   2.0000      -0.676211       -18.4006
  19   2.0000      -0.641339       -17.4517
  20   2.0000      -0.591879       -16.1058
  21   2.0000      -0.565402       -15.3854
  22   2.0000      -0.557171       -15.1614
  23   2.0000      -0.542747       -14.7689
  24   2.0000      -0.527680       -14.3589
  25   2.0000      -0.503663       -13.7054
  26   2.0000      -0.484569       -13.1858
  27   2.0000      -0.443173       -12.0594
  28   2.0000      -0.418971       -11.4008
  29   2.0000      -0.388757       -10.5786
  30   0.0000       0.114883         3.1261
  31   0.0000       0.144756         3.9390
  32   0.0000       0.153437         4.1752
  33   0.0000       0.163374         4.4456
  34   0.0000       0.174093         4.7373

MULLIKEN ATOMIC CHARGES
-----------------------
   0 O :   -0.472903
   1 C :    0.122805
   2 C :   -0.186400
   3 C :    0.012646
   4 C :   -0.282655
   5 C :   -0.256868
   6 C :    0.068262
   7 O :   -0.265283
   8 H :    0.332851
   9 H :    0.101635
  10 H :    0.127156
  11 H :    0.122265
  12 H :    0.147535
  13 H :    0.138130
  14 H :    0.141551
  15 H :    0.149275
Sum of atomic charges:    0.0000000

LOEWDIN ATOMIC CHARGES
----------------------
   0 O :   -0.012307
   1 C :   -0.288326
   2 C :   -0.168094
   3 C :   -0.194349
   4 C :   -0.185808
   5 C :   -0.187923
   6 C :   -0.282244
   7 O :    0.153343
   8 H :    0.187209
   9 H :    0.139501
  10 H :    0.132161
  11 H :    0.144184
  12 H :    0.141021
  13 H :    0.138409
  14 H :    0.139574
  15 H :    0.143650

  Mayer bond orders larger than 0.1
B(  0-O ,  1-C ) :   0.9894 B(  0-O ,  8-H ) :   0.8326 B(  1-C ,  2-C ) :   0.9166
B(  1-C ,  3-C ) :  -0.1090 B(  1-C ,  6-C ) :   0.8803 B(  1-C ,  9-H ) :   0.9126
B(  2-C ,  3-C ) :   0.9168 B(  2-C , 10-H ) :   0.9088 B(  2-C , 11-H ) :   0.8955
B(  3-C ,  4-C ) :   0.8062 B(  3-C ,  5-C ) :   0.8050 B(  3-C ,  6-C ) :   0.8832
B(  4-C ,  5-C ) :   0.9619 B(  4-C , 12-H ) :   0.9220 B(  4-C , 13-H ) :   0.9250
B(  5-C , 14-H ) :   0.9265 B(  5-C , 15-H ) :   0.9222 B(  6-C ,  7-O ) :   2.0606

MP2 TOTAL ENERGY:     -383.087529487 Eh
FINAL SINGLE POINT ENERGY      -383.087529487405

DIPOLE MOMENT
-------------
                                X             Y             Z
Electronic contribution:      3.43918       3.82330      -1.51039
Nuclear contribution   :     -3.78856      -4.48112       1.94326
                        -----------------------------------------
Total Dipole Moment    :     -0.34938      -0.65782       0.43286
                        -----------------------------------------
Magnitude (a.u.)       :      0.86149
Magnitude (Debye)      :      2.18973

                             ****ORCA TERMINATED NORMALLY****
TOTAL RUN TIME: 0 days 0 hours 11 minutes 10 seconds 930 msec
