                         Program Version 3.0.3 - RELEASE   -
|  1> ! RI-MP2 RIJK def2-TZVP def2-TZVP/C def2-TZVP/JK TIGHTSCF
|  2> % maxcore 2000
|  3> % mp2 density relaxed end
|  4> *xyz 0 1
|  5>  C       -0.8731304846     1.0588177150     0.0566324933
|  6>  C        0.1649390407    -0.0326762329     0.0960426056
|  7>  N        0.8413285798    -0.3239296663     1.1438657560
|  8>  O        0.4734751557     0.4824064594     2.2355799463
|  9>  C        0.4052869366    -0.8336438494    -1.1306324695
| 10>  C        1.3686443887    -2.0037815279    -1.1703607990
| 11>  C       -0.1106709761    -2.2550720648    -1.2904625155
| 12>  C       -0.8665832800    -2.9549752271    -0.1867280140
| 13>  O       -0.6162764703    -2.4934297894    -2.5806180847
| 14>  H       -1.2889786216     1.1745285472    -0.9455066592
| 15>  H       -1.6876654010     0.8336487342     0.7534131913
| 16>  H       -0.4404492242     2.0092271579     0.3838397170
| 17>  H        1.0749758860     0.1765329287     2.9221889620
| 18>  H        0.3236470759    -0.2630877678    -2.0510566009
| 19>  H        1.9662703296    -2.1102342242    -2.0686499912
| 20>  H        1.8627657277    -2.2604679585    -0.2408710837
| 21>  H       -0.4940576312    -2.6594336765     0.7961646594
| 22>  H       -1.9344348150    -2.7209400595    -0.2468430477
| 23>  H       -0.7539082493    -4.0425229531    -0.2772677890
| 24>  H       -0.4650952673    -3.4230069652    -2.7867022464
| 25> *
| 26>
| 27>                          ****END OF INPUT****

CARTESIAN COORDINATES (ANGSTROEM)
---------------------------------
  C     -0.873130    1.058818    0.056632
  C      0.164939   -0.032676    0.096043
  N      0.841329   -0.323930    1.143866
  O      0.473475    0.482406    2.235580
  C      0.405287   -0.833644   -1.130632
  C      1.368644   -2.003782   -1.170361
  C     -0.110671   -2.255072   -1.290463
  C     -0.866583   -2.954975   -0.186728
  O     -0.616276   -2.493430   -2.580618
  H     -1.288979    1.174529   -0.945507
  H     -1.687665    0.833649    0.753413
  H     -0.440449    2.009227    0.383840
  H      1.074976    0.176533    2.922189
  H      0.323647   -0.263088   -2.051057
  H      1.966270   -2.110234   -2.068650
  H      1.862766   -2.260468   -0.240871
  H     -0.494058   -2.659434    0.796165
  H     -1.934435   -2.720940   -0.246843
  H     -0.753908   -4.042523   -0.277268
  H     -0.465095   -3.423007   -2.786702

 Total Charge           Charge          ....    0
 Multiplicity           Mult            ....    1
 Number of Electrons    NEL             ....   70
 Basis Dimension        Dim             ....  345

ORBITAL ENERGIES
----------------

  NO   OCC          E(Eh)            E(eV)
   0   2.0000     -20.585834      -560.1690
   1   2.0000     -20.563609      -559.5643
   2   2.0000     -15.604952      -424.6323
   3   2.0000     -11.295672      -307.3709
   4   2.0000     -11.278866      -306.9135
   5   2.0000     -11.236717      -305.7666
   6   2.0000     -11.226606      -305.4915
   7   2.0000     -11.224222      -305.4266
   8   2.0000     -11.219576      -305.3002
   9   2.0000      -1.412583       -38.4383
  10   2.0000      -1.375170       -37.4203
  11   2.0000      -1.179191       -32.0874
  12   2.0000      -1.113460       -30.2988
  13   2.0000      -0.983745       -26.7691
  14   2.0000      -0.972328       -26.4584
  15   2.0000      -0.863312       -23.4919
  16   2.0000      -0.798877       -21.7385
  17   2.0000      -0.719336       -19.5741
  18   2.0000      -0.693618       -18.8743
  19   2.0000      -0.687830       -18.7168
  20   2.0000      -0.651206       -17.7202
  21   2.0000      -0.633455       -17.2372
  22   2.0000      -0.612917       -16.6783
  23   2.0000      -0.597790       -16.2667
  24   2.0000      -0.575123       -15.6499
  25   2.0000      -0.556717       -15.1490
  26   2.0000      -0.550174       -14.9710
  27   2.0000      -0.544994       -14.8300
  28   2.0000      -0.538042       -14.6409
  29   2.0000      -0.513367       -13.9694
  30   2.0000      -0.493792       -13.4368
  31   2.0000      -0.436226       -11.8703
  32   2.0000      -0.432341       -11.7646
  33   2.0000      -0.400469       -10.8973
  34   2.0000      -0.359651        -9.7866
  35   0.0000       0.130754         3.5580
  36   0.0000       0.144263         3.9256
  37   0.0000       0.153460         4.1758
  38   0.0000       0.164974         4.4892
  39   0.0000       0.179185         4.8759

MULLIKEN ATOMIC CHARGES
-----------------------
   0 C :   -0.429558
   1 C :    0.096826
   2 N :   -0.119936
   3 O :   -0.377698
   4 C :   -0.099970
   5 C :   -0.308352
   6 C :    0.192009
   7 C :   -0.409615
   8 O :   -0.462969
   9 H :    0.142550
  10 H :    0.149526
  11 H :    0.154081
  12 H :    0.333460
  13 H :    0.134705
  14 H :    0.140560
  15 H :    0.138483
  16 H :    0.148943
  17 H :    0.137626
  18 H :    0.120204
  19 H :    0.319124
Sum of atomic charges:    0.0000000

LOEWDIN ATOMIC CHARGES
----------------------
   0 C :   -0.278395
   1 C :   -0.289646
   2 N :    0.019937
   3 O :   -0.073011
   4 C :   -0.163829
   5 C :   -0.186550
   6 C :   -0.361236
   7 C :   -0.274715
   8 O :    0.017686
   9 H :    0.131173
  10 H :    0.138999
  11 H :    0.138670
  12 H :    0.168237
  13 H :    0.163338
  14 H :    0.136888
  15 H :    0.140734
  16 H :    0.135795
  17 H :    0.130013
  18 H :    0.125180
  19 H :    0.180733

  Mayer bond orders larger than 0.1
B(  0-C ,  1-C ) :   0.9446 B(  0-C ,  9-H ) :   0.9345 B(  0-C , 10-H ) :   0.9173
B(  0-C , 11-H ) :   0.9233 B(  1-C ,  2-N ) :   1.7959 B(  1-C ,  4-C ) :   0.9329
B(  2-N ,  3-O ) :   0.8124 B(  3-O , 12-H ) :   0.8471 B(  4-C ,  5-C ) :   0.8835
B(  4-C ,  6-C ) :   0.8291 B(  4-C , 13-H ) :   0.9186 B(  5-C ,  6-C ) :   0.9158
B(  5-C , 14-H ) :   0.9253 B(  5-C , 15-H ) :   0.9025 B(  6-C ,  7-C ) :   0.9437
B(  6-C ,  8-O ) :   0.9884 B(  7-C , 16-H ) :   0.9229 B(  7-C , 17-H ) :   0.9383
B(  7-C , 18-H ) :   0.9254 B(  8-O , 19-H ) :   0.8403

MP2 TOTAL ENERGY:     -439.514186799 Eh
FINAL SINGLE POINT ENERGY      -439.514186799228

DIPOLE MOMENT
-------------
                                X             Y             Z
Electronic contribution:      2.52849       1.28023       0.72575
Nuclear contribution   :     -2.41923      -1.71774      -0.57436
                        -----------------------------------------
Total Dipole Moment    :      0.10926      -0.43751       0.15140
                        -----------------------------------------
Magnitude (a.u.)       :      0.47568
Magnitude (Debye)      :      1.20909

                             ****ORCA TERMINATED NORMALLY****
TOTAL RUN TIME: 0 days 0 hours 18 minutes 45 seconds 444 msec
