                         Program Version 3.0.3 - RELEASE   -
|  1> ! RI-MP2 RIJK def2-TZVP def2-TZVP/C def2-TZVP/JK TIGHTSCF
|  2> % maxcore 2000
|  3> % mp2 density relaxed end
|  4> *xyz 0 1
|  5>  O       -0.0364252447     1.4312301041    -0.2495620027
|  6>  C        0.0211098459     0.0556888088    -0.0955376071
|  7>  C        0.5879510431    -0.8888601484    -1.1647171194
|  8>  C       -0.5904616575    -1.8770214185    -0.8771319427
|  9>  C       -1.1461214463    -0.8977883325     0.1639049986
| 10>  C       -0.1267182877    -0.6074293420     1.2458022517
| 11>  C        0.8333038700    -1.6255300496     1.8542627303
| 12>  C        0.1974625464    -2.4598307943     2.8694559066
| 13>  C       -0.3487922054    -3.1296115302     3.7048461505
| 14>  H        0.7324305072     1.8205592784     0.1809605075
| 15>  H        0.5088166021    -0.4422241959    -2.1580303400
| 16>  H        1.6111917145    -1.2548751079    -1.0253897067
| 17>  H       -1.2487685386    -1.9971818850    -1.7395111018
| 18>  H       -0.3212884790    -2.8714940136    -0.5087331131
| 19>  H       -2.1942538664    -0.6727531699     0.3177318587
| 20>  H       -0.5291728990     0.0879748234     1.9792880620
| 21>  H        1.2584788930    -2.2668997079     1.0742932090
| 22>  H        1.6856507273    -1.0971021369     2.3022326839
| 23>  H       -0.8239300850    -3.7282737720     4.4416139746
| 24> *
| 25>
| 26>                          ****END OF INPUT****

CARTESIAN COORDINATES (ANGSTROEM)
---------------------------------
  O     -0.036425    1.431230   -0.249562
  C      0.021110    0.055689   -0.095538
  C      0.587951   -0.888860   -1.164717
  C     -0.590462   -1.877021   -0.877132
  C     -1.146121   -0.897788    0.163905
  C     -0.126718   -0.607429    1.245802
  C      0.833304   -1.625530    1.854263
  C      0.197463   -2.459831    2.869456
  C     -0.348792   -3.129612    3.704846
  H      0.732431    1.820559    0.180961
  H      0.508817   -0.442224   -2.158030
  H      1.611192   -1.254875   -1.025390
  H     -1.248769   -1.997182   -1.739511
  H     -0.321288   -2.871494   -0.508733
  H     -2.194254   -0.672753    0.317732
  H     -0.529173    0.087975    1.979288
  H      1.258479   -2.266900    1.074293
  H      1.685651   -1.097102    2.302233
  H     -0.823930   -3.728274    4.441614

 Total Charge           Charge          ....    0
 Multiplicity           Mult            ....    1
 Number of Electrons    NEL             ....   66
 Basis Dimension        Dim             ....  339

ORBITAL ENERGIES
----------------

  NO   OCC          E(Eh)            E(eV)
   0   2.0000     -20.568420      -559.6952
   1   2.0000     -11.289882      -307.2133
   2   2.0000     -11.256019      -306.2918
   3   2.0000     -11.241642      -305.9006
   4   2.0000     -11.232515      -305.6523
   5   2.0000     -11.231141      -305.6149
   6   2.0000     -11.229130      -305.5602
   7   2.0000     -11.228482      -305.5425
   8   2.0000     -11.218440      -305.2693
   9   2.0000      -1.379561       -37.5398
  10   2.0000      -1.187361       -32.3097
  11   2.0000      -1.067931       -29.0599
  12   2.0000      -0.999296       -27.1922
  13   2.0000      -0.951754       -25.8985
  14   2.0000      -0.890288       -24.2260
  15   2.0000      -0.788384       -21.4530
  16   2.0000      -0.744871       -20.2690
  17   2.0000      -0.720771       -19.6132
  18   2.0000      -0.710333       -19.3292
  19   2.0000      -0.644123       -17.5275
  20   2.0000      -0.634952       -17.2779
  21   2.0000      -0.626390       -17.0449
  22   2.0000      -0.615535       -16.7496
  23   2.0000      -0.581987       -15.8367
  24   2.0000      -0.539598       -14.6832
  25   2.0000      -0.526762       -14.3339
  26   2.0000      -0.517955       -14.0943
  27   2.0000      -0.474083       -12.9005
  28   2.0000      -0.467332       -12.7167
  29   2.0000      -0.402798       -10.9607
  30   2.0000      -0.392806       -10.6888
  31   2.0000      -0.382407       -10.4058
  32   2.0000      -0.366119        -9.9626
  33   0.0000       0.126841         3.4515
  34   0.0000       0.147263         4.0072
  35   0.0000       0.165340         4.4991
  36   0.0000       0.167711         4.5636
  37   0.0000       0.174245         4.7415

MULLIKEN ATOMIC CHARGES
-----------------------
   0 O :   -0.457694
   1 C :    0.217974
   2 C :   -0.253732
   3 C :   -0.254058
   4 C :   -0.141814
   5 C :   -0.155218
   6 C :   -0.331219
   7 C :   -0.020095
   8 C :   -0.165152
   9 H :    0.326282
  10 H :    0.120245
  11 H :    0.116860
  12 H :    0.124502
  13 H :    0.125333
  14 H :    0.136732
  15 H :    0.127159
  16 H :    0.154619
  17 H :    0.140962
  18 H :    0.188315
Sum of atomic charges:   -0.0000000

LOEWDIN ATOMIC CHARGES
----------------------
   0 O :    0.026948
   1 C :   -0.318622
   2 C :   -0.201651
   3 C :   -0.213772
   4 C :   -0.141976
   5 C :   -0.170819
   6 C :   -0.228362
   7 C :   -0.105470
   8 C :   -0.108272
   9 H :    0.184728
  10 H :    0.140235
  11 H :    0.123460
  12 H :    0.135336
  13 H :    0.127431
  14 H :    0.139041
  15 H :    0.165408
  16 H :    0.161445
  17 H :    0.159187
  18 H :    0.125727

  Mayer bond orders larger than 0.1
B(  0-O ,  1-C ) :   1.0148 B(  0-O ,  9-H ) :   0.8365 B(  1-C ,  2-C ) :   0.9391
B(  1-C ,  4-C ) :   0.8262 B(  1-C ,  5-C ) :   0.9006 B(  2-C ,  3-C ) :   0.9553
B(  2-C , 10-H ) :   0.9103 B(  2-C , 11-H ) :   0.9216 B(  3-C ,  4-C ) :   0.9164
B(  3-C , 12-H ) :   0.9223 B(  3-C , 13-H ) :   0.9351 B(  4-C ,  5-C ) :   0.8824
B(  4-C , 14-H ) :   0.9035 B(  5-C ,  6-C ) :   0.8557 B(  5-C , 15-H ) :   0.9338
B(  6-C ,  7-C ) :   1.1091 B(  6-C , 16-H ) :   0.9339 B(  6-C , 17-H ) :   0.9207
B(  7-C ,  8-C ) :   2.6078 B(  8-C , 18-H ) :   0.9038

MP2 TOTAL ENERGY:     -385.136337847 Eh
FINAL SINGLE POINT ENERGY      -385.136337847080

DIPOLE MOMENT
-------------
                                X             Y             Z
Electronic contribution:     -0.70096       1.86656       2.65933
Nuclear contribution   :      1.15748      -1.87146      -2.62435
                        -----------------------------------------
Total Dipole Moment    :      0.45651      -0.00490       0.03497
                        -----------------------------------------
Magnitude (a.u.)       :      0.45788
Magnitude (Debye)      :      1.16383

                             ****ORCA TERMINATED NORMALLY****
TOTAL RUN TIME: 0 days 0 hours 17 minutes 27 seconds 56 msec
