                         Program Version 3.0.3 - RELEASE   -
|  1> ! RI-MP2 RIJK def2-TZVP def2-TZVP/C def2-TZVP/JK TIGHTSCF
|  2> % maxcore 2000
|  3> % mp2 density relaxed end
|  4> *xyz 0 1
|  5>  C       -0.1360983607     1.3222090209    -0.1024561059
|  6>  C        0.0967245278    -0.1568564150    -0.0218374243
|  7>  N        1.2328212764    -0.6922808500    -0.0694167528
|  8>  O       -1.1499234842    -0.7808074083     0.1096586996
|  9>  C       -1.3218458374    -2.1141441770     0.1783065383
| 10>  N       -0.3708130520    -3.0352142126     0.3205815285
| 11>  N       -1.0714499501    -4.1709659871     0.3471325248
| 12>  N       -2.3836450703    -4.0604641965     0.2397297614
| 13>  C       -2.5787858991    -2.7488769011     0.1283595028
| 14>  H        0.8216967685     1.8302713815    -0.2025847170
| 15>  H       -0.7745616630     1.5624502646    -0.9582713541
| 16>  H       -0.6507309942     1.6761887887     0.7962912053
| 17>  H        1.1961084751    -1.7068715338     0.0108787347
| 18>  H       -0.6167564596    -5.0635640164     0.4454016089
| 19>  H       -3.5614953070    -2.3215218279     0.0225117399
| 20> *
| 21>
| 22>                          ****END OF INPUT****

CARTESIAN COORDINATES (ANGSTROEM)
---------------------------------
  C     -0.136098    1.322209   -0.102456
  C      0.096725   -0.156856   -0.021837
  N      1.232821   -0.692281   -0.069417
  O     -1.149923   -0.780807    0.109659
  C     -1.321846   -2.114144    0.178307
  N     -0.370813   -3.035214    0.320582
  N     -1.071450   -4.170966    0.347133
  N     -2.383645   -4.060464    0.239730
  C     -2.578786   -2.748877    0.128360
  H      0.821697    1.830271   -0.202585
  H     -0.774562    1.562450   -0.958271
  H     -0.650731    1.676189    0.796291
  H      1.196108   -1.706872    0.010879
  H     -0.616756   -5.063564    0.445402
  H     -3.561495   -2.321522    0.022512

 Total Charge           Charge          ....    0
 Multiplicity           Mult            ....    1
 Number of Electrons    NEL             ....   66
 Basis Dimension        Dim             ....  315

ORBITAL ENERGIES
----------------

  NO   OCC          E(Eh)            E(eV)
   0   2.0000     -20.626534      -561.2765
   1   2.0000     -15.689261      -426.9265
   2   2.0000     -15.637283      -425.5121
   3   2.0000     -15.624057      -425.1522
   4   2.0000     -15.540031      -422.8657
   5   2.0000     -11.350926      -308.8744
   6   2.0000     -11.347483      -308.7807
   7   2.0000     -11.275394      -306.8191
   8   2.0000     -11.234994      -305.7197
   9   2.0000      -1.478090       -40.2209
  10   2.0000      -1.444538       -39.3079
  11   2.0000      -1.212575       -32.9959
  12   2.0000      -1.208100       -32.8741
  13   2.0000      -1.115765       -30.3615
  14   2.0000      -1.010421       -27.4950
  15   2.0000      -0.903227       -24.5781
  16   2.0000      -0.862325       -23.4651
  17   2.0000      -0.782110       -21.2823
  18   2.0000      -0.760652       -20.6984
  19   2.0000      -0.724508       -19.7149
  20   2.0000      -0.687715       -18.7137
  21   2.0000      -0.641998       -17.4697
  22   2.0000      -0.637722       -17.3533
  23   2.0000      -0.635840       -17.3021
  24   2.0000      -0.568287       -15.4639
  25   2.0000      -0.565550       -15.3894
  26   2.0000      -0.558716       -15.2034
  27   2.0000      -0.529702       -14.4139
  28   2.0000      -0.495350       -13.4792
  29   2.0000      -0.434768       -11.8306
  30   2.0000      -0.432286       -11.7631
  31   2.0000      -0.416454       -11.3323
  32   2.0000      -0.366529        -9.9738
  33   0.0000       0.121095         3.2952
  34   0.0000       0.130869         3.5611
  35   0.0000       0.144735         3.9384
  36   0.0000       0.169317         4.6074
  37   0.0000       0.177984         4.8432

MULLIKEN ATOMIC CHARGES
-----------------------
   0 C :   -0.384774
   1 C :    0.187938
   2 N :   -0.360069
   3 O :   -0.253704
   4 C :    0.283206
   5 N :   -0.249884
   6 N :   -0.025625
   7 N :   -0.175421
   8 C :   -0.141918
   9 H :    0.157550
  10 H :    0.144173
  11 H :    0.144882
  12 H :    0.247803
  13 H :    0.273946
  14 H :    0.151899
Sum of atomic charges:   -0.0000000

LOEWDIN ATOMIC CHARGES
----------------------
   0 C :   -0.266164
   1 C :   -0.395656
   2 N :   -0.027030
   3 O :    0.304680
   4 C :   -0.387174
   5 N :    0.021639
   6 N :    0.062250
   7 N :    0.028478
   8 C :   -0.247696
   9 H :    0.138989
  10 H :    0.135964
  11 H :    0.136302
  12 H :    0.162609
  13 H :    0.190834
  14 H :    0.141977

  Mayer bond orders larger than 0.1
B(  0-C ,  1-C ) :   0.9188 B(  0-C ,  9-H ) :   0.9424 B(  0-C , 10-H ) :   0.9234
B(  0-C , 11-H ) :   0.9239 B(  1-C ,  2-N ) :   2.0155 B(  1-C ,  3-O ) :   0.9318
B(  2-N , 12-H ) :   0.8507 B(  3-O ,  4-C ) :   1.0415 B(  4-C ,  5-N ) :   1.3820
B(  4-C ,  8-C ) :   1.3168 B(  5-N ,  6-N ) :   1.0989 B(  6-N ,  7-N ) :   1.1505
B(  6-N , 13-H ) :   0.8754 B(  7-N ,  8-C ) :   1.4838 B(  8-C , 14-H ) :   0.9331

MP2 TOTAL ENERGY:     -449.393851535 Eh
FINAL SINGLE POINT ENERGY      -449.393851534921

DIPOLE MOMENT
-------------
                                X             Y             Z
Electronic contribution:     -1.81101      -6.69274       0.64572
Nuclear contribution   :      1.35127       6.41219      -0.59633
                        -----------------------------------------
Total Dipole Moment    :     -0.45974      -0.28055       0.04938
                        -----------------------------------------
Magnitude (a.u.)       :      0.54084
Magnitude (Debye)      :      1.37470

                             ****ORCA TERMINATED NORMALLY****
TOTAL RUN TIME: 0 days 0 hours 12 minutes 52 seconds 807 msec
