                         Program Version 3.0.3 - RELEASE   -
|  1> ! RI-MP2 RIJK def2-TZVP def2-TZVP/C def2-TZVP/JK TIGHTSCF
|  2> % maxcore 2000
|  3> % mp2 density relaxed end
|  4> *xyz 0 1
|  5>  C        0.0718343914     1.5508022976     0.0407238940
|  6>  C        0.0318402326     0.0172815814     0.0627940307
|  7>  C        0.6766879837    -0.5301398103     1.3438162256
|  8>  C       -1.4114234251    -0.4953768303    -0.1269830039
|  9>  O       -2.0054301200     0.0463866381    -1.3100958327
| 10>  C       -1.5065109683    -2.0098775423    -0.1442078465
| 11>  N       -1.8367865491    -2.6971225859     1.1184645007
| 12>  C       -2.7939847596    -2.7419187171    -0.0015441737
| 13>  C       -4.1327090503    -2.0711396753     0.1924795840
| 14>  H        1.1037919085     1.9154040885     0.0673857776
| 15>  H       -0.4163963249     1.9433869626    -0.8535505892
| 16>  H       -0.4484425751     1.9628721939     0.9138284591
| 17>  H        0.6151074015    -0.3521336136    -0.7975129190
| 18>  H        0.7445074400    -1.6207992418     1.3407624888
| 19>  H        1.6886453238    -0.1292464647     1.4620386530
| 20>  H        0.0965160861    -0.2407777154     2.2269383480
| 21>  H       -2.0267899162    -0.1171606701     0.6959860315
| 22>  H       -1.5161762759    -0.2978345155    -2.0657415210
| 23>  H       -0.7614120474    -2.4859544940    -0.7859179078
| 24>  H       -1.3249034807    -3.5718567136     1.1938265099
| 25>  H       -2.8462572288    -3.6810789020    -0.5524416933
| 26>  H       -4.0432433844    -1.1817809111     0.8188166308
| 27>  H       -4.5564748103    -1.7703795398    -0.7705852942
| 28>  H       -4.8355996218    -2.7548131292     0.6805726876
| 29> *
| 30>
| 31>                          ****END OF INPUT****

CARTESIAN COORDINATES (ANGSTROEM)
---------------------------------
  C      0.071834    1.550802    0.040724
  C      0.031840    0.017282    0.062794
  C      0.676688   -0.530140    1.343816
  C     -1.411423   -0.495377   -0.126983
  O     -2.005430    0.046387   -1.310096
  C     -1.506511   -2.009878   -0.144208
  N     -1.836787   -2.697123    1.118465
  C     -2.793985   -2.741919   -0.001544
  C     -4.132709   -2.071140    0.192480
  H      1.103792    1.915404    0.067386
  H     -0.416396    1.943387   -0.853551
  H     -0.448443    1.962872    0.913828
  H      0.615107   -0.352134   -0.797513
  H      0.744507   -1.620799    1.340762
  H      1.688645   -0.129246    1.462039
  H      0.096516   -0.240778    2.226938
  H     -2.026790   -0.117161    0.695986
  H     -1.516176   -0.297835   -2.065742
  H     -0.761412   -2.485954   -0.785918
  H     -1.324903   -3.571857    1.193827
  H     -2.846257   -3.681079   -0.552442
  H     -4.043243   -1.181781    0.818817
  H     -4.556475   -1.770380   -0.770585
  H     -4.835600   -2.754813    0.680573

 Total Charge           Charge          ....    0
 Multiplicity           Mult            ....    1
 Number of Electrons    NEL             ....   72
 Basis Dimension        Dim             ....  369

ORBITAL ENERGIES
----------------

  NO   OCC          E(Eh)            E(eV)
   0   2.0000     -20.551488      -559.2344
   1   2.0000     -15.556158      -423.3046
   2   2.0000     -11.275115      -306.8115
   3   2.0000     -11.259131      -306.3765
   4   2.0000     -11.255973      -306.2906
   5   2.0000     -11.227813      -305.5243
   6   2.0000     -11.211235      -305.0732
   7   2.0000     -11.209929      -305.0377
   8   2.0000     -11.205625      -304.9206
   9   2.0000      -1.357845       -36.9488
  10   2.0000      -1.259491       -34.2725
  11   2.0000      -1.075529       -29.2666
  12   2.0000      -0.985187       -26.8083
  13   2.0000      -0.952109       -25.9082
  14   2.0000      -0.923587       -25.1321
  15   2.0000      -0.847999       -23.0752
  16   2.0000      -0.789590       -21.4858
  17   2.0000      -0.775095       -21.0914
  18   2.0000      -0.708157       -19.2699
  19   2.0000      -0.657389       -17.8885
  20   2.0000      -0.636210       -17.3121
  21   2.0000      -0.614336       -16.7169
  22   2.0000      -0.586142       -15.9497
  23   2.0000      -0.568195       -15.4614
  24   2.0000      -0.555927       -15.1276
  25   2.0000      -0.548009       -14.9121
  26   2.0000      -0.541352       -14.7309
  27   2.0000      -0.529405       -14.4058
  28   2.0000      -0.517664       -14.0864
  29   2.0000      -0.490171       -13.3382
  30   2.0000      -0.473154       -12.8752
  31   2.0000      -0.467743       -12.7279
  32   2.0000      -0.457009       -12.4358
  33   2.0000      -0.446229       -12.1425
  34   2.0000      -0.431796       -11.7498
  35   2.0000      -0.383878       -10.4459
  36   0.0000       0.126167         3.4332
  37   0.0000       0.143935         3.9167
  38   0.0000       0.151504         4.1226
  39   0.0000       0.160992         4.3808
  40   0.0000       0.188080         5.1179

MULLIKEN ATOMIC CHARGES
-----------------------
   0 C :   -0.376974
   1 C :   -0.058795
   2 C :   -0.388348
   3 C :    0.048381
   4 O :   -0.468336
   5 C :   -0.055396
   6 N :   -0.409043
   7 C :    0.002154
   8 C :   -0.376403
   9 H :    0.128253
  10 H :    0.139894
  11 H :    0.118380
  12 H :    0.068664
  13 H :    0.123712
  14 H :    0.129949
  15 H :    0.128495
  16 H :    0.098204
  17 H :    0.307989
  18 H :    0.123809
  19 H :    0.217685
  20 H :    0.112175
  21 H :    0.130658
  22 H :    0.126691
  23 H :    0.128204
Sum of atomic charges:   -0.0000000

LOEWDIN ATOMIC CHARGES
----------------------
   0 C :   -0.294971
   1 C :   -0.297744
   2 C :   -0.287747
   3 C :   -0.310748
   4 O :   -0.013914
   5 C :   -0.258136
   6 N :    0.000747
   7 C :   -0.280204
   8 C :   -0.292393
   9 H :    0.121196
  10 H :    0.124802
  11 H :    0.124265
  12 H :    0.146365
  13 H :    0.121714
  14 H :    0.122965
  15 H :    0.127847
  16 H :    0.153186
  17 H :    0.172764
  18 H :    0.138320
  19 H :    0.164001
  20 H :    0.135702
  21 H :    0.128610
  22 H :    0.128802
  23 H :    0.124570

  Mayer bond orders larger than 0.1
B(  0-C ,  1-C ) :   0.9312 B(  0-C ,  9-H ) :   0.9413 B(  0-C , 10-H ) :   0.9341
B(  0-C , 11-H ) :   0.9300 B(  1-C ,  2-C ) :   0.9266 B(  1-C ,  3-C ) :   0.9673
B(  1-C , 12-H ) :   0.9059 B(  2-C , 13-H ) :   0.9370 B(  2-C , 14-H ) :   0.9337
B(  2-C , 15-H ) :   0.9288 B(  3-C ,  4-O ) :   0.8827 B(  3-C ,  5-C ) :   0.8955
B(  3-C , 16-H ) :   0.9218 B(  4-O , 17-H ) :   0.8436 B(  5-C ,  6-N ) :   0.8983
B(  5-C ,  7-C ) :   0.8962 B(  5-C , 18-H ) :   0.9047 B(  6-N ,  7-C ) :   0.9121
B(  6-N , 19-H ) :   0.8665 B(  7-C ,  8-C ) :   0.9167 B(  7-C , 20-H ) :   0.9232
B(  8-C , 21-H ) :   0.9414 B(  8-C , 22-H ) :   0.9313 B(  8-C , 23-H ) :   0.9342

MP2 TOTAL ENERGY:     -404.844481270 Eh
FINAL SINGLE POINT ENERGY      -404.844481270004

DIPOLE MOMENT
-------------
                                X             Y             Z
Electronic contribution:     -2.28360      -2.68544      -2.22228
Nuclear contribution   :      2.79672       1.99836       1.73362
                        -----------------------------------------
Total Dipole Moment    :      0.51312      -0.68708      -0.48866
                        -----------------------------------------
Magnitude (a.u.)       :      0.98700
Magnitude (Debye)      :      2.50876

                             ****ORCA TERMINATED NORMALLY****
TOTAL RUN TIME: 0 days 0 hours 21 minutes 19 seconds 50 msec
