                         Program Version 3.0.3 - RELEASE   -
|  1> ! RI-MP2 RIJK def2-TZVP def2-TZVP/C def2-TZVP/JK TIGHTSCF
|  2> % maxcore 2000
|  3> % mp2 density relaxed end
|  4> *xyz 0 1
|  5>  C       -0.0821352475     1.4127795742    -0.0352972849
|  6>  C       -0.0256369065    -0.0808656658    -0.0342297300
|  7>  N        1.0108921639    -0.8549944747    -0.7651568093
|  8>  C        0.1519667876    -2.0652537996    -0.5217860241
|  9>  C        0.3259834381    -2.2412445514     1.0058423930
| 10>  O        0.6295294748    -3.1645172692     1.7067631065
| 11>  C       -0.3265248981    -0.9181072493     1.2321010124
| 12>  C       -1.0809264290    -1.1228969883    -0.1374424937
| 13>  O       -2.4143932489    -1.0776710528    -0.4129348458
| 14>  H        0.8240081517     1.8323025805     0.4121500763
| 15>  H       -0.1711706730     1.7955855263    -1.0577770454
| 16>  H       -0.9472113712     1.7681445453     0.5312866379
| 17>  H        0.9280953693    -0.6068289668    -1.7521916192
| 18>  H        0.1956140899    -2.8960664959    -1.2201358365
| 19>  H       -0.7006350274    -0.4611961761     2.1386297510
| 20>  H       -2.8766032835    -1.7310568365     0.1265445817
| 21> *
| 22>
| 23>                          ****END OF INPUT****

CARTESIAN COORDINATES (ANGSTROEM)
---------------------------------
  C     -0.082135    1.412780   -0.035297
  C     -0.025637   -0.080866   -0.034230
  N      1.010892   -0.854994   -0.765157
  C      0.151967   -2.065254   -0.521786
  C      0.325983   -2.241245    1.005842
  O      0.629529   -3.164517    1.706763
  C     -0.326525   -0.918107    1.232101
  C     -1.080926   -1.122897   -0.137442
  O     -2.414393   -1.077671   -0.412935
  H      0.824008    1.832303    0.412150
  H     -0.171171    1.795586   -1.057777
  H     -0.947211    1.768145    0.531287
  H      0.928095   -0.606829   -1.752192
  H      0.195614   -2.896066   -1.220136
  H     -0.700635   -0.461196    2.138630
  H     -2.876603   -1.731057    0.126545

 Total Charge           Charge          ....    0
 Multiplicity           Mult            ....    1
 Number of Electrons    NEL             ....   66
 Basis Dimension        Dim             ....  321

ORBITAL ENERGIES
----------------

  NO   OCC          E(Eh)            E(eV)
   0   2.0000     -20.605804      -560.7124
   1   2.0000     -20.544093      -559.0332
   2   2.0000     -15.572117      -423.7389
   3   2.0000     -11.337958      -308.5215
   4   2.0000     -11.326885      -308.2202
   5   2.0000     -11.299680      -307.4799
   6   2.0000     -11.289255      -307.1963
   7   2.0000     -11.255195      -306.2694
   8   2.0000     -11.243195      -305.9429
   9   2.0000      -1.419366       -38.6229
  10   2.0000      -1.391002       -37.8511
  11   2.0000      -1.304159       -35.4880
  12   2.0000      -1.099641       -29.9228
  13   2.0000      -1.034375       -28.1468
  14   2.0000      -0.920631       -25.0516
  15   2.0000      -0.882742       -24.0206
  16   2.0000      -0.784806       -21.3557
  17   2.0000      -0.744730       -20.2651
  18   2.0000      -0.709731       -19.3128
  19   2.0000      -0.674684       -18.3591
  20   2.0000      -0.651827       -17.7371
  21   2.0000      -0.649184       -17.6652
  22   2.0000      -0.621410       -16.9094
  23   2.0000      -0.594730       -16.1834
  24   2.0000      -0.590701       -16.0738
  25   2.0000      -0.580660       -15.8006
  26   2.0000      -0.547136       -14.8883
  27   2.0000      -0.524412       -14.2700
  28   2.0000      -0.510840       -13.9007
  29   2.0000      -0.450133       -12.2488
  30   2.0000      -0.412959       -11.2372
  31   2.0000      -0.399094       -10.8599
  32   2.0000      -0.370744       -10.0885
  33   0.0000       0.117045         3.1850
  34   0.0000       0.131921         3.5898
  35   0.0000       0.155977         4.2443
  36   0.0000       0.168117         4.5747
  37   0.0000       0.174963         4.7610

MULLIKEN ATOMIC CHARGES
-----------------------
   0 C :   -0.438100
   1 C :    0.044920
   2 N :   -0.298602
   3 C :    0.030023
   4 C :    0.111228
   5 O :   -0.269326
   6 C :   -0.134603
   7 C :    0.071723
   8 O :   -0.427836
   9 H :    0.157965
  10 H :    0.139147
  11 H :    0.145583
  12 H :    0.207056
  13 H :    0.158705
  14 H :    0.159001
  15 H :    0.343116
Sum of atomic charges:   -0.0000000

LOEWDIN ATOMIC CHARGES
----------------------
   0 C :   -0.259672
   1 C :   -0.254429
   2 N :    0.039099
   3 C :   -0.151629
   4 C :   -0.306082
   5 O :    0.150166
   6 C :   -0.087295
   7 C :   -0.247581
   8 O :    0.055463
   9 H :    0.138090
  10 H :    0.133446
  11 H :    0.139426
  12 H :    0.172347
  13 H :    0.135012
  14 H :    0.147539
  15 H :    0.196100

  Mayer bond orders larger than 0.1
B(  0-C ,  1-C ) :   0.8841 B(  0-C ,  9-H ) :   0.9446 B(  0-C , 10-H ) :   0.9293
B(  0-C , 11-H ) :   0.9288 B(  1-C ,  2-N ) :   0.9941 B(  1-C ,  6-C ) :   0.7817
B(  1-C ,  7-C ) :   0.9212 B(  2-N ,  3-C ) :   0.8661 B(  2-N , 12-H ) :   0.8654
B(  3-C ,  4-C ) :   0.8096 B(  3-C ,  6-C ) :  -0.1071 B(  3-C ,  7-C ) :   0.8601
B(  3-C , 13-H ) :   0.8953 B(  4-C ,  5-O ) :   2.0341 B(  4-C ,  6-C ) :   0.9266
B(  6-C ,  7-C ) :   0.7603 B(  6-C , 14-H ) :   0.9065 B(  7-C ,  8-O ) :   1.0682
B(  8-O , 15-H ) :   0.8212

MP2 TOTAL ENERGY:     -437.102787748 Eh
FINAL SINGLE POINT ENERGY      -437.102787748472

DIPOLE MOMENT
-------------
                                X             Y             Z
Electronic contribution:      0.03144      -6.25365       1.61846
Nuclear contribution   :     -1.03568       7.05962      -2.19528
                        -----------------------------------------
Total Dipole Moment    :     -1.00424       0.80597      -0.57682
                        -----------------------------------------
Magnitude (a.u.)       :      1.41096
Magnitude (Debye)      :      3.58638

                             ****ORCA TERMINATED NORMALLY****
TOTAL RUN TIME: 0 days 0 hours 15 minutes 10 seconds 955 msec
