                         Program Version 3.0.3 - RELEASE   -
|  1> ! RI-MP2 RIJK def2-TZVP def2-TZVP/C def2-TZVP/JK TIGHTSCF
|  2> % maxcore 2000
|  3> % mp2 density relaxed end
|  4> *xyz 0 1
|  5>  C        0.4655491131     1.3883740131    -0.0154116746
|  6>  O        0.6036370588    -0.0092753727    -0.0889902028
|  7>  C       -0.1169432034    -0.5690732372    -1.1690688799
|  8>  C        0.1025640518    -2.0566407026    -1.1517467885
|  9>  C       -0.1707526294    -2.9353710270    -2.3553331225
| 10>  O       -0.2890647954    -2.2801355456    -3.6016750042
| 11>  C        1.0421681820    -2.1211196562    -4.0619647154
| 12>  O        1.8549927183    -1.9479217716    -2.9152700843
| 13>  C        1.2414268182    -2.7191172951    -1.9049778585
| 14>  H        0.8432959589     1.8861486421    -0.9228655178
| 15>  H       -0.5850182946     1.6906108188     0.1263297108
| 16>  H        1.0490028234     1.7306952665     0.8428365664
| 17>  H       -1.1928711840    -0.3458860227    -1.0672799521
| 18>  H        0.2172781137    -0.1404006473    -2.1233267815
| 19>  H       -0.1291939276    -2.5236150542    -0.1971944050
| 20>  H       -0.7181445669    -3.8682809427    -2.2741942104
| 21>  H        1.3607557130    -3.0127155733    -4.6289217464
| 22>  H        1.1027295016    -1.2246630721    -4.6848643667
| 23>  H        1.8759007984    -3.4705970305    -1.4485027465
| 24> *
| 25>
| 26>                          ****END OF INPUT****

CARTESIAN COORDINATES (ANGSTROEM)
---------------------------------
  C      0.465549    1.388374   -0.015412
  O      0.603637   -0.009275   -0.088990
  C     -0.116943   -0.569073   -1.169069
  C      0.102564   -2.056641   -1.151747
  C     -0.170753   -2.935371   -2.355333
  O     -0.289065   -2.280136   -3.601675
  C      1.042168   -2.121120   -4.061965
  O      1.854993   -1.947922   -2.915270
  C      1.241427   -2.719117   -1.904978
  H      0.843296    1.886149   -0.922866
  H     -0.585018    1.690611    0.126330
  H      1.049003    1.730695    0.842837
  H     -1.192871   -0.345886   -1.067280
  H      0.217278   -0.140401   -2.123327
  H     -0.129194   -2.523615   -0.197194
  H     -0.718145   -3.868281   -2.274194
  H      1.360756   -3.012716   -4.628922
  H      1.102730   -1.224663   -4.684864
  H      1.875901   -3.470597   -1.448503

 Total Charge           Charge          ....    0
 Multiplicity           Mult            ....    1
 Number of Electrons    NEL             ....   70
 Basis Dimension        Dim             ....  339

ORBITAL ENERGIES
----------------

  NO   OCC          E(Eh)            E(eV)
   0   2.0000     -20.573581      -559.8356
   1   2.0000     -20.572208      -559.7982
   2   2.0000     -20.551917      -559.2461
   3   2.0000     -11.335995      -308.4681
   4   2.0000     -11.291623      -307.2607
   5   2.0000     -11.289205      -307.1949
   6   2.0000     -11.275500      -306.8220
   7   2.0000     -11.267390      -306.6013
   8   2.0000     -11.239699      -305.8478
   9   2.0000      -1.450966       -39.4828
  10   2.0000      -1.372988       -37.3609
  11   2.0000      -1.340742       -36.4834
  12   2.0000      -1.140018       -31.0215
  13   2.0000      -0.983280       -26.7564
  14   2.0000      -0.912105       -24.8196
  15   2.0000      -0.881627       -23.9903
  16   2.0000      -0.829890       -22.5824
  17   2.0000      -0.782953       -21.3052
  18   2.0000      -0.739945       -20.1349
  19   2.0000      -0.692992       -18.8573
  20   2.0000      -0.662162       -18.0184
  21   2.0000      -0.649384       -17.6706
  22   2.0000      -0.630771       -17.1642
  23   2.0000      -0.625196       -17.0124
  24   2.0000      -0.620038       -16.8721
  25   2.0000      -0.571687       -15.5564
  26   2.0000      -0.561574       -15.2812
  27   2.0000      -0.543175       -14.7806
  28   2.0000      -0.524380       -14.2691
  29   2.0000      -0.510273       -13.8852
  30   2.0000      -0.480355       -13.0711
  31   2.0000      -0.469628       -12.7792
  32   2.0000      -0.423752       -11.5309
  33   2.0000      -0.398847       -10.8532
  34   2.0000      -0.395165       -10.7530
  35   0.0000       0.146448         3.9850
  36   0.0000       0.155811         4.2398
  37   0.0000       0.168500         4.5851
  38   0.0000       0.185898         5.0585
  39   0.0000       0.191757         5.2180

MULLIKEN ATOMIC CHARGES
-----------------------
   0 C :   -0.216970
   1 O :   -0.302987
   2 C :   -0.059788
   3 C :   -0.084082
   4 C :    0.007607
   5 O :   -0.332551
   6 C :    0.127045
   7 O :   -0.331965
   8 C :    0.024486
   9 H :    0.112179
  10 H :    0.108985
  11 H :    0.138270
  12 H :    0.099059
  13 H :    0.106275
  14 H :    0.126116
  15 H :    0.132925
  16 H :    0.087774
  17 H :    0.124448
  18 H :    0.133173
Sum of atomic charges:    0.0000000

LOEWDIN ATOMIC CHARGES
----------------------
   0 C :   -0.363247
   1 O :    0.136548
   2 C :   -0.300788
   3 C :   -0.188774
   4 C :   -0.255978
   5 O :    0.173559
   6 C :   -0.354760
   7 O :    0.179811
   8 C :   -0.253829
   9 H :    0.101700
  10 H :    0.100263
  11 H :    0.113191
  12 H :    0.124605
  13 H :    0.129486
  14 H :    0.159628
  15 H :    0.135671
  16 H :    0.107364
  17 H :    0.119237
  18 H :    0.136313

  Mayer bond orders larger than 0.1
B(  0-C ,  1-O ) :   0.9235 B(  0-C ,  9-H ) :   0.9361 B(  0-C , 10-H ) :   0.9379
B(  0-C , 11-H ) :   0.9395 B(  1-O ,  2-C ) :   0.9514 B(  2-C ,  3-C ) :   0.9318
B(  2-C , 12-H ) :   0.9210 B(  2-C , 13-H ) :   0.9178 B(  3-C ,  4-C ) :   0.8589
B(  3-C ,  8-C ) :   0.8679 B(  3-C , 14-H ) :   0.9130 B(  4-C ,  5-O ) :   0.9450
B(  4-C ,  8-C ) :   0.8766 B(  4-C , 15-H ) :   0.9357 B(  5-O ,  6-C ) :   0.9472
B(  6-C ,  7-O ) :   0.9524 B(  6-C , 16-H ) :   0.9137 B(  6-C , 17-H ) :   0.9317
B(  7-O ,  8-C ) :   0.9355 B(  8-C , 18-H ) :   0.9341

MP2 TOTAL ENERGY:     -459.377216515 Eh
FINAL SINGLE POINT ENERGY      -459.377216515274

DIPOLE MOMENT
-------------
                                X             Y             Z
Electronic contribution:      1.17156      -4.84341      -2.73535
Nuclear contribution   :     -1.40437       4.66065       2.65982
                        -----------------------------------------
Total Dipole Moment    :     -0.23281      -0.18276      -0.07554
                        -----------------------------------------
Magnitude (a.u.)       :      0.30546
Magnitude (Debye)      :      0.77642

                             ****ORCA TERMINATED NORMALLY****
TOTAL RUN TIME: 0 days 0 hours 14 minutes 41 seconds 978 msec
