                         Program Version 3.0.3 - RELEASE   -
|  1> ! RI-MP2 RIJK def2-TZVP def2-TZVP/C def2-TZVP/JK TIGHTSCF
|  2> % maxcore 2000
|  3> % mp2 density relaxed end
|  4> *xyz 0 1
|  5>  C       -0.2633732876     1.0017287025    -1.7629454972
|  6>  C       -0.0611707082    -0.1756669387    -0.8330918521
|  7>  C        1.3017789772    -0.6301804257    -0.3441518684
|  8>  C        2.5954974465     0.0599121613    -0.7240554072
|  9>  C        0.3025705656    -0.0363223740     0.6345863326
| 10>  C        0.5326480290     1.3248233653     1.2659066978
| 11>  C       -0.3647436573    -1.0143214546     1.5765842457
| 12>  O       -1.6642182785    -0.5251251692     1.8948554442
| 13>  H        0.4540921953     1.8081329182    -1.5948039480
| 14>  H       -0.1615342202     0.6900724536    -2.8087195279
| 15>  H       -1.2662599093     1.4251563010    -1.6399493731
| 16>  H       -0.7578882866    -0.9861380173    -1.0369510791
| 17>  H        1.4164953565    -1.7105506755    -0.2717108919
| 18>  H        2.4881621287     1.1424340852    -0.8206559507
| 19>  H        3.3729018699    -0.1251898148     0.0258751046
| 20>  H        2.9676609986    -0.3178485662    -1.6830545813
| 21>  H        0.9296192003     2.0614415161     0.5657744379
| 22>  H       -0.4092906511     1.7113188627     1.6649854027
| 23>  H        1.2413713011     1.2491005329     2.0998999428
| 24>  H       -0.4262816607    -2.0056910688     1.0998969254
| 25>  H        0.2437952283    -1.1258154239     2.4899465680
| 26>  H       -2.0266039072    -1.0727248800     2.5972490350
| 27> *
| 28>
| 29>                          ****END OF INPUT****

CARTESIAN COORDINATES (ANGSTROEM)
---------------------------------
  C     -0.263373    1.001729   -1.762945
  C     -0.061171   -0.175667   -0.833092
  C      1.301779   -0.630180   -0.344152
  C      2.595497    0.059912   -0.724055
  C      0.302571   -0.036322    0.634586
  C      0.532648    1.324823    1.265907
  C     -0.364744   -1.014321    1.576584
  O     -1.664218   -0.525125    1.894855
  H      0.454092    1.808133   -1.594804
  H     -0.161534    0.690072   -2.808720
  H     -1.266260    1.425156   -1.639949
  H     -0.757888   -0.986138   -1.036951
  H      1.416495   -1.710551   -0.271711
  H      2.488162    1.142434   -0.820656
  H      3.372902   -0.125190    0.025875
  H      2.967661   -0.317849   -1.683055
  H      0.929619    2.061442    0.565774
  H     -0.409291    1.711319    1.664985
  H      1.241371    1.249101    2.099900
  H     -0.426282   -2.005691    1.099897
  H      0.243795   -1.125815    2.489947
  H     -2.026604   -1.072725    2.597249

 Total Charge           Charge          ....    0
 Multiplicity           Mult            ....    1
 Number of Electrons    NEL             ....   64
 Basis Dimension        Dim             ....  332

ORBITAL ENERGIES
----------------

  NO   OCC          E(Eh)            E(eV)
   0   2.0000     -20.550634      -559.2112
   1   2.0000     -11.271633      -306.7167
   2   2.0000     -11.225444      -305.4599
   3   2.0000     -11.222608      -305.3827
   4   2.0000     -11.219876      -305.3083
   5   2.0000     -11.213413      -305.1325
   6   2.0000     -11.210156      -305.0438
   7   2.0000     -11.206150      -304.9348
   8   2.0000      -1.354292       -36.8522
   9   2.0000      -1.153996       -31.4018
  10   2.0000      -0.990789       -26.9607
  11   2.0000      -0.975438       -26.5430
  12   2.0000      -0.932577       -25.3767
  13   2.0000      -0.895415       -24.3655
  14   2.0000      -0.751273       -20.4432
  15   2.0000      -0.724749       -19.7214
  16   2.0000      -0.688954       -18.7474
  17   2.0000      -0.653158       -17.7733
  18   2.0000      -0.634159       -17.2563
  19   2.0000      -0.578720       -15.7478
  20   2.0000      -0.575272       -15.6540
  21   2.0000      -0.564044       -15.3484
  22   2.0000      -0.545542       -14.8450
  23   2.0000      -0.536194       -14.5906
  24   2.0000      -0.530481       -14.4351
  25   2.0000      -0.527285       -14.3481
  26   2.0000      -0.517077       -14.0704
  27   2.0000      -0.476577       -12.9683
  28   2.0000      -0.466983       -12.7073
  29   2.0000      -0.441941       -12.0258
  30   2.0000      -0.382775       -10.4158
  31   2.0000      -0.377133       -10.2623
  32   0.0000       0.130469         3.5502
  33   0.0000       0.148350         4.0368
  34   0.0000       0.167803         4.5662
  35   0.0000       0.174004         4.7349
  36   0.0000       0.185913         5.0589

MULLIKEN ATOMIC CHARGES
-----------------------
   0 C :   -0.411636
   1 C :   -0.100980
   2 C :   -0.132223
   3 C :   -0.407332
   4 C :    0.118214
   5 C :   -0.414427
   6 C :   -0.094126
   7 O :   -0.465264
   8 H :    0.115151
   9 H :    0.132292
  10 H :    0.141187
  11 H :    0.114021
  12 H :    0.112549
  13 H :    0.119990
  14 H :    0.132262
  15 H :    0.134579
  16 H :    0.119292
  17 H :    0.158006
  18 H :    0.123216
  19 H :    0.093506
  20 H :    0.099384
  21 H :    0.312341
Sum of atomic charges:   -0.0000000

LOEWDIN ATOMIC CHARGES
----------------------
   0 C :   -0.291626
   1 C :   -0.195589
   2 C :   -0.199208
   3 C :   -0.292294
   4 C :   -0.245127
   5 C :   -0.263862
   6 C :   -0.307259
   7 O :   -0.047288
   8 H :    0.120453
   9 H :    0.125806
  10 H :    0.128671
  11 H :    0.151521
  12 H :    0.147478
  13 H :    0.122189
  14 H :    0.125798
  15 H :    0.126360
  16 H :    0.122386
  17 H :    0.134448
  18 H :    0.126848
  19 H :    0.120695
  20 H :    0.119353
  21 H :    0.170247

  Mayer bond orders larger than 0.1
B(  0-C ,  1-C ) :   0.9078 B(  0-C ,  8-H ) :   0.9396 B(  0-C ,  9-H ) :   0.9383
B(  0-C , 10-H ) :   0.9401 B(  1-C ,  2-C ) :   0.8915 B(  1-C ,  4-C ) :   0.8552
B(  1-C , 11-H ) :   0.9287 B(  2-C ,  3-C ) :   0.8982 B(  2-C ,  4-C ) :   0.8519
B(  2-C , 12-H ) :   0.9275 B(  3-C , 13-H ) :   0.9420 B(  3-C , 14-H ) :   0.9393
B(  3-C , 15-H ) :   0.9391 B(  4-C ,  5-C ) :   0.9159 B(  4-C ,  6-C ) :   0.9148
B(  4-C ,  7-O ) :  -0.1022 B(  5-C , 16-H ) :   0.9346 B(  5-C , 17-H ) :   0.9380
B(  5-C , 18-H ) :   0.9346 B(  6-C ,  7-O ) :   1.0564 B(  6-C , 19-H ) :   0.9144
B(  6-C , 20-H ) :   0.9338 B(  7-O , 21-H ) :   0.8484

MP2 TOTAL ENERGY:     -349.593085787 Eh
FINAL SINGLE POINT ENERGY      -349.593085787486

DIPOLE MOMENT
-------------
                                X             Y             Z
Electronic contribution:     -3.85958      -2.91623       2.89344
Nuclear contribution   :      4.08049       2.48228      -2.63867
                        -----------------------------------------
Total Dipole Moment    :      0.22091      -0.43394       0.25477
                        -----------------------------------------
Magnitude (a.u.)       :      0.54956
Magnitude (Debye)      :      1.39687

                             ****ORCA TERMINATED NORMALLY****
TOTAL RUN TIME: 0 days 0 hours 14 minutes 43 seconds 77 msec
