                         Program Version 3.0.3 - RELEASE   -
|  1> ! RI-MP2 RIJK def2-TZVP def2-TZVP/C def2-TZVP/JK TIGHTSCF
|  2> % maxcore 2000
|  3> % mp2 density relaxed end
|  4> *xyz 0 1
|  5>  O        0.0893621414     1.3825605694     0.2504013779
|  6>  C        0.0684192294     0.0162893565    -0.1178886791
|  7>  C       -1.3272011531    -0.5109447133    -0.0502278076
|  8>  C       -2.4182860933     0.1564934050     0.3197574785
|  9>  C       -3.6743653871    -0.6946916409     0.2030806707
| 10>  C       -3.0894013046    -2.1335909534     0.0509334756
| 11>  C       -1.6498197375    -1.9286033480    -0.4734525595
| 12>  C       -4.6088406053    -0.5541219480     1.3149637115
| 13>  C       -5.3752608478    -0.4426025590     2.2347713912
| 14>  H        1.0029555830     1.6809485346     0.2424485622
| 15>  H        0.4600339549    -0.1323369422    -1.1408602289
| 16>  H        0.7128083753    -0.5898501995     0.5443136990
| 17>  H       -2.4434157902     1.1923395366     0.6294290114
| 18>  H       -4.2093900389    -0.4140324888    -0.7181588295
| 19>  H       -3.0598995783    -2.6003318200     1.0389045731
| 20>  H       -3.7026117362    -2.7650126531    -0.5959041684
| 21>  H       -1.5954933096    -2.0246880039    -1.5677200882
| 22>  H       -0.9490849663    -2.6676656115    -0.0665252770
| 23>  H       -6.0518454260    -0.3399693605     3.0463749471
| 24> *
| 25>
| 26>                          ****END OF INPUT****

CARTESIAN COORDINATES (ANGSTROEM)
---------------------------------
  O      0.089362    1.382561    0.250401
  C      0.068419    0.016289   -0.117889
  C     -1.327201   -0.510945   -0.050228
  C     -2.418286    0.156493    0.319757
  C     -3.674365   -0.694692    0.203081
  C     -3.089401   -2.133591    0.050933
  C     -1.649820   -1.928603   -0.473453
  C     -4.608841   -0.554122    1.314964
  C     -5.375261   -0.442603    2.234771
  H      1.002956    1.680949    0.242449
  H      0.460034   -0.132337   -1.140860
  H      0.712808   -0.589850    0.544314
  H     -2.443416    1.192340    0.629429
  H     -4.209390   -0.414032   -0.718159
  H     -3.059900   -2.600332    1.038905
  H     -3.702612   -2.765013   -0.595904
  H     -1.595493   -2.024688   -1.567720
  H     -0.949085   -2.667666   -0.066525
  H     -6.051845   -0.339969    3.046375

 Total Charge           Charge          ....    0
 Multiplicity           Mult            ....    1
 Number of Electrons    NEL             ....   66
 Basis Dimension        Dim             ....  339

ORBITAL ENERGIES
----------------

  NO   OCC          E(Eh)            E(eV)
   0   2.0000     -20.561435      -559.5051
   1   2.0000     -11.287085      -307.1372
   2   2.0000     -11.253978      -306.2363
   3   2.0000     -11.230952      -305.6098
   4   2.0000     -11.229668      -305.5748
   5   2.0000     -11.228899      -305.5539
   6   2.0000     -11.225836      -305.4705
   7   2.0000     -11.218854      -305.2805
   8   2.0000     -11.212980      -305.1207
   9   2.0000      -1.367340       -37.2072
  10   2.0000      -1.147751       -31.2319
  11   2.0000      -1.044936       -28.4342
  12   2.0000      -0.992258       -27.0007
  13   2.0000      -0.961717       -26.1697
  14   2.0000      -0.902603       -24.5611
  15   2.0000      -0.813758       -22.1435
  16   2.0000      -0.718950       -19.5636
  17   2.0000      -0.712307       -19.3829
  18   2.0000      -0.698478       -19.0065
  19   2.0000      -0.662130       -18.0175
  20   2.0000      -0.652397       -17.7526
  21   2.0000      -0.632793       -17.2192
  22   2.0000      -0.584512       -15.9054
  23   2.0000      -0.568299       -15.4642
  24   2.0000      -0.514366       -13.9966
  25   2.0000      -0.513278       -13.9670
  26   2.0000      -0.504040       -13.7156
  27   2.0000      -0.495794       -13.4912
  28   2.0000      -0.485242       -13.2041
  29   2.0000      -0.457117       -12.4388
  30   2.0000      -0.379517       -10.3272
  31   2.0000      -0.377982       -10.2854
  32   2.0000      -0.339996        -9.2518
  33   0.0000       0.128048         3.4844
  34   0.0000       0.142192         3.8692
  35   0.0000       0.155861         4.2412
  36   0.0000       0.162921         4.4333
  37   0.0000       0.171621         4.6700

MULLIKEN ATOMIC CHARGES
-----------------------
   0 O :   -0.459192
   1 C :   -0.098117
   2 C :    0.031065
   3 C :   -0.236438
   4 C :   -0.056427
   5 C :   -0.253688
   6 C :   -0.193606
   7 C :   -0.051699
   8 C :   -0.162346
   9 H :    0.315092
  10 H :    0.104680
  11 H :    0.109620
  12 H :    0.150573
  13 H :    0.118519
  14 H :    0.125954
  15 H :    0.128082
  16 H :    0.115845
  17 H :    0.124606
  18 H :    0.187477
Sum of atomic charges:    0.0000000

LOEWDIN ATOMIC CHARGES
----------------------
   0 O :   -0.035376
   1 C :   -0.314947
   2 C :   -0.173554
   3 C :   -0.092649
   4 C :   -0.215963
   5 C :   -0.194760
   6 C :   -0.211777
   7 C :   -0.086450
   8 C :   -0.106139
   9 H :    0.174159
  10 H :    0.125842
  11 H :    0.126409
  12 H :    0.148778
  13 H :    0.172684
  14 H :    0.145570
  15 H :    0.133649
  16 H :    0.141228
  17 H :    0.137951
  18 H :    0.125347

  Mayer bond orders larger than 0.1
B(  0-O ,  1-C ) :   1.0559 B(  0-O ,  2-C ) :  -0.1188 B(  0-O ,  9-H ) :   0.8474
B(  1-C ,  2-C ) :   0.9073 B(  1-C , 10-H ) :   0.9254 B(  1-C , 11-H ) :   0.9383
B(  2-C ,  3-C ) :   1.7531 B(  2-C ,  6-C ) :   0.9159 B(  3-C ,  4-C ) :   0.8733
B(  3-C , 12-H ) :   0.9272 B(  4-C ,  5-C ) :   0.9241 B(  4-C ,  7-C ) :   1.1474
B(  4-C , 13-H ) :   0.9049 B(  5-C ,  6-C ) :   0.9453 B(  5-C , 14-H ) :   0.9303
B(  5-C , 15-H ) :   0.9317 B(  6-C , 16-H ) :   0.9025 B(  6-C , 17-H ) :   0.9255
B(  7-C ,  8-C ) :   2.5787 B(  8-C , 18-H ) :   0.8972

MP2 TOTAL ENERGY:     -385.177756223 Eh
FINAL SINGLE POINT ENERGY      -385.177756223052

DIPOLE MOMENT
-------------
                                X             Y             Z
Electronic contribution:     -2.38302       3.16110       1.94946
Nuclear contribution   :      3.21305      -3.50682      -2.30567
                        -----------------------------------------
Total Dipole Moment    :      0.83002      -0.34572      -0.35621
                        -----------------------------------------
Magnitude (a.u.)       :      0.96713
Magnitude (Debye)      :      2.45826

                             ****ORCA TERMINATED NORMALLY****
TOTAL RUN TIME: 0 days 0 hours 17 minutes 16 seconds 417 msec
