                         Program Version 3.0.3 - RELEASE   -
|  1> ! RI-MP2 RIJK def2-TZVP def2-TZVP/C def2-TZVP/JK TIGHTSCF
|  2> % maxcore 2000
|  3> % mp2 density relaxed end
|  4> *xyz 0 1
|  5>  C       -0.0160640706     1.5352003814     0.0693196024
|  6>  C        0.0514231982     0.0240751395     0.0021294747
|  7>  C       -0.6060122985    -0.7638074082     1.1154181763
|  8>  C        0.8975543382    -0.7744292001     0.9791922803
|  9>  C        1.5842781851    -1.9188830808     0.2305233929
| 10>  C        1.1220836882    -1.8292336279    -1.2255682029
| 11>  C       -0.3330930092    -2.0459393596    -1.5645143983
| 12>  C        0.1923190650    -0.6378216981    -1.3813800242
| 13>  C        0.2558061347     0.2579119094    -2.6004763504
| 14>  H        0.8452477430     2.0089479295    -0.4136550671
| 15>  H       -0.9214136092     1.9238041795    -0.4112231074
| 16>  H       -0.0307737736     1.8684933928     1.1115335433
| 17>  H       -1.0166079594    -0.1862886182     1.9384751759
| 18>  H       -1.1735687315    -1.6612530863     0.9019715972
| 19>  H        1.4692010490    -0.2680743023     1.7512982877
| 20>  H        2.6698713068    -1.7766594581     0.2730364976
| 21>  H        1.3792061801    -2.8989242987     0.6785113499
| 22>  H        1.8508718313    -2.0611286679    -1.9965517957
| 23>  H       -0.5561266192    -2.3495251821    -2.5831564742
| 24>  H       -0.9968043490    -2.4916941621    -0.8338449683
| 25>  H       -0.6829029924     0.8026206468    -2.7544607799
| 26>  H        1.0604176428     0.9974544740    -2.5281303621
| 27>  H        0.4390752201    -0.3377537327    -3.4999795874
| 28> *
| 29>
| 30>                          ****END OF INPUT****

CARTESIAN COORDINATES (ANGSTROEM)
---------------------------------
  C     -0.016064    1.535200    0.069320
  C      0.051423    0.024075    0.002129
  C     -0.606012   -0.763807    1.115418
  C      0.897554   -0.774429    0.979192
  C      1.584278   -1.918883    0.230523
  C      1.122084   -1.829234   -1.225568
  C     -0.333093   -2.045939   -1.564514
  C      0.192319   -0.637822   -1.381380
  C      0.255806    0.257912   -2.600476
  H      0.845248    2.008948   -0.413655
  H     -0.921414    1.923804   -0.411223
  H     -0.030774    1.868493    1.111534
  H     -1.016608   -0.186289    1.938475
  H     -1.173569   -1.661253    0.901972
  H      1.469201   -0.268074    1.751298
  H      2.669871   -1.776659    0.273036
  H      1.379206   -2.898924    0.678511
  H      1.850872   -2.061129   -1.996552
  H     -0.556127   -2.349525   -2.583156
  H     -0.996804   -2.491694   -0.833845
  H     -0.682903    0.802621   -2.754461
  H      1.060418    0.997454   -2.528130
  H      0.439075   -0.337754   -3.499980

 Total Charge           Charge          ....    0
 Multiplicity           Mult            ....    1
 Number of Electrons    NEL             ....   68
 Basis Dimension        Dim             ....  363

ORBITAL ENERGIES
----------------

  NO   OCC          E(Eh)            E(eV)
   0   2.0000     -11.231590      -305.6271
   1   2.0000     -11.231019      -305.6116
   2   2.0000     -11.219063      -305.2862
   3   2.0000     -11.218675      -305.2757
   4   2.0000     -11.218218      -305.2632
   5   2.0000     -11.214968      -305.1748
   6   2.0000     -11.214959      -305.1746
   7   2.0000     -11.213478      -305.1342
   8   2.0000     -11.213473      -305.1341
   9   2.0000      -1.191016       -32.4092
  10   2.0000      -1.100346       -29.9419
  11   2.0000      -1.005089       -27.3499
  12   2.0000      -0.940463       -25.5913
  13   2.0000      -0.938677       -25.5427
  14   2.0000      -0.828474       -22.5439
  15   2.0000      -0.796714       -21.6797
  16   2.0000      -0.759393       -20.6641
  17   2.0000      -0.703235       -19.1360
  18   2.0000      -0.662896       -18.0383
  19   2.0000      -0.621674       -16.9166
  20   2.0000      -0.598523       -16.2866
  21   2.0000      -0.576705       -15.6929
  22   2.0000      -0.571011       -15.5380
  23   2.0000      -0.549075       -14.9411
  24   2.0000      -0.543796       -14.7974
  25   2.0000      -0.543284       -14.7835
  26   2.0000      -0.533474       -14.5166
  27   2.0000      -0.518673       -14.1138
  28   2.0000      -0.471469       -12.8293
  29   2.0000      -0.461206       -12.5501
  30   2.0000      -0.419323       -11.4104
  31   2.0000      -0.400209       -10.8902
  32   2.0000      -0.387138       -10.5346
  33   2.0000      -0.349443        -9.5088
  34   0.0000       0.139130         3.7859
  35   0.0000       0.160943         4.3795
  36   0.0000       0.161533         4.3955
  37   0.0000       0.174801         4.7566
  38   0.0000       0.182559         4.9677

MULLIKEN ATOMIC CHARGES
-----------------------
   0 C :   -0.423058
   1 C :    0.094032
   2 C :   -0.296211
   3 C :   -0.129587
   4 C :   -0.216808
   5 C :   -0.129593
   6 C :   -0.296205
   7 C :    0.094025
   8 C :   -0.423054
   9 H :    0.128723
  10 H :    0.134331
  11 H :    0.129947
  12 H :    0.123388
  13 H :    0.114659
  14 H :    0.117813
  15 H :    0.116476
  16 H :    0.112262
  17 H :    0.117813
  18 H :    0.123389
  19 H :    0.114660
  20 H :    0.134332
  21 H :    0.128718
  22 H :    0.129948
Sum of atomic charges:    0.0000000

LOEWDIN ATOMIC CHARGES
----------------------
   0 C :   -0.265551
   1 C :   -0.194609
   2 C :   -0.188172
   3 C :   -0.174265
   4 C :   -0.212083
   5 C :   -0.174265
   6 C :   -0.188172
   7 C :   -0.194609
   8 C :   -0.265551
   9 H :    0.125265
  10 H :    0.127236
  11 H :    0.129244
  12 H :    0.134304
  13 H :    0.129244
  14 H :    0.142181
  15 H :    0.143393
  16 H :    0.138933
  17 H :    0.142181
  18 H :    0.134305
  19 H :    0.129244
  20 H :    0.127235
  21 H :    0.125267
  22 H :    0.129244

  Mayer bond orders larger than 0.1
B(  0-C ,  1-C ) :   0.8722 B(  0-C ,  9-H ) :   0.9451 B(  0-C , 10-H ) :   0.9473
B(  0-C , 11-H ) :   0.9323 B(  1-C ,  2-C ) :   0.9046 B(  1-C ,  3-C ) :   0.8433
B(  1-C ,  7-C ) :   0.9266 B(  2-C ,  3-C ) :   0.8864 B(  2-C , 12-H ) :   0.9298
B(  2-C , 13-H ) :   0.9130 B(  3-C ,  4-C ) :   0.9582 B(  3-C , 14-H ) :   0.9295
B(  4-C ,  5-C ) :   0.9582 B(  4-C , 15-H ) :   0.9242 B(  4-C , 16-H ) :   0.9147
B(  5-C ,  6-C ) :   0.8864 B(  5-C ,  7-C ) :   0.8433 B(  5-C , 17-H ) :   0.9295
B(  6-C ,  7-C ) :   0.9046 B(  6-C , 18-H ) :   0.9298 B(  6-C , 19-H ) :   0.9130
B(  7-C ,  8-C ) :   0.8722 B(  8-C , 20-H ) :   0.9473 B(  8-C , 21-H ) :   0.9451
B(  8-C , 22-H ) :   0.9323

MP2 TOTAL ENERGY:     -350.496861680 Eh
FINAL SINGLE POINT ENERGY      -350.496861679627

DIPOLE MOMENT
-------------
                                X             Y             Z
Electronic contribution:      0.55246      -2.48708       1.24616
Nuclear contribution   :     -0.46609       2.60673      -1.29461
                        -----------------------------------------
Total Dipole Moment    :      0.08637       0.11965      -0.04845
                        -----------------------------------------
Magnitude (a.u.)       :      0.15532
Magnitude (Debye)      :      0.39479

                             ****ORCA TERMINATED NORMALLY****
TOTAL RUN TIME: 0 days 0 hours 22 minutes 15 seconds 464 msec
