                         Program Version 3.0.3 - RELEASE   -
|  1> ! RI-MP2 RIJK def2-TZVP def2-TZVP/C def2-TZVP/JK TIGHTSCF
|  2> % maxcore 2000
|  3> % mp2 density relaxed end
|  4> *xyz 0 1
|  5>  O       -0.8818749161     1.1029110131    -0.0054939267
|  6>  C        0.2927794449     0.8564902041     0.1130983423
|  7>  C        1.3935709955     1.8739408038     0.0598960796
|  8>  O        2.6065817226     1.2980745813     0.5119989725
|  9>  C        3.5453273292     2.3775145092     0.3669290960
| 10>  C        2.6399804174     3.4637293608    -0.1918157203
| 11>  C        1.6620905732     2.7747542641    -1.2040979016
| 12>  C        0.5390976532     3.7353109813    -0.7524513912
| 13>  C        1.2659011499     3.3507925064     0.5577701351
| 14>  H        0.6610128444    -0.1806168817     0.2678084058
| 15>  H        3.9804899273     2.6287651874     1.3416565264
| 16>  H        4.3517545265     2.0838863117    -0.3158687669
| 17>  H        3.0530780118     4.4457723835    -0.4229521942
| 18>  H        1.8985698513     2.4178453125    -2.2072591011
| 19>  H        0.6574030178     4.7745849337    -1.0688840175
| 20>  H       -0.4869835412     3.3900670650    -0.8646080701
| 21>  H        1.0466859721     3.6650311238     1.5786771620
| 22> *
| 23>
| 24>                          ****END OF INPUT****

CARTESIAN COORDINATES (ANGSTROEM)
---------------------------------
  O     -0.881875    1.102911   -0.005494
  C      0.292779    0.856490    0.113098
  C      1.393571    1.873941    0.059896
  O      2.606582    1.298075    0.511999
  C      3.545327    2.377515    0.366929
  C      2.639980    3.463729   -0.191816
  C      1.662091    2.774754   -1.204098
  C      0.539098    3.735311   -0.752451
  C      1.265901    3.350793    0.557770
  H      0.661013   -0.180617    0.267808
  H      3.980490    2.628765    1.341657
  H      4.351755    2.083886   -0.315869
  H      3.053078    4.445772   -0.422952
  H      1.898570    2.417845   -2.207259
  H      0.657403    4.774585   -1.068884
  H     -0.486984    3.390067   -0.864608
  H      1.046686    3.665031    1.578677

 Total Charge           Charge          ....    0
 Multiplicity           Mult            ....    1
 Number of Electrons    NEL             ....   66
 Basis Dimension        Dim             ....  327

ORBITAL ENERGIES
----------------

  NO   OCC          E(Eh)            E(eV)
   0   2.0000     -20.567573      -559.6721
   1   2.0000     -20.560939      -559.4916
   2   2.0000     -11.335400      -308.4519
   3   2.0000     -11.306348      -307.6614
   4   2.0000     -11.284998      -307.0804
   5   2.0000     -11.260067      -306.4020
   6   2.0000     -11.257898      -306.3430
   7   2.0000     -11.255361      -306.2739
   8   2.0000     -11.236013      -305.7474
   9   2.0000      -1.410379       -38.3784
  10   2.0000      -1.394039       -37.9337
  11   2.0000      -1.208039       -32.8724
  12   2.0000      -1.019663       -27.7464
  13   2.0000      -0.931546       -25.3486
  14   2.0000      -0.881253       -23.9801
  15   2.0000      -0.862354       -23.4658
  16   2.0000      -0.809315       -22.0226
  17   2.0000      -0.731992       -19.9185
  18   2.0000      -0.699328       -19.0297
  19   2.0000      -0.680943       -18.5294
  20   2.0000      -0.656921       -17.8757
  21   2.0000      -0.652251       -17.7487
  22   2.0000      -0.599495       -16.3131
  23   2.0000      -0.585763       -15.9394
  24   2.0000      -0.563428       -15.3317
  25   2.0000      -0.524650       -14.2765
  26   2.0000      -0.510498       -13.8914
  27   2.0000      -0.492943       -13.4137
  28   2.0000      -0.471111       -12.8196
  29   2.0000      -0.468951       -12.7608
  30   2.0000      -0.453453       -12.3391
  31   2.0000      -0.412040       -11.2122
  32   2.0000      -0.399254       -10.8643
  33   0.0000       0.113577         3.0906
  34   0.0000       0.144341         3.9277
  35   0.0000       0.158552         4.3144
  36   0.0000       0.174274         4.7422
  37   0.0000       0.181605         4.9417

MULLIKEN ATOMIC CHARGES
-----------------------
   0 O :   -0.269709
   1 C :    0.040643
   2 C :    0.231531
   3 O :   -0.329074
   4 C :   -0.040066
   5 C :   -0.137892
   6 C :   -0.151374
   7 C :   -0.223462
   8 C :   -0.135695
   9 H :    0.108750
  10 H :    0.112717
  11 H :    0.112376
  12 H :    0.133704
  13 H :    0.140004
  14 H :    0.115427
  15 H :    0.150955
  16 H :    0.141166
Sum of atomic charges:   -0.0000000

LOEWDIN ATOMIC CHARGES
----------------------
   0 O :    0.142912
   1 C :   -0.241352
   2 C :   -0.282111
   3 O :    0.185675
   4 C :   -0.260227
   5 C :   -0.172597
   6 C :   -0.114539
   7 C :   -0.188626
   8 C :   -0.114446
   9 H :    0.122279
  10 H :    0.126499
  11 H :    0.126188
  12 H :    0.143566
  13 H :    0.130304
  14 H :    0.129944
  15 H :    0.135182
  16 H :    0.131349

  Mayer bond orders larger than 0.1
B(  0-O ,  1-C ) :   1.9923 B(  1-C ,  2-C ) :   0.8010 B(  1-C ,  9-H ) :   0.9704
B(  2-C ,  3-O ) :   0.9809 B(  2-C ,  6-C ) :   0.8495 B(  2-C ,  8-C ) :   0.8440
B(  3-O ,  4-C ) :   0.9182 B(  4-C ,  5-C ) :   0.9805 B(  4-C , 10-H ) :   0.9222
B(  4-C , 11-H ) :   0.9235 B(  5-C ,  6-C ) :   0.8865 B(  5-C ,  8-C ) :   0.8940
B(  5-C , 12-H ) :   0.9170 B(  6-C ,  7-C ) :   0.9254 B(  6-C , 13-H ) :   0.8873
B(  7-C ,  8-C ) :   0.9185 B(  7-C , 14-H ) :   0.9263 B(  7-C , 15-H ) :   0.9128
B(  8-C , 16-H ) :   0.8868

MP2 TOTAL ENERGY:     -421.079175040 Eh
FINAL SINGLE POINT ENERGY      -421.079175039553

DIPOLE MOMENT
-------------
                                X             Y             Z
Electronic contribution:     -2.46916      -3.95604       1.03088
Nuclear contribution   :      3.38116       4.63422      -1.20177
                        -----------------------------------------
Total Dipole Moment    :      0.91201       0.67819      -0.17089
                        -----------------------------------------
Magnitude (a.u.)       :      1.14930
Magnitude (Debye)      :      2.92129

                             ****ORCA TERMINATED NORMALLY****
TOTAL RUN TIME: 0 days 0 hours 17 minutes 34 seconds 346 msec
