                         Program Version 3.0.3 - RELEASE   -
|  1> ! RI-MP2 RIJK def2-TZVP def2-TZVP/C def2-TZVP/JK TIGHTSCF
|  2> % maxcore 2000
|  3> % mp2 density relaxed end
|  4> *xyz 0 1
|  5>  C       -0.0454538132     1.6296479212     0.0837101892
|  6>  C       -0.1509299220     0.1036031227     0.1293389473
|  7>  C        0.8443581333    -0.5355846413     1.1115093667
|  8>  C        0.7641043836    -2.0351642712     1.1090862284
|  9>  C       -0.1554907613    -2.8144918917     1.9649935294
| 10>  N        1.2909279945    -2.9257128850     2.2367814717
| 11>  C        1.7935003456    -3.8883595067     1.1943295257
| 12>  C        1.3637509933    -2.9388888090     0.0404367911
| 13>  O        0.4339308712    -3.3775361298    -0.9278401847
| 14>  H        0.9547785162     1.9495475104    -0.2295113448
| 15>  H       -0.7669099021     2.0581148654    -0.6189092993
| 16>  H       -0.2375619789     2.0696379489     1.0687672463
| 17>  H       -1.1691845965    -0.1910323817     0.4119441156
| 18>  H        0.0132003771    -0.3122915444    -0.8723427759
| 19>  H        1.8659524471    -0.2222894013     0.8553515026
| 20>  H        0.6557264613    -0.1698502038     2.1284851969
| 21>  H       -0.6890059055    -2.2644790027     2.7346358186
| 22>  H       -0.6872610994    -3.6737343693     1.5637047833
| 23>  H        2.8730317028    -4.0255449725     1.2874978361
| 24>  H        1.2941029447    -4.8628471719     1.2161272924
| 25>  H        2.2343972300    -2.4676875503    -0.4351871859
| 26>  H        0.9039033783    -3.8975497961    -1.5877545409
| 27> *
| 28>
| 29>                          ****END OF INPUT****

CARTESIAN COORDINATES (ANGSTROEM)
---------------------------------
  C     -0.045454    1.629648    0.083710
  C     -0.150930    0.103603    0.129339
  C      0.844358   -0.535585    1.111509
  C      0.764104   -2.035164    1.109086
  C     -0.155491   -2.814492    1.964994
  N      1.290928   -2.925713    2.236781
  C      1.793500   -3.888360    1.194330
  C      1.363751   -2.938889    0.040437
  O      0.433931   -3.377536   -0.927840
  H      0.954779    1.949548   -0.229511
  H     -0.766910    2.058115   -0.618909
  H     -0.237562    2.069638    1.068767
  H     -1.169185   -0.191032    0.411944
  H      0.013200   -0.312292   -0.872343
  H      1.865952   -0.222289    0.855352
  H      0.655726   -0.169850    2.128485
  H     -0.689006   -2.264479    2.734636
  H     -0.687261   -3.673734    1.563705
  H      2.873032   -4.025545    1.287498
  H      1.294103   -4.862847    1.216127
  H      2.234397   -2.467688   -0.435187
  H      0.903903   -3.897550   -1.587755

 Total Charge           Charge          ....    0
 Multiplicity           Mult            ....    1
 Number of Electrons    NEL             ....   70
 Basis Dimension        Dim             ....  357

ORBITAL ENERGIES
----------------

  NO   OCC          E(Eh)            E(eV)
   0   2.0000     -20.564175      -559.5796
   1   2.0000     -15.556786      -423.3217
   2   2.0000     -11.288150      -307.1662
   3   2.0000     -11.259281      -306.3806
   4   2.0000     -11.251642      -306.1727
   5   2.0000     -11.248903      -306.0982
   6   2.0000     -11.222499      -305.3797
   7   2.0000     -11.218982      -305.2840
   8   2.0000     -11.212205      -305.0996
   9   2.0000      -1.372801       -37.3558
  10   2.0000      -1.281666       -34.8759
  11   2.0000      -1.065546       -28.9950
  12   2.0000      -0.995048       -27.0766
  13   2.0000      -0.967331       -26.3224
  14   2.0000      -0.893395       -24.3105
  15   2.0000      -0.829882       -22.5822
  16   2.0000      -0.801751       -21.8168
  17   2.0000      -0.724100       -19.7038
  18   2.0000      -0.710350       -19.3296
  19   2.0000      -0.665897       -18.1200
  20   2.0000      -0.647126       -17.6092
  21   2.0000      -0.617516       -16.8035
  22   2.0000      -0.596494       -16.2314
  23   2.0000      -0.580332       -15.7916
  24   2.0000      -0.559854       -15.2344
  25   2.0000      -0.548148       -14.9159
  26   2.0000      -0.531862       -14.4727
  27   2.0000      -0.515169       -14.0184
  28   2.0000      -0.501632       -13.6501
  29   2.0000      -0.485771       -13.2185
  30   2.0000      -0.472538       -12.8584
  31   2.0000      -0.440719       -11.9926
  32   2.0000      -0.433534       -11.7971
  33   2.0000      -0.412160       -11.2154
  34   2.0000      -0.368228       -10.0200
  35   0.0000       0.125883         3.4254
  36   0.0000       0.142724         3.8837
  37   0.0000       0.164046         4.4639
  38   0.0000       0.173658         4.7255
  39   0.0000       0.177795         4.8381

MULLIKEN ATOMIC CHARGES
-----------------------
   0 C :   -0.386018
   1 C :   -0.206712
   2 C :   -0.301664
   3 C :    0.177531
   4 C :   -0.188379
   5 N :   -0.233777
   6 C :   -0.137360
   7 C :   -0.013027
   8 O :   -0.447306
   9 H :    0.120849
  10 H :    0.134599
  11 H :    0.122638
  12 H :    0.112718
  13 H :    0.120711
  14 H :    0.108773
  15 H :    0.128374
  16 H :    0.126073
  17 H :    0.130348
  18 H :    0.120622
  19 H :    0.110202
  20 H :    0.084305
  21 H :    0.316502
Sum of atomic charges:   -0.0000000

LOEWDIN ATOMIC CHARGES
----------------------
   0 C :   -0.321454
   1 C :   -0.284682
   2 C :   -0.231165
   3 C :   -0.238517
   4 C :   -0.225379
   5 N :    0.111864
   6 C :   -0.236459
   7 C :   -0.307018
   8 O :   -0.017314
   9 H :    0.119786
  10 H :    0.120809
  11 H :    0.120342
  12 H :    0.137199
  13 H :    0.138734
  14 H :    0.142371
  15 H :    0.148180
  16 H :    0.134905
  17 H :    0.130253
  18 H :    0.125719
  19 H :    0.123015
  20 H :    0.134594
  21 H :    0.174219

  Mayer bond orders larger than 0.1
B(  0-C ,  1-C ) :   0.9092 B(  0-C ,  9-H ) :   0.9392 B(  0-C , 10-H ) :   0.9444
B(  0-C , 11-H ) :   0.9390 B(  1-C ,  2-C ) :   0.9320 B(  1-C , 12-H ) :   0.9345
B(  1-C , 13-H ) :   0.9327 B(  2-C ,  3-C ) :   0.8943 B(  2-C , 14-H ) :   0.9242
B(  2-C , 15-H ) :   0.9297 B(  3-C ,  4-C ) :   0.9508 B(  3-C ,  5-N ) :   0.8666
B(  3-C ,  7-C ) :   0.8825 B(  3-C ,  8-O ) :  -0.1615 B(  4-C ,  5-N ) :   0.9203
B(  4-C , 16-H ) :   0.9225 B(  4-C , 17-H ) :   0.8980 B(  5-N ,  6-C ) :   0.9244
B(  6-C ,  7-C ) :   0.9502 B(  6-C , 18-H ) :   0.9155 B(  6-C , 19-H ) :   0.9274
B(  7-C ,  8-O ) :   1.1553 B(  7-C , 20-H ) :   0.9553 B(  8-O , 21-H ) :   0.8430

MP2 TOTAL ENERGY:     -403.619086248 Eh
FINAL SINGLE POINT ENERGY      -403.619086248346

DIPOLE MOMENT
-------------
                                X             Y             Z
Electronic contribution:      1.61726      -7.84898       1.06443
Nuclear contribution   :     -1.38654       7.68020      -1.75473
                        -----------------------------------------
Total Dipole Moment    :      0.23072      -0.16878      -0.69030
                        -----------------------------------------
Magnitude (a.u.)       :      0.74715
Magnitude (Debye)      :      1.89910

                             ****ORCA TERMINATED NORMALLY****
TOTAL RUN TIME: 0 days 0 hours 19 minutes 12 seconds 828 msec
