                         Program Version 3.0.3 - RELEASE   -
|  1> ! RI-MP2 RIJK def2-TZVP def2-TZVP/C def2-TZVP/JK TIGHTSCF
|  2> % maxcore 2000
|  3> % mp2 density relaxed end
|  4> *xyz 0 1
|  5>  C        0.7635716253     1.0296816645     0.4289788815
|  6>  O        0.0214785671    -0.0687861722    -0.0736826346
|  7>  C        0.4986436777    -0.6032230891    -1.2779051018
|  8>  C        0.2735940254     0.2958263001    -2.4823141343
|  9>  C       -1.1804491894     0.7157843567    -2.5837819235
| 10>  O       -1.5536964439     1.8503972115    -2.7300676738
| 11>  C        1.7163397234    -1.4966725161    -1.2121728034
| 12>  C        0.3362253360    -2.0968228123    -1.4099403625
| 13>  C       -0.3097622323    -2.9188833051    -0.3173419631
| 14>  H        1.8301526518     0.7842908721     0.5248137629
| 15>  H        0.6604659819     1.9217849812    -0.2026872486
| 16>  H        0.3575616083     1.2550981131     1.4176096192
| 17>  H        0.8940080699     1.1970550757    -2.4554486544
| 18>  H        0.5338013258    -0.2566859008    -3.3947004674
| 19>  H       -1.9062750363    -0.1260532562    -2.5137998150
| 20>  H        2.4216531573    -1.4940583895    -2.0364149142
| 21>  H        2.1649798269    -1.6249470411    -0.2324468651
| 22>  H        0.1226769002    -2.4431153119    -2.4185271314
| 23>  H       -0.1249314929    -2.4764152174     0.6634422868
| 24>  H       -1.3947851915    -2.9757164101    -0.4556480125
| 25>  H        0.0828691993    -3.9412376632    -0.3180786747
| 26> *
| 27>
| 28>                          ****END OF INPUT****

CARTESIAN COORDINATES (ANGSTROEM)
---------------------------------
  C      0.763572    1.029682    0.428979
  O      0.021479   -0.068786   -0.073683
  C      0.498644   -0.603223   -1.277905
  C      0.273594    0.295826   -2.482314
  C     -1.180449    0.715784   -2.583782
  O     -1.553696    1.850397   -2.730068
  C      1.716340   -1.496673   -1.212173
  C      0.336225   -2.096823   -1.409940
  C     -0.309762   -2.918883   -0.317342
  H      1.830153    0.784291    0.524814
  H      0.660466    1.921785   -0.202687
  H      0.357562    1.255098    1.417610
  H      0.894008    1.197055   -2.455449
  H      0.533801   -0.256686   -3.394700
  H     -1.906275   -0.126053   -2.513800
  H      2.421653   -1.494058   -2.036415
  H      2.164980   -1.624947   -0.232447
  H      0.122677   -2.443115   -2.418527
  H     -0.124931   -2.476415    0.663442
  H     -1.394785   -2.975716   -0.455648
  H      0.082869   -3.941238   -0.318079

 Total Charge           Charge          ....    0
 Multiplicity           Mult            ....    1
 Number of Electrons    NEL             ....   70
 Basis Dimension        Dim             ....  351

ORBITAL ENERGIES
----------------

  NO   OCC          E(Eh)            E(eV)
   0   2.0000     -20.567883      -559.6806
   1   2.0000     -20.554108      -559.3057
   2   2.0000     -11.329774      -308.2988
   3   2.0000     -11.299861      -307.4849
   4   2.0000     -11.275679      -306.8268
   5   2.0000     -11.244997      -305.9919
   6   2.0000     -11.241958      -305.9092
   7   2.0000     -11.233380      -305.6758
   8   2.0000     -11.219480      -305.2976
   9   2.0000      -1.395555       -37.9750
  10   2.0000      -1.389596       -37.8128
  11   2.0000      -1.154495       -31.4154
  12   2.0000      -1.030985       -28.0545
  13   2.0000      -0.962150       -26.1814
  14   2.0000      -0.940106       -25.5816
  15   2.0000      -0.812764       -22.1164
  16   2.0000      -0.807379       -21.9699
  17   2.0000      -0.762319       -20.7438
  18   2.0000      -0.693475       -18.8704
  19   2.0000      -0.678880       -18.4733
  20   2.0000      -0.648190       -17.6381
  21   2.0000      -0.643013       -17.4973
  22   2.0000      -0.615928       -16.7603
  23   2.0000      -0.610146       -16.6029
  24   2.0000      -0.580950       -15.8085
  25   2.0000      -0.565659       -15.3924
  26   2.0000      -0.561808       -15.2876
  27   2.0000      -0.549154       -14.9433
  28   2.0000      -0.519652       -14.1404
  29   2.0000      -0.504158       -13.7188
  30   2.0000      -0.494394       -13.4531
  31   2.0000      -0.466679       -12.6990
  32   2.0000      -0.430426       -11.7125
  33   2.0000      -0.406790       -11.0693
  34   2.0000      -0.392432       -10.6786
  35   0.0000       0.129465         3.5229
  36   0.0000       0.141069         3.8387
  37   0.0000       0.144865         3.9420
  38   0.0000       0.156379         4.2553
  39   0.0000       0.176114         4.7923

MULLIKEN ATOMIC CHARGES
-----------------------
   0 C :   -0.227870
   1 O :   -0.322044
   2 C :    0.183832
   3 C :   -0.195074
   4 C :    0.099009
   5 O :   -0.263957
   6 C :   -0.319982
   7 C :   -0.091350
   8 C :   -0.408344
   9 H :    0.118899
  10 H :    0.132573
  11 H :    0.142825
  12 H :    0.131668
  13 H :    0.135317
  14 H :    0.081284
  15 H :    0.133296
  16 H :    0.142436
  17 H :    0.120594
  18 H :    0.142183
  19 H :    0.130840
  20 H :    0.133864
Sum of atomic charges:    0.0000000

LOEWDIN ATOMIC CHARGES
----------------------
   0 C :   -0.339062
   1 O :    0.195243
   2 C :   -0.336068
   3 C :   -0.226468
   4 C :   -0.283319
   5 O :    0.131901
   6 C :   -0.192794
   7 C :   -0.212818
   8 C :   -0.291501
   9 H :    0.104858
  10 H :    0.107346
  11 H :    0.115028
  12 H :    0.148317
  13 H :    0.160093
  14 H :    0.112939
  15 H :    0.133358
  16 H :    0.141751
  17 H :    0.148776
  18 H :    0.130508
  19 H :    0.126410
  20 H :    0.125502

  Mayer bond orders larger than 0.1
B(  0-C ,  1-O ) :   0.8873 B(  0-C ,  9-H ) :   0.9325 B(  0-C , 10-H ) :   0.9335
B(  0-C , 11-H ) :   0.9390 B(  1-O ,  2-C ) :   0.9426 B(  2-C ,  3-C ) :   0.9055
B(  2-C ,  6-C ) :   0.8836 B(  2-C ,  7-C ) :   0.8589 B(  3-C ,  4-C ) :   0.8678
B(  3-C , 12-H ) :   0.9079 B(  3-C , 13-H ) :   0.9002 B(  4-C ,  5-O ) :   1.9979
B(  4-C , 14-H ) :   0.9395 B(  6-C ,  7-C ) :   0.8972 B(  6-C , 15-H ) :   0.9199
B(  6-C , 16-H ) :   0.9240 B(  7-C ,  8-C ) :   0.9015 B(  7-C , 17-H ) :   0.9288
B(  8-C , 18-H ) :   0.9323 B(  8-C , 19-H ) :   0.9387 B(  8-C , 20-H ) :   0.9383

MP2 TOTAL ENERGY:     -423.500357851 Eh
FINAL SINGLE POINT ENERGY      -423.500357851303

DIPOLE MOMENT
-------------
                                X             Y             Z
Electronic contribution:     -3.84609       5.00798      -3.50866
Nuclear contribution   :      4.70932      -5.76337       3.57327
                        -----------------------------------------
Total Dipole Moment    :      0.86323      -0.75538       0.06461
                        -----------------------------------------
Magnitude (a.u.)       :      1.14889
Magnitude (Debye)      :      2.92025

                             ****ORCA TERMINATED NORMALLY****
TOTAL RUN TIME: 0 days 0 hours 19 minutes 3 seconds 511 msec
