                         Program Version 3.0.3 - RELEASE   -
|  1> ! RI-MP2 RIJK def2-TZVP def2-TZVP/C def2-TZVP/JK TIGHTSCF
|  2> % maxcore 2000
|  3> % mp2 density relaxed end
|  4> *xyz 0 1
|  5>  C       -0.3676832307     1.3563546336     0.2473550631
|  6>  C       -0.0407985263    -0.0903184786     0.0556286113
|  7>  N        0.2659193936    -0.5592703538    -1.1512321706
|  8>  N        0.4959329746    -1.8795286262    -0.9627851116
|  9>  C        0.3554373639    -2.2397614291     0.3316388618
| 10>  O        0.5947232207    -3.5329320610     0.6921363758
| 11>  C       -0.3357929587    -4.1523645945     1.4887590877
| 12>  O       -0.1581840188    -5.2457833598     1.9166630450
| 13>  C        0.0042988095    -1.1140479642     1.0399705803
| 14>  H        0.3227858346     1.8315546244     0.9524033631
| 15>  H       -0.3000838552     1.8791387037    -0.7087877781
| 16>  H       -1.3801032011     1.4883538506     0.6440959703
| 17>  H        0.7691092394    -2.4659770363    -1.7333666238
| 18>  H       -1.2212774921    -3.5165338827     1.6565252001
| 19>  H       -0.1625654533    -1.0336107560     2.1013466455
| 20> *
| 21>
| 22>                          ****END OF INPUT****

CARTESIAN COORDINATES (ANGSTROEM)
---------------------------------
  C     -0.367683    1.356355    0.247355
  C     -0.040799   -0.090318    0.055629
  N      0.265919   -0.559270   -1.151232
  N      0.495933   -1.879529   -0.962785
  C      0.355437   -2.239761    0.331639
  O      0.594723   -3.532932    0.692136
  C     -0.335793   -4.152365    1.488759
  O     -0.158184   -5.245783    1.916663
  C      0.004299   -1.114048    1.039971
  H      0.322786    1.831555    0.952403
  H     -0.300084    1.879139   -0.708788
  H     -1.380103    1.488354    0.644096
  H      0.769109   -2.465977   -1.733367
  H     -1.221277   -3.516534    1.656525
  H     -0.162565   -1.033611    2.101347

 Total Charge           Charge          ....    0
 Multiplicity           Mult            ....    1
 Number of Electrons    NEL             ....   66
 Basis Dimension        Dim             ....  315

ORBITAL ENERGIES
----------------

  NO   OCC          E(Eh)            E(eV)
   0   2.0000     -20.651231      -561.9486
   1   2.0000     -20.581368      -560.0475
   2   2.0000     -15.646967      -425.7756
   3   2.0000     -15.592312      -424.2884
   4   2.0000     -11.411368      -310.5191
   5   2.0000     -11.361102      -309.1513
   6   2.0000     -11.276780      -306.8568
   7   2.0000     -11.236113      -305.7502
   8   2.0000     -11.232948      -305.6640
   9   2.0000      -1.505135       -40.9568
  10   2.0000      -1.418255       -38.5927
  11   2.0000      -1.377282       -37.4777
  12   2.0000      -1.125814       -30.6350
  13   2.0000      -1.069606       -29.1054
  14   2.0000      -0.978886       -26.6368
  15   2.0000      -0.913128       -24.8475
  16   2.0000      -0.831528       -22.6270
  17   2.0000      -0.807364       -21.9695
  18   2.0000      -0.778751       -21.1909
  19   2.0000      -0.700965       -19.0742
  20   2.0000      -0.689573       -18.7642
  21   2.0000      -0.667043       -18.1511
  22   2.0000      -0.634781       -17.2733
  23   2.0000      -0.615973       -16.7615
  24   2.0000      -0.607951       -16.5432
  25   2.0000      -0.568995       -15.4831
  26   2.0000      -0.560450       -15.2506
  27   2.0000      -0.545946       -14.8559
  28   2.0000      -0.518642       -14.1130
  29   2.0000      -0.490301       -13.3418
  30   2.0000      -0.463424       -12.6104
  31   2.0000      -0.372561       -10.1379
  32   2.0000      -0.356333        -9.6963
  33   0.0000       0.123410         3.3582
  34   0.0000       0.136913         3.7256
  35   0.0000       0.142559         3.8792
  36   0.0000       0.156155         4.2492
  37   0.0000       0.166597         4.5333

MULLIKEN ATOMIC CHARGES
-----------------------
   0 C :   -0.433611
   1 C :    0.083271
   2 N :   -0.214531
   3 N :   -0.106903
   4 C :    0.209928
   5 O :   -0.225538
   6 C :    0.190691
   7 O :   -0.236750
   8 C :   -0.243054
   9 H :    0.141875
  10 H :    0.155396
  11 H :    0.140168
  12 H :    0.267236
  13 H :    0.111873
  14 H :    0.159950
Sum of atomic charges:    0.0000000

LOEWDIN ATOMIC CHARGES
----------------------
   0 C :   -0.273936
   1 C :   -0.299280
   2 N :    0.049427
   3 N :    0.147636
   4 C :   -0.354635
   5 O :    0.296144
   6 C :   -0.402322
   7 O :    0.151378
   8 C :   -0.171948
   9 H :    0.132161
  10 H :    0.137233
  11 H :    0.131480
  12 H :    0.193966
  13 H :    0.116044
  14 H :    0.146652

  Mayer bond orders larger than 0.1
B(  0-C ,  1-C ) :   0.8679 B(  0-C ,  9-H ) :   0.9326 B(  0-C , 10-H ) :   0.9510
B(  0-C , 11-H ) :   0.9331 B(  1-C ,  2-N ) :   1.5963 B(  1-C ,  8-C ) :   1.2379
B(  2-N ,  3-N ) :   1.0284 B(  2-N ,  4-C ) :   0.1094 B(  3-N ,  4-C ) :   1.2102
B(  3-N , 12-H ) :   0.8624 B(  4-C ,  5-O ) :   1.0047 B(  4-C ,  8-C ) :   1.4334
B(  5-O ,  6-C ) :   0.9689 B(  6-C ,  7-O ) :   2.0601 B(  6-C , 13-H ) :   0.9178
B(  8-C , 14-H ) :   0.9139

MP2 TOTAL ENERGY:     -453.243662518 Eh
FINAL SINGLE POINT ENERGY      -453.243662518001

DIPOLE MOMENT
-------------
                                X             Y             Z
Electronic contribution:      1.97894      -8.89578      -0.39974
Nuclear contribution   :     -2.33627       9.45367       0.37384
                        -----------------------------------------
Total Dipole Moment    :     -0.35733       0.55789      -0.02590
                        -----------------------------------------
Magnitude (a.u.)       :      0.66302
Magnitude (Debye)      :      1.68527

                             ****ORCA TERMINATED NORMALLY****
TOTAL RUN TIME: 0 days 0 hours 12 minutes 53 seconds 962 msec
