                         Program Version 3.0.3 - RELEASE   -
|  1> ! RI-MP2 RIJK def2-TZVP def2-TZVP/C def2-TZVP/JK TIGHTSCF
|  2> % maxcore 2000
|  3> % mp2 density relaxed end
|  4> *xyz 0 1
|  5>  C       -0.1256230625     1.3962083123    -0.6428209749
|  6>  C       -0.0316779162     0.2224621827     0.3405819666
|  7>  C       -1.3435151179    -0.5169321540     0.4515792179
|  8>  O       -1.7219636719    -1.3593583326    -0.6465707008
|  9>  C       -1.5018930368    -1.9700325439     0.6331662897
| 10>  C       -0.3758732334    -2.9698548746     0.7326265758
| 11>  C       -0.7160291022    -4.2649634898    -0.0388291765
| 12>  C        0.3354969742    -5.2693144691     0.0517523561
| 13>  C        1.2194691731    -6.0785832002     0.1447037219
| 14>  H        0.8278937020     1.9273247907    -0.7143614782
| 15>  H       -0.3939532378     1.0385977224    -1.6412800042
| 16>  H       -0.8882441961     2.1171598497    -0.3286786824
| 17>  H        0.7594371242    -0.4616431515     0.0212430354
| 18>  H        0.2446064579     0.5894435815     1.3377357339
| 19>  H       -2.1672645919     0.1041334870     0.8151568302
| 20>  H       -2.4274930686    -2.3010264039     1.1129725046
| 21>  H        0.5525445818    -2.5545059180     0.3348694122
| 22>  H       -0.1992317166    -3.2099463931     1.7875890296
| 23>  H       -1.6568479136    -4.6830344325     0.3429534993
| 24>  H       -0.8991444243    -4.0076928842    -1.0888661614
| 25>  H        1.9918810366    -6.8032895288     0.2168138251
| 26> *
| 27>
| 28>                          ****END OF INPUT****

CARTESIAN COORDINATES (ANGSTROEM)
---------------------------------
  C     -0.125623    1.396208   -0.642821
  C     -0.031678    0.222462    0.340582
  C     -1.343515   -0.516932    0.451579
  O     -1.721964   -1.359358   -0.646571
  C     -1.501893   -1.970033    0.633166
  C     -0.375873   -2.969855    0.732627
  C     -0.716029   -4.264963   -0.038829
  C      0.335497   -5.269314    0.051752
  C      1.219469   -6.078583    0.144704
  H      0.827894    1.927325   -0.714361
  H     -0.393953    1.038598   -1.641280
  H     -0.888244    2.117160   -0.328679
  H      0.759437   -0.461643    0.021243
  H      0.244606    0.589444    1.337736
  H     -2.167265    0.104133    0.815157
  H     -2.427493   -2.301026    1.112973
  H      0.552545   -2.554506    0.334869
  H     -0.199232   -3.209946    1.787589
  H     -1.656848   -4.683034    0.342953
  H     -0.899144   -4.007693   -1.088866
  H      1.991881   -6.803290    0.216814

 Total Charge           Charge          ....    0
 Multiplicity           Mult            ....    1
 Number of Electrons    NEL             ....   68
 Basis Dimension        Dim             ....  351

ORBITAL ENERGIES
----------------

  NO   OCC          E(Eh)            E(eV)
   0   2.0000     -20.563741      -559.5678
   1   2.0000     -11.288128      -307.1656
   2   2.0000     -11.286764      -307.1285
   3   2.0000     -11.253578      -306.2254
   4   2.0000     -11.239438      -305.8407
   5   2.0000     -11.232778      -305.6594
   6   2.0000     -11.231982      -305.6378
   7   2.0000     -11.218869      -305.2810
   8   2.0000     -11.218353      -305.2669
   9   2.0000      -1.407920       -38.3114
  10   2.0000      -1.091438       -29.6995
  11   2.0000      -1.053641       -28.6710
  12   2.0000      -1.013424       -27.5767
  13   2.0000      -0.937950       -25.5229
  14   2.0000      -0.899560       -24.4783
  15   2.0000      -0.837556       -22.7911
  16   2.0000      -0.777815       -21.1654
  17   2.0000      -0.720073       -19.5942
  18   2.0000      -0.700567       -19.0634
  19   2.0000      -0.656021       -17.8512
  20   2.0000      -0.637444       -17.3457
  21   2.0000      -0.609738       -16.5918
  22   2.0000      -0.606984       -16.5169
  23   2.0000      -0.569446       -15.4954
  24   2.0000      -0.547836       -14.9074
  25   2.0000      -0.540212       -14.6999
  26   2.0000      -0.526461       -14.3257
  27   2.0000      -0.512825       -13.9547
  28   2.0000      -0.491563       -13.3761
  29   2.0000      -0.482554       -13.1310
  30   2.0000      -0.445234       -12.1154
  31   2.0000      -0.425583       -11.5807
  32   2.0000      -0.384687       -10.4679
  33   2.0000      -0.382395       -10.4055
  34   0.0000       0.140151         3.8137
  35   0.0000       0.147772         4.0211
  36   0.0000       0.161210         4.3867
  37   0.0000       0.166737         4.5372
  38   0.0000       0.169954         4.6247

MULLIKEN ATOMIC CHARGES
-----------------------
   0 C :   -0.398802
   1 C :   -0.188713
   2 C :    0.038069
   3 O :   -0.349888
   4 C :    0.030081
   5 C :   -0.189833
   6 C :   -0.394185
   7 C :   -0.012802
   8 C :   -0.123562
   9 H :    0.134905
  10 H :    0.143203
  11 H :    0.122653
  12 H :    0.110856
  13 H :    0.110411
  14 H :    0.111290
  15 H :    0.116479
  16 H :    0.126436
  17 H :    0.121380
  18 H :    0.141970
  19 H :    0.160665
  20 H :    0.189386
Sum of atomic charges:    0.0000000

LOEWDIN ATOMIC CHARGES
----------------------
   0 C :   -0.311965
   1 C :   -0.277334
   2 C :   -0.268093
   3 O :    0.154878
   4 C :   -0.269797
   5 C :   -0.232502
   6 C :   -0.242050
   7 C :   -0.112949
   8 C :   -0.109279
   9 H :    0.121431
  10 H :    0.126962
  11 H :    0.121163
  12 H :    0.139491
  13 H :    0.142949
  14 H :    0.139065
  15 H :    0.139073
  16 H :    0.145199
  17 H :    0.148683
  18 H :    0.156911
  19 H :    0.162442
  20 H :    0.125724

  Mayer bond orders larger than 0.1
B(  0-C ,  1-C ) :   0.9252 B(  0-C ,  9-H ) :   0.9405 B(  0-C , 10-H ) :   0.9364
B(  0-C , 11-H ) :   0.9377 B(  1-C ,  2-C ) :   0.9107 B(  1-C , 12-H ) :   0.9364
B(  1-C , 13-H ) :   0.9241 B(  2-C ,  3-O ) :   0.8762 B(  2-C ,  4-C ) :   0.9901
B(  2-C , 14-H ) :   0.9111 B(  3-O ,  4-C ) :   0.8712 B(  4-C ,  5-C ) :   0.9017
B(  4-C , 15-H ) :   0.9067 B(  5-C ,  6-C ) :   0.9257 B(  5-C , 16-H ) :   0.9381
B(  5-C , 17-H ) :   0.9231 B(  6-C ,  7-C ) :   1.1076 B(  6-C ,  8-C ) :  -0.1205
B(  6-C , 18-H ) :   0.9256 B(  6-C , 19-H ) :   0.9218 B(  7-C ,  8-C ) :   2.6149
B(  8-C , 20-H ) :   0.8949

MP2 TOTAL ENERGY:     -386.355750397 Eh
FINAL SINGLE POINT ENERGY      -386.355750397255

DIPOLE MOMENT
-------------
                                X             Y             Z
Electronic contribution:     -1.51131      -7.38790      -0.32469
Nuclear contribution   :      1.64113       7.71479       0.96506
                        -----------------------------------------
Total Dipole Moment    :      0.12982       0.32689       0.64036
                        -----------------------------------------
Magnitude (a.u.)       :      0.73060
Magnitude (Debye)      :      1.85704

                             ****ORCA TERMINATED NORMALLY****
TOTAL RUN TIME: 0 days 0 hours 26 minutes 7 seconds 162 msec
