                         Program Version 3.0.3 - RELEASE   -
|  1> ! RI-MP2 RIJK def2-TZVP def2-TZVP/C def2-TZVP/JK TIGHTSCF
|  2> % maxcore 2000
|  3> % mp2 density relaxed end
|  4> *xyz 0 1
|  5>  C       -0.0306303376     1.4096093167    -0.2415469649
|  6>  O        0.0511223193     0.0150763461    -0.0608064223
|  7>  C        0.5694212299    -0.6531008968    -1.1912987691
|  8>  C        0.5452314859    -2.1629786890    -0.9452445393
|  9>  O       -0.7694926896    -2.6782313631    -0.9693725903
| 10>  C       -1.4499264983    -2.6601692317     0.2719432982
| 11>  C        1.3751310682    -2.8638804747    -2.0073260878
| 12>  C        0.9419678705    -4.1004401662    -2.6626567947
| 13>  O        0.8697569329    -2.8424069285    -3.3424611712
| 14>  H        0.9589826909     1.8524192204    -0.4365824937
| 15>  H       -0.6951463431     1.6742590448    -1.0784935560
| 16>  H       -0.4329763241     1.8367170952     0.6801533945
| 17>  H       -0.0290485844    -0.4382679968    -2.0895043204
| 18>  H        1.6041795399    -0.3224782335    -1.3889488623
| 19>  H        1.0160596214    -2.3603430257     0.0323892826
| 20>  H       -2.4142627003    -3.1476708694     0.1069664869
| 21>  H       -0.8971688991    -3.2236998695     1.0397698095
| 22>  H       -1.6107500343    -1.6400295775     0.6343519285
| 23>  H        2.4457061673    -2.6628887320    -1.9328478310
| 24>  H        1.6896849192    -4.7940750927    -3.0451311707
| 25>  H       -0.0175594647    -4.5270754062    -2.3864434764
| 26> *
| 27>
| 28>                          ****END OF INPUT****

CARTESIAN COORDINATES (ANGSTROEM)
---------------------------------
  C     -0.030630    1.409609   -0.241547
  O      0.051122    0.015076   -0.060806
  C      0.569421   -0.653101   -1.191299
  C      0.545231   -2.162979   -0.945245
  O     -0.769493   -2.678231   -0.969373
  C     -1.449926   -2.660169    0.271943
  C      1.375131   -2.863880   -2.007326
  C      0.941968   -4.100440   -2.662657
  O      0.869757   -2.842407   -3.342461
  H      0.958983    1.852419   -0.436582
  H     -0.695146    1.674259   -1.078494
  H     -0.432976    1.836717    0.680153
  H     -0.029049   -0.438268   -2.089504
  H      1.604180   -0.322478   -1.388949
  H      1.016060   -2.360343    0.032389
  H     -2.414263   -3.147671    0.106966
  H     -0.897169   -3.223700    1.039770
  H     -1.610750   -1.640030    0.634352
  H      2.445706   -2.662889   -1.932848
  H      1.689685   -4.794075   -3.045131
  H     -0.017559   -4.527075   -2.386443

 Total Charge           Charge          ....    0
 Multiplicity           Mult            ....    1
 Number of Electrons    NEL             ....   72
 Basis Dimension        Dim             ....  351

ORBITAL ENERGIES
----------------

  NO   OCC          E(Eh)            E(eV)
   0   2.0000     -20.562772      -559.5415
   1   2.0000     -20.559913      -559.4637
   2   2.0000     -20.552654      -559.2661
   3   2.0000     -11.287510      -307.1488
   4   2.0000     -11.285101      -307.0832
   5   2.0000     -11.275725      -306.8281
   6   2.0000     -11.275716      -306.8278
   7   2.0000     -11.274065      -306.7829
   8   2.0000     -11.263706      -306.5010
   9   2.0000      -1.409918       -38.3658
  10   2.0000      -1.385280       -37.6954
  11   2.0000      -1.365778       -37.1647
  12   2.0000      -1.046549       -28.4780
  13   2.0000      -0.955402       -25.9978
  14   2.0000      -0.916134       -24.9293
  15   2.0000      -0.899866       -24.4866
  16   2.0000      -0.853991       -23.2383
  17   2.0000      -0.791610       -21.5408
  18   2.0000      -0.710568       -19.3356
  19   2.0000      -0.689284       -18.7564
  20   2.0000      -0.672071       -18.2880
  21   2.0000      -0.653873       -17.7928
  22   2.0000      -0.639765       -17.4089
  23   2.0000      -0.624943       -17.0056
  24   2.0000      -0.599373       -16.3098
  25   2.0000      -0.589496       -16.0410
  26   2.0000      -0.555477       -15.1153
  27   2.0000      -0.544159       -14.8073
  28   2.0000      -0.525229       -14.2922
  29   2.0000      -0.515020       -14.0144
  30   2.0000      -0.492141       -13.3918
  31   2.0000      -0.475936       -12.9509
  32   2.0000      -0.453332       -12.3358
  33   2.0000      -0.437264       -11.8986
  34   2.0000      -0.426892       -11.6163
  35   2.0000      -0.408582       -11.1181
  36   0.0000       0.142746         3.8843
  37   0.0000       0.155141         4.2216
  38   0.0000       0.161731         4.4009
  39   0.0000       0.182997         4.9796
  40   0.0000       0.192331         5.2336

MULLIKEN ATOMIC CHARGES
-----------------------
   0 C :   -0.215677
   1 O :   -0.313581
   2 C :   -0.088676
   3 C :    0.135737
   4 O :   -0.318742
   5 C :   -0.221361
   6 C :    0.029292
   7 C :   -0.074840
   8 O :   -0.339321
   9 H :    0.111731
  10 H :    0.117881
  11 H :    0.138510
  12 H :    0.118690
  13 H :    0.090114
  14 H :    0.071756
  15 H :    0.132646
  16 H :    0.106423
  17 H :    0.138428
  18 H :    0.132922
  19 H :    0.112449
  20 H :    0.135620
Sum of atomic charges:    0.0000000

LOEWDIN ATOMIC CHARGES
----------------------
   0 C :   -0.359890
   1 O :    0.132768
   2 C :   -0.303983
   3 C :   -0.319978
   4 O :    0.167447
   5 C :   -0.352550
   6 C :   -0.277579
   7 C :   -0.258487
   8 O :    0.146564
   9 H :    0.102463
  10 H :    0.103360
  11 H :    0.113237
  12 H :    0.131769
  13 H :    0.125633
  14 H :    0.148287
  15 H :    0.111492
  16 H :    0.100797
  17 H :    0.106744
  18 H :    0.139599
  19 H :    0.117209
  20 H :    0.125100

  Mayer bond orders larger than 0.1
B(  0-C ,  1-O ) :   0.9141 B(  0-C ,  9-H ) :   0.9353 B(  0-C , 10-H ) :   0.9374
B(  0-C , 11-H ) :   0.9394 B(  1-O ,  2-C ) :   0.9370 B(  2-C ,  3-C ) :   0.9267
B(  2-C , 12-H ) :   0.9262 B(  2-C , 13-H ) :   0.9124 B(  3-C ,  4-O ) :   0.9514
B(  3-C ,  6-C ) :   0.9023 B(  3-C , 14-H ) :   0.9312 B(  4-O ,  5-C ) :   0.8956
B(  5-C , 15-H ) :   0.9384 B(  5-C , 16-H ) :   0.9373 B(  5-C , 17-H ) :   0.9295
B(  6-C ,  7-C ) :   0.9975 B(  6-C ,  8-O ) :   0.8692 B(  6-C , 18-H ) :   0.9116
B(  7-C ,  8-O ) :   0.9134 B(  7-C , 19-H ) :   0.9237 B(  7-C , 20-H ) :   0.8983

MP2 TOTAL ENERGY:     -460.569064025 Eh
FINAL SINGLE POINT ENERGY      -460.569064025004

DIPOLE MOMENT
-------------
                                X             Y             Z
Electronic contribution:      1.18901      -3.51967      -3.80128
Nuclear contribution   :     -0.83094       3.65753       4.47461
                        -----------------------------------------
Total Dipole Moment    :      0.35807       0.13786       0.67333
                        -----------------------------------------
Magnitude (a.u.)       :      0.77498
Magnitude (Debye)      :      1.96984

                             ****ORCA TERMINATED NORMALLY****
TOTAL RUN TIME: 0 days 0 hours 15 minutes 23 seconds 288 msec
