                         Program Version 3.0.3 - RELEASE   -
|  1> ! RI-MP2 RIJK def2-TZVP def2-TZVP/C def2-TZVP/JK TIGHTSCF
|  2> % maxcore 2000
|  3> % mp2 density relaxed end
|  4> *xyz 0 1
|  5>  C       -0.4817075283     1.5163881148     0.4356723753
|  6>  C       -0.0574891366     0.0783746065     0.1113227248
|  7>  C        0.8947781763    -0.5510051012     1.1403509849
|  8>  C        2.1863002537     0.2463247671     1.3596063568
|  9>  C        3.0600445305     0.4046302781     0.1096928747
| 10>  C        0.1605816475    -0.9794624180     2.4378282948
| 11>  O        0.2097978151    -2.3702742372     2.0710091870
| 12>  C        1.1060245613    -2.0938893933     0.9696468861
| 13>  C        0.7180351756    -2.8376590760    -0.2929423790
| 14>  H        0.3575446963     2.2161604274     0.3803040886
| 15>  H       -1.2425679948     1.8612660259    -0.2710937002
| 16>  H       -0.9096628412     1.5912335086     1.4416101984
| 17>  H       -0.9571755670    -0.5442468076     0.0462228516
| 18>  H        0.3999044928     0.0506848719    -0.8849599997
| 19>  H        1.9415989308     1.2365400498     1.7631998777
| 20>  H        2.7699365394    -0.2565787711     2.1410846456
| 21>  H        3.9930311553     0.9225371565     0.3519639891
| 22>  H        3.3257341259    -0.5686016386    -0.3179248755
| 23>  H        2.5569903836     0.9828464818    -0.6715503130
| 24>  H        0.7177329868    -0.7785298423     3.3640059390
| 25>  H       -0.8708275305    -0.6271146037     2.5623171300
| 26>  H        2.1354569055    -2.3745275467     1.2454535365
| 27>  H       -0.2934752948    -2.5883143013    -0.6211163276
| 28>  H        1.4177900898    -2.6146721166    -1.1055930017
| 29>  H        0.7547773670    -3.9154383548    -0.1034042240
| 30> *
| 31>
| 32>                          ****END OF INPUT****

CARTESIAN COORDINATES (ANGSTROEM)
---------------------------------
  C     -0.481708    1.516388    0.435672
  C     -0.057489    0.078375    0.111323
  C      0.894778   -0.551005    1.140351
  C      2.186300    0.246325    1.359606
  C      3.060045    0.404630    0.109693
  C      0.160582   -0.979462    2.437828
  O      0.209798   -2.370274    2.071009
  C      1.106025   -2.093889    0.969647
  C      0.718035   -2.837659   -0.292942
  H      0.357545    2.216160    0.380304
  H     -1.242568    1.861266   -0.271094
  H     -0.909663    1.591234    1.441610
  H     -0.957176   -0.544247    0.046223
  H      0.399904    0.050685   -0.884960
  H      1.941599    1.236540    1.763200
  H      2.769937   -0.256579    2.141085
  H      3.993031    0.922537    0.351964
  H      3.325734   -0.568602   -0.317925
  H      2.556990    0.982846   -0.671550
  H      0.717733   -0.778530    3.364006
  H     -0.870828   -0.627115    2.562317
  H      2.135457   -2.374528    1.245454
  H     -0.293475   -2.588314   -0.621116
  H      1.417790   -2.614672   -1.105593
  H      0.754777   -3.915438   -0.103404

 Total Charge           Charge          ....    0
 Multiplicity           Mult            ....    1
 Number of Electrons    NEL             ....   72
 Basis Dimension        Dim             ....  375

ORBITAL ENERGIES
----------------

  NO   OCC          E(Eh)            E(eV)
   0   2.0000     -20.538745      -558.8877
   1   2.0000     -11.275513      -306.8223
   2   2.0000     -11.268133      -306.6215
   3   2.0000     -11.234586      -305.7086
   4   2.0000     -11.224110      -305.4236
   5   2.0000     -11.223295      -305.4014
   6   2.0000     -11.218692      -305.2761
   7   2.0000     -11.217603      -305.2465
   8   2.0000     -11.212931      -305.1194
   9   2.0000      -1.370696       -37.2985
  10   2.0000      -1.097241       -29.8574
  11   2.0000      -1.016127       -27.6502
  12   2.0000      -1.008455       -27.4415
  13   2.0000      -0.958541       -26.0832
  14   2.0000      -0.872068       -23.7302
  15   2.0000      -0.855108       -23.2687
  16   2.0000      -0.825135       -22.4531
  17   2.0000      -0.713443       -19.4138
  18   2.0000      -0.664796       -18.0900
  19   2.0000      -0.653107       -17.7719
  20   2.0000      -0.624620       -16.9968
  21   2.0000      -0.614981       -16.7345
  22   2.0000      -0.592930       -16.1344
  23   2.0000      -0.570709       -15.5298
  24   2.0000      -0.565595       -15.3906
  25   2.0000      -0.546525       -14.8717
  26   2.0000      -0.533300       -14.5118
  27   2.0000      -0.520243       -14.1565
  28   2.0000      -0.517673       -14.0866
  29   2.0000      -0.511861       -13.9284
  30   2.0000      -0.503482       -13.7005
  31   2.0000      -0.490989       -13.3605
  32   2.0000      -0.458374       -12.4730
  33   2.0000      -0.426462       -11.6046
  34   2.0000      -0.423006       -11.5106
  35   2.0000      -0.401446       -10.9239
  36   0.0000       0.129213         3.5161
  37   0.0000       0.146722         3.9925
  38   0.0000       0.160654         4.3716
  39   0.0000       0.165833         4.5126
  40   0.0000       0.188691         5.1345

MULLIKEN ATOMIC CHARGES
-----------------------
   0 C :   -0.413297
   1 C :   -0.293321
   2 C :    0.173443
   3 C :   -0.263643
   4 C :   -0.418456
   5 C :   -0.053684
   6 O :   -0.323275
   7 C :    0.025062
   8 C :   -0.387176
   9 H :    0.132110
  10 H :    0.139964
  11 H :    0.127641
  12 H :    0.131558
  13 H :    0.125889
  14 H :    0.126449
  15 H :    0.120498
  16 H :    0.139210
  17 H :    0.127913
  18 H :    0.131830
  19 H :    0.088103
  20 H :    0.093336
  21 H :    0.072469
  22 H :    0.126948
  23 H :    0.125700
  24 H :    0.144730
Sum of atomic charges:   -0.0000000

LOEWDIN ATOMIC CHARGES
----------------------
   0 C :   -0.312664
   1 C :   -0.252672
   2 C :   -0.249034
   3 C :   -0.257577
   4 C :   -0.312348
   5 C :   -0.235445
   6 O :    0.135602
   7 C :   -0.269001
   8 C :   -0.296812
   9 H :    0.120115
  10 H :    0.122901
  11 H :    0.122009
  12 H :    0.144736
  13 H :    0.139703
  14 H :    0.139704
  15 H :    0.141170
  16 H :    0.122858
  17 H :    0.121922
  18 H :    0.120968
  19 H :    0.117875
  20 H :    0.117628
  21 H :    0.136971
  22 H :    0.123992
  23 H :    0.126491
  24 H :    0.130909

  Mayer bond orders larger than 0.1
B(  0-C ,  1-C ) :   0.9067 B(  0-C ,  9-H ) :   0.9403 B(  0-C , 10-H ) :   0.9417
B(  0-C , 11-H ) :   0.9378 B(  1-C ,  2-C ) :   0.8796 B(  1-C , 12-H ) :   0.9385
B(  1-C , 13-H ) :   0.9334 B(  2-C ,  3-C ) :   0.8915 B(  2-C ,  5-C ) :   0.9465
B(  2-C ,  7-C ) :   0.9173 B(  3-C ,  4-C ) :   0.9124 B(  3-C , 14-H ) :   0.9351
B(  3-C , 15-H ) :   0.9283 B(  4-C , 16-H ) :   0.9399 B(  4-C , 17-H ) :   0.9374
B(  4-C , 18-H ) :   0.9381 B(  5-C ,  6-O ) :   0.9617 B(  5-C , 19-H ) :   0.9018
B(  5-C , 20-H ) :   0.9072 B(  6-O ,  7-C ) :   0.9731 B(  7-C ,  8-C ) :   0.8969
B(  7-C , 21-H ) :   0.9142 B(  8-C , 22-H ) :   0.9341 B(  8-C , 23-H ) :   0.9321
B(  8-C , 24-H ) :   0.9339

MP2 TOTAL ENERGY:     -388.809368681 Eh
FINAL SINGLE POINT ENERGY      -388.809368680923

DIPOLE MOMENT
-------------
                                X             Y             Z
Electronic contribution:     -1.83950      -5.28817       4.66177
Nuclear contribution   :      2.13120       5.91002      -5.03628
                        -----------------------------------------
Total Dipole Moment    :      0.29170       0.62185      -0.37450
                        -----------------------------------------
Magnitude (a.u.)       :      0.78233
Magnitude (Debye)      :      1.98853

                             ****ORCA TERMINATED NORMALLY****
TOTAL RUN TIME: 0 days 0 hours 22 minutes 57 seconds 330 msec
