                         Program Version 3.0.3 - RELEASE   -
|  1> ! RI-MP2 RIJK def2-TZVP def2-TZVP/C def2-TZVP/JK TIGHTSCF
|  2> % maxcore 2000
|  3> % mp2 density relaxed end
|  4> *xyz 0 1
|  5>  C        0.0134618424    -1.1553712281     0.7092623795
|  6>  C        0.0230450995    -0.0093230584     0.3485611928
|  7>  C        0.0184623893     1.3874679788    -0.0773930224
|  8>  C       -0.8533681004     2.2435105407     0.8325752077
|  9>  C       -0.1344682826     3.0189506423     1.6383358793
| 10>  C        1.3497215324     2.8589590485     1.4240230551
| 11>  C        1.4069451041     2.1214457992     0.0552824324
| 12>  C        2.5798163608     1.2747644767    -0.1218493099
| 13>  N        3.5259512363     0.6266876402    -0.2638769828
| 14>  H        0.0195943269    -2.1703782491     1.0219182673
| 15>  H       -0.3132012683     1.4299447544    -1.1215104067
| 16>  H       -1.9316081889     2.1443165066     0.8301807797
| 17>  H       -0.5411541728     3.6739699197     2.4000455647
| 18>  H        1.8954181278     3.8064361254     1.3878981005
| 19>  H        1.8032393665     2.2594992551     2.2228993138
| 20>  H        1.4283841168     2.8824544780    -0.7319056208
| 21> *
| 22>
| 23>                          ****END OF INPUT****

CARTESIAN COORDINATES (ANGSTROEM)
---------------------------------
  C      0.013462   -1.155371    0.709262
  C      0.023045   -0.009323    0.348561
  C      0.018462    1.387468   -0.077393
  C     -0.853368    2.243511    0.832575
  C     -0.134468    3.018951    1.638336
  C      1.349722    2.858959    1.424023
  C      1.406945    2.121446    0.055282
  C      2.579816    1.274764   -0.121849
  N      3.525951    0.626688   -0.263877
  H      0.019594   -2.170378    1.021918
  H     -0.313201    1.429945   -1.121510
  H     -1.931608    2.144317    0.830181
  H     -0.541154    3.673970    2.400046
  H      1.895418    3.806436    1.387898
  H      1.803239    2.259499    2.222899
  H      1.428384    2.882454   -0.731906

 Total Charge           Charge          ....    0
 Multiplicity           Mult            ....    1
 Number of Electrons    NEL             ....   62
 Basis Dimension        Dim             ....  321

ORBITAL ENERGIES
----------------

  NO   OCC          E(Eh)            E(eV)
   0   2.0000     -15.566606      -423.5889
   1   2.0000     -11.295880      -307.3765
   2   2.0000     -11.290185      -307.2215
   3   2.0000     -11.269771      -306.6661
   4   2.0000     -11.259814      -306.3951
   5   2.0000     -11.253942      -306.2353
   6   2.0000     -11.252153      -306.1867
   7   2.0000     -11.241349      -305.8926
   8   2.0000     -11.232195      -305.6436
   9   2.0000      -1.219532       -33.1852
  10   2.0000      -1.176512       -32.0145
  11   2.0000      -1.056357       -28.7449
  12   2.0000      -1.024883       -27.8885
  13   2.0000      -0.982543       -26.7363
  14   2.0000      -0.869130       -23.6502
  15   2.0000      -0.771016       -20.9804
  16   2.0000      -0.747830       -20.3495
  17   2.0000      -0.714100       -19.4316
  18   2.0000      -0.701431       -19.0869
  19   2.0000      -0.624200       -16.9853
  20   2.0000      -0.594484       -16.1767
  21   2.0000      -0.577712       -15.7203
  22   2.0000      -0.560950       -15.2642
  23   2.0000      -0.553556       -15.0630
  24   2.0000      -0.543776       -14.7969
  25   2.0000      -0.534395       -14.5416
  26   2.0000      -0.453814       -12.3489
  27   2.0000      -0.450497       -12.2586
  28   2.0000      -0.400517       -10.8986
  29   2.0000      -0.396133       -10.7793
  30   2.0000      -0.376312       -10.2400
  31   0.0000       0.115734         3.1493
  32   0.0000       0.129972         3.5367
  33   0.0000       0.149746         4.0748
  34   0.0000       0.157281         4.2798
  35   0.0000       0.164235         4.4691

MULLIKEN ATOMIC CHARGES
-----------------------
   0 C :   -0.150113
   1 C :   -0.075678
   2 C :   -0.049056
   3 C :   -0.160631
   4 C :   -0.188272
   5 C :   -0.180715
   6 C :   -0.001838
   7 C :   -0.184205
   8 N :   -0.051251
   9 H :    0.195178
  10 H :    0.141003
  11 H :    0.144108
  12 H :    0.139262
  13 H :    0.139966
  14 H :    0.142593
  15 H :    0.139648
Sum of atomic charges:   -0.0000000

LOEWDIN ATOMIC CHARGES
----------------------
   0 C :   -0.076734
   1 C :   -0.081279
   2 C :   -0.180487
   3 C :   -0.115890
   4 C :   -0.144226
   5 C :   -0.192725
   6 C :   -0.178627
   7 C :   -0.167938
   8 N :    0.067136
   9 H :    0.129482
  10 H :    0.173938
  11 H :    0.144901
  12 H :    0.142334
  13 H :    0.144463
  14 H :    0.153966
  15 H :    0.181684

  Mayer bond orders larger than 0.1
B(  0-C ,  1-C ) :   2.6033 B(  0-C ,  9-H ) :   0.8907 B(  1-C ,  2-C ) :   1.1012
B(  2-C ,  3-C ) :   0.8893 B(  2-C ,  6-C ) :   0.8847 B(  2-C , 10-H ) :   0.9216
B(  3-C ,  4-C ) :   1.7957 B(  3-C , 11-H ) :   0.9199 B(  4-C ,  5-C ) :   0.9404
B(  4-C , 12-H ) :   0.9245 B(  5-C ,  6-C ) :   0.9326 B(  5-C , 13-H ) :   0.9255
B(  5-C , 14-H ) :   0.9010 B(  6-C ,  7-C ) :   0.9408 B(  6-C , 15-H ) :   0.9058
B(  7-C ,  8-N ) :   2.8764

MP2 TOTAL ENERGY:     -362.927093058 Eh
FINAL SINGLE POINT ENERGY      -362.927093058334

DIPOLE MOMENT
-------------
                                X             Y             Z
Electronic contribution:      2.38853      -3.00747      -1.94043
Nuclear contribution   :     -3.63776       3.96524       2.26352
                        -----------------------------------------
Total Dipole Moment    :     -1.24922       0.95777       0.32309
                        -----------------------------------------
Magnitude (a.u.)       :      1.60695
Magnitude (Debye)      :      4.08453

                             ****ORCA TERMINATED NORMALLY****
TOTAL RUN TIME: 0 days 0 hours 17 minutes 18 seconds 899 msec
