                         Program Version 3.0.3 - RELEASE   -
|  1> ! RI-MP2 RIJK def2-TZVP def2-TZVP/C def2-TZVP/JK TIGHTSCF
|  2> % maxcore 2000
|  3> % mp2 density relaxed end
|  4> *xyz 0 1
|  5>  O       -0.2330969236     0.2486600729     0.1283801157
|  6>  C        0.0766371804     1.4109515101     0.0611695267
|  7>  C        1.4723588466     1.9060957830    -0.2559913221
|  8>  C        1.4867314575     2.8865946411    -1.4202239159
|  9>  O        0.5954490530     4.0280987657    -1.2329763207
| 10>  C        1.6550399866     4.9670470085    -1.4909513677
| 11>  C        2.4003562937     5.3910724752    -0.2195912983
| 12>  O        3.2751483865     4.2315730861    -0.3138328899
| 13>  C        2.6966684875     3.8335746446    -1.5678291074
| 14>  H       -0.6653234046     2.2181259405     0.2402484342
| 15>  H        1.8697897000     2.4245939627     0.6259976906
| 16>  H        2.1118125901     1.0451648220    -0.4734221380
| 17>  H        1.2406283739     2.3811492487    -2.3642003992
| 18>  H        1.4042783306     5.7027847564    -2.2558608624
| 19>  H        2.9746053607     6.3216706921    -0.3052959073
| 20>  H        1.7994642541     5.3980175691     0.6952328663
| 21>  H        3.4394785170     3.6430422414    -2.3435587447
| 22> *
| 23>
| 24>                          ****END OF INPUT****

CARTESIAN COORDINATES (ANGSTROEM)
---------------------------------
  O     -0.233097    0.248660    0.128380
  C      0.076637    1.410952    0.061170
  C      1.472359    1.906096   -0.255991
  C      1.486731    2.886595   -1.420224
  O      0.595449    4.028099   -1.232976
  C      1.655040    4.967047   -1.490951
  C      2.400356    5.391072   -0.219591
  O      3.275148    4.231573   -0.313833
  C      2.696668    3.833575   -1.567829
  H     -0.665323    2.218126    0.240248
  H      1.869790    2.424594    0.625998
  H      2.111813    1.045165   -0.473422
  H      1.240628    2.381149   -2.364200
  H      1.404278    5.702785   -2.255861
  H      2.974605    6.321671   -0.305296
  H      1.799464    5.398018    0.695233
  H      3.439479    3.643042   -2.343559

 Total Charge           Charge          ....    0
 Multiplicity           Mult            ....    1
 Number of Electrons    NEL             ....   68
 Basis Dimension        Dim             ....  327

ORBITAL ENERGIES
----------------

  NO   OCC          E(Eh)            E(eV)
   0   2.0000     -20.573308      -559.8282
   1   2.0000     -20.572751      -559.8130
   2   2.0000     -20.554664      -559.3209
   3   2.0000     -11.329358      -308.2875
   4   2.0000     -11.309787      -307.7549
   5   2.0000     -11.307395      -307.6898
   6   2.0000     -11.306818      -307.6742
   7   2.0000     -11.298289      -307.4421
   8   2.0000     -11.243454      -305.9499
   9   2.0000      -1.433305       -39.0022
  10   2.0000      -1.392996       -37.9053
  11   2.0000      -1.368424       -37.2367
  12   2.0000      -1.068666       -29.0799
  13   2.0000      -1.004309       -27.3286
  14   2.0000      -0.977573       -26.6011
  15   2.0000      -0.873569       -23.7710
  16   2.0000      -0.797551       -21.7025
  17   2.0000      -0.749668       -20.3995
  18   2.0000      -0.741494       -20.1771
  19   2.0000      -0.693665       -18.8756
  20   2.0000      -0.685383       -18.6502
  21   2.0000      -0.654863       -17.8197
  22   2.0000      -0.627223       -17.0676
  23   2.0000      -0.618652       -16.8344
  24   2.0000      -0.590263       -16.0619
  25   2.0000      -0.579787       -15.7768
  26   2.0000      -0.552357       -15.0304
  27   2.0000      -0.542173       -14.7533
  28   2.0000      -0.521452       -14.1894
  29   2.0000      -0.502919       -13.6851
  30   2.0000      -0.456020       -12.4089
  31   2.0000      -0.446410       -12.1474
  32   2.0000      -0.427680       -11.6378
  33   2.0000      -0.411167       -11.1884
  34   0.0000       0.132440         3.6039
  35   0.0000       0.142690         3.8828
  36   0.0000       0.146955         3.9988
  37   0.0000       0.153714         4.1828
  38   0.0000       0.176438         4.8011

MULLIKEN ATOMIC CHARGES
-----------------------
   0 O :   -0.265503
   1 C :    0.093070
   2 C :   -0.204233
   3 C :    0.026607
   4 O :   -0.333738
   5 C :   -0.013677
   6 C :   -0.032844
   7 O :   -0.350537
   8 C :    0.108450
   9 H :    0.098773
  10 H :    0.152696
  11 H :    0.125958
  12 H :    0.109213
  13 H :    0.124932
  14 H :    0.111934
  15 H :    0.115341
  16 H :    0.133560
Sum of atomic charges:    0.0000000

LOEWDIN ATOMIC CHARGES
----------------------
   0 O :    0.129307
   1 C :   -0.289599
   2 C :   -0.241524
   3 C :   -0.251032
   4 O :    0.154401
   5 C :   -0.249623
   6 C :   -0.242715
   7 O :    0.138777
   8 C :   -0.231029
   9 H :    0.116099
  10 H :    0.160881
  11 H :    0.152790
  12 H :    0.144196
  13 H :    0.130356
  14 H :    0.123308
  15 H :    0.124112
  16 H :    0.131298

  Mayer bond orders larger than 0.1
B(  0-O ,  1-C ) :   1.9884 B(  1-C ,  2-C ) :   0.8872 B(  1-C ,  9-H ) :   0.9347
B(  2-C ,  3-C ) :   0.9119 B(  2-C , 10-H ) :   0.9062 B(  2-C , 11-H ) :   0.9044
B(  3-C ,  4-O ) :   0.8925 B(  3-C ,  8-C ) :   0.9081 B(  3-C , 12-H ) :   0.9032
B(  4-O ,  5-C ) :   0.9630 B(  5-C ,  6-C ) :   0.9550 B(  5-C ,  8-C ) :   0.9603
B(  5-C , 13-H ) :   0.9188 B(  6-C ,  7-O ) :   0.9076 B(  6-C , 14-H ) :   0.9132
B(  6-C , 15-H ) :   0.9101 B(  7-O ,  8-C ) :   0.9386 B(  8-C , 16-H ) :   0.9132

MP2 TOTAL ENERGY:     -458.178248751 Eh
FINAL SINGLE POINT ENERGY      -458.178248750995

DIPOLE MOMENT
-------------
                                X             Y             Z
Electronic contribution:     -1.52915      -2.03462       0.04852
Nuclear contribution   :      2.15391       3.27311      -0.65215
                        -----------------------------------------
Total Dipole Moment    :      0.62476       1.23849      -0.60363
                        -----------------------------------------
Magnitude (a.u.)       :      1.51279
Magnitude (Debye)      :      3.84521

                             ****ORCA TERMINATED NORMALLY****
TOTAL RUN TIME: 0 days 0 hours 16 minutes 2 seconds 302 msec
