                         Program Version 3.0.3 - RELEASE   -
|  1> ! RI-MP2 RIJK def2-TZVP def2-TZVP/C def2-TZVP/JK TIGHTSCF
|  2> % maxcore 2000
|  3> % mp2 density relaxed end
|  4> *xyz 0 1
|  5>  C       -0.7778971189     1.7887034422     0.3690105058
|  6>  N        0.6580763081     1.5284302262    -0.1869655035
|  7>  C       -0.0448564622     0.4015530450    -0.9915671011
|  8>  C        0.5671294385    -0.9621387979    -1.3325600265
|  9>  C        0.4523269563    -1.6781013218     0.0343344356
| 10>  C        1.4475698358    -0.8648368177     0.8958872231
| 11>  C        0.7272617467     0.4868844720     0.9627069026
| 12>  C       -0.6804798735     0.2284777734     0.3986482141
| 13>  C       -0.9845553623    -1.2560193476     0.5836054703
| 14>  H       -1.4415655452     2.2559600081    -0.3628850235
| 15>  H       -0.7771441900     2.3293900302     1.3188067167
| 16>  H       -0.6562810323     0.8232513255    -1.7929667018
| 17>  H        1.5961466151    -0.9387135435    -1.7037241731
| 18>  H       -0.0542399643    -1.4303066619    -2.1039885159
| 19>  H        0.6288877741    -2.7550986001     0.0116026372
| 20>  H        2.4517399383    -0.8441596321     0.4618336688
| 21>  H        1.5340623853    -1.2547737504     1.9161085705
| 22>  H        0.8149612988     0.9858472670     1.9308264522
| 23>  H       -1.7919297544    -1.6495368263    -0.0410135598
| 24>  H       -1.1363209138    -1.5770823202     1.6183730682
| 25> *
| 26>
| 27>                          ****END OF INPUT****

CARTESIAN COORDINATES (ANGSTROEM)
---------------------------------
  C     -0.777897    1.788703    0.369011
  N      0.658076    1.528430   -0.186966
  C     -0.044856    0.401553   -0.991567
  C      0.567129   -0.962139   -1.332560
  C      0.452327   -1.678101    0.034334
  C      1.447570   -0.864837    0.895887
  C      0.727262    0.486884    0.962707
  C     -0.680480    0.228478    0.398648
  C     -0.984555   -1.256019    0.583605
  H     -1.441566    2.255960   -0.362885
  H     -0.777144    2.329390    1.318807
  H     -0.656281    0.823251   -1.792967
  H      1.596147   -0.938714   -1.703724
  H     -0.054240   -1.430307   -2.103989
  H      0.628888   -2.755099    0.011603
  H      2.451740   -0.844160    0.461834
  H      1.534062   -1.254774    1.916109
  H      0.814961    0.985847    1.930826
  H     -1.791930   -1.649537   -0.041014
  H     -1.136321   -1.577082    1.618373

 Total Charge           Charge          ....    0
 Multiplicity           Mult            ....    1
 Number of Electrons    NEL             ....   66
 Basis Dimension        Dim             ....  345

ORBITAL ENERGIES
----------------

  NO   OCC          E(Eh)            E(eV)
   0   2.0000     -15.565772      -423.5662
   1   2.0000     -11.268351      -306.6274
   2   2.0000     -11.248217      -306.0795
   3   2.0000     -11.248192      -306.0789
   4   2.0000     -11.237938      -305.7998
   5   2.0000     -11.235316      -305.7285
   6   2.0000     -11.233178      -305.6703
   7   2.0000     -11.221832      -305.3616
   8   2.0000     -11.221811      -305.3610
   9   2.0000      -1.291634       -35.1472
  10   2.0000      -1.116363       -30.3778
  11   2.0000      -0.997206       -27.1353
  12   2.0000      -0.972602       -26.4659
  13   2.0000      -0.891251       -24.2522
  14   2.0000      -0.875137       -23.8137
  15   2.0000      -0.834120       -22.6976
  16   2.0000      -0.775001       -21.0888
  17   2.0000      -0.693748       -18.8778
  18   2.0000      -0.669216       -18.2103
  19   2.0000      -0.626067       -17.0362
  20   2.0000      -0.605314       -16.4714
  21   2.0000      -0.600698       -16.3458
  22   2.0000      -0.573067       -15.5939
  23   2.0000      -0.536093       -14.5878
  24   2.0000      -0.534281       -14.5385
  25   2.0000      -0.514473       -13.9995
  26   2.0000      -0.478209       -13.0127
  27   2.0000      -0.471579       -12.8323
  28   2.0000      -0.444926       -12.1070
  29   2.0000      -0.440425       -11.9846
  30   2.0000      -0.426281       -11.5997
  31   2.0000      -0.420150       -11.4329
  32   2.0000      -0.341110        -9.2821
  33   0.0000       0.133657         3.6370
  34   0.0000       0.160772         4.3748
  35   0.0000       0.166611         4.5337
  36   0.0000       0.172291         4.6883
  37   0.0000       0.182122         4.9558

MULLIKEN ATOMIC CHARGES
-----------------------
   0 C :   -0.091562
   1 N :   -0.183313
   2 C :   -0.062958
   3 C :   -0.295636
   4 C :    0.050035
   5 C :   -0.295636
   6 C :   -0.062958
   7 C :   -0.012212
   8 C :   -0.325439
   9 H :    0.115148
  10 H :    0.115148
  11 H :    0.094155
  12 H :    0.128431
  13 H :    0.122298
  14 H :    0.118686
  15 H :    0.128432
  16 H :    0.122297
  17 H :    0.094155
  18 H :    0.120465
  19 H :    0.120466
Sum of atomic charges:    0.0000000

LOEWDIN ATOMIC CHARGES
----------------------
   0 C :   -0.194459
   1 N :    0.108675
   2 C :   -0.191411
   3 C :   -0.214267
   4 C :   -0.206040
   5 C :   -0.214267
   6 C :   -0.191411
   7 C :   -0.205003
   8 C :   -0.191246
   9 H :    0.123688
  10 H :    0.123688
  11 H :    0.137290
  12 H :    0.141057
  13 H :    0.142338
  14 H :    0.138052
  15 H :    0.141057
  16 H :    0.142339
  17 H :    0.137290
  18 H :    0.136313
  19 H :    0.136313

  Mayer bond orders larger than 0.1
B(  0-C ,  1-N ) :   0.9223 B(  0-C ,  7-C ) :   0.9079 B(  0-C ,  9-H ) :   0.9173
B(  0-C , 10-H ) :   0.9173 B(  1-N ,  2-C ) :   0.9148 B(  1-N ,  6-C ) :   0.9148
B(  2-C ,  3-C ) :   0.9595 B(  2-C ,  7-C ) :   0.8932 B(  2-C , 11-H ) :   0.9312
B(  3-C ,  4-C ) :   0.9167 B(  3-C , 12-H ) :   0.9143 B(  3-C , 13-H ) :   0.9178
B(  4-C ,  5-C ) :   0.9167 B(  4-C ,  8-C ) :   0.8928 B(  4-C , 14-H ) :   0.9213
B(  5-C ,  6-C ) :   0.9595 B(  5-C , 15-H ) :   0.9143 B(  5-C , 16-H ) :   0.9178
B(  6-C ,  7-C ) :   0.8932 B(  6-C , 17-H ) :   0.9312 B(  7-C ,  8-C ) :   0.9625
B(  8-C , 18-H ) :   0.9136 B(  8-C , 19-H ) :   0.9136

MP2 TOTAL ENERGY:     -365.272883972 Eh
FINAL SINGLE POINT ENERGY      -365.272883972006

DIPOLE MOMENT
-------------
                                X             Y             Z
Electronic contribution:      0.05999       2.70928      -0.14200
Nuclear contribution   :     -0.50906      -3.37305       0.34841
                        -----------------------------------------
Total Dipole Moment    :     -0.44907      -0.66376       0.20641
                        -----------------------------------------
Magnitude (a.u.)       :      0.82756
Magnitude (Debye)      :      2.10349

                             ****ORCA TERMINATED NORMALLY****
TOTAL RUN TIME: 0 days 0 hours 25 minutes 0 seconds 261 msec
