                         Program Version 3.0.3 - RELEASE   -
|  1> ! RI-MP2 RIJK def2-TZVP def2-TZVP/C def2-TZVP/JK TIGHTSCF
|  2> % maxcore 2000
|  3> % mp2 density relaxed end
|  4> *xyz 0 1
|  5>  O        0.0170602672     0.0377209260    -0.3743754678
|  6>  C       -0.0394818018     1.1731801481    -0.0098297610
|  7>  C       -1.2856872329     2.0463661477     0.1892858018
|  8>  C       -0.7573955383     3.3447625647     0.7551109532
|  9>  C        0.0063136262     3.2725109403     2.0656292084
| 10>  C        0.7404700480     3.1894132477     0.7615891578
| 11>  O        1.0806374637     1.8921562240     0.3139996668
| 12>  H       -1.7721545767     2.1817969052    -0.7818067500
| 13>  H       -1.9916037237     1.5147583349     0.8336117674
| 14>  H       -1.2220748219     4.2800516098     0.4705183874
| 15>  H        0.0984472141     4.1908242986     2.6348539181
| 16>  H       -0.0607733373     2.3691617662     2.6642298635
| 17>  H        1.4470370136     3.9401009168     0.4328306743
| 18> *
| 19>
| 20>                          ****END OF INPUT****

CARTESIAN COORDINATES (ANGSTROEM)
---------------------------------
  O      0.017060    0.037721   -0.374375
  C     -0.039482    1.173180   -0.009830
  C     -1.285687    2.046366    0.189286
  C     -0.757396    3.344763    0.755111
  C      0.006314    3.272511    2.065629
  C      0.740470    3.189413    0.761589
  O      1.080637    1.892156    0.314000
  H     -1.772155    2.181797   -0.781807
  H     -1.991604    1.514758    0.833612
  H     -1.222075    4.280052    0.470518
  H      0.098447    4.190824    2.634854
  H     -0.060773    2.369162    2.664230
  H      1.447037    3.940101    0.432831

 Total Charge           Charge          ....    0
 Multiplicity           Mult            ....    1
 Number of Electrons    NEL             ....   52
 Basis Dimension        Dim             ....  253

ORBITAL ENERGIES
----------------

  NO   OCC          E(Eh)            E(eV)
   0   2.0000     -20.606449      -560.7300
   1   2.0000     -20.543972      -559.0299
   2   2.0000     -11.382511      -309.7339
   3   2.0000     -11.309289      -307.7414
   4   2.0000     -11.261666      -306.4455
   5   2.0000     -11.260543      -306.4150
   6   2.0000     -11.251769      -306.1762
   7   2.0000      -1.464387       -39.8480
   8   2.0000      -1.374400       -37.3993
   9   2.0000      -1.166372       -31.7386
  10   2.0000      -1.030630       -28.0449
  11   2.0000      -0.875953       -23.8359
  12   2.0000      -0.827475       -22.5167
  13   2.0000      -0.778915       -21.1954
  14   2.0000      -0.728564       -19.8252
  15   2.0000      -0.668750       -18.1976
  16   2.0000      -0.655338       -17.8326
  17   2.0000      -0.620744       -16.8913
  18   2.0000      -0.614556       -16.7229
  19   2.0000      -0.597038       -16.2462
  20   2.0000      -0.555823       -15.1247
  21   2.0000      -0.543144       -14.7797
  22   2.0000      -0.497041       -13.5252
  23   2.0000      -0.443597       -12.0709
  24   2.0000      -0.438471       -11.9314
  25   2.0000      -0.415612       -11.3094
  26   0.0000       0.133563         3.6344
  27   0.0000       0.148701         4.0463
  28   0.0000       0.162202         4.4138
  29   0.0000       0.167918         4.5693
  30   0.0000       0.180221         4.9041

MULLIKEN ATOMIC CHARGES
-----------------------
   0 O :   -0.276110
   1 C :    0.228212
   2 C :   -0.228580
   3 C :   -0.144493
   4 C :   -0.286735
   5 C :    0.060834
   6 O :   -0.221463
   7 H :    0.149244
   8 H :    0.147279
   9 H :    0.141398
  10 H :    0.137869
  11 H :    0.150102
  12 H :    0.142443
Sum of atomic charges:   -0.0000000

LOEWDIN ATOMIC CHARGES
----------------------
   0 O :    0.144824
   1 C :   -0.444418
   2 C :   -0.207888
   3 C :   -0.206349
   4 C :   -0.199354
   5 C :   -0.252802
   6 O :    0.281050
   7 H :    0.158995
   8 H :    0.156692
   9 H :    0.147041
  10 H :    0.140068
  11 H :    0.142546
  12 H :    0.139595

  Mayer bond orders larger than 0.1
B(  0-O ,  1-C ) :   2.0434 B(  1-C ,  2-C ) :   0.9393 B(  1-C ,  6-O ) :   1.0862
B(  2-C ,  3-C ) :   0.9402 B(  2-C ,  7-H ) :   0.9069 B(  2-C ,  8-H ) :   0.9058
B(  3-C ,  4-C ) :   0.8764 B(  3-C ,  5-C ) :   0.8845 B(  3-C ,  9-H ) :   0.9206
B(  4-C ,  5-C ) :   0.8836 B(  4-C , 10-H ) :   0.9206 B(  4-C , 11-H ) :   0.9188
B(  5-C ,  6-O ) :   0.8927 B(  5-C , 12-H ) :   0.9327

MP2 TOTAL ENERGY:     -343.914778907 Eh
FINAL SINGLE POINT ENERGY      -343.914778907412

DIPOLE MOMENT
-------------
                                X             Y             Z
Electronic contribution:      2.52313      -3.96413      -2.47498
Nuclear contribution   :     -3.15243       5.48288       2.95254
                        -----------------------------------------
Total Dipole Moment    :     -0.62930       1.51876       0.47756
                        -----------------------------------------
Magnitude (a.u.)       :      1.71193
Magnitude (Debye)      :      4.35138

                             ****ORCA TERMINATED NORMALLY****
TOTAL RUN TIME: 0 days 0 hours 7 minutes 13 seconds 309 msec
