                         Program Version 3.0.3 - RELEASE   -
|  1> ! RI-MP2 RIJK def2-TZVP def2-TZVP/C def2-TZVP/JK TIGHTSCF
|  2> % maxcore 2000
|  3> % mp2 density relaxed end
|  4> *xyz 0 1
|  5>  O        0.2977226867     1.0825805191     0.4282834802
|  6>  C        0.2072594468    -0.2382822171    -0.0112051175
|  7>  C       -1.2465608261    -0.8338276346    -0.2036214251
|  8>  N       -0.8101320736    -1.1978499190    -1.5737786792
|  9>  C        0.3463356249    -0.4397941957    -1.5182056393
| 10>  N        1.1909249421     0.0627919125    -2.3139870727
| 11>  C       -1.6796038690    -1.9314171137     0.6390412861
| 12>  C       -2.0363866983    -2.8304776021     1.3523042439
| 13>  H        0.7366455809     1.5764025107    -0.2761411131
| 14>  H        0.8314228623    -0.9076416165     0.5908922863
| 15>  H       -1.9738774001    -0.0141566676    -0.1888924760
| 16>  H       -1.4100008069    -1.3480351051    -2.3731167435
| 17>  H        0.9803722475    -0.1355383208    -3.2929157606
| 18>  H       -2.3496348771    -3.6267950301     1.9815360804
| 19> *
| 20>
| 21>                          ****END OF INPUT****

CARTESIAN COORDINATES (ANGSTROEM)
---------------------------------
  O      0.297723    1.082581    0.428283
  C      0.207259   -0.238282   -0.011205
  C     -1.246561   -0.833828   -0.203621
  N     -0.810132   -1.197850   -1.573779
  C      0.346336   -0.439794   -1.518206
  N      1.190925    0.062792   -2.313987
  C     -1.679604   -1.931417    0.639041
  C     -2.036387   -2.830478    1.352304
  H      0.736646    1.576403   -0.276141
  H      0.831423   -0.907642    0.590892
  H     -1.973877   -0.014157   -0.188892
  H     -1.410001   -1.348035   -2.373117
  H      0.980372   -0.135538   -3.292916
  H     -2.349635   -3.626795    1.981536

 Total Charge           Charge          ....    0
 Multiplicity           Mult            ....    1
 Number of Electrons    NEL             ....   58
 Basis Dimension        Dim             ....  284

ORBITAL ENERGIES
----------------

  NO   OCC          E(Eh)            E(eV)
   0   2.0000     -20.573677      -559.8382
   1   2.0000     -15.596668      -424.4069
   2   2.0000     -15.542398      -422.9302
   3   2.0000     -11.328378      -308.2608
   4   2.0000     -11.311042      -307.7891
   5   2.0000     -11.310169      -307.7654
   6   2.0000     -11.245452      -306.0043
   7   2.0000     -11.239233      -305.8351
   8   2.0000      -1.390832       -37.8465
   9   2.0000      -1.303139       -35.4602
  10   2.0000      -1.185077       -32.2476
  11   2.0000      -1.057446       -28.7746
  12   2.0000      -0.991320       -26.9752
  13   2.0000      -0.919283       -25.0149
  14   2.0000      -0.798122       -21.7180
  15   2.0000      -0.747046       -20.3282
  16   2.0000      -0.723903       -19.6984
  17   2.0000      -0.705429       -19.1957
  18   2.0000      -0.681862       -18.5544
  19   2.0000      -0.634380       -17.2623
  20   2.0000      -0.608184       -16.5495
  21   2.0000      -0.590498       -16.0683
  22   2.0000      -0.528183       -14.3726
  23   2.0000      -0.512936       -13.9577
  24   2.0000      -0.470215       -12.7952
  25   2.0000      -0.435713       -11.8564
  26   2.0000      -0.405609       -11.0372
  27   2.0000      -0.398409       -10.8413
  28   2.0000      -0.382566       -10.4102
  29   0.0000       0.121504         3.3063
  30   0.0000       0.148280         4.0349
  31   0.0000       0.157935         4.2976
  32   0.0000       0.162178         4.4131
  33   0.0000       0.163803         4.4573

MULLIKEN ATOMIC CHARGES
-----------------------
   0 O :   -0.477924
   1 C :    0.166338
   2 C :   -0.080491
   3 N :   -0.321607
   4 C :    0.006019
   5 N :   -0.391554
   6 C :   -0.038442
   7 C :   -0.111437
   8 H :    0.341634
   9 H :    0.124517
  10 H :    0.133861
  11 H :    0.236055
  12 H :    0.215645
  13 H :    0.197386
Sum of atomic charges:    0.0000000

LOEWDIN ATOMIC CHARGES
----------------------
   0 O :    0.001914
   1 C :   -0.248357
   2 C :   -0.211950
   3 N :    0.125483
   4 C :   -0.380368
   5 N :   -0.080414
   6 C :   -0.093528
   7 C :   -0.077717
   8 H :    0.192055
   9 H :    0.146826
  10 H :    0.160516
  11 H :    0.171724
  12 H :    0.164493
  13 H :    0.129323

  Mayer bond orders larger than 0.1
B(  0-O ,  1-C ) :   1.0344 B(  0-O ,  8-H ) :   0.8206 B(  1-C ,  2-C ) :   0.8108
B(  1-C ,  4-C ) :   0.8690 B(  1-C ,  9-H ) :   0.9306 B(  2-C ,  3-N ) :   0.8958
B(  2-C ,  6-C ) :   1.1406 B(  2-C ,  7-C ) :  -0.1073 B(  2-C , 10-H ) :   0.9464
B(  3-N ,  4-C ) :   1.1389 B(  3-N , 11-H ) :   0.8624 B(  4-C ,  5-N ) :   2.0615
B(  5-N , 12-H ) :   0.8529 B(  6-C ,  7-C ) :   2.5874 B(  7-C , 13-H ) :   0.8902

MP2 TOTAL ENERGY:     -378.025515905 Eh
FINAL SINGLE POINT ENERGY      -378.025515904765

DIPOLE MOMENT
-------------
                                X             Y             Z
Electronic contribution:     -0.25304      -0.30817       0.29311
Nuclear contribution   :     -0.61582      -0.14314      -0.88419
                        -----------------------------------------
Total Dipole Moment    :     -0.86886      -0.45132      -0.59108
                        -----------------------------------------
Magnitude (a.u.)       :      1.14367
Magnitude (Debye)      :      2.90697

                             ****ORCA TERMINATED NORMALLY****
TOTAL RUN TIME: 0 days 0 hours 10 minutes 3 seconds 696 msec
