                         Program Version 3.0.3 - RELEASE   -
|  1> ! RI-MP2 RIJK def2-TZVP def2-TZVP/C def2-TZVP/JK TIGHTSCF
|  2> % maxcore 2000
|  3> % mp2 density relaxed end
|  4> *xyz 0 1
|  5>  O       -0.1678160109     1.5098656634    -0.3313236734
|  6>  C        0.0420646802     0.1257402025    -0.1462391023
|  7>  C       -1.2413170548    -0.5620857739     0.2773666051
|  8>  O       -2.2346333884    -0.4815427515    -0.8222344108
|  9>  C       -2.3148448426    -1.8454426513    -0.9008195696
| 10>  O       -2.9124335754    -2.5052597201    -1.6942905399
| 11>  C       -1.3608919469    -2.1053637316     0.2587399432
| 12>  C       -0.2016711632    -3.0415391610    -0.1042035201
| 13>  O       -0.6971867903    -4.3417175525    -0.3407016456
| 14>  H       -0.8377662420     1.6059499587    -1.0182845055
| 15>  H        0.4429811698    -0.3488759317    -1.0539489976
| 16>  H        0.7909593069     0.0214347543     0.6465173169
| 17>  H       -1.6558462568    -0.0770428740     1.1640882034
| 18>  H       -1.8808341902    -2.5080246728     1.1315732289
| 19>  H        0.3513084316    -2.6539288942    -0.9727986958
| 20>  H        0.5045317156    -3.1189930545     0.7282690643
| 21>  H       -1.3634729926    -4.2772565898    -1.0373274413
| 22> *
| 23>
| 24>                          ****END OF INPUT****

CARTESIAN COORDINATES (ANGSTROEM)
---------------------------------
  O     -0.167816    1.509866   -0.331324
  C      0.042065    0.125740   -0.146239
  C     -1.241317   -0.562086    0.277367
  O     -2.234633   -0.481543   -0.822234
  C     -2.314845   -1.845443   -0.900820
  O     -2.912434   -2.505260   -1.694291
  C     -1.360892   -2.105364    0.258740
  C     -0.201671   -3.041539   -0.104204
  O     -0.697187   -4.341718   -0.340702
  H     -0.837766    1.605950   -1.018285
  H      0.442981   -0.348876   -1.053949
  H      0.790959    0.021435    0.646517
  H     -1.655846   -0.077043    1.164088
  H     -1.880834   -2.508025    1.131573
  H      0.351308   -2.653929   -0.972799
  H      0.504532   -3.118993    0.728269
  H     -1.363473   -4.277257   -1.037327

 Total Charge           Charge          ....    0
 Multiplicity           Mult            ....    1
 Number of Electrons    NEL             ....   70
 Basis Dimension        Dim             ....  327

ORBITAL ENERGIES
----------------

  NO   OCC          E(Eh)            E(eV)
   0   2.0000     -20.619544      -561.0863
   1   2.0000     -20.578392      -559.9665
   2   2.0000     -20.573151      -559.8239
   3   2.0000     -20.571678      -559.7838
   4   2.0000     -11.400971      -310.2362
   5   2.0000     -11.328818      -308.2728
   6   2.0000     -11.310618      -307.7775
   7   2.0000     -11.307243      -307.6857
   8   2.0000     -11.280236      -306.9508
   9   2.0000      -1.482152       -40.3314
  10   2.0000      -1.400495       -38.1094
  11   2.0000      -1.382244       -37.6128
  12   2.0000      -1.380899       -37.5762
  13   2.0000      -1.097014       -29.8513
  14   2.0000      -1.010203       -27.4890
  15   2.0000      -0.926547       -25.2126
  16   2.0000      -0.870597       -23.6901
  17   2.0000      -0.761223       -20.7139
  18   2.0000      -0.753562       -20.5055
  19   2.0000      -0.712535       -19.3891
  20   2.0000      -0.709699       -19.3119
  21   2.0000      -0.702377       -19.1127
  22   2.0000      -0.666730       -18.1426
  23   2.0000      -0.634000       -17.2520
  24   2.0000      -0.625945       -17.0328
  25   2.0000      -0.606880       -16.5140
  26   2.0000      -0.595605       -16.2072
  27   2.0000      -0.572038       -15.5659
  28   2.0000      -0.555583       -15.1182
  29   2.0000      -0.526320       -14.3219
  30   2.0000      -0.516036       -14.0420
  31   2.0000      -0.493847       -13.4383
  32   2.0000      -0.471635       -12.8338
  33   2.0000      -0.458569       -12.4783
  34   2.0000      -0.451507       -12.2861
  35   0.0000       0.117198         3.1891
  36   0.0000       0.140526         3.8239
  37   0.0000       0.145001         3.9457
  38   0.0000       0.154443         4.2026
  39   0.0000       0.169676         4.6171

MULLIKEN ATOMIC CHARGES
-----------------------
   0 O :   -0.465261
   1 C :   -0.030760
   2 C :    0.022031
   3 O :   -0.252204
   4 C :    0.271166
   5 O :   -0.283977
   6 C :   -0.170418
   7 C :   -0.033970
   8 O :   -0.464006
   9 H :    0.330942
  10 H :    0.113271
  11 H :    0.125135
  12 H :    0.123435
  13 H :    0.145398
  14 H :    0.108147
  15 H :    0.127327
  16 H :    0.333744
Sum of atomic charges:    0.0000000

LOEWDIN ATOMIC CHARGES
----------------------
   0 O :   -0.031672
   1 C :   -0.334122
   2 C :   -0.225569
   3 O :    0.242888
   4 C :   -0.448294
   5 O :    0.146905
   6 C :   -0.198828
   7 C :   -0.321167
   8 O :   -0.028651
   9 H :    0.181884
  10 H :    0.123980
  11 H :    0.139456
  12 H :    0.146363
  13 H :    0.169225
  14 H :    0.121913
  15 H :    0.133215
  16 H :    0.182474

  Mayer bond orders larger than 0.1
B(  0-O ,  1-C ) :   0.9233 B(  0-O ,  9-H ) :   0.8340 B(  1-C ,  2-C ) :   0.9256
B(  1-C , 10-H ) :   0.9161 B(  1-C , 11-H ) :   0.9224 B(  2-C ,  3-O ) :   0.8438
B(  2-C ,  6-C ) :   0.8804 B(  2-C , 12-H ) :   0.9152 B(  3-O ,  4-C ) :   1.1058
B(  4-C ,  5-O ) :   1.9876 B(  4-C ,  6-C ) :   0.9079 B(  6-C ,  7-C ) :   0.9226
B(  6-C , 13-H ) :   0.8973 B(  7-C ,  8-O ) :   0.9402 B(  7-C , 14-H ) :   0.9175
B(  7-C , 15-H ) :   0.9325 B(  8-O , 16-H ) :   0.8273

MP2 TOTAL ENERGY:     -495.356241709 Eh
FINAL SINGLE POINT ENERGY      -495.356241709369

DIPOLE MOMENT
-------------
                                X             Y             Z
Electronic contribution:     -5.16585      -0.06532      -2.34444
Nuclear contribution   :      5.69779       0.35389       2.93414
                        -----------------------------------------
Total Dipole Moment    :      0.53194       0.28857       0.58970
                        -----------------------------------------
Magnitude (a.u.)       :      0.84497
Magnitude (Debye)      :      2.14775

                             ****ORCA TERMINATED NORMALLY****
TOTAL RUN TIME: 0 days 0 hours 23 minutes 7 seconds 261 msec
