                         Program Version 3.0.3 - RELEASE   -
|  1> ! RI-MP2 RIJK def2-TZVP def2-TZVP/C def2-TZVP/JK TIGHTSCF
|  2> % maxcore 2000
|  3> % mp2 density relaxed end
|  4> *xyz 0 1
|  5>  C        0.7714369149     1.0596838133     0.5500505419
|  6>  O       -0.0808613815     0.2089550744    -0.2037316379
|  7>  C        0.5212056738    -0.4650769699    -1.2809610790
|  8>  C        1.7713799236    -1.2735472888    -1.0422757147
|  9>  C        0.4464632537    -1.9729805000    -1.2696266771
| 10>  C       -0.2361678047    -2.7105535770    -0.1401353826
| 11>  C        0.3201115019     0.2539643603    -2.6088882821
| 12>  C       -1.1558366341     0.3074392387    -3.0073100953
| 13>  O        0.8884677271     1.5638849184    -2.5861030691
| 14>  H        1.4514954346     0.4889090665     1.1967469303
| 15>  H        1.3714919140     1.7114394277    -0.0933397775
| 16>  H        0.1207985458     1.6672168010     1.1851719186
| 17>  H        2.5277639786    -1.2926274551    -1.8200176690
| 18>  H        2.1699233619    -1.3005804428    -0.0336515361
| 19>  H        0.3208038476    -2.4314969172    -2.2483727524
| 20>  H       -0.1501193439    -2.1543981614     0.7963121602
| 21>  H       -1.3039718945    -2.8439563718    -0.3446825758
| 22>  H        0.2045149652    -3.7027990503     0.0044413242
| 23>  H        0.8869136839    -0.2876658896    -3.3758293049
| 24>  H       -1.2764854194     0.8725058106    -3.9355342836
| 25>  H       -1.5624464777    -0.6976363889    -3.1533368476
| 26>  H       -1.7401128208     0.7916474698    -2.2171960669
| 27>  H        0.2757943799     2.1246273619    -2.0982260234
| 28> *
| 29>
| 30>                          ****END OF INPUT****

CARTESIAN COORDINATES (ANGSTROEM)
---------------------------------
  C      0.771437    1.059684    0.550051
  O     -0.080861    0.208955   -0.203732
  C      0.521206   -0.465077   -1.280961
  C      1.771380   -1.273547   -1.042276
  C      0.446463   -1.972980   -1.269627
  C     -0.236168   -2.710554   -0.140135
  C      0.320112    0.253964   -2.608888
  C     -1.155837    0.307439   -3.007310
  O      0.888468    1.563885   -2.586103
  H      1.451495    0.488909    1.196747
  H      1.371492    1.711439   -0.093340
  H      0.120799    1.667217    1.185172
  H      2.527764   -1.292627   -1.820018
  H      2.169923   -1.300580   -0.033652
  H      0.320804   -2.431497   -2.248373
  H     -0.150119   -2.154398    0.796312
  H     -1.303972   -2.843956   -0.344683
  H      0.204515   -3.702799    0.004441
  H      0.886914   -0.287666   -3.375829
  H     -1.276485    0.872506   -3.935534
  H     -1.562446   -0.697636   -3.153337
  H     -1.740113    0.791647   -2.217196
  H      0.275794    2.124627   -2.098226

 Total Charge           Charge          ....    0
 Multiplicity           Mult            ....    1
 Number of Electrons    NEL             ....   72
 Basis Dimension        Dim             ....  363

ORBITAL ENERGIES
----------------

  NO   OCC          E(Eh)            E(eV)
   0   2.0000     -20.558870      -559.4353
   1   2.0000     -20.551178      -559.2260
   2   2.0000     -11.280420      -306.9558
   3   2.0000     -11.279703      -306.9363
   4   2.0000     -11.269847      -306.6681
   5   2.0000     -11.230789      -305.6053
   6   2.0000     -11.223287      -305.4012
   7   2.0000     -11.214012      -305.1488
   8   2.0000     -11.213834      -305.1439
   9   2.0000      -1.383756       -37.6539
  10   2.0000      -1.352203       -36.7953
  11   2.0000      -1.142292       -31.0833
  12   2.0000      -1.015752       -27.6400
  13   2.0000      -0.960648       -26.1406
  14   2.0000      -0.935076       -25.4447
  15   2.0000      -0.862310       -23.4647
  16   2.0000      -0.797680       -21.7060
  17   2.0000      -0.761919       -20.7329
  18   2.0000      -0.699422       -19.0322
  19   2.0000      -0.658297       -17.9132
  20   2.0000      -0.641975       -17.4690
  21   2.0000      -0.624603       -16.9963
  22   2.0000      -0.620184       -16.8761
  23   2.0000      -0.600404       -16.3378
  24   2.0000      -0.585591       -15.9347
  25   2.0000      -0.560445       -15.2505
  26   2.0000      -0.544947       -14.8288
  27   2.0000      -0.537786       -14.6339
  28   2.0000      -0.522178       -14.2092
  29   2.0000      -0.507668       -13.8144
  30   2.0000      -0.499905       -13.6031
  31   2.0000      -0.484515       -13.1843
  32   2.0000      -0.465629       -12.6704
  33   2.0000      -0.447904       -12.1881
  34   2.0000      -0.395914       -10.7734
  35   2.0000      -0.383000       -10.4220
  36   0.0000       0.133407         3.6302
  37   0.0000       0.149240         4.0610
  38   0.0000       0.161748         4.4014
  39   0.0000       0.169137         4.6024
  40   0.0000       0.192130         5.2281

MULLIKEN ATOMIC CHARGES
-----------------------
   0 C :   -0.235454
   1 O :   -0.349198
   2 C :    0.241146
   3 C :   -0.313622
   4 C :   -0.093702
   5 C :   -0.413731
   6 C :    0.079778
   7 C :   -0.430480
   8 O :   -0.475828
   9 H :    0.110807
  10 H :    0.138392
  11 H :    0.137818
  12 H :    0.133864
  13 H :    0.134196
  14 H :    0.118859
  15 H :    0.136576
  16 H :    0.130094
  17 H :    0.132476
  18 H :    0.089456
  19 H :    0.145804
  20 H :    0.127357
  21 H :    0.135208
  22 H :    0.320181
Sum of atomic charges:    0.0000000

LOEWDIN ATOMIC CHARGES
----------------------
   0 C :   -0.350669
   1 O :    0.186110
   2 C :   -0.317665
   3 C :   -0.188534
   4 C :   -0.211624
   5 C :   -0.291966
   6 C :   -0.334486
   7 C :   -0.298492
   8 O :   -0.019093
   9 H :    0.101087
  10 H :    0.106569
  11 H :    0.111655
  12 H :    0.136023
  13 H :    0.138224
  14 H :    0.149397
  15 H :    0.129372
  16 H :    0.126208
  17 H :    0.124529
  18 H :    0.149813
  19 H :    0.124830
  20 H :    0.127442
  21 H :    0.126695
  22 H :    0.174576

  Mayer bond orders larger than 0.1
B(  0-C ,  1-O ) :   0.8872 B(  0-C ,  9-H ) :   0.9363 B(  0-C , 10-H ) :   0.9332
B(  0-C , 11-H ) :   0.9368 B(  1-O ,  2-C ) :   0.8911 B(  2-C ,  3-C ) :   0.8590
B(  2-C ,  4-C ) :   0.8574 B(  2-C ,  6-C ) :   0.9064 B(  3-C ,  4-C ) :   0.8954
B(  3-C , 12-H ) :   0.9149 B(  3-C , 13-H ) :   0.9268 B(  4-C ,  5-C ) :   0.8812
B(  4-C , 14-H ) :   0.9264 B(  5-C , 15-H ) :   0.9366 B(  5-C , 16-H ) :   0.9392
B(  5-C , 17-H ) :   0.9389 B(  6-C ,  7-C ) :   0.9484 B(  6-C ,  8-O ) :   0.9363
B(  6-C , 18-H ) :   0.9195 B(  7-C , 19-H ) :   0.9421 B(  7-C , 20-H ) :   0.9315
B(  7-C , 21-H ) :   0.9184 B(  8-O , 22-H ) :   0.8416

MP2 TOTAL ENERGY:     -424.699793650 Eh
FINAL SINGLE POINT ENERGY      -424.699793650346

DIPOLE MOMENT
-------------
                                X             Y             Z
Electronic contribution:      1.39198       2.77355      -1.42605
Nuclear contribution   :     -1.49968      -2.91046       1.66367
                        -----------------------------------------
Total Dipole Moment    :     -0.10769      -0.13691       0.23762
                        -----------------------------------------
Magnitude (a.u.)       :      0.29462
Magnitude (Debye)      :      0.74888

                             ****ORCA TERMINATED NORMALLY****
TOTAL RUN TIME: 0 days 0 hours 20 minutes 7 seconds 402 msec
