                         Program Version 3.0.3 - RELEASE   -
|  1> ! RI-MP2 RIJK def2-TZVP def2-TZVP/C def2-TZVP/JK TIGHTSCF
|  2> % maxcore 2000
|  3> % mp2 density relaxed end
|  4> *xyz 0 1
|  5>  O        0.0282568909    -0.0707628947    -0.1075861645
|  6>  C       -0.0336205377     1.1410450824    -0.0526335151
|  7>  C       -1.2994764568     1.8937261901     0.0257164034
|  8>  C       -1.2874019414     3.2366225622    -0.0167574847
|  9>  N       -0.1681221161     4.0077365851    -0.3873219151
| 10>  C        1.0173488097     4.1654204927     0.4839503355
| 11>  C        1.2655513603     2.9189292470     1.3423825224
| 12>  C        1.1985435794     2.0287215254     0.0424709410
| 13>  C        1.0621861038     3.3387369793    -0.7668313584
| 14>  H       -2.2157511066     1.3371197856     0.1851133138
| 15>  H       -2.1789580401     3.8275193712     0.1793734239
| 16>  H        1.3617987400     5.1743328402     0.6761566935
| 17>  H        2.2772534434     2.9189834266     1.7523731092
| 18>  H        0.5509213053     2.7033207312     2.1408366524
| 19>  H        2.1013493360     1.4483531531    -0.1413496120
| 20>  H        1.4778944599     3.5558666728    -1.7445246254
| 21> *
| 22>
| 23>                          ****END OF INPUT****

CARTESIAN COORDINATES (ANGSTROEM)
---------------------------------
  O      0.028257   -0.070763   -0.107586
  C     -0.033621    1.141045   -0.052634
  C     -1.299476    1.893726    0.025716
  C     -1.287402    3.236623   -0.016757
  N     -0.168122    4.007737   -0.387322
  C      1.017349    4.165420    0.483950
  C      1.265551    2.918929    1.342383
  C      1.198544    2.028722    0.042471
  C      1.062186    3.338737   -0.766831
  H     -2.215751    1.337120    0.185113
  H     -2.178958    3.827519    0.179373
  H      1.361799    5.174333    0.676157
  H      2.277253    2.918983    1.752373
  H      0.550921    2.703321    2.140837
  H      2.101349    1.448353   -0.141350
  H      1.477894    3.555867   -1.744525

 Total Charge           Charge          ....    0
 Multiplicity           Mult            ....    1
 Number of Electrons    NEL             ....   64
 Basis Dimension        Dim             ....  321

ORBITAL ENERGIES
----------------

  NO   OCC          E(Eh)            E(eV)
   0   2.0000     -20.540200      -558.9272
   1   2.0000     -15.589637      -424.2156
   2   2.0000     -11.328090      -308.2530
   3   2.0000     -11.295522      -307.3668
   4   2.0000     -11.290237      -307.2230
   5   2.0000     -11.285017      -307.0809
   6   2.0000     -11.255310      -306.2726
   7   2.0000     -11.254595      -306.2531
   8   2.0000     -11.234062      -305.6944
   9   2.0000      -1.381271       -37.5863
  10   2.0000      -1.326111       -36.0853
  11   2.0000      -1.103077       -30.0162
  12   2.0000      -1.073308       -29.2062
  13   2.0000      -0.942404       -25.6441
  14   2.0000      -0.908306       -24.7163
  15   2.0000      -0.834968       -22.7206
  16   2.0000      -0.780137       -21.2286
  17   2.0000      -0.726815       -19.7776
  18   2.0000      -0.692224       -18.8364
  19   2.0000      -0.681148       -18.5350
  20   2.0000      -0.661869       -18.0104
  21   2.0000      -0.624026       -16.9806
  22   2.0000      -0.590205       -16.0603
  23   2.0000      -0.570732       -15.5304
  24   2.0000      -0.553920       -15.0729
  25   2.0000      -0.527084       -14.3427
  26   2.0000      -0.496307       -13.5052
  27   2.0000      -0.487491       -13.2653
  28   2.0000      -0.452783       -12.3209
  29   2.0000      -0.431407       -11.7392
  30   2.0000      -0.395644       -10.7660
  31   2.0000      -0.361708        -9.8426
  32   0.0000       0.086314         2.3487
  33   0.0000       0.143275         3.8987
  34   0.0000       0.155262         4.2249
  35   0.0000       0.166115         4.5202
  36   0.0000       0.168839         4.5943

MULLIKEN ATOMIC CHARGES
-----------------------
   0 O :   -0.284014
   1 C :    0.145107
   2 C :   -0.210900
   3 C :   -0.039920
   4 N :   -0.196570
   5 C :   -0.097652
   6 C :   -0.227761
   7 C :    0.007635
   8 C :   -0.073876
   9 H :    0.141181
  10 H :    0.136047
  11 H :    0.142133
  12 H :    0.138174
  13 H :    0.134471
  14 H :    0.136550
  15 H :    0.149395
Sum of atomic charges:    0.0000000

LOEWDIN ATOMIC CHARGES
----------------------
   0 O :    0.147061
   1 C :   -0.316553
   2 C :   -0.143356
   3 C :   -0.171201
   4 N :    0.173235
   5 C :   -0.184591
   6 C :   -0.184160
   7 C :   -0.156891
   8 C :   -0.171340
   9 H :    0.154119
  10 H :    0.143782
  11 H :    0.134699
  12 H :    0.146031
  13 H :    0.135492
  14 H :    0.156216
  15 H :    0.137456

  Mayer bond orders larger than 0.1
B(  0-O ,  1-C ) :   1.9491 B(  1-C ,  2-C ) :   1.0149 B(  1-C ,  7-C ) :   0.8929
B(  2-C ,  3-C ) :   1.6265 B(  2-C ,  9-H ) :   0.9178 B(  3-C ,  4-N ) :   1.0313
B(  3-C , 10-H ) :   0.9359 B(  4-N ,  5-C ) :   0.8554 B(  4-N ,  8-C ) :   0.8917
B(  5-C ,  6-C ) :   0.9284 B(  5-C ,  8-C ) :   0.8341 B(  5-C , 11-H ) :   0.9345
B(  6-C ,  7-C ) :   0.9135 B(  6-C , 12-H ) :   0.9133 B(  6-C , 13-H ) :   0.9084
B(  7-C ,  8-C ) :   0.8104 B(  7-C , 14-H ) :   0.9196 B(  8-C , 15-H ) :   0.9199

MP2 TOTAL ENERGY:     -400.028341668 Eh
FINAL SINGLE POINT ENERGY      -400.028341668357

DIPOLE MOMENT
-------------
                                X             Y             Z
Electronic contribution:     -1.48887      -2.25153      -1.99690
Nuclear contribution   :      1.82777       3.32081       2.38613
                        -----------------------------------------
Total Dipole Moment    :      0.33890       1.06928       0.38923
                        -----------------------------------------
Magnitude (a.u.)       :      1.18731
Magnitude (Debye)      :      3.01791

                             ****ORCA TERMINATED NORMALLY****
TOTAL RUN TIME: 0 days 0 hours 19 minutes 23 seconds 512 msec
