                         Program Version 3.0.3 - RELEASE   -
|  1> ! RI-MP2 RIJK def2-TZVP def2-TZVP/C def2-TZVP/JK TIGHTSCF
|  2> % maxcore 2000
|  3> % mp2 density relaxed end
|  4> *xyz 0 1
|  5>  C       -0.0313682886     1.6036129236    -0.0188504419
|  6>  C        0.0085344895     0.0732457207     0.0053543724
|  7>  C        0.7031356792    -0.5205143335    -1.2232712145
|  8>  C        0.7667339622    -2.0664973466    -1.2319383366
|  9>  C        1.3385452201    -2.5889351182    -2.5680975975
| 10>  C        1.3148645825    -4.1063688215    -2.6970173949
| 11>  O        1.8117102850    -4.4323110049    -3.9874752045
| 12>  C        1.5304779562    -2.5720887876    -0.0897516591
| 13>  C        2.1780155309    -2.9740645568     0.8411069525
| 14>  H        0.9795713845     2.0253459482    -0.0444764091
| 15>  H       -0.5656886281     1.9751182517    -0.9006087870
| 16>  H       -0.5351140083     2.0022235978     0.8671988884
| 17>  H        0.5222923574    -0.2702831165     0.9103273448
| 18>  H       -1.0154022483    -0.3195068004     0.0664005503
| 19>  H        0.1771756368    -0.2012750318    -2.1321380365
| 20>  H        1.7246761374    -0.1267702970    -1.2982750240
| 21>  H       -0.2640829816    -2.4406970392    -1.1374387628
| 22>  H        0.7541539831    -2.1613665379    -3.3906303333
| 23>  H        2.3696255222    -2.2391057519    -2.6898305810
| 24>  H        1.9283700098    -4.5568277306    -1.9037314128
| 25>  H        0.2833288749    -4.4741963228    -2.5636765968
| 26>  H        1.8689129301    -5.3897777141    -4.0527111888
| 27>  H        2.7401173731    -3.3347234307     1.6666563829
| 28> *
| 29>
| 30>                          ****END OF INPUT****

CARTESIAN COORDINATES (ANGSTROEM)
---------------------------------
  C     -0.031368    1.603613   -0.018850
  C      0.008534    0.073246    0.005354
  C      0.703136   -0.520514   -1.223271
  C      0.766734   -2.066497   -1.231938
  C      1.338545   -2.588935   -2.568098
  C      1.314865   -4.106369   -2.697017
  O      1.811710   -4.432311   -3.987475
  C      1.530478   -2.572089   -0.089752
  C      2.178016   -2.974065    0.841107
  H      0.979571    2.025346   -0.044476
  H     -0.565689    1.975118   -0.900609
  H     -0.535114    2.002224    0.867199
  H      0.522292   -0.270283    0.910327
  H     -1.015402   -0.319507    0.066401
  H      0.177176   -0.201275   -2.132138
  H      1.724676   -0.126770   -1.298275
  H     -0.264083   -2.440697   -1.137439
  H      0.754154   -2.161367   -3.390630
  H      2.369626   -2.239106   -2.689831
  H      1.928370   -4.556828   -1.903731
  H      0.283329   -4.474196   -2.563677
  H      1.868913   -5.389778   -4.052711
  H      2.740117   -3.334723    1.666656

 Total Charge           Charge          ....    0
 Multiplicity           Mult            ....    1
 Number of Electrons    NEL             ....   70
 Basis Dimension        Dim             ....  363

ORBITAL ENERGIES
----------------

  NO   OCC          E(Eh)            E(eV)
   0   2.0000     -20.553629      -559.2927
   1   2.0000     -11.272659      -306.7447
   2   2.0000     -11.256148      -306.2954
   3   2.0000     -11.231230      -305.6173
   4   2.0000     -11.226482      -305.4881
   5   2.0000     -11.224845      -305.4436
   6   2.0000     -11.218823      -305.2797
   7   2.0000     -11.218151      -305.2614
   8   2.0000     -11.212384      -305.1045
   9   2.0000      -1.357399       -36.9367
  10   2.0000      -1.115983       -30.3675
  11   2.0000      -1.043894       -28.4058
  12   2.0000      -1.010600       -27.4998
  13   2.0000      -0.960191       -26.1281
  14   2.0000      -0.878450       -23.9038
  15   2.0000      -0.820303       -22.3216
  16   2.0000      -0.798646       -21.7323
  17   2.0000      -0.718740       -19.5579
  18   2.0000      -0.693429       -18.8692
  19   2.0000      -0.674170       -18.3451
  20   2.0000      -0.635812       -17.3013
  21   2.0000      -0.609068       -16.5736
  22   2.0000      -0.598110       -16.2754
  23   2.0000      -0.569280       -15.4909
  24   2.0000      -0.560567       -15.2538
  25   2.0000      -0.531290       -14.4571
  26   2.0000      -0.526457       -14.3256
  27   2.0000      -0.504528       -13.7289
  28   2.0000      -0.493206       -13.4208
  29   2.0000      -0.477648       -12.9975
  30   2.0000      -0.470075       -12.7914
  31   2.0000      -0.461157       -12.5487
  32   2.0000      -0.442659       -12.0454
  33   2.0000      -0.383613       -10.4386
  34   2.0000      -0.381933       -10.3929
  35   0.0000       0.130766         3.5583
  36   0.0000       0.142383         3.8744
  37   0.0000       0.154132         4.1941
  38   0.0000       0.163183         4.4404
  39   0.0000       0.166189         4.5222

MULLIKEN ATOMIC CHARGES
-----------------------
   0 C :   -0.386913
   1 C :   -0.195156
   2 C :   -0.237012
   3 C :   -0.126165
   4 C :   -0.153878
   5 C :   -0.082225
   6 O :   -0.465655
   7 C :   -0.057024
   8 C :   -0.190689
   9 H :    0.124296
  10 H :    0.121188
  11 H :    0.134251
  12 H :    0.128256
  13 H :    0.102083
  14 H :    0.115704
  15 H :    0.115364
  16 H :    0.110112
  17 H :    0.119078
  18 H :    0.117409
  19 H :    0.116650
  20 H :    0.087967
  21 H :    0.315665
  22 H :    0.186696
Sum of atomic charges:    0.0000000

LOEWDIN ATOMIC CHARGES
----------------------
   0 C :   -0.320553
   1 C :   -0.291496
   2 C :   -0.231750
   3 C :   -0.243995
   4 C :   -0.231413
   5 C :   -0.347405
   6 O :   -0.052041
   7 C :   -0.090454
   8 C :   -0.107062
   9 H :    0.120893
  10 H :    0.119710
  11 H :    0.120836
  12 H :    0.141526
  13 H :    0.134726
  14 H :    0.140905
  15 H :    0.143793
  16 H :    0.170393
  17 H :    0.143874
  18 H :    0.146136
  19 H :    0.121090
  20 H :    0.114569
  21 H :    0.171757
  22 H :    0.125960

  Mayer bond orders larger than 0.1
B(  0-C ,  1-C ) :   0.9182 B(  0-C ,  9-H ) :   0.9398 B(  0-C , 10-H ) :   0.9390
B(  0-C , 11-H ) :   0.9434 B(  1-C ,  2-C ) :   0.9387 B(  1-C , 12-H ) :   0.9329
B(  1-C , 13-H ) :   0.9303 B(  2-C ,  3-C ) :   0.9129 B(  2-C , 14-H ) :   0.9313
B(  2-C , 15-H ) :   0.9178 B(  3-C ,  4-C ) :   0.9024 B(  3-C ,  7-C ) :   1.0559
B(  3-C , 16-H ) :   0.9376 B(  4-C ,  5-C ) :   0.9385 B(  4-C , 17-H ) :   0.9271
B(  4-C , 18-H ) :   0.9121 B(  5-C ,  6-O ) :   1.0188 B(  5-C , 19-H ) :   0.9339
B(  5-C , 20-H ) :   0.9286 B(  6-O , 21-H ) :   0.8494 B(  7-C ,  8-C ) :   2.6229
B(  8-C , 22-H ) :   0.9032

MP2 TOTAL ENERGY:     -387.580589799 Eh
FINAL SINGLE POINT ENERGY      -387.580589798716

DIPOLE MOMENT
-------------
                                X             Y             Z
Electronic contribution:      3.38457      -7.83648      -1.20466
Nuclear contribution   :     -3.62817       7.52590       1.49391
                        -----------------------------------------
Total Dipole Moment    :     -0.24360      -0.31058       0.28925
                        -----------------------------------------
Magnitude (a.u.)       :      0.48935
Magnitude (Debye)      :      1.24383

                             ****ORCA TERMINATED NORMALLY****
TOTAL RUN TIME: 0 days 0 hours 18 minutes 10 seconds 768 msec
