                         Program Version 3.0.3 - RELEASE   -
|  1> ! RI-MP2 RIJK def2-TZVP def2-TZVP/C def2-TZVP/JK TIGHTSCF
|  2> % maxcore 2000
|  3> % mp2 density relaxed end
|  4> *xyz 0 1
|  5>  C        0.1178454635     1.0549351641     0.4868416853
|  6>  C       -0.2794466947    -0.3938740108     0.2158348727
|  7>  O       -0.3898233522    -1.0454295450     1.4677469105
|  8>  C       -1.5885527582    -0.4488905938    -0.5826234733
|  9>  O       -1.9656518501    -1.7626594054    -1.0054827305
| 10>  C       -2.7833942567    -2.4716763732    -0.1170798462
| 11>  C       -3.0410952423    -3.9068122974    -0.5046658335
| 12>  C       -2.1171780549    -3.5851012416     0.6461260055
| 13>  O       -0.7269554435    -3.7267385436     0.4943716602
| 14>  H        1.0570263106     1.0811931726     1.0442459860
| 15>  H        0.2453767716     1.6171839577    -0.4431200150
| 16>  H       -0.6471953090     1.5507596218     1.0934546546
| 17>  H        0.5036983363    -0.8690875878    -0.3996368777
| 18>  H       -0.3398259036    -2.0016634801     1.3169308993
| 19>  H       -2.3948255933    -0.0030290839     0.0159692819
| 20>  H       -1.4781874906     0.1332993915    -1.5044965813
| 21>  H       -3.5778824853    -1.8844130630     0.3390281275
| 22>  H       -4.0150113996    -4.3358531862    -0.2965864703
| 23>  H       -2.5816379568    -4.2465019154    -1.4277436996
| 24>  H       -2.4154930124    -3.8166503315     1.6619627053
| 25>  H       -0.5150147489    -3.3530836589    -0.3731773313
| 26> *
| 27>
| 28>                          ****END OF INPUT****

CARTESIAN COORDINATES (ANGSTROEM)
---------------------------------
  C      0.117845    1.054935    0.486842
  C     -0.279447   -0.393874    0.215835
  O     -0.389823   -1.045430    1.467747
  C     -1.588553   -0.448891   -0.582623
  O     -1.965652   -1.762659   -1.005483
  C     -2.783394   -2.471676   -0.117080
  C     -3.041095   -3.906812   -0.504666
  C     -2.117178   -3.585101    0.646126
  O     -0.726955   -3.726739    0.494372
  H      1.057026    1.081193    1.044246
  H      0.245377    1.617184   -0.443120
  H     -0.647195    1.550760    1.093455
  H      0.503698   -0.869088   -0.399637
  H     -0.339826   -2.001663    1.316931
  H     -2.394826   -0.003029    0.015969
  H     -1.478187    0.133299   -1.504497
  H     -3.577882   -1.884413    0.339028
  H     -4.015011   -4.335853   -0.296586
  H     -2.581638   -4.246502   -1.427744
  H     -2.415493   -3.816650    1.661963
  H     -0.515015   -3.353084   -0.373177

 Total Charge           Charge          ....    0
 Multiplicity           Mult            ....    1
 Number of Electrons    NEL             ....   72
 Basis Dimension        Dim             ....  351

ORBITAL ENERGIES
----------------

  NO   OCC          E(Eh)            E(eV)
   0   2.0000     -20.578157      -559.9601
   1   2.0000     -20.574870      -559.8707
   2   2.0000     -20.539651      -558.9123
   3   2.0000     -11.291961      -307.2699
   4   2.0000     -11.291180      -307.2486
   5   2.0000     -11.280863      -306.9679
   6   2.0000     -11.280028      -306.9452
   7   2.0000     -11.233378      -305.6758
   8   2.0000     -11.215626      -305.1927
   9   2.0000      -1.407086       -38.2888
  10   2.0000      -1.374207       -37.3941
  11   2.0000      -1.348940       -36.7065
  12   2.0000      -1.129401       -30.7326
  13   2.0000      -1.037759       -28.2389
  14   2.0000      -0.931625       -25.3508
  15   2.0000      -0.844444       -22.9785
  16   2.0000      -0.826549       -22.4915
  17   2.0000      -0.801589       -21.8123
  18   2.0000      -0.729734       -19.8571
  19   2.0000      -0.709419       -19.3043
  20   2.0000      -0.692450       -18.8425
  21   2.0000      -0.655350       -17.8330
  22   2.0000      -0.628200       -17.0942
  23   2.0000      -0.604763       -16.4564
  24   2.0000      -0.583727       -15.8840
  25   2.0000      -0.580673       -15.8009
  26   2.0000      -0.560288       -15.2462
  27   2.0000      -0.550761       -14.9870
  28   2.0000      -0.537244       -14.6192
  29   2.0000      -0.534403       -14.5419
  30   2.0000      -0.519800       -14.1445
  31   2.0000      -0.492138       -13.3918
  32   2.0000      -0.475684       -12.9440
  33   2.0000      -0.439310       -11.9542
  34   2.0000      -0.412872       -11.2348
  35   2.0000      -0.379582       -10.3290
  36   0.0000       0.142170         3.8686
  37   0.0000       0.149389         4.0651
  38   0.0000       0.156200         4.2504
  39   0.0000       0.179590         4.8869
  40   0.0000       0.181719         4.9448

MULLIKEN ATOMIC CHARGES
-----------------------
   0 C :   -0.378265
   1 C :    0.032663
   2 O :   -0.473846
   3 C :   -0.033265
   4 O :   -0.322624
   5 C :    0.012735
   6 C :   -0.263284
   7 C :    0.012964
   8 O :   -0.478737
   9 H :    0.140651
  10 H :    0.120942
  11 H :    0.129209
  12 H :    0.080866
  13 H :    0.343358
  14 H :    0.095439
  15 H :    0.126453
  16 H :    0.107130
  17 H :    0.136966
  18 H :    0.141424
  19 H :    0.133949
  20 H :    0.335274
Sum of atomic charges:   -0.0000000

LOEWDIN ATOMIC CHARGES
----------------------
   0 C :   -0.292564
   1 C :   -0.399227
   2 O :   -0.014992
   3 C :   -0.291771
   4 O :    0.176129
   5 C :   -0.309685
   6 C :   -0.216067
   7 C :   -0.321563
   8 O :   -0.002766
   9 H :    0.128804
  10 H :    0.123871
  11 H :    0.126930
  12 H :    0.131186
  13 H :    0.166769
  14 H :    0.127463
  15 H :    0.133694
  16 H :    0.133963
  17 H :    0.136792
  18 H :    0.142524
  19 H :    0.139661
  20 H :    0.180851

  Mayer bond orders larger than 0.1
B(  0-C ,  1-C ) :   0.9178 B(  0-C ,  9-H ) :   0.9344 B(  0-C , 10-H ) :   0.9331
B(  0-C , 11-H ) :   0.9353 B(  1-C ,  2-O ) :   0.9935 B(  1-C ,  3-C ) :   0.9056
B(  1-C , 12-H ) :   0.9392 B(  2-O , 13-H ) :   0.8030 B(  3-C ,  4-O ) :   0.8740
B(  3-C , 14-H ) :   0.9313 B(  3-C , 15-H ) :   0.9231 B(  4-O ,  5-C ) :   0.9690
B(  5-C ,  6-C ) :   0.8722 B(  5-C ,  7-C ) :   0.9146 B(  5-C , 16-H ) :   0.9231
B(  6-C ,  7-C ) :   0.8831 B(  6-C , 17-H ) :   0.9155 B(  6-C , 18-H ) :   0.9117
B(  7-C ,  8-O ) :   0.9225 B(  7-C , 19-H ) :   0.9338 B(  8-O , 20-H ) :   0.8132

MP2 TOTAL ENERGY:     -460.598152224 Eh
FINAL SINGLE POINT ENERGY      -460.598152223716

DIPOLE MOMENT
-------------
                                X             Y             Z
Electronic contribution:     -0.85280      -4.97405       0.01932
Nuclear contribution   :      0.36050       5.12097      -0.56832
                        -----------------------------------------
Total Dipole Moment    :     -0.49231       0.14691      -0.54900
                        -----------------------------------------
Magnitude (a.u.)       :      0.75189
Magnitude (Debye)      :      1.91116

                             ****ORCA TERMINATED NORMALLY****
TOTAL RUN TIME: 0 days 0 hours 17 minutes 13 seconds 644 msec
