                         Program Version 3.0.3 - RELEASE   -
|  1> ! RI-MP2 RIJK def2-TZVP def2-TZVP/C def2-TZVP/JK TIGHTSCF
|  2> % maxcore 2000
|  3> % mp2 density relaxed end
|  4> *xyz 0 1
|  5>  C       -0.2768344852     1.5051960764     0.2997253490
|  6>  N       -0.1212250916     0.0739515867     0.1617768266
|  7>  C       -1.2691852538    -0.7896650801     0.4904351997
|  8>  C       -0.3058437027    -1.8065052477     1.1740881486
|  9>  C        0.7437298028    -0.6251181255     1.1196606387
| 10>  C       -0.6685327599    -2.2087955201     2.6005594061
| 11>  O       -1.4918605474    -1.6442082691     3.2707336006
| 12>  C        0.0590199074    -2.9704454256     0.3930609780
| 13>  C        0.3541557716    -3.9671049138    -0.2114547900
| 14>  H        0.6763091279     2.0030411798     0.0924219141
| 15>  H       -1.0080501666     1.8666933178    -0.4306420653
| 16>  H       -0.6155796327     1.8122811275     1.3071216841
| 17>  H       -1.9545760787    -0.3641006532     1.2370249456
| 18>  H       -1.8319109104    -1.1565174389    -0.3720832605
| 19>  H        1.7389023481    -0.8874575967     0.7498066850
| 20>  H        0.8306974796    -0.1213062283     2.0956340988
| 21>  H       -0.0843196066    -3.0682301072     2.9925281212
| 22>  H        0.6151147882    -4.8350169820    -0.7652311404
| 23> *
| 24>
| 25>                          ****END OF INPUT****

CARTESIAN COORDINATES (ANGSTROEM)
---------------------------------
  C     -0.276834    1.505196    0.299725
  N     -0.121225    0.073952    0.161777
  C     -1.269185   -0.789665    0.490435
  C     -0.305844   -1.806505    1.174088
  C      0.743730   -0.625118    1.119661
  C     -0.668533   -2.208796    2.600559
  O     -1.491861   -1.644208    3.270734
  C      0.059020   -2.970445    0.393061
  C      0.354156   -3.967105   -0.211455
  H      0.676309    2.003041    0.092422
  H     -1.008050    1.866693   -0.430642
  H     -0.615580    1.812281    1.307122
  H     -1.954576   -0.364101    1.237025
  H     -1.831911   -1.156517   -0.372083
  H      1.738902   -0.887458    0.749807
  H      0.830697   -0.121306    2.095634
  H     -0.084320   -3.068230    2.992528
  H      0.615115   -4.835017   -0.765231

 Total Charge           Charge          ....    0
 Multiplicity           Mult            ....    1
 Number of Electrons    NEL             ....   66
 Basis Dimension        Dim             ....  333

ORBITAL ENERGIES
----------------

  NO   OCC          E(Eh)            E(eV)
   0   2.0000     -20.568618      -559.7005
   1   2.0000     -15.557020      -423.3280
   2   2.0000     -11.344198      -308.6913
   3   2.0000     -11.281723      -306.9913
   4   2.0000     -11.278301      -306.8982
   5   2.0000     -11.266277      -306.5710
   6   2.0000     -11.249714      -306.1203
   7   2.0000     -11.246972      -306.0457
   8   2.0000     -11.237845      -305.7973
   9   2.0000      -1.409490       -38.3542
  10   2.0000      -1.266237       -34.4560
  11   2.0000      -1.095517       -29.8105
  12   2.0000      -1.014968       -27.6187
  13   2.0000      -0.940004       -25.5788
  14   2.0000      -0.936599       -25.4862
  15   2.0000      -0.824186       -22.4272
  16   2.0000      -0.792451       -21.5637
  17   2.0000      -0.728317       -19.8185
  18   2.0000      -0.704577       -19.1725
  19   2.0000      -0.678038       -18.4504
  20   2.0000      -0.660951       -17.9854
  21   2.0000      -0.625080       -17.0093
  22   2.0000      -0.615571       -16.7505
  23   2.0000      -0.578949       -15.7540
  24   2.0000      -0.562304       -15.3011
  25   2.0000      -0.551301       -15.0017
  26   2.0000      -0.511831       -13.9276
  27   2.0000      -0.505276       -13.7493
  28   2.0000      -0.482319       -13.1246
  29   2.0000      -0.445705       -12.1282
  30   2.0000      -0.397333       -10.8120
  31   2.0000      -0.392258       -10.6739
  32   2.0000      -0.368112       -10.0168
  33   0.0000       0.113333         3.0840
  34   0.0000       0.140509         3.8235
  35   0.0000       0.147565         4.0154
  36   0.0000       0.165634         4.5071
  37   0.0000       0.167056         4.5458

MULLIKEN ATOMIC CHARGES
-----------------------
   0 C :   -0.332335
   1 N :   -0.145998
   2 C :   -0.220679
   3 C :    0.130095
   4 C :   -0.203624
   5 C :    0.076315
   6 O :   -0.260325
   7 C :   -0.125443
   8 C :   -0.111815
   9 H :    0.138707
  10 H :    0.140846
  11 H :    0.112903
  12 H :    0.135475
  13 H :    0.127102
  14 H :    0.129031
  15 H :    0.113055
  16 H :    0.099582
  17 H :    0.197109
Sum of atomic charges:    0.0000000

LOEWDIN ATOMIC CHARGES
----------------------
   0 C :   -0.337654
   1 N :    0.068227
   2 C :   -0.185907
   3 C :   -0.234465
   4 C :   -0.181846
   5 C :   -0.239441
   6 O :    0.148326
   7 C :   -0.072612
   8 C :   -0.079609
   9 H :    0.119570
  10 H :    0.120814
  11 H :    0.103675
  12 H :    0.132982
  13 H :    0.128874
  14 H :    0.129133
  15 H :    0.127475
  16 H :    0.123298
  17 H :    0.129158

  Mayer bond orders larger than 0.1
B(  0-C ,  1-N ) :   0.9119 B(  0-C ,  9-H ) :   0.9362 B(  0-C , 10-H ) :   0.9363
B(  0-C , 11-H ) :   0.9278 B(  1-N ,  2-C ) :   0.9490 B(  1-N ,  4-C ) :   0.9615
B(  2-C ,  3-C ) :   0.8300 B(  2-C , 12-H ) :   0.9031 B(  2-C , 13-H ) :   0.9163
B(  3-C ,  4-C ) :   0.8347 B(  3-C ,  5-C ) :   0.8581 B(  3-C ,  7-C ) :   1.2098
B(  3-C ,  8-C ) :  -0.1091 B(  4-C , 14-H ) :   0.9123 B(  4-C , 15-H ) :   0.9003
B(  5-C ,  6-O ) :   1.9849 B(  5-C , 16-H ) :   0.9358 B(  7-C ,  8-C ) :   2.5910
B(  8-C , 17-H ) :   0.8723

MP2 TOTAL ENERGY:     -401.186268028 Eh
FINAL SINGLE POINT ENERGY      -401.186268028149

DIPOLE MOMENT
-------------
                                X             Y             Z
Electronic contribution:     -0.95490      -6.56052       2.24851
Nuclear contribution   :      1.44056       6.55148      -2.54385
                        -----------------------------------------
Total Dipole Moment    :      0.48566      -0.00904      -0.29534
                        -----------------------------------------
Magnitude (a.u.)       :      0.56848
Magnitude (Debye)      :      1.44497

                             ****ORCA TERMINATED NORMALLY****
TOTAL RUN TIME: 0 days 0 hours 17 minutes 26 seconds 33 msec
