                         Program Version 3.0.3 - RELEASE   -
|  1> ! RI-MP2 RIJK def2-TZVP def2-TZVP/C def2-TZVP/JK TIGHTSCF
|  2> % maxcore 2000
|  3> % mp2 density relaxed end
|  4> *xyz 0 1
|  5>  C       -0.0508197554     1.6187518757     0.0730511907
|  6>  C        0.0046479389     0.0906552412    -0.0232012233
|  7>  C        0.7452677399    -0.5273183281     1.1670125879
|  8>  C        0.7730552782    -2.0904208022     1.2061853934
|  9>  C        1.4922534160    -2.6896408747    -0.0322475008
| 10>  C        1.4630143135    -2.5214965434     2.4288647725
| 11>  C        2.0609780642    -2.8498992499     3.4168560133
| 12>  C       -0.6147394094    -2.5990329536     1.2412526286
| 13>  N       -1.7048868741    -2.9821096332     1.2424169950
| 14>  H        0.9544702433     2.0537960103     0.0956853447
| 15>  H       -0.5797431208     2.0465661008    -0.7835391702
| 16>  H       -0.5717596052     1.9396084084     0.9814373910
| 17>  H       -1.0139101333    -0.3121637107    -0.0684136245
| 18>  H        0.4947647093    -0.1933862775    -0.9613565036
| 19>  H        1.7893927430    -0.1946716684     1.1811884663
| 20>  H        0.2929603473    -0.1802737721     2.1019414093
| 21>  H        2.5077173805    -2.2891970940    -0.0853225781
| 22>  H        1.5486730116    -3.7765247777     0.0506534874
| 23>  H        0.9576104720    -2.4369547085    -0.9496891487
| 24>  H        2.5768957906    -3.1491713623     4.2959391593
| 25> *
| 26>
| 27>                          ****END OF INPUT****

CARTESIAN COORDINATES (ANGSTROEM)
---------------------------------
  C     -0.050820    1.618752    0.073051
  C      0.004648    0.090655   -0.023201
  C      0.745268   -0.527318    1.167013
  C      0.773055   -2.090421    1.206185
  C      1.492253   -2.689641   -0.032248
  C      1.463014   -2.521497    2.428865
  C      2.060978   -2.849899    3.416856
  C     -0.614739   -2.599033    1.241253
  N     -1.704887   -2.982110    1.242417
  H      0.954470    2.053796    0.095685
  H     -0.579743    2.046566   -0.783539
  H     -0.571760    1.939608    0.981437
  H     -1.013910   -0.312164   -0.068414
  H      0.494765   -0.193386   -0.961357
  H      1.789393   -0.194672    1.181188
  H      0.292960   -0.180274    2.101941
  H      2.507717   -2.289197   -0.085323
  H      1.548673   -3.776525    0.050653
  H      0.957610   -2.436955   -0.949689
  H      2.576896   -3.149171    4.295939

 Total Charge           Charge          ....    0
 Multiplicity           Mult            ....    1
 Number of Electrons    NEL             ....   66
 Basis Dimension        Dim             ....  345

ORBITAL ENERGIES
----------------

  NO   OCC          E(Eh)            E(eV)
   0   2.0000     -15.571263      -423.7156
   1   2.0000     -11.320789      -308.0543
   2   2.0000     -11.274694      -306.8000
   3   2.0000     -11.253211      -306.2154
   4   2.0000     -11.252582      -306.1983
   5   2.0000     -11.250151      -306.1322
   6   2.0000     -11.243018      -305.9381
   7   2.0000     -11.235866      -305.7435
   8   2.0000     -11.224952      -305.4465
   9   2.0000      -1.224654       -33.3245
  10   2.0000      -1.146731       -31.2041
  11   2.0000      -1.062468       -28.9112
  12   2.0000      -1.020050       -27.7570
  13   2.0000      -0.953327       -25.9413
  14   2.0000      -0.899486       -24.4763
  15   2.0000      -0.823475       -22.4079
  16   2.0000      -0.763232       -20.7686
  17   2.0000      -0.704320       -19.1655
  18   2.0000      -0.665001       -18.0956
  19   2.0000      -0.642513       -17.4837
  20   2.0000      -0.610395       -16.6097
  21   2.0000      -0.581040       -15.8109
  22   2.0000      -0.574489       -15.6327
  23   2.0000      -0.561256       -15.2726
  24   2.0000      -0.544271       -14.8104
  25   2.0000      -0.534111       -14.5339
  26   2.0000      -0.508757       -13.8440
  27   2.0000      -0.496058       -13.4984
  28   2.0000      -0.487050       -13.2533
  29   2.0000      -0.463775       -12.6199
  30   2.0000      -0.460464       -12.5299
  31   2.0000      -0.410136       -11.1604
  32   2.0000      -0.404266       -11.0006
  33   0.0000       0.121246         3.2993
  34   0.0000       0.142806         3.8859
  35   0.0000       0.145707         3.9649
  36   0.0000       0.154968         4.2169
  37   0.0000       0.164373         4.4728

MULLIKEN ATOMIC CHARGES
-----------------------
   0 C :   -0.391346
   1 C :   -0.226500
   2 C :   -0.268678
   3 C :    0.137419
   4 C :   -0.432649
   5 C :   -0.032798
   6 C :   -0.109925
   7 C :   -0.217103
   8 N :   -0.047846
   9 H :    0.124624
  10 H :    0.140591
  11 H :    0.130999
  12 H :    0.142128
  13 H :    0.113921
  14 H :    0.134138
  15 H :    0.139079
  16 H :    0.148447
  17 H :    0.158753
  18 H :    0.156331
  19 H :    0.200414
Sum of atomic charges:    0.0000000

LOEWDIN ATOMIC CHARGES
----------------------
   0 C :   -0.314935
   1 C :   -0.287225
   2 C :   -0.194553
   3 C :   -0.274708
   4 C :   -0.223523
   5 C :   -0.055367
   6 C :   -0.070175
   7 C :   -0.137011
   8 N :    0.070642
   9 H :    0.121411
  10 H :    0.123616
  11 H :    0.123077
  12 H :    0.145228
  13 H :    0.135994
  14 H :    0.149708
  15 H :    0.153276
  16 H :    0.134837
  17 H :    0.137127
  18 H :    0.131892
  19 H :    0.130688

  Mayer bond orders larger than 0.1
B(  0-C ,  1-C ) :   0.9194 B(  0-C ,  9-H ) :   0.9373 B(  0-C , 10-H ) :   0.9420
B(  0-C , 11-H ) :   0.9406 B(  1-C ,  2-C ) :   0.9205 B(  1-C , 12-H ) :   0.9280
B(  1-C , 13-H ) :   0.9309 B(  2-C ,  3-C ) :   0.8929 B(  2-C , 14-H ) :   0.9222
B(  2-C , 15-H ) :   0.9204 B(  3-C ,  4-C ) :   0.8696 B(  3-C ,  5-C ) :   1.1772
B(  3-C ,  6-C ) :  -0.1177 B(  3-C ,  7-C ) :   0.8885 B(  4-C , 16-H ) :   0.9313
B(  4-C , 17-H ) :   0.9293 B(  4-C , 18-H ) :   0.9291 B(  5-C ,  6-C ) :   2.5824
B(  6-C , 19-H ) :   0.8707 B(  7-C ,  8-N ) :   2.8740

MP2 TOTAL ENERGY:     -365.330997582 Eh
FINAL SINGLE POINT ENERGY      -365.330997581963

DIPOLE MOMENT
-------------
                                X             Y             Z
Electronic contribution:     -2.32976      -9.17586       5.95757
Nuclear contribution   :      3.64825       9.84839      -6.18237
                        -----------------------------------------
Total Dipole Moment    :      1.31849       0.67253      -0.22480
                        -----------------------------------------
Magnitude (a.u.)       :      1.49708
Magnitude (Debye)      :      3.80526

                             ****ORCA TERMINATED NORMALLY****
TOTAL RUN TIME: 0 days 0 hours 18 minutes 26 seconds 853 msec
