                         Program Version 3.0.3 - RELEASE   -
|  1> ! RI-MP2 RIJK def2-TZVP def2-TZVP/C def2-TZVP/JK TIGHTSCF
|  2> % maxcore 2000
|  3> % mp2 density relaxed end
|  4> *xyz 0 1
|  5>  N       -0.2531076643     1.3504897406     0.0881961691
|  6>  C        0.1187671374     0.0222185794     0.0875624923
|  7>  O        1.2588144738    -0.3611773934     0.1506930034
|  8>  N       -1.0030828786    -0.8321610159     0.0609834198
|  9>  C       -1.0030375854    -2.1991923309    -0.0221560421
| 10>  O       -0.0631856287    -2.9496769493    -0.1427785370
| 11>  C       -2.4628409068    -2.7207692463     0.0490456149
| 12>  N       -2.5123211585    -4.0597303522    -0.0315569154
| 13>  O       -3.4094638047    -1.9589307514     0.1628832056
| 14>  H        0.5149861219     1.9889497296    -0.0468740710
| 15>  H       -1.1297893811     1.6293655841    -0.3228166942
| 16>  H       -1.9407342045    -0.4574578713     0.1651029835
| 17>  H       -1.6420082858    -4.5615626537    -0.1201899067
| 18>  H       -3.3940152349    -4.5416872393     0.0071068577
| 19> *
| 20>
| 21>                          ****END OF INPUT****

CARTESIAN COORDINATES (ANGSTROEM)
---------------------------------
  N     -0.253108    1.350490    0.088196
  C      0.118767    0.022219    0.087562
  O      1.258814   -0.361177    0.150693
  N     -1.003083   -0.832161    0.060983
  C     -1.003038   -2.199192   -0.022156
  O     -0.063186   -2.949677   -0.142779
  C     -2.462841   -2.720769    0.049046
  N     -2.512321   -4.059730   -0.031557
  O     -3.409464   -1.958931    0.162883
  H      0.514986    1.988950   -0.046874
  H     -1.129789    1.629366   -0.322817
  H     -1.940734   -0.457458    0.165103
  H     -1.642008   -4.561563   -0.120190
  H     -3.394015   -4.541687    0.007107

 Total Charge           Charge          ....    0
 Multiplicity           Mult            ....    1
 Number of Electrons    NEL             ....   68
 Basis Dimension        Dim             ....  309

ORBITAL ENERGIES
----------------

  NO   OCC          E(Eh)            E(eV)
   0   2.0000     -20.565028      -559.6029
   1   2.0000     -20.558912      -559.4364
   2   2.0000     -20.533663      -558.7494
   3   2.0000     -15.624480      -425.1637
   4   2.0000     -15.610273      -424.7771
   5   2.0000     -15.599465      -424.4830
   6   2.0000     -11.403852      -310.3146
   7   2.0000     -11.390738      -309.9577
   8   2.0000     -11.387494      -309.8695
   9   2.0000      -1.441449       -39.2238
  10   2.0000      -1.415246       -38.5108
  11   2.0000      -1.403050       -38.1789
  12   2.0000      -1.274232       -34.6736
  13   2.0000      -1.244308       -33.8593
  14   2.0000      -1.215964       -33.0881
  15   2.0000      -0.960864       -26.1464
  16   2.0000      -0.862268       -23.4635
  17   2.0000      -0.797015       -21.6879
  18   2.0000      -0.783107       -21.3094
  19   2.0000      -0.756686       -20.5905
  20   2.0000      -0.716229       -19.4896
  21   2.0000      -0.686001       -18.6670
  22   2.0000      -0.669247       -18.2111
  23   2.0000      -0.654161       -17.8006
  24   2.0000      -0.641459       -17.4550
  25   2.0000      -0.618258       -16.8237
  26   2.0000      -0.607345       -16.5267
  27   2.0000      -0.553466       -15.0606
  28   2.0000      -0.534484       -14.5440
  29   2.0000      -0.467762       -12.7284
  30   2.0000      -0.453922       -12.3518
  31   2.0000      -0.441008       -12.0004
  32   2.0000      -0.435217       -11.8429
  33   2.0000      -0.431009       -11.7284
  34   0.0000       0.082166         2.2358
  35   0.0000       0.114707         3.1213
  36   0.0000       0.132457         3.6043
  37   0.0000       0.169639         4.6161
  38   0.0000       0.183262         4.9868

MULLIKEN ATOMIC CHARGES
-----------------------
   0 N :   -0.520885
   1 C :    0.380776
   2 O :   -0.310033
   3 N :   -0.310100
   4 C :    0.280450
   5 O :   -0.309335
   6 C :    0.246151
   7 N :   -0.439626
   8 O :   -0.376893
   9 H :    0.272469
  10 H :    0.257874
  11 H :    0.267458
  12 H :    0.294211
  13 H :    0.267484
Sum of atomic charges:    0.0000000

LOEWDIN ATOMIC CHARGES
----------------------
   0 N :   -0.046926
   1 C :   -0.535998
   2 O :    0.117855
   3 N :    0.154080
   4 C :   -0.396832
   5 O :    0.138278
   6 C :   -0.456123
   7 N :    0.028331
   8 O :    0.070892
   9 H :    0.179999
  10 H :    0.169404
  11 H :    0.207491
  12 H :    0.190077
  13 H :    0.179474

  Mayer bond orders larger than 0.1
B(  0-N ,  1-C ) :   1.1201 B(  0-N ,  9-H ) :   0.8645 B(  0-N , 10-H ) :   0.8681
B(  1-C ,  2-O ) :   2.0213 B(  1-C ,  3-N ) :   0.9386 B(  3-N ,  4-C ) :   1.1186
B(  3-N , 11-H ) :   0.8326 B(  4-C ,  5-O ) :   1.9019 B(  4-C ,  6-C ) :   0.8708
B(  6-C ,  7-N ) :   1.2680 B(  6-C ,  8-O ) :   1.8504 B(  7-N , 12-H ) :   0.8383
B(  7-N , 13-H ) :   0.8565

MP2 TOTAL ENERGY:     -506.468146439 Eh
FINAL SINGLE POINT ENERGY      -506.468146438693

DIPOLE MOMENT
-------------
                                X             Y             Z
Electronic contribution:      1.06662      -1.24247       0.12959
Nuclear contribution   :     -2.24386       1.53118      -0.49185
                        -----------------------------------------
Total Dipole Moment    :     -1.17725       0.28871      -0.36227
                        -----------------------------------------
Magnitude (a.u.)       :      1.26511
Magnitude (Debye)      :      3.21565

                             ****ORCA TERMINATED NORMALLY****
TOTAL RUN TIME: 0 days 0 hours 12 minutes 34 seconds 199 msec
