                         Program Version 3.0.3 - RELEASE   -
|  1> ! RI-MP2 RIJK def2-TZVP def2-TZVP/C def2-TZVP/JK TIGHTSCF
|  2> % maxcore 2000
|  3> % mp2 density relaxed end
|  4> *xyz 0 1
|  5>  O        0.1067887017     1.3505183105    -0.0736620985
|  6>  C        0.0781127347    -0.0118624648    -0.0291882344
|  7>  C       -0.0224409687    -0.6947292788    -1.2410973329
|  8>  C       -0.0539956860    -2.0851278445    -1.2293384670
|  9>  C        0.0122088111    -2.8054021096    -0.0414146482
| 10>  C        0.1125541698    -2.1110193922     1.1639508420
| 11>  O        0.1755011947    -2.8451395926     2.3111160360
| 12>  C        0.1458079085    -0.7153804275     1.1747688365
| 13>  H        0.1769261701     1.6960056232     0.8219308148
| 14>  H       -0.0736368626    -0.1284942271    -2.1627852987
| 15>  H       -0.1321486048    -2.6209124701    -2.1697183905
| 16>  H       -0.0119024036    -3.8879599228    -0.0259485942
| 17>  H        0.2426960386    -2.2507494263     3.0651403632
| 18>  H        0.2241949264    -0.1779066373     2.1181119918
| 19> *
| 20>
| 21>                          ****END OF INPUT****

CARTESIAN COORDINATES (ANGSTROEM)
---------------------------------
  O      0.106789    1.350518   -0.073662
  C      0.078113   -0.011862   -0.029188
  C     -0.022441   -0.694729   -1.241097
  C     -0.053996   -2.085128   -1.229338
  C      0.012209   -2.805402   -0.041415
  C      0.112554   -2.111019    1.163951
  O      0.175501   -2.845140    2.311116
  C      0.145808   -0.715380    1.174769
  H      0.176926    1.696006    0.821931
  H     -0.073637   -0.128494   -2.162785
  H     -0.132149   -2.620912   -2.169718
  H     -0.011902   -3.887960   -0.025949
  H      0.242696   -2.250749    3.065140
  H      0.224195   -0.177907    2.118112

 Total Charge           Charge          ....    0
 Multiplicity           Mult            ....    1
 Number of Electrons    NEL             ....   58
 Basis Dimension        Dim             ....  284

ORBITAL ENERGIES
----------------

  NO   OCC          E(Eh)            E(eV)
   0   2.0000     -20.594551      -560.4062
   1   2.0000     -20.594551      -560.4062
   2   2.0000     -11.311169      -307.7925
   3   2.0000     -11.311166      -307.7925
   4   2.0000     -11.244667      -305.9830
   5   2.0000     -11.233850      -305.6886
   6   2.0000     -11.219117      -305.2877
   7   2.0000     -11.219070      -305.2864
   8   2.0000      -1.413481       -38.4628
   9   2.0000      -1.410754       -38.3886
  10   2.0000      -1.144625       -31.1468
  11   2.0000      -1.017571       -27.6895
  12   2.0000      -1.006077       -27.3767
  13   2.0000      -0.863757       -23.5040
  14   2.0000      -0.824022       -22.4228
  15   2.0000      -0.741025       -20.1643
  16   2.0000      -0.740257       -20.1434
  17   2.0000      -0.677894       -18.4464
  18   2.0000      -0.633962       -17.2510
  19   2.0000      -0.611385       -16.6366
  20   2.0000      -0.606620       -16.5070
  21   2.0000      -0.600942       -16.3525
  22   2.0000      -0.582953       -15.8630
  23   2.0000      -0.558283       -15.1917
  24   2.0000      -0.519559       -14.1379
  25   2.0000      -0.511043       -13.9062
  26   2.0000      -0.467100       -12.7104
  27   2.0000      -0.339202        -9.2302
  28   2.0000      -0.309198        -8.4137
  29   0.0000       0.125440         3.4134
  30   0.0000       0.127482         3.4690
  31   0.0000       0.140371         3.8197
  32   0.0000       0.149037         4.0555
  33   0.0000       0.168771         4.5925

MULLIKEN ATOMIC CHARGES
-----------------------
   0 O :   -0.419060
   1 C :    0.235174
   2 C :   -0.210799
   3 C :   -0.086698
   4 C :   -0.210799
   5 C :    0.235173
   6 O :   -0.419060
   7 C :   -0.258866
   8 H :    0.326279
   9 H :    0.128529
  10 H :    0.123821
  11 H :    0.128529
  12 H :    0.326279
  13 H :    0.101498
Sum of atomic charges:    0.0000000

LOEWDIN ATOMIC CHARGES
----------------------
   0 O :    0.073627
   1 C :   -0.278203
   2 C :   -0.133996
   3 C :   -0.145993
   4 C :   -0.133996
   5 C :   -0.278203
   6 O :    0.073627
   7 C :   -0.148411
   8 H :    0.188848
   9 H :    0.151699
  10 H :    0.148369
  11 H :    0.151699
  12 H :    0.188848
  13 H :    0.142084

  Mayer bond orders larger than 0.1
B(  0-O ,  1-C ) :   1.0488 B(  0-O ,  8-H ) :   0.8362 B(  1-C ,  2-C ) :   1.3301
B(  1-C ,  7-C ) :   1.2812 B(  2-C ,  3-C ) :   1.3423 B(  2-C ,  9-H ) :   0.9329
B(  3-C ,  4-C ) :   1.3423 B(  3-C , 10-H ) :   0.9399 B(  4-C ,  5-C ) :   1.3301
B(  4-C , 11-H ) :   0.9329 B(  5-C ,  6-O ) :   1.0488 B(  5-C ,  7-C ) :   1.2812
B(  6-O , 12-H ) :   0.8362 B(  7-C , 13-H ) :   0.8825

MP2 TOTAL ENERGY:     -381.965433763 Eh
FINAL SINGLE POINT ENERGY      -381.965433762975

DIPOLE MOMENT
-------------
                                X             Y             Z
Electronic contribution:      0.08403       0.57649       1.01182
Nuclear contribution   :     -0.01825      -0.12649      -0.22201
                        -----------------------------------------
Total Dipole Moment    :      0.06578       0.45000       0.78981
                        -----------------------------------------
Magnitude (a.u.)       :      0.91138
Magnitude (Debye)      :      2.31656

                             ****ORCA TERMINATED NORMALLY****
TOTAL RUN TIME: 0 days 0 hours 10 minutes 44 seconds 712 msec
