                         Program Version 3.0.3 - RELEASE   -
|  1> ! RI-MP2 RIJK def2-TZVP def2-TZVP/C def2-TZVP/JK TIGHTSCF
|  2> % maxcore 2000
|  3> % mp2 density relaxed end
|  4> *xyz 0 1
|  5>  C       -0.0656989706     1.5665901731    -0.0393678254
|  6>  C       -0.0165773541     0.0450104312    -0.0109347461
|  7>  C        1.3400911272    -0.6457711829    -0.2082855141
|  8>  C        0.6955918914    -0.6458418443     1.1463575942
|  9>  O        1.1891140169     0.1817670998     2.1533859487
| 10>  C       -1.1683701787    -0.6215382694    -0.5443961997
| 11>  C       -2.1517489783    -1.1653231232    -0.9990375992
| 12>  C       -3.2497111638    -1.7855070704    -1.5074774994
| 13>  C       -4.2258816393    -2.3357297386    -1.9592486354
| 14>  H        0.8022461934     1.9829883073     0.4739902696
| 15>  H       -0.0820094266     1.9300102146    -1.0708764121
| 16>  H       -0.9653640506     1.9303160003     0.4650730925
| 17>  H        1.3683623361    -1.5676077600    -0.7769826066
| 18>  H        2.1853546270     0.0191733990    -0.3522710471
| 19>  H        0.2492498030    -1.5770210348     1.4917376186
| 20>  H        2.0487376742    -0.1577192290     2.4240834658
| 21>  H       -5.0831221573    -2.8199090527    -2.3560229445
| 22> *
| 23>
| 24>                          ****END OF INPUT****

CARTESIAN COORDINATES (ANGSTROEM)
---------------------------------
  C     -0.065699    1.566590   -0.039368
  C     -0.016577    0.045010   -0.010935
  C      1.340091   -0.645771   -0.208286
  C      0.695592   -0.645842    1.146358
  O      1.189114    0.181767    2.153386
  C     -1.168370   -0.621538   -0.544396
  C     -2.151749   -1.165323   -0.999038
  C     -3.249711   -1.785507   -1.507477
  C     -4.225882   -2.335730   -1.959249
  H      0.802246    1.982988    0.473990
  H     -0.082009    1.930010   -1.070876
  H     -0.965364    1.930316    0.465073
  H      1.368362   -1.567608   -0.776983
  H      2.185355    0.019173   -0.352271
  H      0.249250   -1.577021    1.491738
  H      2.048738   -0.157719    2.424083
  H     -5.083122   -2.819909   -2.356023

 Total Charge           Charge          ....    0
 Multiplicity           Mult            ....    1
 Number of Electrons    NEL             ....   64
 Basis Dimension        Dim             ....  327

ORBITAL ENERGIES
----------------

  NO   OCC          E(Eh)            E(eV)
   0   2.0000     -20.576661      -559.9194
   1   2.0000     -11.301623      -307.5328
   2   2.0000     -11.271274      -306.7070
   3   2.0000     -11.254732      -306.2568
   4   2.0000     -11.252404      -306.1935
   5   2.0000     -11.244497      -305.9783
   6   2.0000     -11.243647      -305.9552
   7   2.0000     -11.242903      -305.9349
   8   2.0000     -11.225008      -305.4480
   9   2.0000      -1.388141       -37.7732
  10   2.0000      -1.167235       -31.7621
  11   2.0000      -1.078218       -29.3398
  12   2.0000      -1.012028       -27.5387
  13   2.0000      -0.974031       -26.5047
  14   2.0000      -0.865922       -23.5629
  15   2.0000      -0.841936       -22.9102
  16   2.0000      -0.794923       -21.6310
  17   2.0000      -0.722917       -19.6716
  18   2.0000      -0.705443       -19.1961
  19   2.0000      -0.687701       -18.7133
  20   2.0000      -0.631587       -17.1863
  21   2.0000      -0.588113       -16.0034
  22   2.0000      -0.580400       -15.7935
  23   2.0000      -0.549160       -14.9434
  24   2.0000      -0.542756       -14.7691
  25   2.0000      -0.514386       -13.9972
  26   2.0000      -0.489074       -13.3084
  27   2.0000      -0.478097       -13.0097
  28   2.0000      -0.431359       -11.7379
  29   2.0000      -0.425830       -11.5874
  30   2.0000      -0.348338        -9.4788
  31   2.0000      -0.334905        -9.1132
  32   0.0000       0.115671         3.1476
  33   0.0000       0.117266         3.1910
  34   0.0000       0.135487         3.6868
  35   0.0000       0.153662         4.1814
  36   0.0000       0.161852         4.4042

MULLIKEN ATOMIC CHARGES
-----------------------
   0 C :   -0.406641
   1 C :   -0.030871
   2 C :   -0.312798
   3 C :    0.018128
   4 O :   -0.461793
   5 C :   -0.091198
   6 C :    0.073711
   7 C :    0.002450
   8 C :   -0.153498
   9 H :    0.147387
  10 H :    0.140398
  11 H :    0.140483
  12 H :    0.142796
  13 H :    0.147309
  14 H :    0.123345
  15 H :    0.329025
  16 H :    0.191764
Sum of atomic charges:    0.0000000

LOEWDIN ATOMIC CHARGES
----------------------
   0 C :   -0.243549
   1 C :   -0.238785
   2 C :   -0.176242
   3 C :   -0.287219
   4 O :    0.006221
   5 C :    0.018159
   6 C :   -0.053666
   7 C :   -0.101646
   8 C :   -0.054270
   9 H :    0.132893
  10 H :    0.130686
  11 H :    0.133804
  12 H :    0.139945
  13 H :    0.141434
  14 H :    0.139229
  15 H :    0.183819
  16 H :    0.129187

  Mayer bond orders larger than 0.1
B(  0-C ,  1-C ) :   0.9585 B(  0-C ,  9-H ) :   0.9252 B(  0-C , 10-H ) :   0.9367
B(  0-C , 11-H ) :   0.9339 B(  1-C ,  2-C ) :   0.8182 B(  1-C ,  3-C ) :   0.8092
B(  1-C ,  5-C ) :   1.1255 B(  1-C ,  6-C ) :  -0.2080 B(  2-C ,  3-C ) :   0.9173
B(  2-C , 12-H ) :   0.9150 B(  2-C , 13-H ) :   0.9260 B(  3-C ,  4-O ) :   1.0449
B(  3-C , 14-H ) :   0.9529 B(  4-O , 15-H ) :   0.8369 B(  5-C ,  6-C ) :   2.5043
B(  5-C ,  8-C ) :   0.1253 B(  6-C ,  7-C ) :   1.2787 B(  7-C ,  8-C ) :   2.5304
B(  8-C , 16-H ) :   0.8897

MP2 TOTAL ENERGY:     -383.923811174 Eh
FINAL SINGLE POINT ENERGY      -383.923811174376

DIPOLE MOMENT
-------------
                                X             Y             Z
Electronic contribution:     -5.14715      -4.02729      -1.19077
Nuclear contribution   :      5.93223       3.79429       1.23599
                        -----------------------------------------
Total Dipole Moment    :      0.78508      -0.23300       0.04522
                        -----------------------------------------
Magnitude (a.u.)       :      0.82017
Magnitude (Debye)      :      2.08471

                             ****ORCA TERMINATED NORMALLY****
TOTAL RUN TIME: 0 days 0 hours 15 minutes 21 seconds 922 msec
