                         Program Version 3.0.3 - RELEASE   -
|  1> ! RI-MP2 RIJK def2-TZVP def2-TZVP/C def2-TZVP/JK TIGHTSCF
|  2> % maxcore 2000
|  3> % mp2 density relaxed end
|  4> *xyz 0 1
|  5>  C       -0.0877808312     1.4368480940    -0.0697839520
|  6>  N       -0.1514635715    -0.0155402836    -0.1615713627
|  7>  C        0.5913487722    -0.6210544239    -0.9528804119
|  8>  O        1.5483654715    -0.1777166235    -1.8525159704
|  9>  C        1.8919182550    -1.5346606249    -2.2449134189
| 10>  C        0.7877079985    -2.0972485589    -1.3076231131
| 11>  C        1.2029908357    -2.9920911504    -0.2421456436
| 12>  N        1.5533726506    -3.7080536394     0.5941223629
| 13>  H        0.6689071199     1.8932636104    -0.7175898545
| 14>  H       -1.0690721585     1.8504493498    -0.3243757002
| 15>  H        0.1184005418     1.7139894845     0.9688684496
| 16>  H        1.7309935710    -1.6953585057    -3.3124522653
| 17>  H        2.9152760216    -1.7857696984    -1.9608347097
| 18>  H       -0.0695844565    -2.5185264301    -1.8383290202
| 19> *
| 20>
| 21>                          ****END OF INPUT****

CARTESIAN COORDINATES (ANGSTROEM)
---------------------------------
  C     -0.087781    1.436848   -0.069784
  N     -0.151464   -0.015540   -0.161571
  C      0.591349   -0.621054   -0.952880
  O      1.548365   -0.177717   -1.852516
  C      1.891918   -1.534661   -2.244913
  C      0.787708   -2.097249   -1.307623
  C      1.202991   -2.992091   -0.242146
  N      1.553373   -3.708054    0.594122
  H      0.668907    1.893264   -0.717590
  H     -1.069072    1.850449   -0.324376
  H      0.118401    1.713989    0.968868
  H      1.730994   -1.695359   -3.312452
  H      2.915276   -1.785770   -1.960835
  H     -0.069584   -2.518526   -1.838329

 Total Charge           Charge          ....    0
 Multiplicity           Mult            ....    1
 Number of Electrons    NEL             ....   58
 Basis Dimension        Dim             ....  284

ORBITAL ENERGIES
----------------

  NO   OCC          E(Eh)            E(eV)
   0   2.0000     -20.615128      -560.9662
   1   2.0000     -15.586002      -424.1167
   2   2.0000     -15.565886      -423.5693
   3   2.0000     -11.362387      -309.1863
   4   2.0000     -11.334415      -308.4251
   5   2.0000     -11.315583      -307.9127
   6   2.0000     -11.289108      -307.1923
   7   2.0000     -11.257623      -306.3355
   8   2.0000      -1.458473       -39.6871
   9   2.0000      -1.241589       -33.7854
  10   2.0000      -1.232741       -33.5446
  11   2.0000      -1.094325       -29.7781
  12   2.0000      -0.973299       -26.4848
  13   2.0000      -0.916274       -24.9331
  14   2.0000      -0.814336       -22.1592
  15   2.0000      -0.744622       -20.2622
  16   2.0000      -0.705439       -19.1960
  17   2.0000      -0.681517       -18.5450
  18   2.0000      -0.640158       -17.4196
  19   2.0000      -0.603135       -16.4121
  20   2.0000      -0.594537       -16.1782
  21   2.0000      -0.574925       -15.6445
  22   2.0000      -0.560266       -15.2456
  23   2.0000      -0.548723       -14.9315
  24   2.0000      -0.540113       -14.6972
  25   2.0000      -0.474579       -12.9139
  26   2.0000      -0.469092       -12.7646
  27   2.0000      -0.429403       -11.6847
  28   2.0000      -0.408088       -11.1046
  29   0.0000       0.114830         3.1247
  30   0.0000       0.139754         3.8029
  31   0.0000       0.147627         4.0171
  32   0.0000       0.158974         4.3259
  33   0.0000       0.171339         4.6624

MULLIKEN ATOMIC CHARGES
-----------------------
   0 C :   -0.271855
   1 N :   -0.235399
   2 C :    0.162699
   3 O :   -0.275015
   4 C :   -0.027671
   5 C :    0.053186
   6 C :   -0.217252
   7 N :   -0.048106
   8 H :    0.133782
   9 H :    0.143154
  10 H :    0.147087
  11 H :    0.127633
  12 H :    0.140244
  13 H :    0.167512
Sum of atomic charges:   -0.0000000

LOEWDIN ATOMIC CHARGES
----------------------
   0 C :   -0.315872
   1 N :    0.097383
   2 C :   -0.340426
   3 O :    0.215216
   4 C :   -0.193622
   5 C :   -0.179103
   6 C :   -0.162880
   7 N :    0.078411
   8 H :    0.112452
   9 H :    0.122465
  10 H :    0.123327
  11 H :    0.127166
  12 H :    0.132557
  13 H :    0.182927

  Mayer bond orders larger than 0.1
B(  0-C ,  1-N ) :   0.8412 B(  0-C ,  8-H ) :   0.9301 B(  0-C ,  9-H ) :   0.9332
B(  0-C , 10-H ) :   0.9329 B(  1-N ,  2-C ) :   1.9888 B(  2-C ,  3-O ) :   1.0386
B(  2-C ,  5-C ) :   0.8580 B(  3-O ,  4-C ) :   0.9080 B(  4-C ,  5-C ) :   0.9293
B(  4-C , 11-H ) :   0.9172 B(  4-C , 12-H ) :   0.9147 B(  5-C ,  6-C ) :   0.9347
B(  5-C , 13-H ) :   0.8876 B(  6-C ,  7-N ) :   2.8416

MP2 TOTAL ENERGY:     -378.077656379 Eh
FINAL SINGLE POINT ENERGY      -378.077656378921

DIPOLE MOMENT
-------------
                                X             Y             Z
Electronic contribution:      1.13125      -5.29947       0.79098
Nuclear contribution   :     -1.14831       5.90346      -2.21135
                        -----------------------------------------
Total Dipole Moment    :     -0.01706       0.60399      -1.42037
                        -----------------------------------------
Magnitude (a.u.)       :      1.54355
Magnitude (Debye)      :      3.92339

                             ****ORCA TERMINATED NORMALLY****
TOTAL RUN TIME: 0 days 0 hours 10 minutes 3 seconds 46 msec
