                         Program Version 3.0.3 - RELEASE   -
|  1> ! RI-MP2 RIJK def2-TZVP def2-TZVP/C def2-TZVP/JK TIGHTSCF
|  2> % maxcore 2000
|  3> % mp2 density relaxed end
|  4> *xyz 0 1
|  5>  C       -0.0653984688     1.5481023383     0.0847864045
|  6>  C        0.1436566023     0.0716297890     0.0034369100
|  7>  O       -0.7829567772    -0.7893927852     0.6690632388
|  8>  C        0.6057653049    -0.9418252768     0.9833002098
|  9>  C        1.2533647068    -1.7833766638    -0.1547659789
| 10>  O        0.4404519450    -2.8236762830    -0.7154045885
| 11>  C       -0.0938452217    -1.9211715977    -1.7206513657
| 12>  C        0.7483705664    -0.7433668880    -1.1789282456
| 13>  H        0.8425105794     2.0864032020    -0.2057998742
| 14>  H       -0.8723407908     1.8631683562    -0.5867916802
| 15>  H       -0.3370487497     1.8385192417     1.1030708850
| 16>  H        0.8821181776    -0.8635232299     2.0298866705
| 17>  H        2.3016353530    -2.0593037936    -0.0145048372
| 18>  H        0.1860993046    -2.2497384424    -2.7281297486
| 19>  H       -1.1796121781    -1.8180906678    -1.6426842631
| 20>  H        1.4171967365    -0.2099192391    -1.8518790368
| 21> *
| 22>
| 23>                          ****END OF INPUT****

CARTESIAN COORDINATES (ANGSTROEM)
---------------------------------
  C     -0.065398    1.548102    0.084786
  C      0.143657    0.071630    0.003437
  O     -0.782957   -0.789393    0.669063
  C      0.605765   -0.941825    0.983300
  C      1.253365   -1.783377   -0.154766
  O      0.440452   -2.823676   -0.715405
  C     -0.093845   -1.921172   -1.720651
  C      0.748371   -0.743367   -1.178928
  H      0.842511    2.086403   -0.205800
  H     -0.872341    1.863168   -0.586792
  H     -0.337049    1.838519    1.103071
  H      0.882118   -0.863523    2.029887
  H      2.301635   -2.059304   -0.014505
  H      0.186099   -2.249738   -2.728130
  H     -1.179612   -1.818091   -1.642684
  H      1.417197   -0.209919   -1.851879

 Total Charge           Charge          ....    0
 Multiplicity           Mult            ....    1
 Number of Electrons    NEL             ....   60
 Basis Dimension        Dim             ....  296

ORBITAL ENERGIES
----------------

  NO   OCC          E(Eh)            E(eV)
   0   2.0000     -20.570849      -559.7613
   1   2.0000     -20.547417      -559.1236
   2   2.0000     -11.300971      -307.5151
   3   2.0000     -11.291585      -307.2596
   4   2.0000     -11.287353      -307.1445
   5   2.0000     -11.278493      -306.9034
   6   2.0000     -11.241725      -305.9029
   7   2.0000     -11.235166      -305.7244
   8   2.0000      -1.431148       -38.9435
   9   2.0000      -1.369257       -37.2594
  10   2.0000      -1.073882       -29.2218
  11   2.0000      -1.004458       -27.3327
  12   2.0000      -0.962996       -26.2045
  13   2.0000      -0.848361       -23.0851
  14   2.0000      -0.820302       -22.3215
  15   2.0000      -0.732311       -19.9272
  16   2.0000      -0.714091       -19.4314
  17   2.0000      -0.676170       -18.3995
  18   2.0000      -0.640337       -17.4245
  19   2.0000      -0.607865       -16.5409
  20   2.0000      -0.588237       -16.0067
  21   2.0000      -0.586747       -15.9662
  22   2.0000      -0.556601       -15.1459
  23   2.0000      -0.540594       -14.7103
  24   2.0000      -0.508650       -13.8411
  25   2.0000      -0.504996       -13.7417
  26   2.0000      -0.467944       -12.7334
  27   2.0000      -0.426386       -11.6025
  28   2.0000      -0.407019       -11.0755
  29   2.0000      -0.390405       -10.6235
  30   0.0000       0.135711         3.6929
  31   0.0000       0.162466         4.4209
  32   0.0000       0.166717         4.5366
  33   0.0000       0.176447         4.8014
  34   0.0000       0.184657         5.0248

MULLIKEN ATOMIC CHARGES
-----------------------
   0 C :   -0.413105
   1 C :    0.196090
   2 O :   -0.316150
   3 C :   -0.099096
   4 C :    0.148314
   5 O :   -0.332949
   6 C :   -0.022104
   7 C :   -0.171572
   8 H :    0.136267
   9 H :    0.141680
  10 H :    0.147923
  11 H :    0.137776
  12 H :    0.107563
  13 H :    0.100804
  14 H :    0.106917
  15 H :    0.131641
Sum of atomic charges:    0.0000000

LOEWDIN ATOMIC CHARGES
----------------------
   0 C :   -0.271542
   1 C :   -0.287079
   2 O :    0.208392
   3 C :   -0.201969
   4 C :   -0.231971
   5 O :    0.138761
   6 C :   -0.241396
   7 C :   -0.159774
   8 H :    0.133042
   9 H :    0.134299
  10 H :    0.136972
  11 H :    0.128970
  12 H :    0.130713
  13 H :    0.117877
  14 H :    0.123008
  15 H :    0.141696

  Mayer bond orders larger than 0.1
B(  0-C ,  1-C ) :   0.8653 B(  0-C ,  8-H ) :   0.9378 B(  0-C ,  9-H ) :   0.9338
B(  0-C , 10-H ) :   0.9395 B(  1-C ,  2-O ) :   0.9185 B(  1-C ,  3-C ) :   0.9048
B(  1-C ,  7-C ) :   0.8728 B(  2-O ,  3-C ) :   0.8874 B(  3-C ,  4-C ) :   0.8568
B(  3-C , 11-H ) :   0.9196 B(  4-C ,  5-O ) :   0.9547 B(  4-C ,  7-C ) :   0.9765
B(  4-C , 12-H ) :   0.9160 B(  5-O ,  6-C ) :   0.9400 B(  6-C ,  7-C ) :   0.9745
B(  6-C , 13-H ) :   0.9149 B(  6-C , 14-H ) :   0.9013 B(  7-C , 15-H ) :   0.9150

MP2 TOTAL ENERGY:     -383.029277237 Eh
FINAL SINGLE POINT ENERGY      -383.029277236865

DIPOLE MOMENT
-------------
                                X             Y             Z
Electronic contribution:     -0.40376      -4.60412       1.48680
Nuclear contribution   :      1.09185       5.64452      -1.74241
                        -----------------------------------------
Total Dipole Moment    :      0.68809       1.04040      -0.25561
                        -----------------------------------------
Magnitude (a.u.)       :      1.27328
Magnitude (Debye)      :      3.23642

                             ****ORCA TERMINATED NORMALLY****
TOTAL RUN TIME: 0 days 0 hours 12 minutes 43 seconds 527 msec
