                         Program Version 3.0.3 - RELEASE   -
|  1> ! RI-MP2 RIJK def2-TZVP def2-TZVP/C def2-TZVP/JK TIGHTSCF
|  2> % maxcore 2000
|  3> % mp2 density relaxed end
|  4> *xyz 0 1
|  5>  N        0.1989000318     1.4414424023     0.0392965554
|  6>  C        0.0178116675     0.0440214465    -0.0168886906
|  7>  C       -1.0814093120    -0.7793115544    -0.0392262852
|  8>  O       -2.3867782987    -0.3767112411    -0.0143271713
|  9>  C       -0.6255531818    -2.1310116977    -0.1092587986
| 10>  O       -1.4181116262    -3.2678123161    -0.0860040444
| 11>  C        0.7502183231    -2.0939176724    -0.1070911517
| 12>  O        1.6736423521    -3.0876852382    -0.1377591142
| 13>  N        1.1389867026    -0.7942109522    -0.0638389902
| 14>  H       -0.2239990725     1.8428006664     0.8703929256
| 15>  H       -0.2155831847     1.9113640962    -0.7595215235
| 16>  H       -2.9160951150    -1.1629991277     0.1619970864
| 17>  H       -1.6835936138    -3.4779851540    -0.9890610556
| 18>  H        1.1949001740    -3.9152342874    -0.0122798061
| 19>  H        2.0869058937    -0.4624591802    -0.0285900960
| 20> *
| 21>
| 22>                          ****END OF INPUT****

CARTESIAN COORDINATES (ANGSTROEM)
---------------------------------
  N      0.198900    1.441442    0.039297
  C      0.017812    0.044021   -0.016889
  C     -1.081409   -0.779312   -0.039226
  O     -2.386778   -0.376711   -0.014327
  C     -0.625553   -2.131012   -0.109259
  O     -1.418112   -3.267812   -0.086004
  C      0.750218   -2.093918   -0.107091
  O      1.673642   -3.087685   -0.137759
  N      1.138987   -0.794211   -0.063839
  H     -0.223999    1.842801    0.870393
  H     -0.215583    1.911364   -0.759522
  H     -2.916095   -1.162999    0.161997
  H     -1.683594   -3.477985   -0.989061
  H      1.194900   -3.915234   -0.012280
  H      2.086906   -0.462459   -0.028590

 Total Charge           Charge          ....    0
 Multiplicity           Mult            ....    1
 Number of Electrons    NEL             ....   68
 Basis Dimension        Dim             ....  315

ORBITAL ENERGIES
----------------

  NO   OCC          E(Eh)            E(eV)
   0   2.0000     -20.599855      -560.5506
   1   2.0000     -20.588590      -560.2440
   2   2.0000     -20.578888      -559.9800
   3   2.0000     -15.593517      -424.3212
   4   2.0000     -15.554136      -423.2495
   5   2.0000     -11.319706      -308.0249
   6   2.0000     -11.271917      -306.7245
   7   2.0000     -11.265557      -306.5514
   8   2.0000     -11.260225      -306.4063
   9   2.0000      -1.423964       -38.7480
  10   2.0000      -1.397853       -38.0375
  11   2.0000      -1.380746       -37.5720
  12   2.0000      -1.285602       -34.9830
  13   2.0000      -1.174427       -31.9578
  14   2.0000      -1.034009       -28.1368
  15   2.0000      -0.943585       -25.6762
  16   2.0000      -0.819402       -22.2971
  17   2.0000      -0.793269       -21.5860
  18   2.0000      -0.752758       -20.4836
  19   2.0000      -0.725838       -19.7511
  20   2.0000      -0.693734       -18.8775
  21   2.0000      -0.666657       -18.1407
  22   2.0000      -0.638324       -17.3697
  23   2.0000      -0.630587       -17.1591
  24   2.0000      -0.618620       -16.8335
  25   2.0000      -0.601333       -16.3631
  26   2.0000      -0.588225       -16.0064
  27   2.0000      -0.574043       -15.6205
  28   2.0000      -0.557653       -15.1745
  29   2.0000      -0.507603       -13.8126
  30   2.0000      -0.485898       -13.2220
  31   2.0000      -0.420626       -11.4458
  32   2.0000      -0.331924        -9.0321
  33   2.0000      -0.272055        -7.4030
  34   0.0000       0.114428         3.1137
  35   0.0000       0.143513         3.9052
  36   0.0000       0.155443         4.2298
  37   0.0000       0.174103         4.7376
  38   0.0000       0.184768         5.0278

MULLIKEN ATOMIC CHARGES
-----------------------
   0 N :   -0.542904
   1 C :    0.065103
   2 C :    0.103567
   3 O :   -0.455859
   4 C :    0.039474
   5 O :   -0.503884
   6 C :    0.199410
   7 O :   -0.438933
   8 N :   -0.251475
   9 H :    0.251119
  10 H :    0.249753
  11 H :    0.338866
  12 H :    0.347897
  13 H :    0.346937
  14 H :    0.250928
Sum of atomic charges:   -0.0000000

LOEWDIN ATOMIC CHARGES
----------------------
   0 N :   -0.122915
   1 C :   -0.332573
   2 C :   -0.301306
   3 O :    0.047482
   4 C :   -0.322274
   5 O :    0.010222
   6 C :   -0.363084
   7 O :    0.059008
   8 N :    0.207493
   9 H :    0.166980
  10 H :    0.166102
  11 H :    0.194296
  12 H :    0.190851
  13 H :    0.203349
  14 H :    0.196370

  Mayer bond orders larger than 0.1
B(  0-N ,  1-C ) :   1.0986 B(  0-N ,  9-H ) :   0.8916 B(  0-N , 10-H ) :   0.8921
B(  1-C ,  2-C ) :   1.4907 B(  1-C ,  8-N ) :   1.0510 B(  2-C ,  3-O ) :   1.0957
B(  2-C ,  4-C ) :   1.1150 B(  3-O , 11-H ) :   0.8286 B(  4-C ,  5-O ) :   1.0487
B(  4-C ,  6-C ) :   1.3846 B(  5-O , 12-H ) :   0.8322 B(  6-C ,  7-O ) :   1.1063
B(  6-C ,  8-N ) :   1.1718 B(  7-O , 13-H ) :   0.8224 B(  8-N , 14-H ) :   0.8586

MP2 TOTAL ENERGY:     -490.331466496 Eh
FINAL SINGLE POINT ENERGY      -490.331466495776

DIPOLE MOMENT
-------------
                                X             Y             Z
Electronic contribution:      0.19146      -2.48780      -0.00110
Nuclear contribution   :     -0.43181       2.10974      -0.35614
                        -----------------------------------------
Total Dipole Moment    :     -0.24035      -0.37806      -0.35723
                        -----------------------------------------
Magnitude (a.u.)       :      0.57299
Magnitude (Debye)      :      1.45641

                             ****ORCA TERMINATED NORMALLY****
TOTAL RUN TIME: 0 days 0 hours 12 minutes 35 seconds 756 msec
