                         Program Version 3.0.3 - RELEASE   -
|  1> ! RI-MP2 RIJK def2-TZVP def2-TZVP/C def2-TZVP/JK TIGHTSCF
|  2> % maxcore 2000
|  3> % mp2 density relaxed end
|  4> *xyz 0 1
|  5>  C       -0.0100157413     1.5142194054    -0.0907663330
|  6>  C        0.0354724652     0.0615877675    -0.0370065726
|  7>  C        0.0740201593    -1.1413422993     0.0136845874
|  8>  C        0.0963998554    -2.5927971533     0.0250644335
|  9>  O        1.0407420710    -3.1557815408    -0.8577083436
| 10>  C        0.1386762118    -3.2938524694     1.4031330776
| 11>  O       -1.2095682701    -3.8238082293     1.1993221281
| 12>  C       -1.3159932160    -3.2656622503    -0.0447345583
| 13>  O       -2.2047660274    -3.3580033150    -0.8244515616
| 14>  H        0.9365505314     1.9246340029    -0.4581921380
| 15>  H       -0.8082490671     1.8602688071    -0.7558102419
| 16>  H       -0.1940926287     1.9373900449     0.9024379885
| 17>  H        0.9176778470    -2.7423190932    -1.7200399345
| 18>  H        0.8734422603    -4.0981191008     1.4557812670
| 19>  H        0.1772897693    -2.6437888463     2.2766933313
| 20> *
| 21>
| 22>                          ****END OF INPUT****

CARTESIAN COORDINATES (ANGSTROEM)
---------------------------------
  C     -0.010016    1.514219   -0.090766
  C      0.035472    0.061588   -0.037007
  C      0.074020   -1.141342    0.013685
  C      0.096400   -2.592797    0.025064
  O      1.040742   -3.155782   -0.857708
  C      0.138676   -3.293852    1.403133
  O     -1.209568   -3.823808    1.199322
  C     -1.315993   -3.265662   -0.044735
  O     -2.204766   -3.358003   -0.824452
  H      0.936551    1.924634   -0.458192
  H     -0.808249    1.860269   -0.755810
  H     -0.194093    1.937390    0.902438
  H      0.917678   -2.742319   -1.720040
  H      0.873442   -4.098119    1.455781
  H      0.177290   -2.643789    2.276693

 Total Charge           Charge          ....    0
 Multiplicity           Mult            ....    1
 Number of Electrons    NEL             ....   66
 Basis Dimension        Dim             ....  315

ORBITAL ENERGIES
----------------

  NO   OCC          E(Eh)            E(eV)
   0   2.0000     -20.611796      -560.8755
   1   2.0000     -20.597405      -560.4839
   2   2.0000     -20.562668      -559.5386
   3   2.0000     -11.391287      -309.9727
   4   2.0000     -11.353055      -308.9323
   5   2.0000     -11.316138      -307.9278
   6   2.0000     -11.266709      -306.5828
   7   2.0000     -11.261945      -306.4531
   8   2.0000     -11.244414      -305.9761
   9   2.0000      -1.476722       -40.1836
  10   2.0000      -1.404384       -38.2152
  11   2.0000      -1.388793       -37.7910
  12   2.0000      -1.097860       -29.8743
  13   2.0000      -1.047926       -28.5155
  14   2.0000      -0.974246       -26.5106
  15   2.0000      -0.922453       -25.1012
  16   2.0000      -0.803188       -21.8558
  17   2.0000      -0.766280       -20.8515
  18   2.0000      -0.720144       -19.5961
  19   2.0000      -0.695287       -18.9197
  20   2.0000      -0.668005       -18.1773
  21   2.0000      -0.651497       -17.7281
  22   2.0000      -0.615362       -16.7449
  23   2.0000      -0.608631       -16.5617
  24   2.0000      -0.606720       -16.5097
  25   2.0000      -0.586171       -15.9505
  26   2.0000      -0.578209       -15.7339
  27   2.0000      -0.537195       -14.6178
  28   2.0000      -0.530025       -14.4227
  29   2.0000      -0.472857       -12.8671
  30   2.0000      -0.451113       -12.2754
  31   2.0000      -0.404930       -11.0187
  32   2.0000      -0.391194       -10.6449
  33   0.0000       0.116837         3.1793
  34   0.0000       0.128555         3.4982
  35   0.0000       0.149652         4.0722
  36   0.0000       0.155436         4.2296
  37   0.0000       0.182465         4.9651

MULLIKEN ATOMIC CHARGES
-----------------------
   0 C :   -0.485198
   1 C :    0.065050
   2 C :   -0.132026
   3 C :    0.166534
   4 O :   -0.453405
   5 C :   -0.037216
   6 O :   -0.231262
   7 C :    0.246418
   8 O :   -0.254372
   9 H :    0.169533
  10 H :    0.172858
  11 H :    0.169446
  12 H :    0.337413
  13 H :    0.131821
  14 H :    0.134406
Sum of atomic charges:    0.0000000

LOEWDIN ATOMIC CHARGES
----------------------
   0 C :   -0.285925
   1 C :   -0.068957
   2 C :   -0.051648
   3 C :   -0.340873
   4 O :    0.039577
   5 C :   -0.174712
   6 O :    0.241144
   7 C :   -0.419212
   8 O :    0.169260
   9 H :    0.145149
  10 H :    0.145670
  11 H :    0.145598
  12 H :    0.191902
  13 H :    0.133086
  14 H :    0.129941

  Mayer bond orders larger than 0.1
B(  0-C ,  1-C ) :   0.8490 B(  0-C ,  9-H ) :   0.9449 B(  0-C , 10-H ) :   0.9442
B(  0-C , 11-H ) :   0.9457 B(  1-C ,  2-C ) :   2.6828 B(  2-C ,  3-C ) :   1.0357
B(  3-C ,  4-O ) :   0.9243 B(  3-C ,  5-C ) :   0.8858 B(  3-C ,  7-C ) :   0.9096
B(  4-O , 12-H ) :   0.8286 B(  5-C ,  6-O ) :   0.8963 B(  5-C , 13-H ) :   0.9074
B(  5-C , 14-H ) :   0.9211 B(  6-O ,  7-C ) :   1.1003 B(  7-C ,  8-O ) :   2.0566

MP2 TOTAL ENERGY:     -457.007669976 Eh
FINAL SINGLE POINT ENERGY      -457.007669976256

DIPOLE MOMENT
-------------
                                X             Y             Z
Electronic contribution:     -2.90701      -7.32336      -0.91961
Nuclear contribution   :      3.90233       8.63955       1.17307
                        -----------------------------------------
Total Dipole Moment    :      0.99532       1.31618       0.25346
                        -----------------------------------------
Magnitude (a.u.)       :      1.66950
Magnitude (Debye)      :      4.24354

                             ****ORCA TERMINATED NORMALLY****
TOTAL RUN TIME: 0 days 0 hours 12 minutes 53 seconds 911 msec
