                         Program Version 3.0.3 - RELEASE   -
|  1> ! RI-MP2 RIJK def2-TZVP def2-TZVP/C def2-TZVP/JK TIGHTSCF
|  2> % maxcore 2000
|  3> % mp2 density relaxed end
|  4> *xyz 0 1
|  5>  C       -0.0285159816     1.5595837351    -0.2529355354
|  6>  C       -0.1335208489     0.0482571188    -0.2788267428
|  7>  C       -0.0441642017    -0.7353175600     1.0043623253
|  8>  C       -1.3586429921    -0.6396015580     0.2703080360
|  9>  C        1.3836857559     2.0623561400    -0.1431819096
| 10>  C        2.6586251700     1.6758387704    -0.9486944925
| 11>  C        3.0644249224     2.5506965745     0.2568229301
| 12>  C        1.9064932632     3.5234306481    -0.0560362356
| 13>  O        2.1445999506     1.7658739007     1.1085511521
| 14>  H       -0.4751199919     1.9901205315    -1.1593684590
| 15>  H       -0.5967953596     1.9594926366     0.5966384160
| 16>  H        0.3194510393    -0.4139598340    -1.1521096080
| 17>  H        0.4850939055    -1.6815089421     0.9946969163
| 18>  H        0.0733936838    -0.1727538552     1.9235736385
| 19>  H       -2.1382339006    -0.0186335340     0.7001948879
| 20>  H       -1.7291133348    -1.5193481375    -0.2443666250
| 21>  H        2.9506458362     0.6275330136    -0.8780905455
| 22>  H        2.7780134989     2.0899658141    -1.9537456409
| 23>  H        4.0567672768     2.7612824695     0.6550595076
| 24>  H        1.9546163386     4.1093869743    -0.9780329902
| 25>  H        1.5382664999     4.0950065136     0.7972475348
| 26> *
| 27>
| 28>                          ****END OF INPUT****

CARTESIAN COORDINATES (ANGSTROEM)
---------------------------------
  C     -0.028516    1.559584   -0.252936
  C     -0.133521    0.048257   -0.278827
  C     -0.044164   -0.735318    1.004362
  C     -1.358643   -0.639602    0.270308
  C      1.383686    2.062356   -0.143182
  C      2.658625    1.675839   -0.948694
  C      3.064425    2.550697    0.256823
  C      1.906493    3.523431   -0.056036
  O      2.144600    1.765874    1.108551
  H     -0.475120    1.990121   -1.159368
  H     -0.596795    1.959493    0.596638
  H      0.319451   -0.413960   -1.152110
  H      0.485094   -1.681509    0.994697
  H      0.073394   -0.172754    1.923574
  H     -2.138234   -0.018634    0.700195
  H     -1.729113   -1.519348   -0.244367
  H      2.950646    0.627533   -0.878091
  H      2.778013    2.089966   -1.953746
  H      4.056767    2.761282    0.655060
  H      1.954616    4.109387   -0.978033
  H      1.538266    4.095007    0.797248

 Total Charge           Charge          ....    0
 Multiplicity           Mult            ....    1
 Number of Electrons    NEL             ....   68
 Basis Dimension        Dim             ....  351

ORBITAL ENERGIES
----------------

  NO   OCC          E(Eh)            E(eV)
   0   2.0000     -20.538432      -558.8792
   1   2.0000     -11.299683      -307.4800
   2   2.0000     -11.294499      -307.3389
   3   2.0000     -11.231691      -305.6299
   4   2.0000     -11.231639      -305.6284
   5   2.0000     -11.229524      -305.5709
   6   2.0000     -11.227845      -305.5252
   7   2.0000     -11.219442      -305.2965
   8   2.0000     -11.215501      -305.1893
   9   2.0000      -1.386642       -37.7325
  10   2.0000      -1.140813       -31.0431
  11   2.0000      -1.072663       -29.1886
  12   2.0000      -1.001937       -27.2641
  13   2.0000      -0.922484       -25.1021
  14   2.0000      -0.843435       -22.9510
  15   2.0000      -0.815183       -22.1823
  16   2.0000      -0.777399       -21.1541
  17   2.0000      -0.739691       -20.1280
  18   2.0000      -0.675673       -18.3860
  19   2.0000      -0.644154       -17.5283
  20   2.0000      -0.629259       -17.1230
  21   2.0000      -0.619326       -16.8527
  22   2.0000      -0.609305       -16.5800
  23   2.0000      -0.579668       -15.7736
  24   2.0000      -0.516265       -14.0483
  25   2.0000      -0.514810       -14.0087
  26   2.0000      -0.506727       -13.7887
  27   2.0000      -0.496903       -13.5214
  28   2.0000      -0.471294       -12.8246
  29   2.0000      -0.458307       -12.4712
  30   2.0000      -0.449274       -12.2254
  31   2.0000      -0.412118       -11.2143
  32   2.0000      -0.399692       -10.8762
  33   2.0000      -0.397376       -10.8131
  34   0.0000       0.142237         3.8705
  35   0.0000       0.159731         4.3465
  36   0.0000       0.164271         4.4700
  37   0.0000       0.170895         4.6503
  38   0.0000       0.183885         5.0038

MULLIKEN ATOMIC CHARGES
-----------------------
   0 C :   -0.225513
   1 C :   -0.093155
   2 C :   -0.260640
   3 C :   -0.261408
   4 C :    0.022874
   5 C :   -0.155090
   6 C :   -0.063569
   7 C :   -0.121457
   8 O :   -0.316585
   9 H :    0.121306
  10 H :    0.126216
  11 H :    0.117666
  12 H :    0.125614
  13 H :    0.138918
  14 H :    0.125894
  15 H :    0.126835
  16 H :    0.119069
  17 H :    0.112127
  18 H :    0.136689
  19 H :    0.110381
  20 H :    0.113828
Sum of atomic charges:    0.0000000

LOEWDIN ATOMIC CHARGES
----------------------
   0 C :   -0.216327
   1 C :   -0.226338
   2 C :   -0.225038
   3 C :   -0.232385
   4 C :   -0.265033
   5 C :   -0.182702
   6 C :   -0.237488
   7 C :   -0.182868
   8 O :    0.139864
   9 H :    0.152861
  10 H :    0.156203
  11 H :    0.146933
  12 H :    0.130552
  13 H :    0.136529
  14 H :    0.131088
  15 H :    0.129794
  16 H :    0.133626
  17 H :    0.128155
  18 H :    0.122009
  19 H :    0.128135
  20 H :    0.132430

  Mayer bond orders larger than 0.1
B(  0-C ,  1-C ) :   0.9215 B(  0-C ,  4-C ) :   0.8954 B(  0-C ,  9-H ) :   0.9160
B(  0-C , 10-H ) :   0.9303 B(  1-C ,  2-C ) :   0.8945 B(  1-C ,  3-C ) :   0.8941
B(  1-C , 11-H ) :   0.9257 B(  2-C ,  3-C ) :   0.9023 B(  2-C , 12-H ) :   0.9316
B(  2-C , 13-H ) :   0.9282 B(  3-C , 14-H ) :   0.9291 B(  3-C , 15-H ) :   0.9314
B(  4-C ,  5-C ) :   0.8896 B(  4-C ,  7-C ) :   0.8690 B(  4-C ,  8-O ) :   0.8958
B(  5-C ,  6-C ) :   0.9325 B(  5-C , 16-H ) :   0.9207 B(  5-C , 17-H ) :   0.9191
B(  6-C ,  7-C ) :   0.9377 B(  6-C ,  8-O ) :   0.9007 B(  6-C , 18-H ) :   0.8945
B(  7-C , 19-H ) :   0.9137 B(  7-C , 20-H ) :   0.9216

MP2 TOTAL ENERGY:     -386.332683206 Eh
FINAL SINGLE POINT ENERGY      -386.332683205784

DIPOLE MOMENT
-------------
                                X             Y             Z
Electronic contribution:      3.37389       2.07103       1.33404
Nuclear contribution   :     -3.40028      -1.78442      -2.02326
                        -----------------------------------------
Total Dipole Moment    :     -0.02639       0.28660      -0.68922
                        -----------------------------------------
Magnitude (a.u.)       :      0.74690
Magnitude (Debye)      :      1.89847

                             ****ORCA TERMINATED NORMALLY****
TOTAL RUN TIME: 0 days 0 hours 17 minutes 9 seconds 836 msec
