                         Program Version 3.0.3 - RELEASE   -
|  1> ! RI-MP2 RIJK def2-TZVP def2-TZVP/C def2-TZVP/JK TIGHTSCF
|  2> % maxcore 2000
|  3> % mp2 density relaxed end
|  4> *xyz 0 1
|  5>  C        0.0245604683     1.3849961864    -0.0196772966
|  6>  N        0.0631069578    -0.0670967137    -0.0184121141
|  7>  C        0.5812229512    -0.6804240037     0.9578958770
|  8>  O        1.1410910273    -0.1004651572     2.0743821570
|  9>  C        1.6096846552    -1.1276151549     2.9539241622
| 10>  C        1.2843575165    -2.4148781752     2.2568024049
| 11>  C        0.6871228240    -2.1410332160     1.0960874911
| 12>  C        0.1742874232    -3.0689074271     0.0497108162
| 13>  O        0.4137955526    -4.4034446644     0.4605533821
| 14>  H        0.6669024535     1.7643987635    -0.8242247393
| 15>  H       -0.9946514484     1.7151915307    -0.2503742723
| 16>  H        0.3408286353     1.8462978367     0.9225483578
| 17>  H        2.6864420728    -0.9885474199     3.1217835854
| 18>  H        1.1055333258    -1.0246436239     3.9246707221
| 19>  H        1.5077875045    -3.3940190277     2.6547432796
| 20>  H       -0.8976987602    -2.8689503303    -0.1062650928
| 21>  H        0.6696207358    -2.8339485882    -0.9057761772
| 22>  H        0.0778848448    -4.9891177151    -0.2234158030
| 23> *
| 24>
| 25>                          ****END OF INPUT****

CARTESIAN COORDINATES (ANGSTROEM)
---------------------------------
  C      0.024560    1.384996   -0.019677
  N      0.063107   -0.067097   -0.018412
  C      0.581223   -0.680424    0.957896
  O      1.141091   -0.100465    2.074382
  C      1.609685   -1.127615    2.953924
  C      1.284358   -2.414878    2.256802
  C      0.687123   -2.141033    1.096087
  C      0.174287   -3.068907    0.049711
  O      0.413796   -4.403445    0.460553
  H      0.666902    1.764399   -0.824225
  H     -0.994651    1.715192   -0.250374
  H      0.340829    1.846298    0.922548
  H      2.686442   -0.988547    3.121784
  H      1.105533   -1.024644    3.924671
  H      1.507788   -3.394019    2.654743
  H     -0.897699   -2.868950   -0.106265
  H      0.669621   -2.833949   -0.905776
  H      0.077885   -4.989118   -0.223416

 Total Charge           Charge          ....    0
 Multiplicity           Mult            ....    1
 Number of Electrons    NEL             ....   68
 Basis Dimension        Dim             ....  333

ORBITAL ENERGIES
----------------

  NO   OCC          E(Eh)            E(eV)
   0   2.0000     -20.588338      -560.2372
   1   2.0000     -20.565831      -559.6247
   2   2.0000     -15.532983      -422.6740
   3   2.0000     -11.328798      -308.2723
   4   2.0000     -11.298960      -307.4603
   5   2.0000     -11.288687      -307.1808
   6   2.0000     -11.248573      -306.0892
   7   2.0000     -11.245765      -306.0128
   8   2.0000     -11.233373      -305.6756
   9   2.0000      -1.425747       -38.7965
  10   2.0000      -1.371389       -37.3174
  11   2.0000      -1.208776       -32.8925
  12   2.0000      -1.105123       -30.0719
  13   2.0000      -0.996205       -27.1081
  14   2.0000      -0.935626       -25.4597
  15   2.0000      -0.902630       -24.5618
  16   2.0000      -0.796596       -21.6765
  17   2.0000      -0.740929       -20.1617
  18   2.0000      -0.699358       -19.0305
  19   2.0000      -0.680372       -18.5139
  20   2.0000      -0.675179       -18.3725
  21   2.0000      -0.636648       -17.3241
  22   2.0000      -0.622699       -16.9445
  23   2.0000      -0.611357       -16.6359
  24   2.0000      -0.577665       -15.7191
  25   2.0000      -0.566286       -15.4094
  26   2.0000      -0.530173       -14.4267
  27   2.0000      -0.520082       -14.1521
  28   2.0000      -0.513384       -13.9699
  29   2.0000      -0.510035       -13.8788
  30   2.0000      -0.470238       -12.7958
  31   2.0000      -0.411128       -11.1873
  32   2.0000      -0.405489       -11.0339
  33   2.0000      -0.340784        -9.2732
  34   0.0000       0.117520         3.1979
  35   0.0000       0.133306         3.6274
  36   0.0000       0.152064         4.1379
  37   0.0000       0.165164         4.4944
  38   0.0000       0.183938         5.0052

MULLIKEN ATOMIC CHARGES
-----------------------
   0 C :   -0.283996
   1 N :   -0.267405
   2 C :    0.155598
   3 O :   -0.285242
   4 C :    0.028367
   5 C :   -0.205813
   6 C :    0.040980
   7 C :   -0.079130
   8 O :   -0.469397
   9 H :    0.132418
  10 H :    0.133529
  11 H :    0.129152
  12 H :    0.123974
  13 H :    0.123487
  14 H :    0.159798
  15 H :    0.121895
  16 H :    0.121586
  17 H :    0.320199
Sum of atomic charges:    0.0000000

LOEWDIN ATOMIC CHARGES
----------------------
   0 C :   -0.334051
   1 N :    0.070882
   2 C :   -0.335588
   3 O :    0.237107
   4 C :   -0.256697
   5 C :   -0.108503
   6 C :   -0.141539
   7 C :   -0.299402
   8 O :   -0.038936
   9 H :    0.118465
  10 H :    0.116953
  11 H :    0.109766
  12 H :    0.134196
  13 H :    0.134130
  14 H :    0.149112
  15 H :    0.134204
  16 H :    0.134146
  17 H :    0.175755

  Mayer bond orders larger than 0.1
B(  0-C ,  1-N ) :   0.8691 B(  0-C ,  9-H ) :   0.9327 B(  0-C , 10-H ) :   0.9367
B(  0-C , 11-H ) :   0.9332 B(  1-N ,  2-C ) :   1.9433 B(  2-C ,  3-O ) :   1.0662
B(  2-C ,  6-C ) :   0.8991 B(  3-O ,  4-C ) :   0.8962 B(  4-C ,  5-C ) :   0.9946
B(  4-C , 12-H ) :   0.9100 B(  4-C , 13-H ) :   0.9085 B(  5-C ,  6-C ) :   1.7112
B(  5-C , 14-H ) :   0.9150 B(  6-C ,  7-C ) :   0.9195 B(  6-C ,  8-O ) :  -0.1118
B(  7-C ,  8-O ) :   1.0458 B(  7-C , 15-H ) :   0.9276 B(  7-C , 16-H ) :   0.9273
B(  8-O , 17-H ) :   0.8471

MP2 TOTAL ENERGY:     -438.370080921 Eh
FINAL SINGLE POINT ENERGY      -438.370080921366

DIPOLE MOMENT
-------------
                                X             Y             Z
Electronic contribution:      0.80676      -2.34282       1.45073
Nuclear contribution   :     -0.69129       1.86392      -1.25195
                        -----------------------------------------
Total Dipole Moment    :      0.11547      -0.47889       0.19878
                        -----------------------------------------
Magnitude (a.u.)       :      0.53121
Magnitude (Debye)      :      1.35023

                             ****ORCA TERMINATED NORMALLY****
TOTAL RUN TIME: 0 days 0 hours 15 minutes 24 seconds 667 msec
