                         Program Version 3.0.3 - RELEASE   -
|  1> ! RI-MP2 RIJK def2-TZVP def2-TZVP/C def2-TZVP/JK TIGHTSCF
|  2> % maxcore 2000
|  3> % mp2 density relaxed end
|  4> *xyz 0 1
|  5>  C       -0.2442685734     1.5140424846    -0.1001452963
|  6>  C       -0.0450814510     0.0011544815    -0.0735409581
|  7>  C        1.2255486501    -0.4934671173    -0.8300162932
|  8>  C        1.9642656727    -0.5698163200     0.5338557088
|  9>  C        0.5844739921    -0.5413806542     1.2458361845
| 10>  N        2.8565832686    -1.6751670675     0.7841423746
| 11>  C        4.1497789512    -1.5310510398     1.1848258044
| 12>  O        4.7122993350    -0.4749424228     1.3811071399
| 13>  H        0.6671188171     2.0466613063     0.1945216904
| 14>  H       -0.5174513069     1.8571308288    -1.1038721198
| 15>  H       -1.0412235836     1.8179116921     0.5871170556
| 16>  H       -0.9727485835    -0.4947959005    -0.3714274912
| 17>  H        1.0816366142    -1.4892047442    -1.2621978320
| 18>  H        1.6510616177     0.1609817568    -1.5955277395
| 19>  H        2.5432077707     0.3319592630     0.7333524595
| 20>  H        0.4958841786     0.0745124437     2.1448369510
| 21>  H        0.2349642700    -1.5524995747     1.4792372577
| 22>  H        2.5070782150    -2.6125679338     0.6558564825
| 23>  H        4.6470985852    -2.5131209322     1.3163314311
| 24> *
| 25>
| 26>                          ****END OF INPUT****

CARTESIAN COORDINATES (ANGSTROEM)
---------------------------------
  C     -0.244269    1.514042   -0.100145
  C     -0.045081    0.001154   -0.073541
  C      1.225549   -0.493467   -0.830016
  C      1.964266   -0.569816    0.533856
  C      0.584474   -0.541381    1.245836
  N      2.856583   -1.675167    0.784142
  C      4.149779   -1.531051    1.184826
  O      4.712299   -0.474942    1.381107
  H      0.667119    2.046661    0.194522
  H     -0.517451    1.857131   -1.103872
  H     -1.041224    1.817912    0.587117
  H     -0.972749   -0.494796   -0.371427
  H      1.081637   -1.489205   -1.262198
  H      1.651062    0.160982   -1.595528
  H      2.543208    0.331959    0.733352
  H      0.495884    0.074512    2.144837
  H      0.234964   -1.552500    1.479237
  H      2.507078   -2.612568    0.655856
  H      4.647099   -2.513121    1.316331

 Total Charge           Charge          ....    0
 Multiplicity           Mult            ....    1
 Number of Electrons    NEL             ....   62
 Basis Dimension        Dim             ....  314

ORBITAL ENERGIES
----------------

  NO   OCC          E(Eh)            E(eV)
   0   2.0000     -20.519520      -558.3645
   1   2.0000     -15.587463      -424.1564
   2   2.0000     -11.347138      -308.7713
   3   2.0000     -11.267177      -306.5955
   4   2.0000     -11.234252      -305.6995
   5   2.0000     -11.226222      -305.4810
   6   2.0000     -11.226185      -305.4800
   7   2.0000     -11.218021      -305.2579
   8   2.0000      -1.380244       -37.5583
   9   2.0000      -1.239162       -33.7193
  10   2.0000      -1.129688       -30.7404
  11   2.0000      -0.982496       -26.7351
  12   2.0000      -0.908792       -24.7295
  13   2.0000      -0.884892       -24.0791
  14   2.0000      -0.805930       -21.9305
  15   2.0000      -0.762027       -20.7358
  16   2.0000      -0.712344       -19.3839
  17   2.0000      -0.674175       -18.3452
  18   2.0000      -0.636675       -17.3248
  19   2.0000      -0.613563       -16.6959
  20   2.0000      -0.596730       -16.2379
  21   2.0000      -0.572791       -15.5864
  22   2.0000      -0.568073       -15.4580
  23   2.0000      -0.540645       -14.7117
  24   2.0000      -0.531248       -14.4560
  25   2.0000      -0.496280       -13.5045
  26   2.0000      -0.475146       -12.9294
  27   2.0000      -0.442912       -12.0522
  28   2.0000      -0.442839       -12.0503
  29   2.0000      -0.425813       -11.5870
  30   2.0000      -0.382706       -10.4140
  31   0.0000       0.124848         3.3973
  32   0.0000       0.139597         3.7986
  33   0.0000       0.160218         4.3598
  34   0.0000       0.170461         4.6385
  35   0.0000       0.179125         4.8742

MULLIKEN ATOMIC CHARGES
-----------------------
   0 C :   -0.447728
   1 C :   -0.005073
   2 C :   -0.202702
   3 C :   -0.063534
   4 C :   -0.202732
   5 N :   -0.324796
   6 C :    0.195364
   7 O :   -0.366119
   8 H :    0.135306
   9 H :    0.132339
  10 H :    0.132338
  11 H :    0.102412
  12 H :    0.104991
  13 H :    0.126143
  14 H :    0.145298
  15 H :    0.126159
  16 H :    0.104988
  17 H :    0.230904
  18 H :    0.076441
Sum of atomic charges:   -0.0000000

LOEWDIN ATOMIC CHARGES
----------------------
   0 C :   -0.297012
   1 C :   -0.252438
   2 C :   -0.202767
   3 C :   -0.253233
   4 C :   -0.202784
   5 N :    0.101242
   6 C :   -0.435945
   7 O :    0.053187
   8 H :    0.126523
   9 H :    0.124262
  10 H :    0.124258
  11 H :    0.137709
  12 H :    0.133033
  13 H :    0.129603
  14 H :    0.159054
  15 H :    0.129597
  16 H :    0.133035
  17 H :    0.184468
  18 H :    0.108206

  Mayer bond orders larger than 0.1
B(  0-C ,  1-C ) :   0.9058 B(  0-C ,  8-H ) :   0.9329 B(  0-C ,  9-H ) :   0.9412
B(  0-C , 10-H ) :   0.9412 B(  1-C ,  2-C ) :   0.9067 B(  1-C ,  4-C ) :   0.9067
B(  1-C , 11-H ) :   0.9231 B(  2-C ,  3-C ) :   0.9330 B(  2-C , 12-H ) :   0.9151
B(  2-C , 13-H ) :   0.9324 B(  3-C ,  4-C ) :   0.9329 B(  3-C ,  5-N ) :   0.8015
B(  3-C , 14-H ) :   0.9218 B(  4-C , 15-H ) :   0.9324 B(  4-C , 16-H ) :   0.9151
B(  5-N ,  6-C ) :   1.1574 B(  5-N , 17-H ) :   0.8697 B(  6-C ,  7-O ) :   1.8852
B(  6-C , 18-H ) :   0.9296

MP2 TOTAL ENERGY:     -364.460428638 Eh
FINAL SINGLE POINT ENERGY      -364.460428637942

DIPOLE MOMENT
-------------
                                X             Y             Z
Electronic contribution:      8.08576      -3.46558       2.41233
Nuclear contribution   :     -9.28151       2.59299      -2.79948
                        -----------------------------------------
Total Dipole Moment    :     -1.19575      -0.87259      -0.38715
                        -----------------------------------------
Magnitude (a.u.)       :      1.53007
Magnitude (Debye)      :      3.88913

                             ****ORCA TERMINATED NORMALLY****
TOTAL RUN TIME: 0 days 0 hours 12 minutes 29 seconds 708 msec
