                         Program Version 3.0.3 - RELEASE   -
|  1> ! RI-MP2 RIJK def2-TZVP def2-TZVP/C def2-TZVP/JK TIGHTSCF
|  2> % maxcore 2000
|  3> % mp2 density relaxed end
|  4> *xyz 0 1
|  5>  O        0.0175025903    -0.0089693940     0.0220596216
|  6>  C       -0.0160848026     1.1932901588    -0.0299675467
|  7>  C       -1.2672554912     2.0772523867    -0.0978365279
|  8>  C       -0.8299236911     3.3459362192    -0.8609437256
|  9>  C        0.6879559155     3.4233789786    -0.6596599326
| 10>  N        1.0505952010     3.2791379148     0.7657841814
| 11>  C        1.1789876819     2.1018917756    -0.1330839394
| 12>  C        1.4884576216     4.2418564057    -1.5184837186
| 13>  C        2.1360571237     4.9541818213    -2.2398150801
| 14>  H       -2.0895754754     1.5365404476    -0.5685317560
| 15>  H       -1.5645679868     2.3170419670     0.9281242127
| 16>  H       -1.0381194516     3.2469040633    -1.9304158891
| 17>  H       -1.3207087786     4.2548625110    -0.5041760115
| 18>  H        1.9819780929     3.6664923588     0.9064882853
| 19>  H        2.1562268500     1.6984395170    -0.3679982885
| 20>  H        2.7138177506     5.5760099084    -2.8782699149
| 21> *
| 22>
| 23>                          ****END OF INPUT****

CARTESIAN COORDINATES (ANGSTROEM)
---------------------------------
  O      0.017503   -0.008969    0.022060
  C     -0.016085    1.193290   -0.029968
  C     -1.267255    2.077252   -0.097837
  C     -0.829924    3.345936   -0.860944
  C      0.687956    3.423379   -0.659660
  N      1.050595    3.279138    0.765784
  C      1.178988    2.101892   -0.133084
  C      1.488458    4.241856   -1.518484
  C      2.136057    4.954182   -2.239815
  H     -2.089575    1.536540   -0.568532
  H     -1.564568    2.317042    0.928124
  H     -1.038119    3.246904   -1.930416
  H     -1.320709    4.254863   -0.504176
  H      1.981978    3.666492    0.906488
  H      2.156227    1.698440   -0.367998
  H      2.713818    5.576010   -2.878270

 Total Charge           Charge          ....    0
 Multiplicity           Mult            ....    1
 Number of Electrons    NEL             ....   64
 Basis Dimension        Dim             ....  321

ORBITAL ENERGIES
----------------

  NO   OCC          E(Eh)            E(eV)
   0   2.0000     -20.553261      -559.2827
   1   2.0000     -15.593888      -424.3313
   2   2.0000     -11.337622      -308.5124
   3   2.0000     -11.313086      -307.8447
   4   2.0000     -11.286872      -307.1314
   5   2.0000     -11.255798      -306.2858
   6   2.0000     -11.251958      -306.1813
   7   2.0000     -11.247982      -306.0732
   8   2.0000     -11.243218      -305.9435
   9   2.0000      -1.397397       -38.0251
  10   2.0000      -1.305732       -35.5308
  11   2.0000      -1.085089       -29.5268
  12   2.0000      -1.058280       -28.7972
  13   2.0000      -0.960123       -26.1263
  14   2.0000      -0.934923       -25.4405
  15   2.0000      -0.840630       -22.8747
  16   2.0000      -0.767644       -20.8887
  17   2.0000      -0.748901       -20.3786
  18   2.0000      -0.715992       -19.4831
  19   2.0000      -0.661979       -18.0134
  20   2.0000      -0.649394       -17.6709
  21   2.0000      -0.606453       -16.5024
  22   2.0000      -0.592512       -16.1231
  23   2.0000      -0.565476       -15.3874
  24   2.0000      -0.558966       -15.2102
  25   2.0000      -0.515545       -14.0287
  26   2.0000      -0.510056       -13.8793
  27   2.0000      -0.491317       -13.3694
  28   2.0000      -0.456726       -12.4281
  29   2.0000      -0.422126       -11.4866
  30   2.0000      -0.410778       -11.1778
  31   2.0000      -0.368896       -10.0382
  32   0.0000       0.118411         3.2221
  33   0.0000       0.130262         3.5446
  34   0.0000       0.151339         4.1181
  35   0.0000       0.152438         4.1480
  36   0.0000       0.161291         4.3890

MULLIKEN ATOMIC CHARGES
-----------------------
   0 O :   -0.259646
   1 C :    0.136035
   2 C :   -0.193114
   3 C :   -0.229314
   4 C :   -0.119049
   5 N :   -0.354483
   6 C :   -0.083629
   7 C :    0.044848
   8 C :   -0.072798
   9 H :    0.141284
  10 H :    0.140108
  11 H :    0.132299
  12 H :    0.126887
  13 H :    0.233778
  14 H :    0.156519
  15 H :    0.200274
Sum of atomic charges:   -0.0000000

LOEWDIN ATOMIC CHARGES
----------------------
   0 O :    0.161344
   1 C :   -0.302003
   2 C :   -0.209641
   3 C :   -0.185038
   4 C :   -0.266331
   5 N :    0.059671
   6 C :   -0.167300
   7 C :   -0.076452
   8 C :   -0.072113
   9 H :    0.147135
  10 H :    0.158682
  11 H :    0.148775
  12 H :    0.144199
  13 H :    0.180322
  14 H :    0.148477
  15 H :    0.130272

  Mayer bond orders larger than 0.1
B(  0-O ,  1-C ) :   2.0500 B(  1-C ,  2-C ) :   0.9508 B(  1-C ,  6-C ) :   0.8859
B(  2-C ,  3-C ) :   0.9435 B(  2-C ,  6-C ) :  -0.1306 B(  2-C ,  9-H ) :   0.9128
B(  2-C , 10-H ) :   0.8933 B(  3-C ,  4-C ) :   0.9716 B(  3-C , 11-H ) :   0.9301
B(  3-C , 12-H ) :   0.9093 B(  4-C ,  5-N ) :   0.9234 B(  4-C ,  6-C ) :   0.8202
B(  4-C ,  7-C ) :   1.1426 B(  4-C ,  8-C ) :  -0.1598 B(  5-N ,  6-C ) :   0.9617
B(  5-N , 13-H ) :   0.8655 B(  6-C , 14-H ) :   0.9160 B(  7-C ,  8-C ) :   2.6029
B(  8-C , 15-H ) :   0.8680

MP2 TOTAL ENERGY:     -400.019879239 Eh
FINAL SINGLE POINT ENERGY      -400.019879238528

DIPOLE MOMENT
-------------
                                X             Y             Z
Electronic contribution:      2.55812      -2.23159       0.41494
Nuclear contribution   :     -2.27473       3.28676      -0.87944
                        -----------------------------------------
Total Dipole Moment    :      0.28339       1.05517      -0.46450
                        -----------------------------------------
Magnitude (a.u.)       :      1.18721
Magnitude (Debye)      :      3.01764

                             ****ORCA TERMINATED NORMALLY****
TOTAL RUN TIME: 0 days 0 hours 16 minutes 33 seconds 117 msec
