                         Program Version 3.0.3 - RELEASE   -
|  1> ! RI-MP2 RIJK def2-TZVP def2-TZVP/C def2-TZVP/JK TIGHTSCF
|  2> % maxcore 2000
|  3> % mp2 density relaxed end
|  4> *xyz 0 1
|  5>  C       -0.0626291908     1.5732427861     0.1273102025
|  6>  C       -0.0348422077     0.0459439473     0.0267916880
|  7>  O        0.6900836816    -0.4226077341     1.1615212511
|  8>  C       -1.3937893824    -0.5097427593     0.0203011515
|  9>  C       -2.4847410829    -1.0136013523     0.0448728107
| 10>  C        0.7011992086    -0.4333047442    -1.2787676584
| 11>  O        0.0152973981    -0.0222673099    -2.4515511694
| 12>  C        2.1026026777    -0.0146818424    -1.2904688159
| 13>  C        3.2400604762     0.3684592597    -1.3570464402
| 14>  H        0.9609506239     1.9541057625     0.1608240486
| 15>  H       -0.5876778734     2.0022880748    -0.7290646014
| 16>  H       -0.5823131762     1.8701811213     1.0399484711
| 17>  H        0.5078645176    -1.3632954787     1.2638736688
| 18>  H       -3.4555843002    -1.4444428623     0.0599509614
| 19>  H        0.6527938529    -1.5293704781    -1.2767260552
| 20>  H        0.3429625517     0.8508405294    -2.6916604435
| 21>  H        4.2514299851     0.6901256104    -1.4027285100
| 22> *
| 23>
| 24>                          ****END OF INPUT****

CARTESIAN COORDINATES (ANGSTROEM)
---------------------------------
  C     -0.062629    1.573243    0.127310
  C     -0.034842    0.045944    0.026792
  O      0.690084   -0.422608    1.161521
  C     -1.393789   -0.509743    0.020301
  C     -2.484741   -1.013601    0.044873
  C      0.701199   -0.433305   -1.278768
  O      0.015297   -0.022267   -2.451551
  C      2.102603   -0.014682   -1.290469
  C      3.240060    0.368459   -1.357046
  H      0.960951    1.954106    0.160824
  H     -0.587678    2.002288   -0.729065
  H     -0.582313    1.870181    1.039948
  H      0.507865   -1.363295    1.263874
  H     -3.455584   -1.444443    0.059951
  H      0.652794   -1.529370   -1.276726
  H      0.342963    0.850841   -2.691660
  H      4.251430    0.690126   -1.402729

 Total Charge           Charge          ....    0
 Multiplicity           Mult            ....    1
 Number of Electrons    NEL             ....   66
 Basis Dimension        Dim             ....  327

ORBITAL ENERGIES
----------------

  NO   OCC          E(Eh)            E(eV)
   0   2.0000     -20.574860      -559.8704
   1   2.0000     -20.572290      -559.8005
   2   2.0000     -11.328176      -308.2553
   3   2.0000     -11.322663      -308.1053
   4   2.0000     -11.243561      -305.9528
   5   2.0000     -11.239667      -305.8469
   6   2.0000     -11.237845      -305.7973
   7   2.0000     -11.234792      -305.7142
   8   2.0000     -11.226358      -305.4847
   9   2.0000      -1.391263       -37.8582
  10   2.0000      -1.376131       -37.4464
  11   2.0000      -1.090275       -29.6679
  12   2.0000      -1.050151       -28.5760
  13   2.0000      -1.006860       -27.3980
  14   2.0000      -0.954289       -25.9675
  15   2.0000      -0.857956       -23.3462
  16   2.0000      -0.766699       -20.8629
  17   2.0000      -0.742149       -20.1949
  18   2.0000      -0.707604       -19.2549
  19   2.0000      -0.705193       -19.1893
  20   2.0000      -0.673077       -18.3154
  21   2.0000      -0.653718       -17.7886
  22   2.0000      -0.588600       -16.0166
  23   2.0000      -0.563092       -15.3225
  24   2.0000      -0.550973       -14.9927
  25   2.0000      -0.545033       -14.8311
  26   2.0000      -0.527863       -14.3639
  27   2.0000      -0.518498       -14.1090
  28   2.0000      -0.457077       -12.4377
  29   2.0000      -0.415906       -11.3174
  30   2.0000      -0.405098       -11.0233
  31   2.0000      -0.400429       -10.8962
  32   2.0000      -0.385865       -10.4999
  33   0.0000       0.126512         3.4426
  34   0.0000       0.138147         3.7592
  35   0.0000       0.155700         4.2368
  36   0.0000       0.161162         4.3854
  37   0.0000       0.162403         4.4192

MULLIKEN ATOMIC CHARGES
-----------------------
   0 C :   -0.453251
   1 C :    0.177388
   2 O :   -0.452043
   3 C :   -0.082872
   4 C :   -0.121194
   5 C :   -0.054868
   6 O :   -0.453228
   7 C :   -0.060577
   8 C :   -0.103564
   9 H :    0.159770
  10 H :    0.134936
  11 H :    0.147841
  12 H :    0.322772
  13 H :    0.195507
  14 H :    0.120035
  15 H :    0.327001
  16 H :    0.196347
Sum of atomic charges:   -0.0000000

LOEWDIN ATOMIC CHARGES
----------------------
   0 C :   -0.248798
   1 C :   -0.374827
   2 O :    0.037671
   3 C :   -0.072860
   4 C :   -0.076637
   5 C :   -0.297742
   6 O :    0.014928
   7 C :   -0.093810
   8 C :   -0.079046
   9 H :    0.136359
  10 H :    0.131263
  11 H :    0.136072
  12 H :    0.182549
  13 H :    0.128992
  14 H :    0.165541
  15 H :    0.181156
  16 H :    0.129189

  Mayer bond orders larger than 0.1
B(  0-C ,  1-C ) :   0.8174 B(  0-C ,  9-H ) :   0.9369 B(  0-C , 10-H ) :   0.9362
B(  0-C , 11-H ) :   0.9325 B(  1-C ,  2-O ) :   0.9166 B(  1-C ,  3-C ) :   1.2292
B(  1-C ,  5-C ) :   0.8814 B(  2-O , 12-H ) :   0.8364 B(  3-C ,  4-C ) :   2.5706
B(  4-C , 13-H ) :   0.8776 B(  5-C ,  6-O ) :   0.9495 B(  5-C ,  7-C ) :   1.1634
B(  5-C , 14-H ) :   0.9253 B(  6-O , 15-H ) :   0.8359 B(  7-C ,  8-C ) :   2.5814
B(  8-C , 16-H ) :   0.8845

MP2 TOTAL ENERGY:     -421.035217017 Eh
FINAL SINGLE POINT ENERGY      -421.035217016505

DIPOLE MOMENT
-------------
                                X             Y             Z
Electronic contribution:      0.42515      -2.98997      -0.82603
Nuclear contribution   :     -0.34884       3.07121       0.80049
                        -----------------------------------------
Total Dipole Moment    :      0.07631       0.08124      -0.02554
                        -----------------------------------------
Magnitude (a.u.)       :      0.11435
Magnitude (Debye)      :      0.29065

                             ****ORCA TERMINATED NORMALLY****
TOTAL RUN TIME: 0 days 0 hours 18 minutes 10 seconds 173 msec
