                         Program Version 3.0.3 - RELEASE   -
|  1> ! RI-MP2 RIJK def2-TZVP def2-TZVP/C def2-TZVP/JK TIGHTSCF
|  2> % maxcore 2000
|  3> % mp2 density relaxed end
|  4> *xyz 0 1
|  5>  C        0.0108581861     1.5693559393    -0.0212740778
|  6>  C        0.0608831657     0.0406215995    -0.0075022049
|  7>  C        0.7260696548    -0.5357296264    -1.2631683995
|  8>  C        0.9669727188    -2.0221531806    -1.0506430823
|  9>  O        1.7265430567    -2.2560545144     0.1415063273
| 10>  C        1.4787600489    -1.4241630550     1.1947205464
| 11>  C        2.2390085696    -1.8824044374     2.4051773146
| 12>  N        0.7324973333    -0.3990273312     1.2178653786
| 13>  H        1.0232503818     1.9853575006    -0.0582558729
| 14>  H       -0.5457286178     1.9366496499    -0.8900477661
| 15>  H       -0.4704184966     1.9386499359     0.8878819336
| 16>  H       -0.9752192508    -0.3283887564     0.0376835224
| 17>  H        0.1059984515    -0.3793677268    -2.1522204406
| 18>  H        1.6850540161    -0.0321320717    -1.4364319705
| 19>  H        0.0135998962    -2.5616836659    -0.9679594589
| 20>  H        1.5431579575    -2.4732404024    -1.8625410484
| 21>  H        3.3105048334    -1.9235811045     2.1842503436
| 22>  H        2.0584861980    -1.1961098996     3.2312846083
| 23>  H        1.9297769168    -2.8937000929     2.6886026172
| 24> *
| 25>
| 26>                          ****END OF INPUT****

CARTESIAN COORDINATES (ANGSTROEM)
---------------------------------
  C      0.010858    1.569356   -0.021274
  C      0.060883    0.040622   -0.007502
  C      0.726070   -0.535730   -1.263168
  C      0.966973   -2.022153   -1.050643
  O      1.726543   -2.256055    0.141506
  C      1.478760   -1.424163    1.194721
  C      2.239009   -1.882404    2.405177
  N      0.732497   -0.399027    1.217865
  H      1.023250    1.985358   -0.058256
  H     -0.545729    1.936650   -0.890048
  H     -0.470418    1.938650    0.887882
  H     -0.975219   -0.328389    0.037684
  H      0.105998   -0.379368   -2.152220
  H      1.685054   -0.032132   -1.436432
  H      0.013600   -2.561684   -0.967959
  H      1.543158   -2.473240   -1.862541
  H      3.310505   -1.923581    2.184250
  H      2.058486   -1.196110    3.231285
  H      1.929777   -2.893700    2.688603

 Total Charge           Charge          ....    0
 Multiplicity           Mult            ....    1
 Number of Electrons    NEL             ....   62
 Basis Dimension        Dim             ....  314

ORBITAL ENERGIES
----------------

  NO   OCC          E(Eh)            E(eV)
   0   2.0000     -20.585675      -560.1647
   1   2.0000     -15.529032      -422.5664
   2   2.0000     -11.328372      -308.2607
   3   2.0000     -11.288185      -307.1671
   4   2.0000     -11.255556      -306.2792
   5   2.0000     -11.227974      -305.5287
   6   2.0000     -11.221780      -305.3602
   7   2.0000     -11.207939      -304.9835
   8   2.0000      -1.419153       -38.6171
   9   2.0000      -1.209337       -32.9077
  10   2.0000      -1.083589       -29.4859
  11   2.0000      -0.981939       -26.7199
  12   2.0000      -0.976847       -26.5814
  13   2.0000      -0.879744       -23.9390
  14   2.0000      -0.823591       -22.4111
  15   2.0000      -0.729761       -19.8578
  16   2.0000      -0.674327       -18.3494
  17   2.0000      -0.673822       -18.3356
  18   2.0000      -0.638473       -17.3737
  19   2.0000      -0.608960       -16.5706
  20   2.0000      -0.584854       -15.9147
  21   2.0000      -0.571876       -15.5615
  22   2.0000      -0.551073       -14.9955
  23   2.0000      -0.544369       -14.8130
  24   2.0000      -0.526886       -14.3373
  25   2.0000      -0.513271       -13.9668
  26   2.0000      -0.509899       -13.8751
  27   2.0000      -0.472967       -12.8701
  28   2.0000      -0.466630       -12.6977
  29   2.0000      -0.393227       -10.7002
  30   2.0000      -0.375761       -10.2250
  31   0.0000       0.131790         3.5862
  32   0.0000       0.158557         4.3145
  33   0.0000       0.162088         4.4106
  34   0.0000       0.170262         4.6331
  35   0.0000       0.192563         5.2399

MULLIKEN ATOMIC CHARGES
-----------------------
   0 C :   -0.360179
   1 C :    0.033409
   2 C :   -0.270949
   3 C :   -0.041748
   4 O :   -0.270882
   5 C :    0.202882
   6 C :   -0.391253
   7 N :   -0.278942
   8 H :    0.117918
   9 H :    0.115980
  10 H :    0.137545
  11 H :    0.092486
  12 H :    0.127459
  13 H :    0.120132
  14 H :    0.107453
  15 H :    0.132134
  16 H :    0.139284
  17 H :    0.149381
  18 H :    0.137889
Sum of atomic charges:   -0.0000000

LOEWDIN ATOMIC CHARGES
----------------------
   0 C :   -0.292806
   1 C :   -0.320076
   2 C :   -0.254598
   3 C :   -0.282263
   4 O :    0.235298
   5 C :   -0.398207
   6 C :   -0.267300
   7 N :    0.111231
   8 H :    0.123060
   9 H :    0.120884
  10 H :    0.126257
  11 H :    0.148511
  12 H :    0.144274
  13 H :    0.144758
  14 H :    0.128177
  15 H :    0.130453
  16 H :    0.134018
  17 H :    0.135084
  18 H :    0.133246

  Mayer bond orders larger than 0.1
B(  0-C ,  1-C ) :   0.9293 B(  0-C ,  8-H ) :   0.9310 B(  0-C ,  9-H ) :   0.9358
B(  0-C , 10-H ) :   0.9382 B(  1-C ,  2-C ) :   0.9121 B(  1-C ,  7-N ) :   0.8975
B(  1-C , 11-H ) :   0.9224 B(  2-C ,  3-C ) :   0.9353 B(  2-C , 12-H ) :   0.9200
B(  2-C , 13-H ) :   0.9239 B(  3-C ,  4-O ) :   0.8789 B(  3-C , 14-H ) :   0.9361
B(  3-C , 15-H ) :   0.9316 B(  4-O ,  5-C ) :   1.0655 B(  5-C ,  6-C ) :   0.8991
B(  5-C ,  7-N ) :   1.8865 B(  6-C , 16-H ) :   0.9260 B(  6-C , 17-H ) :   0.9472
B(  6-C , 18-H ) :   0.9242

MP2 TOTAL ENERGY:     -364.471833741 Eh
FINAL SINGLE POINT ENERGY      -364.471833741300

DIPOLE MOMENT
-------------
                                X             Y             Z
Electronic contribution:      1.14463      -3.63750       1.03580
Nuclear contribution   :     -1.26071       3.42769      -1.73041
                        -----------------------------------------
Total Dipole Moment    :     -0.11608      -0.20981      -0.69461
                        -----------------------------------------
Magnitude (a.u.)       :      0.73483
Magnitude (Debye)      :      1.86779

                             ****ORCA TERMINATED NORMALLY****
TOTAL RUN TIME: 0 days 0 hours 14 minutes 9 seconds 502 msec
