                         Program Version 3.0.3 - RELEASE   -
|  1> ! RI-MP2 RIJK def2-TZVP def2-TZVP/C def2-TZVP/JK TIGHTSCF
|  2> % maxcore 2000
|  3> % mp2 density relaxed end
|  4> *xyz 0 1
|  5>  C       -0.0171381824     1.5299104772     0.0726128164
|  6>  C       -0.0396888227     0.0284769129     0.0200270891
|  7>  C        1.1566241688    -0.7956709618    -0.3556341050
|  8>  C        0.5820974475    -0.9826606972     1.0387353204
|  9>  C        1.3312427028    -0.6765840666     2.2146803020
| 10>  N        1.9307879411    -0.4226608118     3.1725819368
| 11>  C       -0.6798520295    -1.8141751163     0.9872536294
| 12>  C       -1.8828400990    -0.9896193215     1.3570132163
| 13>  C       -1.2891626751    -0.8283910948    -0.0176059590
| 14>  H        0.9548344155     1.9015992975     0.4104915476
| 15>  H       -0.2100655629     1.9532724110    -0.9199100455
| 16>  H       -0.7820278530     1.9136378505     0.7548469204
| 17>  H        1.0693268232    -1.6174375741    -1.0607706219
| 18>  H        2.1011450797    -0.2617919628    -0.3980643134
| 19>  H       -0.7003018694    -2.8967809827     0.9532191884
| 20>  H       -2.8218142945    -1.5331254381     1.3984006314
| 21>  H       -1.7934321418    -0.1958857942     2.0931649658
| 22>  H       -1.8442596082    -1.0705691272    -0.9164919192
| 23> *
| 24>
| 25>                          ****END OF INPUT****

CARTESIAN COORDINATES (ANGSTROEM)
---------------------------------
  C     -0.017138    1.529910    0.072613
  C     -0.039689    0.028477    0.020027
  C      1.156624   -0.795671   -0.355634
  C      0.582097   -0.982661    1.038735
  C      1.331243   -0.676584    2.214680
  N      1.930788   -0.422661    3.172582
  C     -0.679852   -1.814175    0.987254
  C     -1.882840   -0.989619    1.357013
  C     -1.289163   -0.828391   -0.017606
  H      0.954834    1.901599    0.410492
  H     -0.210066    1.953272   -0.919910
  H     -0.782028    1.913638    0.754847
  H      1.069327   -1.617438   -1.060771
  H      2.101145   -0.261792   -0.398064
  H     -0.700302   -2.896781    0.953219
  H     -2.821814   -1.533125    1.398401
  H     -1.793432   -0.195886    2.093165
  H     -1.844260   -1.070569   -0.916492

 Total Charge           Charge          ....    0
 Multiplicity           Mult            ....    1
 Number of Electrons    NEL             ....   64
 Basis Dimension        Dim             ....  333

ORBITAL ENERGIES
----------------

  NO   OCC          E(Eh)            E(eV)
   0   2.0000     -15.562001      -423.4636
   1   2.0000     -11.283972      -307.0525
   2   2.0000     -11.276028      -306.8363
   3   2.0000     -11.268284      -306.6256
   4   2.0000     -11.259781      -306.3942
   5   2.0000     -11.258428      -306.3574
   6   2.0000     -11.255798      -306.2858
   7   2.0000     -11.247740      -306.0666
   8   2.0000     -11.235688      -305.7386
   9   2.0000      -1.257212       -34.2105
  10   2.0000      -1.205261       -32.7968
  11   2.0000      -1.103774       -30.0352
  12   2.0000      -1.001607       -27.2551
  13   2.0000      -0.918571       -24.9956
  14   2.0000      -0.869231       -23.6530
  15   2.0000      -0.826307       -22.4849
  16   2.0000      -0.772697       -21.0262
  17   2.0000      -0.690110       -18.7789
  18   2.0000      -0.668192       -18.1824
  19   2.0000      -0.661770       -18.0077
  20   2.0000      -0.591191       -16.0871
  21   2.0000      -0.583376       -15.8745
  22   2.0000      -0.570530       -15.5249
  23   2.0000      -0.557093       -15.1593
  24   2.0000      -0.533309       -14.5121
  25   2.0000      -0.519182       -14.1277
  26   2.0000      -0.509089       -13.8530
  27   2.0000      -0.485242       -13.2041
  28   2.0000      -0.460901       -12.5417
  29   2.0000      -0.417507       -11.3609
  30   2.0000      -0.409006       -11.1296
  31   2.0000      -0.383030       -10.4228
  32   0.0000       0.133487         3.6324
  33   0.0000       0.144655         3.9363
  34   0.0000       0.151938         4.1344
  35   0.0000       0.161327         4.3899
  36   0.0000       0.174104         4.7376

MULLIKEN ATOMIC CHARGES
-----------------------
   0 C :   -0.411870
   1 C :    0.062183
   2 C :   -0.275301
   3 C :    0.171612
   4 C :   -0.281697
   5 N :   -0.049412
   6 C :   -0.111538
   7 C :   -0.280943
   8 C :   -0.119245
   9 H :    0.145043
  10 H :    0.144577
  11 H :    0.140396
  12 H :    0.148112
  13 H :    0.150273
  14 H :    0.142236
  15 H :    0.135756
  16 H :    0.151841
  17 H :    0.137977
Sum of atomic charges:   -0.0000000

LOEWDIN ATOMIC CHARGES
----------------------
   0 C :   -0.259528
   1 C :   -0.172404
   2 C :   -0.124829
   3 C :   -0.166245
   4 C :   -0.157340
   5 N :    0.062339
   6 C :   -0.124073
   7 C :   -0.181940
   8 C :   -0.134202
   9 H :    0.135918
  10 H :    0.133729
  11 H :    0.132867
  12 H :    0.141168
  13 H :    0.149107
  14 H :    0.142904
  15 H :    0.142060
  16 H :    0.138851
  17 H :    0.141619

  Mayer bond orders larger than 0.1
B(  0-C ,  1-C ) :   0.9080 B(  0-C ,  9-H ) :   0.9271 B(  0-C , 10-H ) :   0.9367
B(  0-C , 11-H ) :   0.9355 B(  1-C ,  2-C ) :   0.9029 B(  1-C ,  3-C ) :   0.7940
B(  1-C ,  8-C ) :   0.9160 B(  2-C ,  3-C ) :   0.8287 B(  2-C , 12-H ) :   0.9113
B(  2-C , 13-H ) :   0.9303 B(  3-C ,  4-C ) :   0.9649 B(  3-C ,  6-C ) :   0.9078
B(  4-C ,  5-N ) :   2.8769 B(  6-C ,  7-C ) :   0.8856 B(  6-C ,  8-C ) :   0.8455
B(  6-C , 14-H ) :   0.9244 B(  7-C ,  8-C ) :   0.8790 B(  7-C , 15-H ) :   0.9303
B(  7-C , 16-H ) :   0.9157 B(  8-C , 17-H ) :   0.9244

MP2 TOTAL ENERGY:     -364.127894109 Eh
FINAL SINGLE POINT ENERGY      -364.127894109119

DIPOLE MOMENT
-------------
                                X             Y             Z
Electronic contribution:      3.71131      -2.82896       4.20138
Nuclear contribution   :     -4.68249       2.70784      -5.65494
                        -----------------------------------------
Total Dipole Moment    :     -0.97118      -0.12112      -1.45356
                        -----------------------------------------
Magnitude (a.u.)       :      1.75234
Magnitude (Debye)      :      4.45410

                             ****ORCA TERMINATED NORMALLY****
TOTAL RUN TIME: 0 days 0 hours 19 minutes 23 seconds 994 msec
