                         Program Version 3.0.3 - RELEASE   -
|  1> ! RI-MP2 RIJK def2-TZVP def2-TZVP/C def2-TZVP/JK TIGHTSCF
|  2> % maxcore 2000
|  3> % mp2 density relaxed end
|  4> *xyz 0 1
|  5>  C       -0.0103847698     1.4702280077    -0.0659161021
|  6>  C       -0.0237991066     0.0165481623    -0.0131558240
|  7>  C       -0.0378124056    -1.1895067951     0.0266630435
|  8>  C       -0.0249884661    -2.6047308871     0.1027899650
|  9>  N       -0.3138732869    -3.4770857806    -1.0832887148
| 10>  C       -1.1400710573    -3.5941934924     0.1329587889
| 11>  C       -0.3873532994    -4.4542832392     1.1858150831
| 12>  C        0.9786740923    -4.8763430035     0.7090937901
| 13>  C        0.7606830947    -3.4574176323     1.1557773550
| 14>  H        0.7700820133     1.8786224668     0.5857670648
| 15>  H        0.1870064191     1.8315804302    -1.0815353558
| 16>  H       -0.9672996835     1.8948944531     0.2584194547
| 17>  H       -0.8277341193    -2.8943547216    -1.7437939776
| 18>  H       -2.2073819151    -3.4160488604     0.1115315718
| 19>  H       -0.8765261772    -4.8886338119     2.0470578242
| 20>  H        1.5292105316    -5.4849501403     1.4201605897
| 21>  H        1.1524166616    -5.1082060990    -0.3334385805
| 22>  H        1.2802544941    -2.9995922869     1.9863866739
| 23> *
| 24>
| 25>                          ****END OF INPUT****

CARTESIAN COORDINATES (ANGSTROEM)
---------------------------------
  C     -0.010385    1.470228   -0.065916
  C     -0.023799    0.016548   -0.013156
  C     -0.037812   -1.189507    0.026663
  C     -0.024988   -2.604731    0.102790
  N     -0.313873   -3.477086   -1.083289
  C     -1.140071   -3.594193    0.132959
  C     -0.387353   -4.454283    1.185815
  C      0.978674   -4.876343    0.709094
  C      0.760683   -3.457418    1.155777
  H      0.770082    1.878622    0.585767
  H      0.187006    1.831580   -1.081535
  H     -0.967300    1.894894    0.258419
  H     -0.827734   -2.894355   -1.743794
  H     -2.207382   -3.416049    0.111532
  H     -0.876526   -4.888634    2.047058
  H      1.529211   -5.484950    1.420161
  H      1.152417   -5.108206   -0.333439
  H      1.280254   -2.999592    1.986387

 Total Charge           Charge          ....    0
 Multiplicity           Mult            ....    1
 Number of Electrons    NEL             ....   64
 Basis Dimension        Dim             ....  333

ORBITAL ENERGIES
----------------

  NO   OCC          E(Eh)            E(eV)
   0   2.0000     -15.565355      -423.5548
   1   2.0000     -11.282544      -307.0136
   2   2.0000     -11.269258      -306.6521
   3   2.0000     -11.250031      -306.1289
   4   2.0000     -11.236690      -305.7659
   5   2.0000     -11.234228      -305.6989
   6   2.0000     -11.231681      -305.6296
   7   2.0000     -11.225136      -305.4515
   8   2.0000     -11.223843      -305.4163
   9   2.0000      -1.291693       -35.1488
  10   2.0000      -1.130323       -30.7576
  11   2.0000      -1.062544       -28.9133
  12   2.0000      -0.979722       -26.6596
  13   2.0000      -0.917140       -24.9567
  14   2.0000      -0.881690       -23.9920
  15   2.0000      -0.787240       -21.4219
  16   2.0000      -0.764508       -20.8033
  17   2.0000      -0.732688       -19.9375
  18   2.0000      -0.640370       -17.4253
  19   2.0000      -0.629531       -17.1304
  20   2.0000      -0.624435       -16.9917
  21   2.0000      -0.590439       -16.0667
  22   2.0000      -0.589055       -16.0290
  23   2.0000      -0.564816       -15.3694
  24   2.0000      -0.530881       -14.4460
  25   2.0000      -0.513291       -13.9674
  26   2.0000      -0.480312       -13.0700
  27   2.0000      -0.431223       -11.7342
  28   2.0000      -0.420483       -11.4419
  29   2.0000      -0.389504       -10.5989
  30   2.0000      -0.371812       -10.1175
  31   2.0000      -0.311305        -8.4710
  32   0.0000       0.133846         3.6421
  33   0.0000       0.150776         4.1028
  34   0.0000       0.160663         4.3719
  35   0.0000       0.169065         4.6005
  36   0.0000       0.178106         4.8465

MULLIKEN ATOMIC CHARGES
-----------------------
   0 C :   -0.474998
   1 C :    0.073345
   2 C :    0.039572
   3 C :   -0.093204
   4 N :   -0.368646
   5 C :   -0.094288
   6 C :   -0.096216
   7 C :   -0.287753
   8 C :   -0.132728
   9 H :    0.164734
  10 H :    0.163639
  11 H :    0.162707
  12 H :    0.219897
  13 H :    0.142508
  14 H :    0.139040
  15 H :    0.128785
  16 H :    0.169954
  17 H :    0.143654
Sum of atomic charges:    0.0000000

LOEWDIN ATOMIC CHARGES
----------------------
   0 C :   -0.294562
   1 C :   -0.084267
   2 C :   -0.061483
   3 C :   -0.223065
   4 N :    0.039175
   5 C :   -0.177139
   6 C :   -0.165060
   7 C :   -0.199613
   8 C :   -0.130233
   9 H :    0.143020
  10 H :    0.141670
  11 H :    0.140705
  12 H :    0.176908
  13 H :    0.134488
  14 H :    0.136662
  15 H :    0.141520
  16 H :    0.140390
  17 H :    0.140886

  Mayer bond orders larger than 0.1
B(  0-C ,  1-C ) :   0.8429 B(  0-C ,  9-H ) :   0.9473 B(  0-C , 10-H ) :   0.9443
B(  0-C , 11-H ) :   0.9461 B(  1-C ,  2-C ) :   2.6293 B(  1-C ,  3-C ) :  -0.1673
B(  2-C ,  3-C ) :   1.1236 B(  3-C ,  4-N ) :   0.9263 B(  3-C ,  5-C ) :   0.9470
B(  3-C ,  8-C ) :   0.9113 B(  4-N ,  5-C ) :   0.9794 B(  4-N , 12-H ) :   0.8662
B(  5-C ,  6-C ) :   0.8880 B(  5-C , 13-H ) :   0.9101 B(  6-C ,  7-C ) :   0.9004
B(  6-C ,  8-C ) :   0.9234 B(  6-C , 14-H ) :   0.9266 B(  7-C ,  8-C ) :   0.8951
B(  7-C , 15-H ) :   0.9294 B(  7-C , 16-H ) :   0.8994 B(  8-C , 17-H ) :   0.9295

MP2 TOTAL ENERGY:     -364.025533817 Eh
FINAL SINGLE POINT ENERGY      -364.025533817267

DIPOLE MOMENT
-------------
                                X             Y             Z
Electronic contribution:     -0.65684      -2.12701      -0.84501
Nuclear contribution   :      0.24679       2.72080       1.13306
                        -----------------------------------------
Total Dipole Moment    :     -0.41005       0.59380       0.28806
                        -----------------------------------------
Magnitude (a.u.)       :      0.77699
Magnitude (Debye)      :      1.97495

                             ****ORCA TERMINATED NORMALLY****
TOTAL RUN TIME: 0 days 0 hours 16 minutes 28 seconds 222 msec
