                         Program Version 3.0.3 - RELEASE   -
|  1> ! RI-MP2 RIJK def2-TZVP def2-TZVP/C def2-TZVP/JK TIGHTSCF
|  2> % maxcore 2000
|  3> % mp2 density relaxed end
|  4> *xyz 0 1
|  5>  C        0.6889061069     1.4460927714    -0.6573934800
|  6>  O        0.0603939241     0.1904910038    -0.4902138643
|  7>  C        0.2441048079    -0.3946796941     0.7718461230
|  8>  C       -0.6521076795    -1.6584228646     0.7540659173
|  9>  C       -0.8448802696    -2.3036685677     2.0440933851
| 10>  C       -1.0221017879    -2.8345288666     3.1082323071
| 11>  C        1.7204417896    -0.7811692875     1.0323810334
| 12>  C        2.1724117911    -0.8164385336     2.4764704763
| 13>  O        2.4558645973    -1.0312003717     0.1074699121
| 14>  H        1.7819264748     1.3634809364    -0.6322839499
| 15>  H        0.3852438478     1.8213161936    -1.6370280293
| 16>  H        0.3627484518     2.1630710933     0.1123558141
| 17>  H       -0.0988592689     0.2819215699     1.5728117935
| 18>  H       -1.6190797082    -1.3387948899     0.3498849786
| 19>  H       -0.2254846420    -2.3612734756     0.0289531039
| 20>  H       -1.1842693796    -3.3131545240     4.0422861246
| 21>  H        2.1512406255     0.1989489796     2.8908914240
| 22>  H        1.4872765558    -1.4204012222     3.0794580869
| 23>  H        3.1869494532    -1.2122760003     2.5369448336
| 24> *
| 25>
| 26>                          ****END OF INPUT****

CARTESIAN COORDINATES (ANGSTROEM)
---------------------------------
  C      0.688906    1.446093   -0.657393
  O      0.060394    0.190491   -0.490214
  C      0.244105   -0.394680    0.771846
  C     -0.652108   -1.658423    0.754066
  C     -0.844880   -2.303669    2.044093
  C     -1.022102   -2.834529    3.108232
  C      1.720442   -0.781169    1.032381
  C      2.172412   -0.816439    2.476470
  O      2.455865   -1.031200    0.107470
  H      1.781926    1.363481   -0.632284
  H      0.385244    1.821316   -1.637028
  H      0.362748    2.163071    0.112356
  H     -0.098859    0.281922    1.572812
  H     -1.619080   -1.338795    0.349885
  H     -0.225485   -2.361273    0.028953
  H     -1.184269   -3.313155    4.042286
  H      2.151241    0.198949    2.890891
  H      1.487277   -1.420401    3.079458
  H      3.186949   -1.212276    2.536945

 Total Charge           Charge          ....    0
 Multiplicity           Mult            ....    1
 Number of Electrons    NEL             ....   68
 Basis Dimension        Dim             ....  339

ORBITAL ENERGIES
----------------

  NO   OCC          E(Eh)            E(eV)
   0   2.0000     -20.567995      -559.6836
   1   2.0000     -20.550185      -559.1990
   2   2.0000     -11.333815      -308.4088
   3   2.0000     -11.307313      -307.6876
   4   2.0000     -11.274947      -306.8069
   5   2.0000     -11.265424      -306.5478
   6   2.0000     -11.246647      -306.0368
   7   2.0000     -11.235690      -305.7387
   8   2.0000     -11.233409      -305.6766
   9   2.0000      -1.406612       -38.2759
  10   2.0000      -1.378711       -37.5166
  11   2.0000      -1.098993       -29.9051
  12   2.0000      -1.029708       -28.0198
  13   2.0000      -1.000974       -27.2379
  14   2.0000      -0.933189       -25.3934
  15   2.0000      -0.884899       -24.0793
  16   2.0000      -0.755431       -20.5563
  17   2.0000      -0.733556       -19.9611
  18   2.0000      -0.694498       -18.8983
  19   2.0000      -0.680704       -18.5229
  20   2.0000      -0.659312       -17.9408
  21   2.0000      -0.619945       -16.8696
  22   2.0000      -0.615681       -16.7535
  23   2.0000      -0.611318       -16.6348
  24   2.0000      -0.588228       -16.0065
  25   2.0000      -0.582506       -15.8508
  26   2.0000      -0.550263       -14.9734
  27   2.0000      -0.537346       -14.6219
  28   2.0000      -0.502894       -13.6844
  29   2.0000      -0.491678       -13.3792
  30   2.0000      -0.457416       -12.4469
  31   2.0000      -0.409500       -11.1431
  32   2.0000      -0.398179       -10.8350
  33   2.0000      -0.392645       -10.6844
  34   0.0000       0.123634         3.3643
  35   0.0000       0.139534         3.7969
  36   0.0000       0.156937         4.2705
  37   0.0000       0.159878         4.3505
  38   0.0000       0.168436         4.5834

MULLIKEN ATOMIC CHARGES
-----------------------
   0 C :   -0.236563
   1 O :   -0.283395
   2 C :    0.098817
   3 C :   -0.241413
   4 C :   -0.092847
   5 C :   -0.177109
   6 C :    0.173532
   7 C :   -0.439324
   8 O :   -0.269433
   9 H :    0.140274
  10 H :    0.143910
  11 H :    0.110054
  12 H :    0.100106
  13 H :    0.158379
  14 H :    0.163030
  15 H :    0.192031
  16 H :    0.143752
  17 H :    0.165660
  18 H :    0.150540
Sum of atomic charges:    0.0000000

LOEWDIN ATOMIC CHARGES
----------------------
   0 C :   -0.345867
   1 O :    0.175309
   2 C :   -0.299284
   3 C :   -0.214362
   4 C :   -0.114792
   5 C :   -0.103723
   6 C :   -0.335629
   7 C :   -0.277131
   8 O :    0.164831
   9 H :    0.108582
  10 H :    0.116270
  11 H :    0.101755
  12 H :    0.145042
  13 H :    0.167773
  14 H :    0.167730
  15 H :    0.127919
  16 H :    0.138951
  17 H :    0.142740
  18 H :    0.133886

  Mayer bond orders larger than 0.1
B(  0-C ,  1-O ) :   0.8988 B(  0-C ,  9-H ) :   0.9331 B(  0-C , 10-H ) :   0.9409
B(  0-C , 11-H ) :   0.9306 B(  1-O ,  2-C ) :   1.0095 B(  2-C ,  3-C ) :   0.8856
B(  2-C ,  6-C ) :   0.8301 B(  2-C , 12-H ) :   0.9275 B(  3-C ,  4-C ) :   1.0278
B(  3-C , 13-H ) :   0.9167 B(  3-C , 14-H ) :   0.9203 B(  4-C ,  5-C ) :   2.6355
B(  5-C , 15-H ) :   0.9071 B(  6-C ,  7-C ) :   0.9149 B(  6-C ,  8-O ) :   2.0138
B(  7-C , 16-H ) :   0.9124 B(  7-C , 17-H ) :   0.9035 B(  7-C , 18-H ) :   0.9371

MP2 TOTAL ENERGY:     -422.278387265 Eh
FINAL SINGLE POINT ENERGY      -422.278387265216

DIPOLE MOMENT
-------------
                                X             Y             Z
Electronic contribution:     -0.67691      -3.75873      -1.67267
Nuclear contribution   :      0.34134       4.27631       2.56504
                        -----------------------------------------
Total Dipole Moment    :     -0.33557       0.51758       0.89236
                        -----------------------------------------
Magnitude (a.u.)       :      1.08481
Magnitude (Debye)      :      2.75736

                             ****ORCA TERMINATED NORMALLY****
TOTAL RUN TIME: 0 days 0 hours 17 minutes 6 seconds 179 msec
