                         Program Version 3.0.3 - RELEASE   -
|  1> ! RI-MP2 RIJK def2-TZVP def2-TZVP/C def2-TZVP/JK TIGHTSCF
|  2> % maxcore 2000
|  3> % mp2 density relaxed end
|  4> *xyz 0 1
|  5>  C        0.0909892676    -1.1908145034    -0.0207871191
|  6>  C        0.0012285123     0.0107549298     0.0003561847
|  7>  C       -0.0476717993     1.4231542692     0.0054654214
|  8>  C       -1.1370410902     2.2099521354     0.0864299016
|  9>  C       -0.7951361076     3.6810151209     0.0273744258
| 10>  C        0.7278297566     3.6826169961    -0.0246693911
| 11>  O        1.3507841783     3.1020930851     1.1232906601
| 12>  C        1.1868365070     2.2843951464    -0.0509831536
| 13>  H        0.1567535334    -2.2505437893    -0.0287416113
| 14>  H       -2.1499081475     1.8457051918     0.2084797923
| 15>  H       -1.2250826054     4.1605654745    -0.8619355074
| 16>  H       -1.1730058659     4.2307752322     0.8981694491
| 17>  H        1.2711998299     4.4993112380    -0.4913986923
| 18>  H        2.1031202508     1.9352103833    -0.5156023700
| 19> *
| 20>
| 21>                          ****END OF INPUT****

CARTESIAN COORDINATES (ANGSTROEM)
---------------------------------
  C      0.090989   -1.190815   -0.020787
  C      0.001229    0.010755    0.000356
  C     -0.047672    1.423154    0.005465
  C     -1.137041    2.209952    0.086430
  C     -0.795136    3.681015    0.027374
  C      0.727830    3.682617   -0.024669
  O      1.350784    3.102093    1.123291
  C      1.186837    2.284395   -0.050983
  H      0.156754   -2.250544   -0.028742
  H     -2.149908    1.845705    0.208480
  H     -1.225083    4.160565   -0.861936
  H     -1.173006    4.230775    0.898169
  H      1.271200    4.499311   -0.491399
  H      2.103120    1.935210   -0.515602

 Total Charge           Charge          ....    0
 Multiplicity           Mult            ....    1
 Number of Electrons    NEL             ....   56
 Basis Dimension        Dim             ....  284

ORBITAL ENERGIES
----------------

  NO   OCC          E(Eh)            E(eV)
   0   2.0000     -20.570634      -559.7554
   1   2.0000     -11.295667      -307.3707
   2   2.0000     -11.292583      -307.2868
   3   2.0000     -11.261541      -306.4421
   4   2.0000     -11.256610      -306.3079
   5   2.0000     -11.248030      -306.0745
   6   2.0000     -11.242343      -305.9197
   7   2.0000     -11.232797      -305.6599
   8   2.0000      -1.417288       -38.5664
   9   2.0000      -1.134628       -30.8748
  10   2.0000      -1.046113       -28.4662
  11   2.0000      -0.978987       -26.6396
  12   2.0000      -0.922220       -25.0949
  13   2.0000      -0.815710       -22.1966
  14   2.0000      -0.804140       -21.8818
  15   2.0000      -0.744913       -20.2701
  16   2.0000      -0.706846       -19.2343
  17   2.0000      -0.651580       -17.7304
  18   2.0000      -0.610019       -16.5995
  19   2.0000      -0.587167       -15.9776
  20   2.0000      -0.570248       -15.5172
  21   2.0000      -0.549701       -14.9581
  22   2.0000      -0.537294       -14.6205
  23   2.0000      -0.469306       -12.7705
  24   2.0000      -0.447278       -12.1711
  25   2.0000      -0.433663       -11.8006
  26   2.0000      -0.393303       -10.7023
  27   2.0000      -0.333594        -9.0776
  28   0.0000       0.096621         2.6292
  29   0.0000       0.145420         3.9571
  30   0.0000       0.163152         4.4396
  31   0.0000       0.173249         4.7144
  32   0.0000       0.176650         4.8069

MULLIKEN ATOMIC CHARGES
-----------------------
   0 C :   -0.128234
   1 C :    0.071040
   2 C :   -0.079888
   3 C :   -0.252077
   4 C :   -0.107600
   5 C :   -0.021064
   6 O :   -0.311805
   7 C :   -0.027522
   8 H :    0.195038
   9 H :    0.143663
  10 H :    0.123769
  11 H :    0.132900
  12 H :    0.128372
  13 H :    0.133409
Sum of atomic charges:    0.0000000

LOEWDIN ATOMIC CHARGES
----------------------
   0 C :   -0.071524
   1 C :   -0.070871
   2 C :   -0.144651
   3 C :   -0.076629
   4 C :   -0.219903
   5 C :   -0.244544
   6 O :    0.173809
   7 C :   -0.195865
   8 H :    0.128511
   9 H :    0.143906
  10 H :    0.148448
  11 H :    0.152617
  12 H :    0.135241
  13 H :    0.141453

  Mayer bond orders larger than 0.1
B(  0-C ,  1-C ) :   2.5672 B(  0-C ,  2-C ) :  -0.1633 B(  0-C ,  8-H ) :   0.8810
B(  1-C ,  2-C ) :   1.1702 B(  2-C ,  3-C ) :   1.6432 B(  2-C ,  7-C ) :   0.8722
B(  3-C ,  4-C ) :   0.9562 B(  3-C ,  9-H ) :   0.9173 B(  4-C ,  5-C ) :   0.9426
B(  4-C , 10-H ) :   0.8952 B(  4-C , 11-H ) :   0.8967 B(  5-C ,  6-O ) :   0.9337
B(  5-C ,  7-C ) :   0.9783 B(  5-C , 12-H ) :   0.9274 B(  6-O ,  7-C ) :   0.9251
B(  7-C , 13-H ) :   0.9324

MP2 TOTAL ENERGY:     -344.738517019 Eh
FINAL SINGLE POINT ENERGY      -344.738517018886

DIPOLE MOMENT
-------------
                                X             Y             Z
Electronic contribution:      1.68120      -2.24622       1.00660
Nuclear contribution   :     -2.04615       2.43311      -1.65367
                        -----------------------------------------
Total Dipole Moment    :     -0.36495       0.18689      -0.64707
                        -----------------------------------------
Magnitude (a.u.)       :      0.76604
Magnitude (Debye)      :      1.94711

                             ****ORCA TERMINATED NORMALLY****
TOTAL RUN TIME: 0 days 0 hours 18 minutes 28 seconds 863 msec
