                         Program Version 3.0.3 - RELEASE   -
|  1> ! RI-MP2 RIJK def2-TZVP def2-TZVP/C def2-TZVP/JK TIGHTSCF
|  2> % maxcore 2000
|  3> % mp2 density relaxed end
|  4> *xyz 0 1
|  5>  C        0.0860355552     1.5274799114     0.0392590210
|  6>  C       -0.0369046482     0.0431799795     0.0258658410
|  7>  C       -1.1793434631    -0.6733990318    -0.0858882718
|  8>  O       -2.3949967499    -0.1066443231    -0.2034466204
|  9>  C       -1.1818133931    -2.1392558279    -0.0876176038
| 10>  O       -2.2612612620    -2.7283131031    -0.1930934645
| 11>  C        0.1280568710    -2.7351456080     0.0390576577
| 12>  C        1.2135381661    -1.9408170475     0.1453662557
| 13>  O        1.1664463579    -0.6021628920     0.1421584178
| 14>  H        0.7154235734     1.8764117581    -0.7870170614
| 15>  H       -0.9030273638     1.9764511509    -0.0564611273
| 16>  H        0.5444249122     1.8746934271     0.9719607560
| 17>  H       -2.9922162923    -0.8812484826    -0.2623497014
| 18>  H        0.2341653373    -3.8122959906     0.0482723041
| 19>  H        2.2316018392    -2.2970568201     0.2439442274
| 20> *
| 21>
| 22>                          ****END OF INPUT****

CARTESIAN COORDINATES (ANGSTROEM)
---------------------------------
  C      0.086036    1.527480    0.039259
  C     -0.036905    0.043180    0.025866
  C     -1.179343   -0.673399   -0.085888
  O     -2.394997   -0.106644   -0.203447
  C     -1.181813   -2.139256   -0.087618
  O     -2.261261   -2.728313   -0.193093
  C      0.128057   -2.735146    0.039058
  C      1.213538   -1.940817    0.145366
  O      1.166446   -0.602163    0.142158
  H      0.715424    1.876412   -0.787017
  H     -0.903027    1.976451   -0.056461
  H      0.544425    1.874693    0.971961
  H     -2.992216   -0.881248   -0.262350
  H      0.234165   -3.812296    0.048272
  H      2.231602   -2.297057    0.243944

 Total Charge           Charge          ....    0
 Multiplicity           Mult            ....    1
 Number of Electrons    NEL             ....   66
 Basis Dimension        Dim             ....  315

ORBITAL ENERGIES
----------------

  NO   OCC          E(Eh)            E(eV)
   0   2.0000     -20.651528      -561.9566
   1   2.0000     -20.583214      -560.0977
   2   2.0000     -20.536868      -558.8366
   3   2.0000     -11.345518      -308.7272
   4   2.0000     -11.338702      -308.5418
   5   2.0000     -11.326340      -308.2054
   6   2.0000     -11.301223      -307.5219
   7   2.0000     -11.250812      -306.1502
   8   2.0000     -11.245098      -305.9947
   9   2.0000      -1.486746       -40.4564
  10   2.0000      -1.419332       -38.6220
  11   2.0000      -1.364964       -37.1426
  12   2.0000      -1.103242       -30.0208
  13   2.0000      -1.093526       -29.7564
  14   2.0000      -0.978174       -26.6175
  15   2.0000      -0.897005       -24.4087
  16   2.0000      -0.850654       -23.1475
  17   2.0000      -0.768001       -20.8984
  18   2.0000      -0.744711       -20.2646
  19   2.0000      -0.698714       -19.0130
  20   2.0000      -0.679005       -18.4767
  21   2.0000      -0.649652       -17.6779
  22   2.0000      -0.623745       -16.9730
  23   2.0000      -0.608121       -16.5478
  24   2.0000      -0.595103       -16.1936
  25   2.0000      -0.584231       -15.8977
  26   2.0000      -0.579033       -15.7563
  27   2.0000      -0.559678       -15.2296
  28   2.0000      -0.534321       -14.5396
  29   2.0000      -0.529492       -14.4082
  30   2.0000      -0.436293       -11.8721
  31   2.0000      -0.388174       -10.5628
  32   2.0000      -0.340376        -9.2621
  33   0.0000       0.085084         2.3153
  34   0.0000       0.134967         3.6726
  35   0.0000       0.140918         3.8346
  36   0.0000       0.154587         4.2065
  37   0.0000       0.185140         5.0379

MULLIKEN ATOMIC CHARGES
-----------------------
   0 C :   -0.427140
   1 C :    0.182148
   2 C :    0.054462
   3 O :   -0.438960
   4 C :    0.281600
   5 O :   -0.408461
   6 C :   -0.237919
   7 C :    0.055342
   8 O :   -0.199440
   9 H :    0.151007
  10 H :    0.176742
  11 H :    0.151007
  12 H :    0.354087
  13 H :    0.150441
  14 H :    0.155081
Sum of atomic charges:   -0.0000000

LOEWDIN ATOMIC CHARGES
----------------------
   0 C :   -0.260628
   1 C :   -0.234446
   2 C :   -0.261159
   3 O :    0.085241
   4 C :   -0.347675
   5 O :    0.070904
   6 C :   -0.139459
   7 C :   -0.213391
   8 O :    0.363671
   9 H :    0.138274
  10 H :    0.146038
  11 H :    0.138273
  12 H :    0.209686
  13 H :    0.160150
  14 H :    0.144520

  Mayer bond orders larger than 0.1
B(  0-C ,  1-C ) :   0.8785 B(  0-C ,  9-H ) :   0.9285 B(  0-C , 10-H ) :   0.9389
B(  0-C , 11-H ) :   0.9285 B(  1-C ,  2-C ) :   1.5154 B(  1-C ,  8-O ) :   0.9858
B(  2-C ,  3-O ) :   1.1212 B(  2-C ,  4-C ) :   0.9932 B(  3-O , 12-H ) :   0.7725
B(  4-C ,  5-O ) :   1.7107 B(  4-C ,  6-C ) :   1.1300 B(  6-C ,  7-C ) :   1.5477
B(  6-C , 13-H ) :   0.8976 B(  7-C ,  8-O ) :   1.0979 B(  7-C , 14-H ) :   0.9314

MP2 TOTAL ENERGY:     -457.072770059 Eh
FINAL SINGLE POINT ENERGY      -457.072770059415

DIPOLE MOMENT
-------------
                                X             Y             Z
Electronic contribution:     -1.57682      -4.07635      -0.15719
Nuclear contribution   :      2.83312       4.49311       0.27962
                        -----------------------------------------
Total Dipole Moment    :      1.25630       0.41677       0.12243
                        -----------------------------------------
Magnitude (a.u.)       :      1.32928
Magnitude (Debye)      :      3.37875

                             ****ORCA TERMINATED NORMALLY****
TOTAL RUN TIME: 0 days 0 hours 14 minutes 39 seconds 457 msec
