                         Program Version 3.0.3 - RELEASE   -
|  1> ! RI-MP2 RIJK def2-TZVP def2-TZVP/C def2-TZVP/JK TIGHTSCF
|  2> % maxcore 2000
|  3> % mp2 density relaxed end
|  4> *xyz 0 1
|  5>  C        0.1846963726     1.4563222713     0.1527394531
|  6>  C       -0.1792608197    -0.0134307058    -0.0910351884
|  7>  C        0.5792407674    -0.5901175777    -1.2681435896
|  8>  C        1.9264271359    -1.2240411881    -1.1785231253
|  9>  N        2.0734112887    -1.9297149941     0.1028675470
| 10>  C        0.9890467083    -2.8881108141    -0.2893725754
| 11>  C        0.6986118745    -2.0847244906    -1.5701553443
| 12>  C        0.3118147143    -2.6511927948    -2.8149382602
| 13>  N        0.0017795161    -3.1199867353    -3.8283702382
| 14>  H        1.2508333299     1.5626243931     0.3771010776
| 15>  H       -0.0366565235     2.0741107697    -0.7245254883
| 16>  H       -0.3786087996     1.8633631069     0.9975495558
| 17>  H        0.0436274621    -0.5940391577     0.8081874125
| 18>  H       -1.2556319096    -0.1060987856    -0.2787339603
| 19>  H        0.4588502726    -0.0317326676    -2.1950276321
| 20>  H        2.7781916093    -0.9320486886    -1.7815006450
| 21>  H        2.9661618086    -2.4059108875     0.1600313191
| 22>  H        1.3697402395    -3.8841181663    -0.5283323439
| 23>  H        0.1776143428    -2.9738281872     0.4399776560
| 24> *
| 25>
| 26>                          ****END OF INPUT****

CARTESIAN COORDINATES (ANGSTROEM)
---------------------------------
  C      0.184696    1.456322    0.152739
  C     -0.179261   -0.013431   -0.091035
  C      0.579241   -0.590118   -1.268144
  C      1.926427   -1.224041   -1.178523
  N      2.073411   -1.929715    0.102868
  C      0.989047   -2.888111   -0.289373
  C      0.698612   -2.084724   -1.570155
  C      0.311815   -2.651193   -2.814938
  N      0.001780   -3.119987   -3.828370
  H      1.250833    1.562624    0.377101
  H     -0.036657    2.074111   -0.724525
  H     -0.378609    1.863363    0.997550
  H      0.043627   -0.594039    0.808187
  H     -1.255632   -0.106099   -0.278734
  H      0.458850   -0.031733   -2.195028
  H      2.778192   -0.932049   -1.781501
  H      2.966162   -2.405911    0.160031
  H      1.369740   -3.884118   -0.528332
  H      0.177614   -2.973828    0.439978

 Total Charge           Charge          ....    0
 Multiplicity           Mult            ....    1
 Number of Electrons    NEL             ....   66
 Basis Dimension        Dim             ....  339

ORBITAL ENERGIES
----------------

  NO   OCC          E(Eh)            E(eV)
   0   2.0000     -15.571939      -423.7340
   1   2.0000     -15.565557      -423.5603
   2   2.0000     -11.298122      -307.4375
   3   2.0000     -11.285897      -307.1049
   4   2.0000     -11.282471      -307.0116
   5   2.0000     -11.272245      -306.7334
   6   2.0000     -11.263977      -306.5084
   7   2.0000     -11.233581      -305.6813
   8   2.0000     -11.222317      -305.3748
   9   2.0000      -1.291167       -35.1344
  10   2.0000      -1.211471       -32.9658
  11   2.0000      -1.113792       -30.3078
  12   2.0000      -1.036657       -28.2089
  13   2.0000      -0.969059       -26.3694
  14   2.0000      -0.887656       -24.1544
  15   2.0000      -0.846587       -23.0368
  16   2.0000      -0.784165       -21.3382
  17   2.0000      -0.750231       -20.4148
  18   2.0000      -0.657927       -17.9031
  19   2.0000      -0.647253       -17.6127
  20   2.0000      -0.620187       -16.8762
  21   2.0000      -0.599226       -16.3058
  22   2.0000      -0.565472       -15.3873
  23   2.0000      -0.559367       -15.2212
  24   2.0000      -0.549318       -14.9477
  25   2.0000      -0.532319       -14.4851
  26   2.0000      -0.516346       -14.0505
  27   2.0000      -0.500322       -13.6145
  28   2.0000      -0.492469       -13.4008
  29   2.0000      -0.487137       -13.2557
  30   2.0000      -0.440430       -11.9847
  31   2.0000      -0.410966       -11.1830
  32   2.0000      -0.367209        -9.9923
  33   0.0000       0.120422         3.2768
  34   0.0000       0.136249         3.7075
  35   0.0000       0.142423         3.8755
  36   0.0000       0.150861         4.1051
  37   0.0000       0.178025         4.8443

MULLIKEN ATOMIC CHARGES
-----------------------
   0 C :   -0.412803
   1 C :   -0.195625
   2 C :   -0.127973
   3 C :   -0.026643
   4 N :   -0.356204
   5 C :   -0.148601
   6 C :    0.141251
   7 C :   -0.262226
   8 N :   -0.053458
   9 H :    0.136915
  10 H :    0.124254
  11 H :    0.137532
  12 H :    0.131136
  13 H :    0.124145
  14 H :    0.142752
  15 H :    0.151528
  16 H :    0.216122
  17 H :    0.150550
  18 H :    0.127348
Sum of atomic charges:    0.0000000

LOEWDIN ATOMIC CHARGES
----------------------
   0 C :   -0.309937
   1 C :   -0.263802
   2 C :   -0.156361
   3 C :   -0.167784
   4 N :   -0.004387
   5 C :   -0.197451
   6 C :   -0.186607
   7 C :   -0.171326
   8 N :    0.060608
   9 H :    0.124749
  10 H :    0.120908
  11 H :    0.122896
  12 H :    0.147871
  13 H :    0.141849
  14 H :    0.169981
  15 H :    0.138669
  16 H :    0.167468
  17 H :    0.135692
  18 H :    0.126964

  Mayer bond orders larger than 0.1
B(  0-C ,  1-C ) :   0.9199 B(  0-C ,  9-H ) :   0.9410 B(  0-C , 10-H ) :   0.9377
B(  0-C , 11-H ) :   0.9395 B(  1-C ,  2-C ) :   0.8955 B(  1-C , 12-H ) :   0.9220
B(  1-C , 13-H ) :   0.9307 B(  2-C ,  3-C ) :   0.9446 B(  2-C ,  6-C ) :   0.8145
B(  2-C , 14-H ) :   0.9256 B(  3-C ,  4-N ) :   0.9720 B(  3-C ,  6-C ) :   0.7926
B(  3-C , 15-H ) :   0.9004 B(  4-N ,  5-C ) :   0.9130 B(  4-N , 16-H ) :   0.8741
B(  5-C ,  6-C ) :   0.9126 B(  5-C , 17-H ) :   0.9196 B(  5-C , 18-H ) :   0.9222
B(  6-C ,  7-C ) :   0.9127 B(  7-C ,  8-N ) :   2.8796

MP2 TOTAL ENERGY:     -381.363101781 Eh
FINAL SINGLE POINT ENERGY      -381.363101781329

DIPOLE MOMENT
-------------
                                X             Y             Z
Electronic contribution:      0.72923      -7.64762      -7.07188
Nuclear contribution   :     -0.04178       8.12179       8.16476
                        -----------------------------------------
Total Dipole Moment    :      0.68744       0.47417       1.09288
                        -----------------------------------------
Magnitude (a.u.)       :      1.37543
Magnitude (Debye)      :      3.49606

                             ****ORCA TERMINATED NORMALLY****
TOTAL RUN TIME: 0 days 0 hours 29 minutes 53 seconds 226 msec
