                         Program Version 3.0.3 - RELEASE   -
|  1> ! RI-MP2 RIJK def2-TZVP def2-TZVP/C def2-TZVP/JK TIGHTSCF
|  2> % maxcore 2000
|  3> % mp2 density relaxed end
|  4> *xyz 0 1
|  5>  C       -0.0241441068    -1.1470752225    -0.0234563920
|  6>  C       -0.0365636758     0.0561607840    -0.0121091348
|  7>  C       -0.0191312080     1.4732297691     0.0088640856
|  8>  O       -1.0894068808     2.2093189721     0.6168071107
|  9>  C       -0.7661980581     3.3581640062    -0.2290612334
| 10>  C        0.1271182447     4.2669047588     0.6005733418
| 11>  O        1.2694521234     3.4443359570     0.8929121543
| 12>  C        1.2413611564     2.3606082340     0.0073049449
| 13>  C        0.2207876141     2.5198390040    -1.0716713804
| 14>  H       -0.0191706163    -2.2089793557    -0.0310630250
| 15>  H       -1.6485200333     3.8030122406    -0.6884876082
| 16>  H        0.4321289740     5.1691111665     0.0491715698
| 17>  H       -0.3466896381     4.5545077105     1.5428808722
| 18>  H        2.2050082129     1.8977819480    -0.1632395635
| 19>  H        0.3344427817     2.4557675774    -2.1446458520
| 20> *
| 21>
| 22>                          ****END OF INPUT****

CARTESIAN COORDINATES (ANGSTROEM)
---------------------------------
  C     -0.024144   -1.147075   -0.023456
  C     -0.036564    0.056161   -0.012109
  C     -0.019131    1.473230    0.008864
  O     -1.089407    2.209319    0.616807
  C     -0.766198    3.358164   -0.229061
  C      0.127118    4.266905    0.600573
  O      1.269452    3.444336    0.892912
  C      1.241361    2.360608    0.007305
  C      0.220788    2.519839   -1.071671
  H     -0.019171   -2.208979   -0.031063
  H     -1.648520    3.803012   -0.688488
  H      0.432129    5.169111    0.049172
  H     -0.346690    4.554508    1.542881
  H      2.205008    1.897782   -0.163240
  H      0.334443    2.455768   -2.144646

 Total Charge           Charge          ....    0
 Multiplicity           Mult            ....    1
 Number of Electrons    NEL             ....   64
 Basis Dimension        Dim             ....  315

ORBITAL ENERGIES
----------------

  NO   OCC          E(Eh)            E(eV)
   0   2.0000     -20.571033      -559.7663
   1   2.0000     -20.569385      -559.7214
   2   2.0000     -11.323057      -308.1160
   3   2.0000     -11.308081      -307.7085
   4   2.0000     -11.305872      -307.6484
   5   2.0000     -11.288366      -307.1721
   6   2.0000     -11.256543      -306.3061
   7   2.0000     -11.245216      -305.9979
   8   2.0000     -11.238522      -305.8157
   9   2.0000      -1.435117       -39.0515
  10   2.0000      -1.368954       -37.2511
  11   2.0000      -1.130952       -30.7748
  12   2.0000      -1.052807       -28.6483
  13   2.0000      -1.017057       -27.6755
  14   2.0000      -0.898168       -24.4404
  15   2.0000      -0.823693       -22.4138
  16   2.0000      -0.801495       -21.8098
  17   2.0000      -0.757180       -20.6039
  18   2.0000      -0.713627       -19.4188
  19   2.0000      -0.692628       -18.8474
  20   2.0000      -0.663753       -18.0616
  21   2.0000      -0.634895       -17.2764
  22   2.0000      -0.594951       -16.1895
  23   2.0000      -0.578698       -15.7472
  24   2.0000      -0.556393       -15.1402
  25   2.0000      -0.518936       -14.1210
  26   2.0000      -0.503675       -13.7057
  27   2.0000      -0.489270       -13.3137
  28   2.0000      -0.442545       -12.0423
  29   2.0000      -0.422382       -11.4936
  30   2.0000      -0.394343       -10.7306
  31   2.0000      -0.349720        -9.5164
  32   0.0000       0.140637         3.8269
  33   0.0000       0.146513         3.9868
  34   0.0000       0.156453         4.2573
  35   0.0000       0.164543         4.4774
  36   0.0000       0.169396         4.6095

MULLIKEN ATOMIC CHARGES
-----------------------
   0 C :   -0.064790
   1 C :   -0.039233
   2 C :   -0.001681
   3 O :   -0.309575
   4 C :    0.044988
   5 C :   -0.024705
   6 O :   -0.305967
   7 C :    0.034950
   8 C :   -0.199079
   9 H :    0.198431
  10 H :    0.140870
  11 H :    0.096465
  12 H :    0.124298
  13 H :    0.143115
  14 H :    0.161914
Sum of atomic charges:   -0.0000000

LOEWDIN ATOMIC CHARGES
----------------------
   0 C :   -0.061578
   1 C :   -0.067021
   2 C :   -0.249289
   3 O :    0.201911
   4 C :   -0.226810
   5 C :   -0.262251
   6 O :    0.187835
   7 C :   -0.227723
   8 C :   -0.118757
   9 H :    0.129734
  10 H :    0.141760
  11 H :    0.125518
  12 H :    0.135126
  13 H :    0.150771
  14 H :    0.140774

  Mayer bond orders larger than 0.1
B(  0-C ,  1-C ) :   2.5988 B(  0-C ,  2-C ) :  -0.1803 B(  0-C ,  9-H ) :   0.8663
B(  1-C ,  2-C ) :   1.2745 B(  2-C ,  3-O ) :   0.9950 B(  2-C ,  7-C ) :   0.7914
B(  2-C ,  8-C ) :   0.7938 B(  3-O ,  4-C ) :   0.8828 B(  4-C ,  5-C ) :   0.9887
B(  4-C ,  8-C ) :   0.9271 B(  4-C , 10-H ) :   0.8973 B(  5-C ,  6-O ) :   0.9315
B(  5-C , 11-H ) :   0.9148 B(  5-C , 12-H ) :   0.9062 B(  6-O ,  7-C ) :   0.9751
B(  7-C ,  8-C ) :   0.8942 B(  7-C , 13-H ) :   0.9264 B(  8-C , 14-H ) :   0.8822

MP2 TOTAL ENERGY:     -419.819194392 Eh
FINAL SINGLE POINT ENERGY      -419.819194392367

DIPOLE MOMENT
-------------
                                X             Y             Z
Electronic contribution:     -0.25375      -2.44313       1.05983
Nuclear contribution   :      0.30887       2.69029      -1.97600
                        -----------------------------------------
Total Dipole Moment    :      0.05512       0.24716      -0.91617
                        -----------------------------------------
Magnitude (a.u.)       :      0.95052
Magnitude (Debye)      :      2.41604

                             ****ORCA TERMINATED NORMALLY****
TOTAL RUN TIME: 0 days 0 hours 16 minutes 3 seconds 258 msec
