                         Program Version 3.0.3 - RELEASE   -
|  1> ! RI-MP2 RIJK def2-TZVP def2-TZVP/C def2-TZVP/JK TIGHTSCF
|  2> % maxcore 2000
|  3> % mp2 density relaxed end
|  4> *xyz 0 1
|  5>  C        0.2395806264     1.5414373018    -0.0790772622
|  6>  C       -0.0332644727     0.0363720807     0.0904395512
|  7>  C        0.5687770542    -0.5462827133     1.3168316366
|  8>  C        0.1085528122    -1.1302412105     2.4440823703
|  9>  N        1.1690682529    -1.4987847653     3.2746603153
| 10>  C        2.2133959980    -1.1096937429     2.6136085382
| 11>  N        3.5300642177    -1.1575936344     3.0052035479
| 12>  O        1.9583992809    -0.5259719737     1.4214452940
| 13>  H        1.3144331426     1.7380891841    -0.1235515024
| 14>  H       -0.2138161731     1.9155481337    -1.0019749297
| 15>  H       -0.1712894333     2.1087141936     0.7613262881
| 16>  H       -1.1119283107    -0.1473499039     0.1363167892
| 17>  H        0.3349218375    -0.4990344576    -0.7953056089
| 18>  H       -0.9158632159    -1.3234112307     2.7222362013
| 19>  H        3.6841949227    -1.8151769151     3.7555055165
| 20>  H        4.1899626506    -1.2563239466     2.2472687147
| 21> *
| 22>
| 23>                          ****END OF INPUT****

CARTESIAN COORDINATES (ANGSTROEM)
---------------------------------
  C      0.239581    1.541437   -0.079077
  C     -0.033264    0.036372    0.090440
  C      0.568777   -0.546283    1.316832
  C      0.108553   -1.130241    2.444082
  N      1.169068   -1.498785    3.274660
  C      2.213396   -1.109694    2.613609
  N      3.530064   -1.157594    3.005204
  O      1.958399   -0.525972    1.421445
  H      1.314433    1.738089   -0.123552
  H     -0.213816    1.915548   -1.001975
  H     -0.171289    2.108714    0.761326
  H     -1.111928   -0.147350    0.136317
  H      0.334922   -0.499034   -0.795306
  H     -0.915863   -1.323411    2.722236
  H      3.684195   -1.815177    3.755506
  H      4.189963   -1.256324    2.247269

 Total Charge           Charge          ....    0
 Multiplicity           Mult            ....    1
 Number of Electrons    NEL             ....   60
 Basis Dimension        Dim             ....  296

ORBITAL ENERGIES
----------------

  NO   OCC          E(Eh)            E(eV)
   0   2.0000     -20.623366      -561.1903
   1   2.0000     -15.586088      -424.1190
   2   2.0000     -15.537836      -422.8060
   3   2.0000     -11.363583      -309.2188
   4   2.0000     -11.279446      -306.9293
   5   2.0000     -11.247477      -306.0594
   6   2.0000     -11.240506      -305.8697
   7   2.0000     -11.219889      -305.3087
   8   2.0000      -1.477444       -40.2033
   9   2.0000      -1.245610       -33.8948
  10   2.0000      -1.201145       -32.6848
  11   2.0000      -1.070416       -29.1275
  12   2.0000      -0.976700       -26.5773
  13   2.0000      -0.868783       -23.6408
  14   2.0000      -0.829497       -22.5717
  15   2.0000      -0.782936       -21.3048
  16   2.0000      -0.728828       -19.8324
  17   2.0000      -0.683559       -18.6006
  18   2.0000      -0.664552       -18.0834
  19   2.0000      -0.629370       -17.1260
  20   2.0000      -0.600492       -16.3402
  21   2.0000      -0.588247       -16.0070
  22   2.0000      -0.570380       -15.5208
  23   2.0000      -0.533863       -14.5272
  24   2.0000      -0.513821       -13.9818
  25   2.0000      -0.500538       -13.6203
  26   2.0000      -0.489598       -13.3226
  27   2.0000      -0.445315       -12.1176
  28   2.0000      -0.435469       -11.8497
  29   2.0000      -0.303099        -8.2477
  30   0.0000       0.129675         3.5286
  31   0.0000       0.143244         3.8979
  32   0.0000       0.168384         4.5820
  33   0.0000       0.180024         4.8987
  34   0.0000       0.189937         5.1685

MULLIKEN ATOMIC CHARGES
-----------------------
   0 C :   -0.378203
   1 C :   -0.216339
   2 C :    0.142644
   3 C :   -0.151870
   4 N :   -0.312570
   5 C :    0.358453
   6 N :   -0.511039
   7 O :   -0.250146
   8 H :    0.135116
   9 H :    0.130806
  10 H :    0.129776
  11 H :    0.129563
  12 H :    0.124375
  13 H :    0.135991
  14 H :    0.270828
  15 H :    0.262615
Sum of atomic charges:   -0.0000000

LOEWDIN ATOMIC CHARGES
----------------------
   0 C :   -0.307341
   1 C :   -0.263299
   2 C :   -0.253664
   3 C :   -0.235788
   4 N :    0.081034
   5 C :   -0.465133
   6 N :   -0.057441
   7 O :    0.339126
   8 H :    0.124070
   9 H :    0.120807
  10 H :    0.123563
  11 H :    0.152530
  12 H :    0.146985
  13 H :    0.137201
  14 H :    0.181925
  15 H :    0.175425

  Mayer bond orders larger than 0.1
B(  0-C ,  1-C ) :   0.9125 B(  0-C ,  8-H ) :   0.9367 B(  0-C ,  9-H ) :   0.9352
B(  0-C , 10-H ) :   0.9350 B(  1-C ,  2-C ) :   0.9150 B(  1-C , 11-H ) :   0.9426
B(  1-C , 12-H ) :   0.9267 B(  2-C ,  3-C ) :   1.6130 B(  2-C ,  7-O ) :   0.9400
B(  3-C ,  4-N ) :   1.1714 B(  3-C , 13-H ) :   0.9370 B(  4-N ,  5-C ) :   1.6559
B(  5-C ,  6-N ) :   1.0885 B(  5-C ,  7-O ) :   1.1063 B(  6-N , 14-H ) :   0.8677
B(  6-N , 15-H ) :   0.8681

MP2 TOTAL ENERGY:     -379.328409416 Eh
FINAL SINGLE POINT ENERGY      -379.328409415840

DIPOLE MOMENT
-------------
                                X             Y             Z
Electronic contribution:      3.12980      -4.71053       5.10148
Nuclear contribution   :     -2.77912       4.64429      -5.82696
                        -----------------------------------------
Total Dipole Moment    :      0.35068      -0.06624      -0.72548
                        -----------------------------------------
Magnitude (a.u.)       :      0.80851
Magnitude (Debye)      :      2.05506

                             ****ORCA TERMINATED NORMALLY****
TOTAL RUN TIME: 0 days 0 hours 11 minutes 17 seconds 874 msec
