                         Program Version 3.0.3 - RELEASE   -
|  1> ! RI-MP2 RIJK def2-TZVP def2-TZVP/C def2-TZVP/JK TIGHTSCF
|  2> % maxcore 2000
|  3> % mp2 density relaxed end
|  4> *xyz 0 1
|  5>  C       -0.0367812248     1.5257075826     0.0014194841
|  6>  C       -0.0099309488     0.0211933277    -0.0150130940
|  7>  C       -0.0264512756    -0.7096869589    -1.2030786374
|  8>  C        0.0002798640    -2.0976326572    -1.1651523289
|  9>  C        0.0434186415    -2.7308119304     0.0758382132
| 10>  N        0.0602192346    -2.0690706455     1.2295364478
| 11>  C        0.0339735728    -0.7310308244     1.1730069545
| 12>  C        0.0533348988    -0.0413057214     2.4385371624
| 13>  N        0.0670721022     0.5555073231     3.4296913180
| 14>  H        0.8512452158     1.9328750696     0.4959194810
| 15>  H       -0.0778639770     1.9256724405    -1.0142297036
| 16>  H       -0.9035800427     1.9012478911     0.5548947889
| 17>  H       -0.0603011737    -0.1845498142    -2.1525059870
| 18>  H       -0.0120198975    -2.6826254570    -2.0778781453
| 19>  H        0.0652723404    -3.8150184556     0.1455372963
| 20> *
| 21>
| 22>                          ****END OF INPUT****

CARTESIAN COORDINATES (ANGSTROEM)
---------------------------------
  C     -0.036781    1.525708    0.001419
  C     -0.009931    0.021193   -0.015013
  C     -0.026451   -0.709687   -1.203079
  C      0.000280   -2.097633   -1.165152
  C      0.043419   -2.730812    0.075838
  N      0.060219   -2.069071    1.229536
  C      0.033974   -0.731031    1.173007
  C      0.053335   -0.041306    2.438537
  N      0.067072    0.555507    3.429691
  H      0.851245    1.932875    0.495919
  H     -0.077864    1.925672   -1.014230
  H     -0.903580    1.901248    0.554895
  H     -0.060301   -0.184550   -2.152506
  H     -0.012020   -2.682625   -2.077878
  H      0.065272   -3.815018    0.145537

 Total Charge           Charge          ....    0
 Multiplicity           Mult            ....    1
 Number of Electrons    NEL             ....   62
 Basis Dimension        Dim             ....  315

ORBITAL ENERGIES
----------------

  NO   OCC          E(Eh)            E(eV)
   0   2.0000     -15.596699      -424.4077
   1   2.0000     -15.577849      -423.8948
   2   2.0000     -11.322896      -308.1117
   3   2.0000     -11.293350      -307.3077
   4   2.0000     -11.282969      -307.0252
   5   2.0000     -11.277201      -306.8683
   6   2.0000     -11.276890      -306.8598
   7   2.0000     -11.268365      -306.6278
   8   2.0000     -11.248176      -306.0784
   9   2.0000      -1.294242       -35.2181
  10   2.0000      -1.219606       -33.1872
  11   2.0000      -1.129060       -30.7233
  12   2.0000      -1.084252       -29.5040
  13   2.0000      -0.980342       -26.6765
  14   2.0000      -0.912585       -24.8327
  15   2.0000      -0.860160       -23.4061
  16   2.0000      -0.774945       -21.0873
  17   2.0000      -0.706213       -19.2170
  18   2.0000      -0.680952       -18.5297
  19   2.0000      -0.620811       -16.8931
  20   2.0000      -0.612329       -16.6623
  21   2.0000      -0.599898       -16.3240
  22   2.0000      -0.577170       -15.7056
  23   2.0000      -0.565460       -15.3870
  24   2.0000      -0.560494       -15.2518
  25   2.0000      -0.539106       -14.6698
  26   2.0000      -0.488575       -13.2948
  27   2.0000      -0.473717       -12.8905
  28   2.0000      -0.448541       -12.2054
  29   2.0000      -0.402025       -10.9397
  30   2.0000      -0.358301        -9.7499
  31   0.0000       0.059066         1.6073
  32   0.0000       0.092114         2.5065
  33   0.0000       0.130229         3.5437
  34   0.0000       0.148154         4.0315
  35   0.0000       0.167700         4.5633

MULLIKEN ATOMIC CHARGES
-----------------------
   0 C :   -0.413899
   1 C :   -0.002064
   2 C :   -0.160092
   3 C :   -0.088331
   4 C :   -0.050418
   5 N :   -0.246967
   6 C :    0.301454
   7 C :   -0.183765
   8 N :   -0.045586
   9 H :    0.164222
  10 H :    0.140354
  11 H :    0.164375
  12 H :    0.138519
  13 H :    0.143551
  14 H :    0.138647
Sum of atomic charges:   -0.0000000

LOEWDIN ATOMIC CHARGES
----------------------
   0 C :   -0.250131
   1 C :   -0.123240
   2 C :   -0.092429
   3 C :   -0.132557
   4 C :   -0.196510
   5 N :    0.180473
   6 C :   -0.198491
   7 C :   -0.136444
   8 N :    0.081858
   9 H :    0.142385
  10 H :    0.132175
  11 H :    0.142379
  12 H :    0.154422
  13 H :    0.152422
  14 H :    0.143688

  Mayer bond orders larger than 0.1
B(  0-C ,  1-C ) :   0.8935 B(  0-C ,  9-H ) :   0.9252 B(  0-C , 10-H ) :   0.9406
B(  0-C , 11-H ) :   0.9256 B(  1-C ,  2-C ) :   1.3646 B(  1-C ,  6-C ) :   1.2540
B(  2-C ,  3-C ) :   1.3541 B(  2-C , 12-H ) :   0.9260 B(  3-C ,  4-C ) :   1.2990
B(  3-C , 13-H ) :   0.9189 B(  4-C ,  5-N ) :   1.4150 B(  4-C , 14-H ) :   0.9411
B(  5-N ,  6-C ) :   1.3182 B(  6-C ,  7-C ) :   0.9208 B(  7-C ,  8-N ) :   2.8441

MP2 TOTAL ENERGY:     -379.059685291 Eh
FINAL SINGLE POINT ENERGY      -379.059685290822

DIPOLE MOMENT
-------------
                                X             Y             Z
Electronic contribution:      0.18718      -3.04620       5.24189
Nuclear contribution   :     -0.23975       2.91432      -7.44180
                        -----------------------------------------
Total Dipole Moment    :     -0.05256      -0.13188      -2.19991
                        -----------------------------------------
Magnitude (a.u.)       :      2.20449
Magnitude (Debye)      :      5.60336

                             ****ORCA TERMINATED NORMALLY****
TOTAL RUN TIME: 0 days 0 hours 15 minutes 11 seconds 204 msec
