                         Program Version 3.0.3 - RELEASE   -
|  1> ! RI-MP2 RIJK def2-TZVP def2-TZVP/C def2-TZVP/JK TIGHTSCF
|  2> % maxcore 2000
|  3> % mp2 density relaxed end
|  4> *xyz 0 1
|  5>  O       -0.0381496588     0.0293991184     0.1759083959
|  6>  C       -0.0012310746     1.2219912471     0.0752254637
|  7>  N       -1.0024509748     2.1878518095     0.0002218847
|  8>  C       -0.0899518783     3.3282498644    -0.0010688293
|  9>  C        0.4519977797     3.8651259497     1.3627860564
| 10>  N        0.4912716740     2.7198294517     2.2955718813
| 11>  C        1.5840296954     2.9007160449     1.3144483873
| 12>  C        1.0954274358     2.3187937883    -0.0384350730
| 13>  H       -1.9319454315     2.1186220625     0.3919060564
| 14>  H       -0.2538010266     4.0740620093    -0.7783437016
| 15>  H        0.4089156275     4.8853560102     1.7230564924
| 16>  H        0.8249587885     3.0691743142     3.1927167658
| 17>  H        2.6122092091     3.0055900647     1.6343735713
| 18>  H        1.8106338946     2.2820837951    -0.8563708414
| 19> *
| 20>
| 21>                          ****END OF INPUT****

CARTESIAN COORDINATES (ANGSTROEM)
---------------------------------
  O     -0.038150    0.029399    0.175908
  C     -0.001231    1.221991    0.075225
  N     -1.002451    2.187852    0.000222
  C     -0.089952    3.328250   -0.001069
  C      0.451998    3.865126    1.362786
  N      0.491272    2.719829    2.295572
  C      1.584030    2.900716    1.314448
  C      1.095427    2.318794   -0.038435
  H     -1.931945    2.118622    0.391906
  H     -0.253801    4.074062   -0.778344
  H      0.408916    4.885356    1.723056
  H      0.824959    3.069174    3.192717
  H      2.612209    3.005590    1.634374
  H      1.810634    2.282084   -0.856371

 Total Charge           Charge          ....    0
 Multiplicity           Mult            ....    1
 Number of Electrons    NEL             ....   58
 Basis Dimension        Dim             ....  284

ORBITAL ENERGIES
----------------

  NO   OCC          E(Eh)            E(eV)
   0   2.0000     -20.522336      -558.4411
   1   2.0000     -15.579450      -423.9384
   2   2.0000     -15.577301      -423.8799
   3   2.0000     -11.347102      -308.7704
   4   2.0000     -11.287366      -307.1448
   5   2.0000     -11.285553      -307.0955
   6   2.0000     -11.279926      -306.9424
   7   2.0000     -11.256077      -306.2934
   8   2.0000      -1.384998       -37.6877
   9   2.0000      -1.313695       -35.7475
  10   2.0000      -1.240555       -33.7572
  11   2.0000      -1.039395       -28.2834
  12   2.0000      -0.931468       -25.3465
  13   2.0000      -0.867372       -23.6024
  14   2.0000      -0.807153       -21.9637
  15   2.0000      -0.750509       -20.4224
  16   2.0000      -0.738186       -20.0871
  17   2.0000      -0.666957       -18.1488
  18   2.0000      -0.651581       -17.7304
  19   2.0000      -0.636067       -17.3083
  20   2.0000      -0.574568       -15.6348
  21   2.0000      -0.569844       -15.5062
  22   2.0000      -0.529612       -14.4115
  23   2.0000      -0.521896       -14.2015
  24   2.0000      -0.480875       -13.0853
  25   2.0000      -0.456484       -12.4216
  26   2.0000      -0.431681       -11.7466
  27   2.0000      -0.391794       -10.6612
  28   2.0000      -0.371980       -10.1221
  29   0.0000       0.129054         3.5117
  30   0.0000       0.140940         3.8352
  31   0.0000       0.157167         4.2767
  32   0.0000       0.167522         4.5585
  33   0.0000       0.187460         5.1011

MULLIKEN ATOMIC CHARGES
-----------------------
   0 O :   -0.298170
   1 C :    0.216767
   2 N :   -0.320929
   3 C :    0.058187
   4 C :   -0.127493
   5 N :   -0.366307
   6 C :   -0.087505
   7 C :   -0.097141
   8 H :    0.234312
   9 H :    0.131997
  10 H :    0.144569
  11 H :    0.220840
  12 H :    0.150686
  13 H :    0.140187
Sum of atomic charges:   -0.0000000

LOEWDIN ATOMIC CHARGES
----------------------
   0 O :    0.119194
   1 C :   -0.409589
   2 N :    0.136630
   3 C :   -0.198684
   4 C :   -0.219952
   5 N :    0.015986
   6 C :   -0.209512
   7 C :   -0.127808
   8 H :    0.172695
   9 H :    0.136819
  10 H :    0.128958
  11 H :    0.175824
  12 H :    0.132059
  13 H :    0.147381

  Mayer bond orders larger than 0.1
B(  0-O ,  1-C ) :   2.0352 B(  1-C ,  2-N ) :   1.1388 B(  1-C ,  7-C ) :   0.8435
B(  2-N ,  3-C ) :   0.9660 B(  2-N ,  8-H ) :   0.8543 B(  3-C ,  4-C ) :   0.8926
B(  3-C ,  7-C ) :   0.9499 B(  3-C ,  9-H ) :   0.9165 B(  4-C ,  5-N ) :   0.9596
B(  4-C ,  6-C ) :   0.9131 B(  4-C , 10-H ) :   0.9149 B(  5-N ,  6-C ) :   0.9098
B(  5-N , 11-H ) :   0.8653 B(  6-C ,  7-C ) :   0.8834 B(  6-C , 12-H ) :   0.9130
B(  7-C , 13-H ) :   0.9119

MP2 TOTAL ENERGY:     -378.038705418 Eh
FINAL SINGLE POINT ENERGY      -378.038705417617

DIPOLE MOMENT
-------------
                                X             Y             Z
Electronic contribution:     -1.25590      -3.35617      -0.95244
Nuclear contribution   :      1.59710       5.29036       1.25044
                        -----------------------------------------
Total Dipole Moment    :      0.34120       1.93419       0.29799
                        -----------------------------------------
Magnitude (a.u.)       :      1.98653
Magnitude (Debye)      :      5.04936

                             ****ORCA TERMINATED NORMALLY****
TOTAL RUN TIME: 0 days 0 hours 12 minutes 0 seconds 467 msec
