                         Program Version 3.0.3 - RELEASE   -
|  1> ! RI-MP2 RIJK def2-TZVP def2-TZVP/C def2-TZVP/JK TIGHTSCF
|  2> % maxcore 2000
|  3> % mp2 density relaxed end
|  4> *xyz 0 1
|  5>  C       -0.1231100670     1.5709954034    -0.0134765525
|  6>  C       -0.0094909210     0.0602415668    -0.0174511933
|  7>  C       -1.2277921961    -0.6724312800    -0.5456193601
|  8>  C        1.3311866477    -0.5614436865    -0.2576366624
|  9>  O        2.3996346691     0.2898183189    -0.4932137631
| 10>  C        0.7206939962    -0.6303386713     1.1508263789
| 11>  C        1.3343405980     0.1301820894     2.1966154314
| 12>  N        1.8517423269     0.7303926425     3.0407520663
| 13>  H        0.7886289742     2.0467293515     0.3475440515
| 14>  H       -0.3130837502     1.9317567230    -1.0299361040
| 15>  H       -0.9575168403     1.8897833139     0.6195696758
| 16>  H       -1.4393745317    -0.3665460309    -1.5760362359
| 17>  H       -1.0865361821    -1.7577812481    -0.5406541318
| 18>  H       -2.1114863979    -0.4459331446     0.0604768625
| 19>  H        1.3619048373    -1.5085027862    -0.7975815213
| 20>  H        3.1642255939    -0.0186195998     0.0060498596
| 21>  H        0.3303284629    -1.5909873222     1.4714415683
| 22> *
| 23>
| 24>                          ****END OF INPUT****

CARTESIAN COORDINATES (ANGSTROEM)
---------------------------------
  C     -0.123110    1.570995   -0.013477
  C     -0.009491    0.060242   -0.017451
  C     -1.227792   -0.672431   -0.545619
  C      1.331187   -0.561444   -0.257637
  O      2.399635    0.289818   -0.493214
  C      0.720694   -0.630339    1.150826
  C      1.334341    0.130182    2.196615
  N      1.851742    0.730393    3.040752
  H      0.788629    2.046729    0.347544
  H     -0.313084    1.931757   -1.029936
  H     -0.957517    1.889783    0.619570
  H     -1.439375   -0.366546   -1.576036
  H     -1.086536   -1.757781   -0.540654
  H     -2.111486   -0.445933    0.060477
  H      1.361905   -1.508503   -0.797582
  H      3.164226   -0.018620    0.006050
  H      0.330328   -1.590987    1.471442

 Total Charge           Charge          ....    0
 Multiplicity           Mult            ....    1
 Number of Electrons    NEL             ....   60
 Basis Dimension        Dim             ....  302

ORBITAL ENERGIES
----------------

  NO   OCC          E(Eh)            E(eV)
   0   2.0000     -20.585014      -560.1467
   1   2.0000     -15.565750      -423.5656
   2   2.0000     -11.315548      -307.9117
   3   2.0000     -11.279263      -306.9243
   4   2.0000     -11.273432      -306.7657
   5   2.0000     -11.273260      -306.7610
   6   2.0000     -11.239980      -305.8554
   7   2.0000     -11.226986      -305.5018
   8   2.0000      -1.399632       -38.0859
   9   2.0000      -1.219237       -33.1771
  10   2.0000      -1.174372       -31.9563
  11   2.0000      -1.010606       -27.5000
  12   2.0000      -0.957102       -26.0441
  13   2.0000      -0.905012       -24.6266
  14   2.0000      -0.784670       -21.3520
  15   2.0000      -0.741324       -20.1724
  16   2.0000      -0.682851       -18.5813
  17   2.0000      -0.667032       -18.1509
  18   2.0000      -0.628041       -17.0899
  19   2.0000      -0.609517       -16.5858
  20   2.0000      -0.568942       -15.4817
  21   2.0000      -0.561995       -15.2927
  22   2.0000      -0.553827       -15.0704
  23   2.0000      -0.547799       -14.9064
  24   2.0000      -0.526906       -14.3378
  25   2.0000      -0.508613       -13.8401
  26   2.0000      -0.490952       -13.3595
  27   2.0000      -0.476092       -12.9551
  28   2.0000      -0.420378       -11.4391
  29   2.0000      -0.398112       -10.8332
  30   0.0000       0.119993         3.2652
  31   0.0000       0.141489         3.8501
  32   0.0000       0.155518         4.2319
  33   0.0000       0.163964         4.4617
  34   0.0000       0.181318         4.9339

MULLIKEN ATOMIC CHARGES
-----------------------
   0 C :   -0.391933
   1 C :    0.109696
   2 C :   -0.390653
   3 C :    0.013685
   4 O :   -0.454766
   5 C :   -0.083624
   6 C :   -0.229097
   7 N :   -0.052047
   8 H :    0.168831
   9 H :    0.137038
  10 H :    0.138631
  11 H :    0.142031
  12 H :    0.128806
  13 H :    0.143841
  14 H :    0.126253
  15 H :    0.337805
  16 H :    0.155503
Sum of atomic charges:    0.0000000

LOEWDIN ATOMIC CHARGES
----------------------
   0 C :   -0.250622
   1 C :   -0.246848
   2 C :   -0.256827
   3 C :   -0.268204
   4 O :    0.028255
   5 C :   -0.172824
   6 C :   -0.187889
   7 N :    0.058399
   8 H :    0.139479
   9 H :    0.133215
  10 H :    0.132512
  11 H :    0.132489
  12 H :    0.128385
  13 H :    0.131905
  14 H :    0.138243
  15 H :    0.190190
  16 H :    0.170144

  Mayer bond orders larger than 0.1
B(  0-C ,  1-C ) :   0.9494 B(  0-C ,  8-H ) :   0.9205 B(  0-C ,  9-H ) :   0.9335
B(  0-C , 10-H ) :   0.9333 B(  1-C ,  2-C ) :   0.9042 B(  1-C ,  3-C ) :   0.8373
B(  1-C ,  5-C ) :   0.8047 B(  2-C , 11-H ) :   0.9380 B(  2-C , 12-H ) :   0.9238
B(  2-C , 13-H ) :   0.9407 B(  3-C ,  4-O ) :   1.0753 B(  3-C ,  5-C ) :   0.8284
B(  3-C , 14-H ) :   0.9667 B(  4-O , 15-H ) :   0.8295 B(  5-C ,  6-C ) :   0.9924
B(  5-C , 16-H ) :   0.9036 B(  6-C ,  7-N ) :   2.8486

MP2 TOTAL ENERGY:     -363.250482424 Eh
FINAL SINGLE POINT ENERGY      -363.250482423966

DIPOLE MOMENT
-------------
                                X             Y             Z
Electronic contribution:      6.29427      -0.14870       5.13706
Nuclear contribution   :     -6.93256      -0.87489      -6.17158
                        -----------------------------------------
Total Dipole Moment    :     -0.63830      -1.02359      -1.03453
                        -----------------------------------------
Magnitude (a.u.)       :      1.58915
Magnitude (Debye)      :      4.03930

                             ****ORCA TERMINATED NORMALLY****
TOTAL RUN TIME: 0 days 0 hours 13 minutes 10 seconds 186 msec
