                         Program Version 3.0.3 - RELEASE   -
|  1> ! RI-MP2 RIJK def2-TZVP def2-TZVP/C def2-TZVP/JK TIGHTSCF
|  2> % maxcore 2000
|  3> % mp2 density relaxed end
|  4> *xyz 0 1
|  5>  C       -0.4744420193     1.3990612649    -0.0539553976
|  6>  C        0.0626441416    -0.0144794304     0.0354318009
|  7>  O        1.2172394464    -0.2553042743    -0.8812579993
|  8>  C        2.0704765463    -0.3457775143     0.2634502505
|  9>  C        2.7474474329     0.8183821333     0.9996740480
| 10>  C        2.1862013870    -0.1167340027     2.0909895867
| 11>  C        2.5744865324    -1.4389927278     1.2760658610
| 12>  C        1.1688398139    -2.0355973444     1.4078438533
| 13>  C        0.9055895210    -0.5201565834     1.2467751228
| 14>  H        0.2779375993     2.1486874026     0.1960610665
| 15>  H       -0.8295207068     1.5981302843    -1.0700363951
| 16>  H       -1.3191905690     1.5134124168     0.6337922443
| 17>  H       -0.7284246845    -0.7334222580    -0.2038804686
| 18>  H        3.8370161424     0.8887110470     0.9299543944
| 19>  H        2.2892936209     1.8056837726     0.9169738514
| 20>  H        2.2706128877    -0.0144732336     3.1755823270
| 21>  H        3.5506621090    -1.9332916452     1.3300082504
| 22>  H        0.8438754200    -2.6701537985     0.5779590947
| 23>  H        0.9031352288    -2.4885114688     2.3676344987
| 24> *
| 25>
| 26>                          ****END OF INPUT****

CARTESIAN COORDINATES (ANGSTROEM)
---------------------------------
  C     -0.474442    1.399061   -0.053955
  C      0.062644   -0.014479    0.035432
  O      1.217239   -0.255304   -0.881258
  C      2.070477   -0.345778    0.263450
  C      2.747447    0.818382    0.999674
  C      2.186201   -0.116734    2.090990
  C      2.574487   -1.438993    1.276066
  C      1.168840   -2.035597    1.407844
  C      0.905590   -0.520157    1.246775
  H      0.277938    2.148687    0.196061
  H     -0.829521    1.598130   -1.070036
  H     -1.319191    1.513412    0.633792
  H     -0.728425   -0.733422   -0.203880
  H      3.837016    0.888711    0.929954
  H      2.289294    1.805684    0.916974
  H      2.270613   -0.014473    3.175582
  H      3.550662   -1.933292    1.330008
  H      0.843875   -2.670154    0.577959
  H      0.903135   -2.488511    2.367634

 Total Charge           Charge          ....    0
 Multiplicity           Mult            ....    1
 Number of Electrons    NEL             ....   66
 Basis Dimension        Dim             ....  339

ORBITAL ENERGIES
----------------

  NO   OCC          E(Eh)            E(eV)
   0   2.0000     -20.554852      -559.3260
   1   2.0000     -11.303160      -307.5746
   2   2.0000     -11.290678      -307.2350
   3   2.0000     -11.270377      -306.6825
   4   2.0000     -11.261241      -306.4339
   5   2.0000     -11.232751      -305.6587
   6   2.0000     -11.231818      -305.6333
   7   2.0000     -11.226075      -305.4770
   8   2.0000     -11.222271      -305.3735
   9   2.0000      -1.381926       -37.6041
  10   2.0000      -1.230171       -33.4747
  11   2.0000      -1.027244       -27.9527
  12   2.0000      -1.012015       -27.5383
  13   2.0000      -0.899193       -24.4683
  14   2.0000      -0.843103       -22.9420
  15   2.0000      -0.840442       -22.8696
  16   2.0000      -0.801165       -21.8008
  17   2.0000      -0.684181       -18.6175
  18   2.0000      -0.661776       -18.0078
  19   2.0000      -0.658083       -17.9074
  20   2.0000      -0.617553       -16.8045
  21   2.0000      -0.594312       -16.1720
  22   2.0000      -0.585480       -15.9317
  23   2.0000      -0.568817       -15.4783
  24   2.0000      -0.547543       -14.8994
  25   2.0000      -0.537386       -14.6230
  26   2.0000      -0.498833       -13.5739
  27   2.0000      -0.468282       -12.7426
  28   2.0000      -0.449202       -12.2234
  29   2.0000      -0.445801       -12.1309
  30   2.0000      -0.428315       -11.6551
  31   2.0000      -0.400783       -10.9059
  32   2.0000      -0.341223        -9.2851
  33   0.0000       0.140990         3.8365
  34   0.0000       0.155301         4.2260
  35   0.0000       0.163948         4.4612
  36   0.0000       0.168560         4.5868
  37   0.0000       0.188280         5.1234

MULLIKEN ATOMIC CHARGES
-----------------------
   0 C :   -0.396402
   1 C :    0.063803
   2 O :   -0.330474
   3 C :    0.146725
   4 C :   -0.226509
   5 C :   -0.136415
   6 C :   -0.111076
   7 C :   -0.243240
   8 C :    0.004589
   9 H :    0.125178
  10 H :    0.143366
  11 H :    0.131447
  12 H :    0.109113
  13 H :    0.118046
  14 H :    0.109435
  15 H :    0.133649
  16 H :    0.122728
  17 H :    0.119489
  18 H :    0.116548
Sum of atomic charges:    0.0000000

LOEWDIN ATOMIC CHARGES
----------------------
   0 C :   -0.289857
   1 C :   -0.230139
   2 O :    0.160341
   3 C :   -0.239045
   4 C :   -0.177106
   5 C :   -0.107599
   6 C :   -0.113263
   7 C :   -0.186515
   8 C :   -0.120432
   9 H :    0.123265
  10 H :    0.130513
  11 H :    0.131639
  12 H :    0.144712
  13 H :    0.130408
  14 H :    0.127526
  15 H :    0.129204
  16 H :    0.124180
  17 H :    0.134586
  18 H :    0.127583

  Mayer bond orders larger than 0.1
B(  0-C ,  1-C ) :   0.9167 B(  0-C ,  9-H ) :   0.9371 B(  0-C , 10-H ) :   0.9331
B(  0-C , 11-H ) :   0.9298 B(  1-C ,  2-O ) :   0.8622 B(  1-C ,  8-C ) :   0.8959
B(  1-C , 12-H ) :   0.9021 B(  2-O ,  3-C ) :   0.9953 B(  3-C ,  4-C ) :   0.9373
B(  3-C ,  6-C ) :   0.8637 B(  3-C ,  8-C ) :   0.7676 B(  4-C ,  5-C ) :   0.9094
B(  4-C , 13-H ) :   0.9223 B(  4-C , 14-H ) :   0.9124 B(  5-C ,  6-C ) :   0.8547
B(  5-C ,  8-C ) :   0.9097 B(  5-C , 15-H ) :   0.8805 B(  6-C ,  7-C ) :   0.9171
B(  6-C , 16-H ) :   0.8889 B(  7-C ,  8-C ) :   0.9127 B(  7-C , 17-H ) :   0.9105
B(  7-C , 18-H ) :   0.9223

MP2 TOTAL ENERGY:     -385.057564359 Eh
FINAL SINGLE POINT ENERGY      -385.057564358616

DIPOLE MOMENT
-------------
                                X             Y             Z
Electronic contribution:      2.17576      -2.35828      -1.36109
Nuclear contribution   :     -2.31574       2.49177       1.97879
                        -----------------------------------------
Total Dipole Moment    :     -0.13998       0.13349       0.61769
                        -----------------------------------------
Magnitude (a.u.)       :      0.64727
Magnitude (Debye)      :      1.64523

                             ****ORCA TERMINATED NORMALLY****
TOTAL RUN TIME: 0 days 0 hours 20 minutes 48 seconds 151 msec
