                         Program Version 3.0.3 - RELEASE   -
|  1> ! RI-MP2 RIJK def2-TZVP def2-TZVP/C def2-TZVP/JK TIGHTSCF
|  2> % maxcore 2000
|  3> % mp2 density relaxed end
|  4> *xyz 0 1
|  5>  O       -0.0768966565     1.4781606433    -0.1108986214
|  6>  C        0.0412395336     0.0662060431    -0.0381020730
|  7>  C       -1.3649604936    -0.5155600028     0.0328255986
|  8>  C       -1.3731913033    -2.0448819921     0.1068458254
|  9>  C       -2.7952086029    -2.6262735696     0.1943531043
| 10>  C       -2.7894463372    -4.1366560215     0.1534028517
| 11>  O       -3.2762660631    -4.8564132860     0.9864290774
| 12>  H        0.8075126386     1.8539160954    -0.1441776861
| 13>  H        0.5663302735    -0.3373312180    -0.9198659647
| 14>  H        0.6162928965    -0.2419575460     0.8506919735
| 15>  H       -1.8728204277    -0.0920947392     0.9074720170
| 16>  H       -1.9257594468    -0.1780733661    -0.8474330238
| 17>  H       -0.8654150875    -2.4599637154    -0.7744832718
| 18>  H       -0.7956015873    -2.3775380163     0.9789579514
| 19>  H       -3.3086317890    -2.3013888088     1.1039517936
| 20>  H       -3.3785587578    -2.2752221997    -0.6698084565
| 21>  H       -2.2732591495    -4.5647879204    -0.7395785555
| 22> *
| 23>
| 24>                          ****END OF INPUT****

CARTESIAN COORDINATES (ANGSTROEM)
---------------------------------
  O     -0.076897    1.478161   -0.110899
  C      0.041240    0.066206   -0.038102
  C     -1.364960   -0.515560    0.032826
  C     -1.373191   -2.044882    0.106846
  C     -2.795209   -2.626274    0.194353
  C     -2.789446   -4.136656    0.153403
  O     -3.276266   -4.856413    0.986429
  H      0.807513    1.853916   -0.144178
  H      0.566330   -0.337331   -0.919866
  H      0.616293   -0.241958    0.850692
  H     -1.872820   -0.092095    0.907472
  H     -1.925759   -0.178073   -0.847433
  H     -0.865415   -2.459964   -0.774483
  H     -0.795602   -2.377538    0.978958
  H     -3.308632   -2.301389    1.103952
  H     -3.378559   -2.275222   -0.669808
  H     -2.273259   -4.564788   -0.739579

 Total Charge           Charge          ....    0
 Multiplicity           Mult            ....    1
 Number of Electrons    NEL             ....   56
 Basis Dimension        Dim             ....  277

ORBITAL ENERGIES
----------------

  NO   OCC          E(Eh)            E(eV)
   0   2.0000     -20.561761      -559.5140
   1   2.0000     -20.556703      -559.3763
   2   2.0000     -11.331438      -308.3441
   3   2.0000     -11.283487      -307.0393
   4   2.0000     -11.244385      -305.9753
   5   2.0000     -11.242893      -305.9347
   6   2.0000     -11.230477      -305.5968
   7   2.0000      -1.395409       -37.9710
   8   2.0000      -1.366101       -37.1735
   9   2.0000      -1.096420       -29.8351
  10   2.0000      -1.012926       -27.5631
  11   2.0000      -0.896314       -24.3899
  12   2.0000      -0.813859       -22.1462
  13   2.0000      -0.792984       -21.5782
  14   2.0000      -0.700819       -19.0703
  15   2.0000      -0.681989       -18.5579
  16   2.0000      -0.661776       -18.0078
  17   2.0000      -0.633740       -17.2449
  18   2.0000      -0.614386       -16.7183
  19   2.0000      -0.591396       -16.0927
  20   2.0000      -0.556961       -15.1557
  21   2.0000      -0.533723       -14.5233
  22   2.0000      -0.515822       -14.0362
  23   2.0000      -0.506432       -13.7807
  24   2.0000      -0.489976       -13.3329
  25   2.0000      -0.479495       -13.0477
  26   2.0000      -0.450968       -12.2715
  27   2.0000      -0.417662       -11.3652
  28   0.0000       0.126759         3.4493
  29   0.0000       0.130476         3.5504
  30   0.0000       0.144210         3.9242
  31   0.0000       0.159258         4.3336
  32   0.0000       0.164658         4.4806

MULLIKEN ATOMIC CHARGES
-----------------------
   0 O :   -0.464860
   1 C :   -0.060155
   2 C :   -0.156308
   3 C :   -0.306315
   4 C :   -0.134419
   5 C :    0.099077
   6 O :   -0.263714
   7 H :    0.316383
   8 H :    0.091698
   9 H :    0.094030
  10 H :    0.117690
  11 H :    0.112858
  12 H :    0.113734
  13 H :    0.125482
  14 H :    0.123617
  15 H :    0.123928
  16 H :    0.067275
Sum of atomic charges:    0.0000000

LOEWDIN ATOMIC CHARGES
----------------------
   0 O :   -0.050621
   1 C :   -0.353862
   2 C :   -0.270923
   3 C :   -0.263559
   4 C :   -0.262119
   5 C :   -0.298389
   6 O :    0.130490
   7 H :    0.172552
   8 H :    0.114019
   9 H :    0.114715
  10 H :    0.142135
  11 H :    0.140800
  12 H :    0.138221
  13 H :    0.140909
  14 H :    0.145573
  15 H :    0.151804
  16 H :    0.108255

  Mayer bond orders larger than 0.1
B(  0-O ,  1-C ) :   1.0207 B(  0-O ,  7-H ) :   0.8487 B(  1-C ,  2-C ) :   0.9380
B(  1-C ,  8-H ) :   0.9318 B(  1-C ,  9-H ) :   0.9320 B(  2-C ,  3-C ) :   0.9158
B(  2-C , 10-H ) :   0.9249 B(  2-C , 11-H ) :   0.9246 B(  3-C ,  4-C ) :   0.9121
B(  3-C , 12-H ) :   0.9276 B(  3-C , 13-H ) :   0.9228 B(  4-C ,  5-C ) :   0.8786
B(  4-C , 14-H ) :   0.9058 B(  4-C , 15-H ) :   0.9145 B(  5-C ,  6-O ) :   2.0072
B(  5-C , 16-H ) :   0.9379

MP2 TOTAL ENERGY:     -346.296786697 Eh
FINAL SINGLE POINT ENERGY      -346.296786697251

DIPOLE MOMENT
-------------
                                X             Y             Z
Electronic contribution:     -2.58718      -3.65675       1.40115
Nuclear contribution   :      3.55294       4.20905      -1.99007
                        -----------------------------------------
Total Dipole Moment    :      0.96576       0.55230      -0.58892
                        -----------------------------------------
Magnitude (a.u.)       :      1.25879
Magnitude (Debye)      :      3.19960

                             ****ORCA TERMINATED NORMALLY****
TOTAL RUN TIME: 0 days 0 hours 7 minutes 32 seconds 914 msec
