                         Program Version 3.0.3 - RELEASE   -
|  1> ! RI-MP2 RIJK def2-TZVP def2-TZVP/C def2-TZVP/JK TIGHTSCF
|  2> % maxcore 2000
|  3> % mp2 density relaxed end
|  4> *xyz 0 1
|  5>  C       -0.0825610679     1.5351204577     0.0495763026
|  6>  C        0.0972704830     0.0363660581    -0.0319499712
|  7>  C        0.7511501997    -0.7035972771    -1.1923288669
|  8>  C        0.0750049754    -1.9345256587    -1.7466397180
|  9>  C        1.6744435935     0.1060136431    -2.1118597029
| 10>  C        2.8196230760     0.5314558778    -1.2172841366
| 11>  C        2.6744657494     0.0740302872     0.0279510909
| 12>  C        1.4091981166    -0.7032455362     0.1837625222
| 13>  O        1.4250749736    -1.8633693005     0.9656333197
| 14>  H        0.8135328886     2.0713433787    -0.2717636741
| 15>  H       -0.9169814846     1.8625330472    -0.5811768708
| 16>  H       -0.3044455750     1.8479866496     1.0762295568
| 17>  H       -0.7450342320    -0.5265079508     0.3697583479
| 18>  H       -0.7206192401    -1.6719798913    -2.4538764740
| 19>  H        0.7919564577    -2.5739297183    -2.2742148149
| 20>  H       -0.3655304933    -2.5295556593    -0.9421800163
| 21>  H        2.0264392317    -0.5015390332    -2.9565191455
| 22>  H        1.1631684823     0.9721248604    -2.5536006399
| 23>  H        3.6293300690     1.1619921936    -1.5673594726
| 24>  H        3.3577778977     0.2386038082     0.8536703999
| 25>  H        1.1144035187    -1.6359151062     1.8476792737
| 26> *
| 27>
| 28>                          ****END OF INPUT****

CARTESIAN COORDINATES (ANGSTROEM)
---------------------------------
  C     -0.082561    1.535120    0.049576
  C      0.097270    0.036366   -0.031950
  C      0.751150   -0.703597   -1.192329
  C      0.075005   -1.934526   -1.746640
  C      1.674444    0.106014   -2.111860
  C      2.819623    0.531456   -1.217284
  C      2.674466    0.074030    0.027951
  C      1.409198   -0.703246    0.183763
  O      1.425075   -1.863369    0.965633
  H      0.813533    2.071343   -0.271764
  H     -0.916981    1.862533   -0.581177
  H     -0.304446    1.847987    1.076230
  H     -0.745034   -0.526508    0.369758
  H     -0.720619   -1.671980   -2.453876
  H      0.791956   -2.573930   -2.274215
  H     -0.365530   -2.529556   -0.942180
  H      2.026439   -0.501539   -2.956519
  H      1.163168    0.972125   -2.553601
  H      3.629330    1.161992   -1.567359
  H      3.357778    0.238604    0.853670
  H      1.114404   -1.635915    1.847679

 Total Charge           Charge          ....    0
 Multiplicity           Mult            ....    1
 Number of Electrons    NEL             ....   68
 Basis Dimension        Dim             ....  351

ORBITAL ENERGIES
----------------

  NO   OCC          E(Eh)            E(eV)
   0   2.0000     -20.560114      -559.4692
   1   2.0000     -11.279187      -306.9223
   2   2.0000     -11.229905      -305.5813
   3   2.0000     -11.229234      -305.5630
   4   2.0000     -11.226127      -305.4784
   5   2.0000     -11.224956      -305.4466
   6   2.0000     -11.222133      -305.3698
   7   2.0000     -11.214775      -305.1695
   8   2.0000     -11.210733      -305.0596
   9   2.0000      -1.369979       -37.2790
  10   2.0000      -1.174704       -31.9653
  11   2.0000      -1.048351       -28.5271
  12   2.0000      -0.992821       -27.0160
  13   2.0000      -0.950263       -25.8580
  14   2.0000      -0.911869       -24.8132
  15   2.0000      -0.808623       -22.0037
  16   2.0000      -0.742055       -20.1923
  17   2.0000      -0.728671       -19.8282
  18   2.0000      -0.680902       -18.5283
  19   2.0000      -0.640533       -17.4298
  20   2.0000      -0.617918       -16.8144
  21   2.0000      -0.594648       -16.1812
  22   2.0000      -0.579922       -15.7805
  23   2.0000      -0.571517       -15.5518
  24   2.0000      -0.552138       -15.0244
  25   2.0000      -0.540396       -14.7049
  26   2.0000      -0.535064       -14.5598
  27   2.0000      -0.514111       -13.9897
  28   2.0000      -0.505441       -13.7538
  29   2.0000      -0.483913       -13.1680
  30   2.0000      -0.460750       -12.5376
  31   2.0000      -0.412542       -11.2258
  32   2.0000      -0.377288       -10.2665
  33   2.0000      -0.330882        -9.0037
  34   0.0000       0.130740         3.5576
  35   0.0000       0.147655         4.0179
  36   0.0000       0.157520         4.2863
  37   0.0000       0.165862         4.5133
  38   0.0000       0.177307         4.8248

MULLIKEN ATOMIC CHARGES
-----------------------
   0 C :   -0.401531
   1 C :   -0.263874
   2 C :    0.152551
   3 C :   -0.418981
   4 C :   -0.173712
   5 C :   -0.208225
   6 C :   -0.226159
   7 C :    0.250702
   8 O :   -0.464202
   9 H :    0.146053
  10 H :    0.131940
  11 H :    0.128746
  12 H :    0.127411
  13 H :    0.131712
  14 H :    0.129552
  15 H :    0.140528
  16 H :    0.123066
  17 H :    0.128288
  18 H :    0.123714
  19 H :    0.115142
  20 H :    0.327278
Sum of atomic charges:   -0.0000000

LOEWDIN ATOMIC CHARGES
----------------------
   0 C :   -0.292473
   1 C :   -0.181568
   2 C :   -0.193501
   3 C :   -0.267183
   4 C :   -0.194516
   5 C :   -0.151071
   6 C :   -0.122527
   7 C :   -0.297175
   8 O :    0.025835
   9 H :    0.131386
  10 H :    0.126121
  11 H :    0.125193
  12 H :    0.157001
  13 H :    0.126178
  14 H :    0.128113
  15 H :    0.131986
  16 H :    0.145693
  17 H :    0.146702
  18 H :    0.135469
  19 H :    0.139302
  20 H :    0.181035

  Mayer bond orders larger than 0.1
B(  0-C ,  1-C ) :   0.8808 B(  0-C ,  9-H ) :   0.9369 B(  0-C , 10-H ) :   0.9336
B(  0-C , 11-H ) :   0.9388 B(  1-C ,  2-C ) :   0.8520 B(  1-C ,  7-C ) :   0.8958
B(  1-C , 12-H ) :   0.9407 B(  2-C ,  3-C ) :   0.8812 B(  2-C ,  4-C ) :   0.9247
B(  2-C ,  7-C ) :   0.8087 B(  2-C ,  8-O ) :  -0.1137 B(  3-C , 13-H ) :   0.9419
B(  3-C , 14-H ) :   0.9358 B(  3-C , 15-H ) :   0.9342 B(  4-C ,  5-C ) :   0.9755
B(  4-C , 16-H ) :   0.9130 B(  4-C , 17-H ) :   0.8986 B(  5-C ,  6-C ) :   1.7697
B(  5-C , 18-H ) :   0.9359 B(  6-C ,  7-C ) :   0.9586 B(  6-C , 19-H ) :   0.9274
B(  7-C ,  8-O ) :   1.0017 B(  8-O , 20-H ) :   0.8385

MP2 TOTAL ENERGY:     -386.413609421 Eh
FINAL SINGLE POINT ENERGY      -386.413609420671

DIPOLE MOMENT
-------------
                                X             Y             Z
Electronic contribution:      3.70414      -2.25920       2.97020
Nuclear contribution   :     -3.98321       2.74481      -2.80787
                        -----------------------------------------
Total Dipole Moment    :     -0.27907       0.48560       0.16233
                        -----------------------------------------
Magnitude (a.u.)       :      0.58313
Magnitude (Debye)      :      1.48220

                             ****ORCA TERMINATED NORMALLY****
TOTAL RUN TIME: 0 days 0 hours 19 minutes 49 seconds 270 msec
