                         Program Version 3.0.3 - RELEASE   -
|  1> ! RI-MP2 RIJK def2-TZVP def2-TZVP/C def2-TZVP/JK TIGHTSCF
|  2> % maxcore 2000
|  3> % mp2 density relaxed end
|  4> *xyz 0 1
|  5>  C        0.7998005480    -0.0340214676    -0.1784352211
|  6>  C        0.1037803582    -0.8820296477     0.8938135046
|  7>  C       -1.3579285147    -1.1214883450     0.5611070497
|  8>  C       -1.8583333014    -2.2996570974    -0.2202637835
|  9>  C       -0.9155502884    -3.3783819915    -0.7468160989
| 10>  C       -1.5637892712    -4.6892456836    -0.8263981754
| 11>  N       -2.0830324884    -5.7197634470    -0.8863122639
| 12>  N       -2.1912748827    -2.1450406914     1.1908771572
| 13>  C       -1.6567191566    -3.0477861503     2.2003152664
| 14>  H        1.8338867211     0.1855170213     0.1025697018
| 15>  H        0.8156985080    -0.5475928620    -1.1454922678
| 16>  H        0.2826398251     0.9207070887    -0.3213999983
| 17>  H        0.6492703951    -1.8199219149     1.0321000509
| 18>  H        0.1558146493    -0.3618364339     1.8589255654
| 19>  H       -1.8981908802    -0.1853218145     0.4080724796
| 20>  H       -2.7117890817    -2.1535018086    -0.8815486513
| 21>  H       -0.5822517648    -3.1004338868    -1.7538035367
| 22>  H       -0.0145238216    -3.4791106652    -0.1377370137
| 23>  H       -0.6132179875    -3.3653858369     2.0611705428
| 24>  H       -1.7262370725    -2.5564358117     3.1755757312
| 25>  H       -2.2802418231    -3.9459920141     2.2292969409
| 26> *
| 27>
| 28>                          ****END OF INPUT****

CARTESIAN COORDINATES (ANGSTROEM)
---------------------------------
  C      0.799801   -0.034021   -0.178435
  C      0.103780   -0.882030    0.893814
  C     -1.357929   -1.121488    0.561107
  C     -1.858333   -2.299657   -0.220264
  C     -0.915550   -3.378382   -0.746816
  C     -1.563789   -4.689246   -0.826398
  N     -2.083032   -5.719763   -0.886312
  N     -2.191275   -2.145041    1.190877
  C     -1.656719   -3.047786    2.200315
  H      1.833887    0.185517    0.102570
  H      0.815699   -0.547593   -1.145492
  H      0.282640    0.920707   -0.321400
  H      0.649270   -1.819922    1.032100
  H      0.155815   -0.361836    1.858926
  H     -1.898191   -0.185322    0.408072
  H     -2.711789   -2.153502   -0.881549
  H     -0.582252   -3.100434   -1.753804
  H     -0.014524   -3.479111   -0.137737
  H     -0.613218   -3.365386    2.061171
  H     -1.726237   -2.556436    3.175576
  H     -2.280242   -3.945992    2.229297

 Total Charge           Charge          ....    0
 Multiplicity           Mult            ....    1
 Number of Electrons    NEL             ....   68
 Basis Dimension        Dim             ....  351

ORBITAL ENERGIES
----------------

  NO   OCC          E(Eh)            E(eV)
   0   2.0000     -15.569522      -423.6682
   1   2.0000     -15.566969      -423.5988
   2   2.0000     -11.290019      -307.2170
   3   2.0000     -11.280926      -306.9696
   4   2.0000     -11.274302      -306.7894
   5   2.0000     -11.272161      -306.7311
   6   2.0000     -11.254568      -306.2524
   7   2.0000     -11.244125      -305.9682
   8   2.0000     -11.232824      -305.6607
   9   2.0000      -1.286794       -35.0154
  10   2.0000      -1.218600       -33.1598
  11   2.0000      -1.064880       -28.9769
  12   2.0000      -1.059880       -28.8408
  13   2.0000      -0.992056       -26.9952
  14   2.0000      -0.893589       -24.3158
  15   2.0000      -0.815448       -22.1895
  16   2.0000      -0.784584       -21.3496
  17   2.0000      -0.720975       -19.6187
  18   2.0000      -0.682140       -18.5620
  19   2.0000      -0.653206       -17.7746
  20   2.0000      -0.630208       -17.1488
  21   2.0000      -0.617283       -16.7971
  22   2.0000      -0.593222       -16.1424
  23   2.0000      -0.568464       -15.4687
  24   2.0000      -0.566876       -15.4255
  25   2.0000      -0.556538       -15.1442
  26   2.0000      -0.535082       -14.5603
  27   2.0000      -0.523461       -14.2441
  28   2.0000      -0.506575       -13.7846
  29   2.0000      -0.473069       -12.8729
  30   2.0000      -0.466519       -12.6946
  31   2.0000      -0.448968       -12.2170
  32   2.0000      -0.445144       -12.1130
  33   2.0000      -0.371865       -10.1190
  34   0.0000       0.115140         3.1331
  35   0.0000       0.141555         3.8519
  36   0.0000       0.148527         4.0416
  37   0.0000       0.156053         4.2464
  38   0.0000       0.174492         4.7482

MULLIKEN ATOMIC CHARGES
-----------------------
   0 C :   -0.398474
   1 C :   -0.195005
   2 C :   -0.057187
   3 C :   -0.066177
   4 C :   -0.172521
   5 C :   -0.163146
   6 N :   -0.055963
   7 N :   -0.205051
   8 C :   -0.305311
   9 H :    0.140647
  10 H :    0.126000
  11 H :    0.132051
  12 H :    0.101420
  13 H :    0.128630
  14 H :    0.120192
  15 H :    0.131507
  16 H :    0.164785
  17 H :    0.161878
  18 H :    0.104581
  19 H :    0.146247
  20 H :    0.160896
Sum of atomic charges:    0.0000000

LOEWDIN ATOMIC CHARGES
----------------------
   0 C :   -0.309609
   1 C :   -0.277858
   2 C :   -0.236886
   3 C :   -0.227836
   4 C :   -0.232244
   5 C :   -0.188778
   6 N :    0.058521
   7 N :    0.114250
   8 C :   -0.326054
   9 H :    0.123217
  10 H :    0.120652
  11 H :    0.124286
  12 H :    0.133239
  13 H :    0.143894
  14 H :    0.146789
  15 H :    0.148798
  16 H :    0.170788
  17 H :    0.163603
  18 H :    0.102804
  19 H :    0.122172
  20 H :    0.126252

  Mayer bond orders larger than 0.1
B(  0-C ,  1-C ) :   0.9161 B(  0-C ,  9-H ) :   0.9387 B(  0-C , 10-H ) :   0.9394
B(  0-C , 11-H ) :   0.9382 B(  1-C ,  2-C ) :   0.8997 B(  1-C , 12-H ) :   0.9357
B(  1-C , 13-H ) :   0.9301 B(  2-C ,  3-C ) :   0.9457 B(  2-C ,  7-N ) :   0.9091
B(  2-C , 14-H ) :   0.9149 B(  3-C ,  4-C ) :   0.8818 B(  3-C ,  7-N ) :   0.9454
B(  3-C , 15-H ) :   0.9077 B(  4-C ,  5-C ) :   0.9374 B(  4-C , 16-H ) :   0.9009
B(  4-C , 17-H ) :   0.9238 B(  5-C ,  6-N ) :   2.8732 B(  7-N ,  8-C ) :   0.8792
B(  8-C , 18-H ) :   0.9239 B(  8-C , 19-H ) :   0.9347 B(  8-C , 20-H ) :   0.9334

MP2 TOTAL ENERGY:     -382.574498010 Eh
FINAL SINGLE POINT ENERGY      -382.574498009703

DIPOLE MOMENT
-------------
                                X             Y             Z
Electronic contribution:     -6.11273      -8.14454      -3.26191
Nuclear contribution   :      7.28215       9.51453       3.39163
                        -----------------------------------------
Total Dipole Moment    :      1.16942       1.36999       0.12971
                        -----------------------------------------
Magnitude (a.u.)       :      1.80589
Magnitude (Debye)      :      4.59022

                             ****ORCA TERMINATED NORMALLY****
TOTAL RUN TIME: 0 days 0 hours 18 minutes 20 seconds 623 msec
