                         Program Version 3.0.3 - RELEASE   -
|  1> ! RI-MP2 RIJK def2-TZVP def2-TZVP/C def2-TZVP/JK TIGHTSCF
|  2> % maxcore 2000
|  3> % mp2 density relaxed end
|  4> *xyz 0 1
|  5>  O        0.0420145717     0.0185663063     0.0160705839
|  6>  C       -0.0080130368     1.2058713762     0.0541717964
|  7>  C       -1.1258666780     2.2639492207     0.1335725709
|  8>  C        0.0150262865     3.2757912718     0.0538969469
|  9>  C        1.0064683029     3.0404240217     1.1088186182
| 10>  N        1.0703280271     2.1724814734    -0.1113084041
| 11>  H       -1.7610741232     2.2289587873    -0.7551254775
| 12>  H       -1.7551711391     2.2728078811     1.0270845689
| 13>  H        0.0424743283     4.1378208699    -0.6004820225
| 14>  H        1.8625332078     3.7028076856     1.1795853836
| 15>  H        0.7029788027     2.5883414862     2.0502956051
| 16> *
| 17>
| 18>                          ****END OF INPUT****

CARTESIAN COORDINATES (ANGSTROEM)
---------------------------------
  O      0.042015    0.018566    0.016071
  C     -0.008013    1.205871    0.054172
  C     -1.125867    2.263949    0.133573
  C      0.015026    3.275791    0.053897
  C      1.006468    3.040424    1.108819
  N      1.070328    2.172481   -0.111308
  H     -1.761074    2.228959   -0.755125
  H     -1.755171    2.272808    1.027085
  H      0.042474    4.137821   -0.600482
  H      1.862533    3.702808    1.179585
  H      0.702979    2.588341    2.050296

 Total Charge           Charge          ....    0
 Multiplicity           Mult            ....    1
 Number of Electrons    NEL             ....   44
 Basis Dimension        Dim             ....  216

ORBITAL ENERGIES
----------------

  NO   OCC          E(Eh)            E(eV)
   0   2.0000     -20.557324      -559.3932
   1   2.0000     -15.588539      -424.1857
   2   2.0000     -11.364377      -309.2404
   3   2.0000     -11.293355      -307.3078
   4   2.0000     -11.292121      -307.2742
   5   2.0000     -11.264641      -306.5265
   6   2.0000      -1.415308       -38.5125
   7   2.0000      -1.312700       -35.7204
   8   2.0000      -1.023406       -27.8483
   9   2.0000      -0.953584       -25.9483
  10   2.0000      -0.838474       -22.8160
  11   2.0000      -0.731061       -19.8932
  12   2.0000      -0.704433       -19.1686
  13   2.0000      -0.677774       -18.4432
  14   2.0000      -0.653320       -17.7777
  15   2.0000      -0.588487       -16.0135
  16   2.0000      -0.571500       -15.5513
  17   2.0000      -0.543330       -14.7848
  18   2.0000      -0.522543       -14.2191
  19   2.0000      -0.459593       -12.5062
  20   2.0000      -0.438983       -11.9453
  21   2.0000      -0.401148       -10.9158
  22   0.0000       0.133688         3.6378
  23   0.0000       0.145530         3.9601
  24   0.0000       0.160628         4.3709
  25   0.0000       0.168825         4.5940
  26   0.0000       0.187157         5.0928

MULLIKEN ATOMIC CHARGES
-----------------------
   0 O :   -0.234440
   1 C :    0.193681
   2 C :   -0.251656
   3 C :   -0.078739
   4 C :   -0.149219
   5 N :   -0.205903
   6 H :    0.148399
   7 H :    0.142685
   8 H :    0.147646
   9 H :    0.147182
  10 H :    0.140363
Sum of atomic charges:   -0.0000000

LOEWDIN ATOMIC CHARGES
----------------------
   0 O :    0.175709
   1 C :   -0.387043
   2 C :   -0.203406
   3 C :   -0.208110
   4 C :   -0.220524
   5 N :    0.138619
   6 H :    0.153204
   7 H :    0.142360
   8 H :    0.137616
   9 H :    0.138194
  10 H :    0.133382

  Mayer bond orders larger than 0.1
B(  0-O ,  1-C ) :   2.0666 B(  1-C ,  2-C ) :   0.9240 B(  1-C ,  5-N ) :   0.9568
B(  2-C ,  3-C ) :   0.9292 B(  2-C ,  6-H ) :   0.9091 B(  2-C ,  7-H ) :   0.8973
B(  3-C ,  4-C ) :   0.9649 B(  3-C ,  5-N ) :   0.8581 B(  3-C ,  8-H ) :   0.9046
B(  4-C ,  5-N ) :   0.8390 B(  4-C ,  9-H ) :   0.9245 B(  4-C , 10-H ) :   0.9114

MP2 TOTAL ENERGY:     -284.785482086 Eh
FINAL SINGLE POINT ENERGY      -284.785482085633

DIPOLE MOMENT
-------------
                                X             Y             Z
Electronic contribution:      1.00858      -3.40919      -1.24915
Nuclear contribution   :     -1.60531       4.75986       1.70992
                        -----------------------------------------
Total Dipole Moment    :     -0.59672       1.35067       0.46077
                        -----------------------------------------
Magnitude (a.u.)       :      1.54684
Magnitude (Debye)      :      3.93175

                             ****ORCA TERMINATED NORMALLY****
TOTAL RUN TIME: 0 days 0 hours 4 minutes 14 seconds 19 msec
