                         Program Version 3.0.3 - RELEASE   -
|  1> ! RI-MP2 RIJK def2-TZVP def2-TZVP/C def2-TZVP/JK TIGHTSCF
|  2> % maxcore 2000
|  3> % mp2 density relaxed end
|  4> *xyz 0 1
|  5>  C       -0.4088396004     1.3465631994    -0.0251429785
|  6>  C       -0.0082612396    -0.1071454999     0.0646030177
|  7>  C       -0.6272728424    -0.9976404559     1.1248072275
|  8>  C        0.8430517008    -0.6627466919     1.1890662034
|  9>  C        1.8175645280    -1.6759242965     0.6123892731
| 10>  C        1.2206017621    -2.0566114025    -0.7629921468
| 11>  C        0.4400872195    -0.8017335463    -1.2314296261
| 12>  C       -0.7271655810    -1.1448753895    -2.1275668887
| 13>  O       -0.9295235181    -0.6781116006    -3.2194902857
| 14>  H        0.3957004995     1.9524639463    -0.4580720167
| 15>  H       -1.2959847617     1.4818083280    -0.6543623120
| 16>  H       -0.6395816731     1.7526729154     0.9645527183
| 17>  H       -1.2787296529    -0.5092462056     1.8416602172
| 18>  H       -0.9310950677    -2.0111754488     0.8845067017
| 19>  H        1.1835760304    -0.0082548167     1.9847538627
| 20>  H        2.7988089149    -1.2039581339     0.4840806732
| 21>  H        1.9631342138    -2.5537814944     1.2511732235
| 22>  H        1.9810266289    -2.3566796692    -1.4876179735
| 23>  H        0.5350552561    -2.9055386720    -0.6602918123
| 24>  H        1.0918151827    -0.1198263005    -1.7889845398
| 25>  H       -1.4343261299    -1.8851830248    -1.6824716481
| 26> *
| 27>
| 28>                          ****END OF INPUT****

CARTESIAN COORDINATES (ANGSTROEM)
---------------------------------
  C     -0.408840    1.346563   -0.025143
  C     -0.008261   -0.107145    0.064603
  C     -0.627273   -0.997640    1.124807
  C      0.843052   -0.662747    1.189066
  C      1.817565   -1.675924    0.612389
  C      1.220602   -2.056611   -0.762992
  C      0.440087   -0.801734   -1.231430
  C     -0.727166   -1.144875   -2.127567
  O     -0.929524   -0.678112   -3.219490
  H      0.395700    1.952464   -0.458072
  H     -1.295985    1.481808   -0.654362
  H     -0.639582    1.752673    0.964553
  H     -1.278730   -0.509246    1.841660
  H     -0.931095   -2.011175    0.884507
  H      1.183576   -0.008255    1.984754
  H      2.798809   -1.203958    0.484081
  H      1.963134   -2.553781    1.251173
  H      1.981027   -2.356680   -1.487618
  H      0.535055   -2.905539   -0.660292
  H      1.091815   -0.119826   -1.788985
  H     -1.434326   -1.885183   -1.682472

 Total Charge           Charge          ....    0
 Multiplicity           Mult            ....    1
 Number of Electrons    NEL             ....   68
 Basis Dimension        Dim             ....  351

ORBITAL ENERGIES
----------------

  NO   OCC          E(Eh)            E(eV)
   0   2.0000     -20.551981      -559.2478
   1   2.0000     -11.324851      -308.1649
   2   2.0000     -11.247837      -306.0692
   3   2.0000     -11.241756      -305.9037
   4   2.0000     -11.237507      -305.7881
   5   2.0000     -11.235680      -305.7384
   6   2.0000     -11.232955      -305.6643
   7   2.0000     -11.231905      -305.6357
   8   2.0000     -11.223459      -305.4059
   9   2.0000      -1.390414       -37.8351
  10   2.0000      -1.191945       -32.4345
  11   2.0000      -1.051549       -28.6141
  12   2.0000      -1.012481       -27.5510
  13   2.0000      -0.948067       -25.7982
  14   2.0000      -0.862166       -23.4607
  15   2.0000      -0.820613       -22.3300
  16   2.0000      -0.770337       -20.9619
  17   2.0000      -0.743605       -20.2345
  18   2.0000      -0.680856       -18.5270
  19   2.0000      -0.648844       -17.6559
  20   2.0000      -0.646872       -17.6023
  21   2.0000      -0.615532       -16.7495
  22   2.0000      -0.582265       -15.8442
  23   2.0000      -0.574463       -15.6319
  24   2.0000      -0.567342       -15.4382
  25   2.0000      -0.545732       -14.8501
  26   2.0000      -0.534285       -14.5386
  27   2.0000      -0.519869       -14.1464
  28   2.0000      -0.491147       -13.3648
  29   2.0000      -0.486855       -13.2480
  30   2.0000      -0.465575       -12.6690
  31   2.0000      -0.426122       -11.5954
  32   2.0000      -0.410232       -11.1630
  33   2.0000      -0.385730       -10.4962
  34   0.0000       0.132468         3.6046
  35   0.0000       0.135392         3.6842
  36   0.0000       0.148362         4.0371
  37   0.0000       0.155083         4.2200
  38   0.0000       0.171342         4.6625

MULLIKEN ATOMIC CHARGES
-----------------------
   0 C :   -0.431691
   1 C :    0.074221
   2 C :   -0.329812
   3 C :   -0.093817
   4 C :   -0.212950
   5 C :   -0.285410
   6 C :    0.000358
   7 C :    0.064017
   8 O :   -0.260314
   9 H :    0.133509
  10 H :    0.146368
  11 H :    0.130489
  12 H :    0.135126
  13 H :    0.135871
  14 H :    0.126416
  15 H :    0.117086
  16 H :    0.120344
  17 H :    0.140804
  18 H :    0.124998
  19 H :    0.093969
  20 H :    0.070420
Sum of atomic charges:    0.0000000

LOEWDIN ATOMIC CHARGES
----------------------
   0 C :   -0.263333
   1 C :   -0.222551
   2 C :   -0.184967
   3 C :   -0.181634
   4 C :   -0.230009
   5 C :   -0.215935
   6 C :   -0.200321
   7 C :   -0.271898
   8 O :    0.131688
   9 H :    0.128933
  10 H :    0.131013
  11 H :    0.129482
  12 H :    0.138039
  13 H :    0.134130
  14 H :    0.145595
  15 H :    0.141514
  16 H :    0.137179
  17 H :    0.138926
  18 H :    0.138706
  19 H :    0.162863
  20 H :    0.112578

  Mayer bond orders larger than 0.1
B(  0-C ,  1-C ) :   0.9164 B(  0-C ,  9-H ) :   0.9372 B(  0-C , 10-H ) :   0.9342
B(  0-C , 11-H ) :   0.9361 B(  1-C ,  2-C ) :   0.8770 B(  1-C ,  3-C ) :   0.8213
B(  1-C ,  6-C ) :   0.8869 B(  2-C ,  3-C ) :   0.8757 B(  2-C , 12-H ) :   0.9296
B(  2-C , 13-H ) :   0.9224 B(  3-C ,  4-C ) :   0.9343 B(  3-C , 14-H ) :   0.9258
B(  4-C ,  5-C ) :   0.9280 B(  4-C , 15-H ) :   0.9269 B(  4-C , 16-H ) :   0.9267
B(  5-C ,  6-C ) :   0.9067 B(  5-C , 17-H ) :   0.9322 B(  5-C , 18-H ) :   0.9278
B(  6-C ,  7-C ) :   0.8547 B(  6-C , 19-H ) :   0.9054 B(  7-C ,  8-O ) :   2.0051
B(  7-C , 20-H ) :   0.9411

MP2 TOTAL ENERGY:     -386.432163680 Eh
FINAL SINGLE POINT ENERGY      -386.432163680172

DIPOLE MOMENT
-------------
                                X             Y             Z
Electronic contribution:     -1.82509      -0.74566      -5.41049
Nuclear contribution   :      2.25563       0.54201       6.46369
                        -----------------------------------------
Total Dipole Moment    :      0.43055      -0.20364       1.05320
                        -----------------------------------------
Magnitude (a.u.)       :      1.15589
Magnitude (Debye)      :      2.93803

                             ****ORCA TERMINATED NORMALLY****
TOTAL RUN TIME: 0 days 0 hours 20 minutes 29 seconds 964 msec
