                         Program Version 3.0.3 - RELEASE   -
|  1> ! RI-MP2 RIJK def2-TZVP def2-TZVP/C def2-TZVP/JK TIGHTSCF
|  2> % maxcore 2000
|  3> % mp2 density relaxed end
|  4> *xyz 0 1
|  5>  C       -1.1193162169     0.4476811637     0.0268913524
|  6>  C        0.1888834764    -0.3334098192     0.2268946796
|  7>  C        0.8174123857    -0.7462959142    -1.0777998901
|  8>  C        0.2442463612    -1.8658890125    -1.9520122425
|  9>  O        1.5689370936    -2.3194563787    -2.3342072000
| 10>  C        2.1577575284    -1.3434539432    -1.4725749446
| 11>  C        1.8265267159     0.0632619863    -1.9032834716
| 12>  C        1.6022055174     0.4002948265    -3.3652308455
| 13>  C        2.5697167726     1.1385847592    -1.1269366972
| 14>  H       -0.9454584735     1.3708576648    -0.5354806594
| 15>  H       -1.8549030675    -0.1439118339    -0.5290562202
| 16>  H       -1.5685260881     0.7168205595     0.9878514398
| 17>  H        0.8866845783     0.2731383761     0.8122779741
| 18>  H       -0.0125358779    -1.2302632635     0.8281669829
| 19>  H       -0.2668322091    -2.6379887411    -1.3630836557
| 20>  H       -0.3738041999    -1.5965109207    -2.8163815751
| 21>  H        3.0382432478    -1.6345556191    -0.9074891585
| 22>  H        1.2730455859    -0.4718026024    -3.9332378957
| 23>  H        0.8578302847     1.1963403419    -3.4823551977
| 24>  H        2.5353706076     0.7515455578    -3.8201684930
| 25>  H        3.4950555165     1.4062798122    -1.6486374650
| 26>  H        1.9702603409     2.0510564976    -1.0269351676
| 27>  H        2.8450392800     0.8112136128    -0.1198135893
| 28> *
| 29>
| 30>                          ****END OF INPUT****

CARTESIAN COORDINATES (ANGSTROEM)
---------------------------------
  C     -1.119316    0.447681    0.026891
  C      0.188883   -0.333410    0.226895
  C      0.817412   -0.746296   -1.077800
  C      0.244246   -1.865889   -1.952012
  O      1.568937   -2.319456   -2.334207
  C      2.157758   -1.343454   -1.472575
  C      1.826527    0.063262   -1.903283
  C      1.602206    0.400295   -3.365231
  C      2.569717    1.138585   -1.126937
  H     -0.945458    1.370858   -0.535481
  H     -1.854903   -0.143912   -0.529056
  H     -1.568526    0.716821    0.987851
  H      0.886685    0.273138    0.812278
  H     -0.012536   -1.230263    0.828167
  H     -0.266832   -2.637989   -1.363084
  H     -0.373804   -1.596511   -2.816382
  H      3.038243   -1.634556   -0.907489
  H      1.273046   -0.471803   -3.933238
  H      0.857830    1.196340   -3.482355
  H      2.535371    0.751546   -3.820168
  H      3.495056    1.406280   -1.648637
  H      1.970260    2.051056   -1.026935
  H      2.845039    0.811214   -0.119814

 Total Charge           Charge          ....    0
 Multiplicity           Mult            ....    1
 Number of Electrons    NEL             ....   70
 Basis Dimension        Dim             ....  363

ORBITAL ENERGIES
----------------

  NO   OCC          E(Eh)            E(eV)
   0   2.0000     -20.548358      -559.1492
   1   2.0000     -11.278212      -306.8957
   2   2.0000     -11.277656      -306.8806
   3   2.0000     -11.240783      -305.8773
   4   2.0000     -11.235332      -305.7289
   5   2.0000     -11.229678      -305.5751
   6   2.0000     -11.221978      -305.3656
   7   2.0000     -11.219200      -305.2899
   8   2.0000     -11.210575      -305.0552
   9   2.0000      -1.386481       -37.7281
  10   2.0000      -1.138869       -30.9902
  11   2.0000      -1.041915       -28.3519
  12   2.0000      -0.975583       -26.5470
  13   2.0000      -0.941986       -25.6327
  14   2.0000      -0.925356       -25.1802
  15   2.0000      -0.857972       -23.3466
  16   2.0000      -0.758932       -20.6516
  17   2.0000      -0.719420       -19.5764
  18   2.0000      -0.666395       -18.1335
  19   2.0000      -0.647985       -17.6326
  20   2.0000      -0.639428       -17.3997
  21   2.0000      -0.608289       -16.5524
  22   2.0000      -0.584692       -15.9103
  23   2.0000      -0.564614       -15.3639
  24   2.0000      -0.547757       -14.9052
  25   2.0000      -0.539466       -14.6796
  26   2.0000      -0.538021       -14.6403
  27   2.0000      -0.525082       -14.2882
  28   2.0000      -0.521595       -14.1933
  29   2.0000      -0.500994       -13.6327
  30   2.0000      -0.489921       -13.3314
  31   2.0000      -0.473612       -12.8876
  32   2.0000      -0.448943       -12.2163
  33   2.0000      -0.376486       -10.2447
  34   2.0000      -0.362641        -9.8680
  35   0.0000       0.126020         3.4292
  36   0.0000       0.152659         4.1541
  37   0.0000       0.162189         4.4134
  38   0.0000       0.169348         4.6082
  39   0.0000       0.191919         5.2224

MULLIKEN ATOMIC CHARGES
-----------------------
   0 C :   -0.404440
   1 C :   -0.179998
   2 C :   -0.070060
   3 C :   -0.033554
   4 O :   -0.343514
   5 C :    0.021373
   6 C :    0.092589
   7 C :   -0.410252
   8 C :   -0.455090
   9 H :    0.128284
  10 H :    0.126587
  11 H :    0.135804
  12 H :    0.109112
  13 H :    0.116283
  14 H :    0.103891
  15 H :    0.111546
  16 H :    0.127331
  17 H :    0.155410
  18 H :    0.128644
  19 H :    0.125404
  20 H :    0.141140
  21 H :    0.136870
  22 H :    0.136638
Sum of atomic charges:    0.0000000

LOEWDIN ATOMIC CHARGES
----------------------
   0 C :   -0.308531
   1 C :   -0.257456
   2 C :   -0.184497
   3 C :   -0.220272
   4 O :    0.145648
   5 C :   -0.201400
   6 C :   -0.245928
   7 C :   -0.264752
   8 C :   -0.260742
   9 H :    0.121750
  10 H :    0.121461
  11 H :    0.120910
  12 H :    0.141674
  13 H :    0.141528
  14 H :    0.126399
  15 H :    0.118558
  16 H :    0.132742
  17 H :    0.133704
  18 H :    0.125708
  19 H :    0.127794
  20 H :    0.129637
  21 H :    0.127617
  22 H :    0.128451

  Mayer bond orders larger than 0.1
B(  0-C ,  1-C ) :   0.9166 B(  0-C ,  9-H ) :   0.9383 B(  0-C , 10-H ) :   0.9394
B(  0-C , 11-H ) :   0.9392 B(  1-C ,  2-C ) :   0.8985 B(  1-C , 12-H ) :   0.9292
B(  1-C , 13-H ) :   0.9325 B(  2-C ,  3-C ) :   0.9735 B(  2-C ,  5-C ) :   0.8834
B(  2-C ,  6-C ) :   0.8351 B(  3-C ,  4-O ) :   0.9171 B(  3-C , 14-H ) :   0.9048
B(  3-C , 15-H ) :   0.9206 B(  4-O ,  5-C ) :   0.9580 B(  5-C ,  6-C ) :   0.8655
B(  5-C , 16-H ) :   0.9210 B(  6-C ,  7-C ) :   0.9044 B(  6-C ,  8-C ) :   0.8889
B(  7-C , 17-H ) :   0.9287 B(  7-C , 18-H ) :   0.9376 B(  7-C , 19-H ) :   0.9347
B(  8-C , 20-H ) :   0.9377 B(  8-C , 21-H ) :   0.9404 B(  8-C , 22-H ) :   0.9337

MP2 TOTAL ENERGY:     -387.577433382 Eh
FINAL SINGLE POINT ENERGY      -387.577433382192

DIPOLE MOMENT
-------------
                                X             Y             Z
Electronic contribution:      2.82039      -6.80624      -2.05945
Nuclear contribution   :     -3.06644       7.35296       2.55209
                        -----------------------------------------
Total Dipole Moment    :     -0.24606       0.54673       0.49264
                        -----------------------------------------
Magnitude (a.u.)       :      0.77598
Magnitude (Debye)      :      1.97239

                             ****ORCA TERMINATED NORMALLY****
TOTAL RUN TIME: 0 days 0 hours 20 minutes 53 seconds 273 msec
