                         Program Version 3.0.3 - RELEASE   -
|  1> ! RI-MP2 RIJK def2-TZVP def2-TZVP/C def2-TZVP/JK TIGHTSCF
|  2> % maxcore 2000
|  3> % mp2 density relaxed end
|  4> *xyz 0 1
|  5>  C       -0.1493945590     1.5356442384     0.2560140407
|  6>  C       -0.0702180117     0.0094231898     0.0707622268
|  7>  C        0.5145652646    -0.6379731748     1.3418285429
|  8>  C       -1.4979994669    -0.5274887332    -0.1632096215
|  9>  C        0.7790421851    -0.4205883678    -1.1324421770
| 10>  C        1.1054818738     0.4430200370    -2.3151257297
| 11>  C        2.2316625963    -0.0278686943    -1.4026321229
| 12>  C        2.9842649928     0.8958133655    -0.6044461148
| 13>  C        3.6734668284     1.6405155258     0.0440625725
| 14>  H        0.8376480521     1.9870141384     0.3760821164
| 15>  H       -0.6481751658     2.0162466513    -0.5919386381
| 16>  H       -0.7354053154     1.7667831490     1.1520150424
| 17>  H       -0.1185203519    -0.4291988883     2.2113275866
| 18>  H        0.5826827198    -1.7262864334     1.2330088710
| 19>  H        1.5178145635    -0.2557194710     1.5498433144
| 20>  H       -1.9267233513    -0.1222365542    -1.0860753861
| 21>  H       -1.5052924255    -1.6204198003    -0.2403866679
| 22>  H       -2.1572482817    -0.2475501649     0.6654661361
| 23>  H        0.6049826626    -1.4656943740    -1.3815090247
| 24>  H        1.0560632138     0.0205041860    -3.3127145114
| 25>  H        0.8591631811     1.4964571830    -2.2606149003
| 26>  H        2.8405744210    -0.8361194807    -1.7994449293
| 27>  H        4.2682101543     2.3044186528     0.6206453736
| 28> *
| 29>
| 30>                          ****END OF INPUT****

CARTESIAN COORDINATES (ANGSTROEM)
---------------------------------
  C     -0.149395    1.535644    0.256014
  C     -0.070218    0.009423    0.070762
  C      0.514565   -0.637973    1.341829
  C     -1.497999   -0.527489   -0.163210
  C      0.779042   -0.420588   -1.132442
  C      1.105482    0.443020   -2.315126
  C      2.231663   -0.027869   -1.402632
  C      2.984265    0.895813   -0.604446
  C      3.673467    1.640516    0.044063
  H      0.837648    1.987014    0.376082
  H     -0.648175    2.016247   -0.591939
  H     -0.735405    1.766783    1.152015
  H     -0.118520   -0.429199    2.211328
  H      0.582683   -1.726286    1.233009
  H      1.517815   -0.255719    1.549843
  H     -1.926723   -0.122237   -1.086075
  H     -1.505292   -1.620420   -0.240387
  H     -2.157248   -0.247550    0.665466
  H      0.604983   -1.465694   -1.381509
  H      1.056063    0.020504   -3.312715
  H      0.859163    1.496457   -2.260615
  H      2.840574   -0.836119   -1.799445
  H      4.268210    2.304419    0.620645

 Total Charge           Charge          ....    0
 Multiplicity           Mult            ....    1
 Number of Electrons    NEL             ....   68
 Basis Dimension        Dim             ....  363

ORBITAL ENERGIES
----------------

  NO   OCC          E(Eh)            E(eV)
   0   2.0000     -11.253764      -306.2305
   1   2.0000     -11.241108      -305.8861
   2   2.0000     -11.239397      -305.8395
   3   2.0000     -11.234741      -305.7128
   4   2.0000     -11.232717      -305.6578
   5   2.0000     -11.216053      -305.2043
   6   2.0000     -11.211224      -305.0729
   7   2.0000     -11.206268      -304.9380
   8   2.0000     -11.205784      -304.9249
   9   2.0000      -1.166341       -31.7377
  10   2.0000      -1.078839       -29.3567
  11   2.0000      -1.019839       -27.7512
  12   2.0000      -0.928056       -25.2537
  13   2.0000      -0.927243       -25.2316
  14   2.0000      -0.868324       -23.6283
  15   2.0000      -0.840982       -22.8843
  16   2.0000      -0.746156       -20.3039
  17   2.0000      -0.702802       -19.1242
  18   2.0000      -0.676974       -18.4214
  19   2.0000      -0.652126       -17.7452
  20   2.0000      -0.597324       -16.2540
  21   2.0000      -0.593299       -16.1445
  22   2.0000      -0.577155       -15.7052
  23   2.0000      -0.542576       -14.7642
  24   2.0000      -0.539895       -14.6913
  25   2.0000      -0.528068       -14.3695
  26   2.0000      -0.510147       -13.8818
  27   2.0000      -0.484876       -13.1941
  28   2.0000      -0.477257       -12.9868
  29   2.0000      -0.457388       -12.4462
  30   2.0000      -0.456860       -12.4318
  31   2.0000      -0.431984       -11.7549
  32   2.0000      -0.375067       -10.2061
  33   2.0000      -0.352887        -9.6025
  34   0.0000       0.133330         3.6281
  35   0.0000       0.151483         4.1221
  36   0.0000       0.165581         4.5057
  37   0.0000       0.166123         4.5204
  38   0.0000       0.178318         4.8523

MULLIKEN ATOMIC CHARGES
-----------------------
   0 C :   -0.459881
   1 C :    0.136171
   2 C :   -0.411215
   3 C :   -0.416570
   4 C :   -0.111899
   5 C :   -0.235969
   6 C :   -0.263484
   7 C :   -0.026330
   8 C :   -0.135202
   9 H :    0.163679
  10 H :    0.128340
  11 H :    0.130782
  12 H :    0.126269
  13 H :    0.122248
  14 H :    0.150214
  15 H :    0.133734
  16 H :    0.126335
  17 H :    0.131653
  18 H :    0.113732
  19 H :    0.134828
  20 H :    0.141860
  21 H :    0.134875
  22 H :    0.185830
Sum of atomic charges:    0.0000000

LOEWDIN ATOMIC CHARGES
----------------------
   0 C :   -0.267749
   1 C :   -0.327877
   2 C :   -0.263803
   3 C :   -0.268781
   4 C :   -0.154419
   5 C :   -0.179542
   6 C :   -0.188613
   7 C :   -0.102737
   8 C :   -0.108346
   9 H :    0.132272
  10 H :    0.124175
  11 H :    0.127326
  12 H :    0.123864
  13 H :    0.124883
  14 H :    0.131262
  15 H :    0.125980
  16 H :    0.123259
  17 H :    0.125257
  18 H :    0.157700
  19 H :    0.132364
  20 H :    0.141716
  21 H :    0.166162
  22 H :    0.125649

  Mayer bond orders larger than 0.1
B(  0-C ,  1-C ) :   0.8858 B(  0-C ,  9-H ) :   0.9344 B(  0-C , 10-H ) :   0.9366
B(  0-C , 11-H ) :   0.9329 B(  1-C ,  2-C ) :   0.9121 B(  1-C ,  3-C ) :   0.9043
B(  1-C ,  4-C ) :   0.9092 B(  2-C , 12-H ) :   0.9350 B(  2-C , 13-H ) :   0.9320
B(  2-C , 14-H ) :   0.9325 B(  3-C , 15-H ) :   0.9359 B(  3-C , 16-H ) :   0.9333
B(  3-C , 17-H ) :   0.9387 B(  4-C ,  5-C ) :   0.8859 B(  4-C ,  6-C ) :   0.8386
B(  4-C , 18-H ) :   0.9250 B(  5-C ,  6-C ) :   0.8399 B(  5-C , 19-H ) :   0.9260
B(  5-C , 20-H ) :   0.9270 B(  6-C ,  7-C ) :   1.2010 B(  6-C ,  8-C ) :  -0.1391
B(  6-C , 21-H ) :   0.9431 B(  7-C ,  8-C ) :   2.5459 B(  8-C , 22-H ) :   0.9012

MP2 TOTAL ENERGY:     -350.463069305 Eh
FINAL SINGLE POINT ENERGY      -350.463069304707

DIPOLE MOMENT
-------------
                                X             Y             Z
Electronic contribution:      7.58136       1.22659      -2.77752
Nuclear contribution   :     -7.81069      -1.36031       2.66416
                        -----------------------------------------
Total Dipole Moment    :     -0.22933      -0.13372      -0.11336
                        -----------------------------------------
Magnitude (a.u.)       :      0.28866
Magnitude (Debye)      :      0.73371

                             ****ORCA TERMINATED NORMALLY****
TOTAL RUN TIME: 0 days 0 hours 26 minutes 19 seconds 804 msec
