                         Program Version 3.0.3 - RELEASE   -
|  1> ! RI-MP2 RIJK def2-TZVP def2-TZVP/C def2-TZVP/JK TIGHTSCF
|  2> % maxcore 2000
|  3> % mp2 density relaxed end
|  4> *xyz 0 1
|  5>  C       -0.1124531312     1.6084336203    -0.0694091480
|  6>  C       -0.0767078851     0.0817227436    -0.0270994924
|  7>  O        0.4790940865    -0.3604347701    -1.2755752640
|  8>  C        0.2951261913    -1.6966147165    -1.5438579054
|  9>  N        1.1519103811    -2.6112222010    -1.4690474287
| 10>  C        2.4960764243    -2.4192306591    -0.9530179305
| 11>  C        2.8288039141    -1.1607598244    -0.1104544148
| 12>  C        1.9418763481    -0.9779305424     1.1008455294
| 13>  C        0.7139909928    -0.4569572974     1.1388634074
| 14>  H        0.8998714385     2.0063553583    -0.1802734939
| 15>  H       -0.7214834180     1.9516863871    -0.9099864983
| 16>  H       -0.5387450167     2.0034551787     0.8571397482
| 17>  H       -1.1119950930    -0.2918210628     0.0499905761
| 18>  H       -0.7145009213    -1.9331626291    -1.8931479195
| 19>  H        2.7165151950    -3.3135204947    -0.3565450940
| 20>  H        3.1842462793    -2.4611595060    -1.8079169686
| 21>  H        3.8647568969    -1.2805917679     0.2283504074
| 22>  H        2.8006446631    -0.2787891776    -0.7504100571
| 23>  H        2.3534657949    -1.3363250464     2.0424602260
| 24>  H        0.1997101795    -0.3934759628     2.0961696207
| 25> *
| 26>
| 27>                          ****END OF INPUT****

CARTESIAN COORDINATES (ANGSTROEM)
---------------------------------
  C     -0.112453    1.608434   -0.069409
  C     -0.076708    0.081723   -0.027099
  O      0.479094   -0.360435   -1.275575
  C      0.295126   -1.696615   -1.543858
  N      1.151910   -2.611222   -1.469047
  C      2.496076   -2.419231   -0.953018
  C      2.828804   -1.160760   -0.110454
  C      1.941876   -0.977931    1.100846
  C      0.713991   -0.456957    1.138863
  H      0.899871    2.006355   -0.180273
  H     -0.721483    1.951686   -0.909986
  H     -0.538745    2.003455    0.857140
  H     -1.111995   -0.291821    0.049991
  H     -0.714501   -1.933163   -1.893148
  H      2.716515   -3.313520   -0.356545
  H      3.184246   -2.461160   -1.807917
  H      3.864757   -1.280592    0.228350
  H      2.800645   -0.278789   -0.750410
  H      2.353466   -1.336325    2.042460
  H      0.199710   -0.393476    2.096170

 Total Charge           Charge          ....    0
 Multiplicity           Mult            ....    1
 Number of Electrons    NEL             ....   68
 Basis Dimension        Dim             ....  345

ORBITAL ENERGIES
----------------

  NO   OCC          E(Eh)            E(eV)
   0   2.0000     -20.574449      -559.8592
   1   2.0000     -15.547908      -423.0801
   2   2.0000     -11.321066      -308.0619
   3   2.0000     -11.302172      -307.5477
   4   2.0000     -11.253773      -306.2307
   5   2.0000     -11.234184      -305.6977
   6   2.0000     -11.229981      -305.5833
   7   2.0000     -11.225897      -305.4722
   8   2.0000     -11.225175      -305.4525
   9   2.0000      -1.409505       -38.3546
  10   2.0000      -1.215519       -33.0760
  11   2.0000      -1.095462       -29.8090
  12   2.0000      -1.029173       -28.0052
  13   2.0000      -0.986800       -26.8522
  14   2.0000      -0.902211       -24.5504
  15   2.0000      -0.838367       -22.8131
  16   2.0000      -0.799419       -21.7533
  17   2.0000      -0.745188       -20.2776
  18   2.0000      -0.685200       -18.6452
  19   2.0000      -0.664688       -18.0871
  20   2.0000      -0.632133       -17.2012
  21   2.0000      -0.620076       -16.8731
  22   2.0000      -0.608594       -16.5607
  23   2.0000      -0.588362       -16.0101
  24   2.0000      -0.559900       -15.2356
  25   2.0000      -0.548026       -14.9125
  26   2.0000      -0.532806       -14.4984
  27   2.0000      -0.522418       -14.2157
  28   2.0000      -0.511320       -13.9137
  29   2.0000      -0.484593       -13.1864
  30   2.0000      -0.440583       -11.9889
  31   2.0000      -0.407085       -11.0773
  32   2.0000      -0.401680       -10.9303
  33   2.0000      -0.354518        -9.6469
  34   0.0000       0.126781         3.4499
  35   0.0000       0.147360         4.0099
  36   0.0000       0.155445         4.2299
  37   0.0000       0.161490         4.3944
  38   0.0000       0.174350         4.7443

MULLIKEN ATOMIC CHARGES
-----------------------
   0 C :   -0.369677
   1 C :    0.145235
   2 O :   -0.302214
   3 C :    0.077076
   4 N :   -0.230189
   5 C :   -0.125293
   6 C :   -0.172420
   7 C :   -0.170318
   8 C :   -0.216832
   9 H :    0.136201
  10 H :    0.138486
  11 H :    0.128521
  12 H :    0.089306
  13 H :    0.120352
  14 H :    0.125138
  15 H :    0.130684
  16 H :    0.119603
  17 H :    0.128984
  18 H :    0.123353
  19 H :    0.124003
Sum of atomic charges:    0.0000000

LOEWDIN ATOMIC CHARGES
----------------------
   0 C :   -0.280268
   1 C :   -0.319353
   2 O :    0.213468
   3 C :   -0.350576
   4 N :    0.098999
   5 C :   -0.287140
   6 C :   -0.263244
   7 C :   -0.163090
   8 C :   -0.164054
   9 H :    0.129379
  10 H :    0.126559
  11 H :    0.128693
  12 H :    0.144501
  13 H :    0.125414
  14 H :    0.138202
  15 H :    0.141221
  16 H :    0.142729
  17 H :    0.144859
  18 H :    0.145465
  19 H :    0.148238

  Mayer bond orders larger than 0.1
B(  0-C ,  1-C ) :   0.9117 B(  0-C ,  9-H ) :   0.9328 B(  0-C , 10-H ) :   0.9339
B(  0-C , 11-H ) :   0.9328 B(  1-C ,  2-O ) :   0.8611 B(  1-C ,  8-C ) :   0.9235
B(  1-C , 12-H ) :   0.9361 B(  2-O ,  3-C ) :   0.9833 B(  3-C ,  4-N ) :   1.9184
B(  3-C , 13-H ) :   0.9233 B(  4-N ,  5-C ) :   0.9168 B(  5-C ,  6-C ) :   0.8958
B(  5-C , 14-H ) :   0.9349 B(  5-C , 15-H ) :   0.9200 B(  6-C ,  7-C ) :   0.9233
B(  6-C , 16-H ) :   0.9218 B(  6-C , 17-H ) :   0.9254 B(  7-C ,  8-C ) :   1.8214
B(  7-C , 18-H ) :   0.9233 B(  8-C , 19-H ) :   0.9163

MP2 TOTAL ENERGY:     -402.446566155 Eh
FINAL SINGLE POINT ENERGY      -402.446566154618

DIPOLE MOMENT
-------------
                                X             Y             Z
Electronic contribution:     -1.16071      -3.37277      -2.73423
Nuclear contribution   :      1.07966       3.90598       3.28567
                        -----------------------------------------
Total Dipole Moment    :     -0.08105       0.53321       0.55144
                        -----------------------------------------
Magnitude (a.u.)       :      0.77134
Magnitude (Debye)      :      1.96059

                             ****ORCA TERMINATED NORMALLY****
TOTAL RUN TIME: 0 days 0 hours 18 minutes 44 seconds 506 msec
