                         Program Version 3.0.3 - RELEASE   -
|  1> ! RI-MP2 RIJK def2-TZVP def2-TZVP/C def2-TZVP/JK TIGHTSCF
|  2> % maxcore 2000
|  3> % mp2 density relaxed end
|  4> *xyz 0 1
|  5>  C        0.0239717962     1.4040582761     0.4253939950
|  6>  C        0.0376655310    -0.0647444046     0.0626671924
|  7>  C        0.5323205467    -0.5005722456    -1.2787303854
|  8>  N        1.3396517819    -0.7665142075    -0.0902195816
|  9>  C       -0.9931362339    -0.9629625209     0.6878478606
| 10>  O       -1.1700919943    -2.1170569790     0.4134267669
| 11>  O       -1.7304254544    -0.2765654568     1.6246948485
| 12>  C       -2.7185919261    -0.9584456751     2.2921674268
| 13>  N       -3.3967361868    -0.3247745215     3.1404904522
| 14>  H        0.7951690496     1.9346696462    -0.1415777223
| 15>  H       -0.9420554347     1.8627136121     0.1974999532
| 16>  H        0.2129809879     1.5510590093     1.4923199018
| 17>  H        0.0971268612    -1.3850617654    -1.7319775482
| 18>  H        0.8354561328     0.2851109812    -1.9658932037
| 19>  H        2.0813857929    -0.0738505178    -0.0084509006
| 20>  H       -2.7903044166    -2.0031425296     1.9899640981
| 21>  H       -4.0880442034    -0.9448466609     3.5603967462
| 22> *
| 23>
| 24>                          ****END OF INPUT****

CARTESIAN COORDINATES (ANGSTROEM)
---------------------------------
  C      0.023972    1.404058    0.425394
  C      0.037666   -0.064744    0.062667
  C      0.532321   -0.500572   -1.278730
  N      1.339652   -0.766514   -0.090220
  C     -0.993136   -0.962963    0.687848
  O     -1.170092   -2.117057    0.413427
  O     -1.730425   -0.276565    1.624695
  C     -2.718592   -0.958446    2.292167
  N     -3.396736   -0.324775    3.140490
  H      0.795169    1.934670   -0.141578
  H     -0.942055    1.862714    0.197500
  H      0.212981    1.551059    1.492320
  H      0.097127   -1.385062   -1.731978
  H      0.835456    0.285111   -1.965893
  H      2.081386   -0.073851   -0.008451
  H     -2.790304   -2.003143    1.989964
  H     -4.088044   -0.944847    3.560397

 Total Charge           Charge          ....    0
 Multiplicity           Mult            ....    1
 Number of Electrons    NEL             ....   68
 Basis Dimension        Dim             ....  327

ORBITAL ENERGIES
----------------

  NO   OCC          E(Eh)            E(eV)
   0   2.0000     -20.631012      -561.3984
   1   2.0000     -20.561750      -559.5137
   2   2.0000     -15.581817      -424.0028
   3   2.0000     -15.560444      -423.4212
   4   2.0000     -11.401716      -310.2565
   5   2.0000     -11.350224      -308.8553
   6   2.0000     -11.295450      -307.3648
   7   2.0000     -11.275666      -306.8265
   8   2.0000     -11.241056      -305.8847
   9   2.0000      -1.491175       -40.5769
  10   2.0000      -1.393127       -37.9089
  11   2.0000      -1.286223       -34.9999
  12   2.0000      -1.218764       -33.1643
  13   2.0000      -1.028727       -27.9931
  14   2.0000      -0.941739       -25.6260
  15   2.0000      -0.903566       -24.5873
  16   2.0000      -0.835267       -22.7288
  17   2.0000      -0.796143       -21.6641
  18   2.0000      -0.715172       -19.4608
  19   2.0000      -0.696094       -18.9417
  20   2.0000      -0.690691       -18.7947
  21   2.0000      -0.669269       -18.2117
  22   2.0000      -0.660415       -17.9708
  23   2.0000      -0.599840       -16.3225
  24   2.0000      -0.588242       -16.0069
  25   2.0000      -0.575562       -15.6618
  26   2.0000      -0.555448       -15.1145
  27   2.0000      -0.539841       -14.6898
  28   2.0000      -0.498180       -13.5562
  29   2.0000      -0.485449       -13.2097
  30   2.0000      -0.473732       -12.8909
  31   2.0000      -0.446007       -12.1365
  32   2.0000      -0.431110       -11.7311
  33   2.0000      -0.407702       -11.0941
  34   0.0000       0.124402         3.3851
  35   0.0000       0.128331         3.4921
  36   0.0000       0.148556         4.0424
  37   0.0000       0.163465         4.4481
  38   0.0000       0.171352         4.6627

MULLIKEN ATOMIC CHARGES
-----------------------
   0 C :   -0.366800
   1 C :    0.070927
   2 C :   -0.191488
   3 N :   -0.366810
   4 C :    0.320493
   5 O :   -0.306512
   6 O :   -0.193252
   7 C :    0.038735
   8 N :   -0.315959
   9 H :    0.123776
  10 H :    0.147418
  11 H :    0.153099
  12 H :    0.148849
  13 H :    0.135973
  14 H :    0.224908
  15 H :    0.141509
  16 H :    0.235133
Sum of atomic charges:    0.0000000

LOEWDIN ATOMIC CHARGES
----------------------
   0 C :   -0.270098
   1 C :   -0.293816
   2 C :   -0.230742
   3 N :    0.025835
   4 C :   -0.405498
   5 O :    0.153890
   6 O :    0.297226
   7 C :   -0.349320
   8 N :   -0.055179
   9 H :    0.128212
  10 H :    0.136123
  11 H :    0.134430
  12 H :    0.135514
  13 H :    0.125156
  14 H :    0.170680
  15 H :    0.123600
  16 H :    0.173988

  Mayer bond orders larger than 0.1
B(  0-C ,  1-C ) :   0.9481 B(  0-C ,  9-H ) :   0.9198 B(  0-C , 10-H ) :   0.9248
B(  0-C , 11-H ) :   0.9313 B(  1-C ,  2-C ) :   0.8992 B(  1-C ,  3-N ) :   0.8652
B(  1-C ,  4-C ) :   0.9363 B(  2-C ,  3-N ) :   0.9608 B(  2-C , 12-H ) :   0.9061
B(  2-C , 13-H ) :   0.9225 B(  3-N , 14-H ) :   0.8675 B(  4-C ,  5-O ) :   1.9606
B(  4-C ,  6-O ) :   1.0290 B(  6-O ,  7-C ) :   0.9495 B(  7-C ,  8-N ) :   1.9794
B(  7-C , 15-H ) :   0.9255 B(  8-N , 16-H ) :   0.8503

MP2 TOTAL ENERGY:     -454.408088852 Eh
FINAL SINGLE POINT ENERGY      -454.408088852497

DIPOLE MOMENT
-------------
                                X             Y             Z
Electronic contribution:     -3.12679      -4.48443       2.47221
Nuclear contribution   :      3.24305       4.95798      -2.95712
                        -----------------------------------------
Total Dipole Moment    :      0.11626       0.47355      -0.48492
                        -----------------------------------------
Magnitude (a.u.)       :      0.68768
Magnitude (Debye)      :      1.74795

                             ****ORCA TERMINATED NORMALLY****
TOTAL RUN TIME: 0 days 0 hours 13 minutes 55 seconds 108 msec
