                         Program Version 3.0.3 - RELEASE   -
|  1> ! RI-MP2 RIJK def2-TZVP def2-TZVP/C def2-TZVP/JK TIGHTSCF
|  2> % maxcore 2000
|  3> % mp2 density relaxed end
|  4> *xyz 0 1
|  5>  N        0.0134855536     1.2622470760    -0.1570046516
|  6>  C        0.0182702270     0.0268671983     0.0802541358
|  7>  O        1.1081940515    -0.7033671833     0.4786039614
|  8>  C        0.8686368367    -2.1138853101     0.3665237502
|  9>  C       -0.6393307163    -2.2865213160     0.2700589595
| 10>  O       -1.2905985621    -2.3109343591     1.5834360230
| 11>  C       -1.8717210114    -1.0807732630     1.3757724090
| 12>  O       -2.6243393667    -0.4998143289     2.0790579123
| 13>  C       -1.1907389373    -0.8784024653     0.0043289130
| 14>  H        0.9449781453     1.6625860461    -0.0353359445
| 15>  H        1.3643574306    -2.4925405845    -0.5352171714
| 16>  H        1.2874054914    -2.6095949821     1.2453277212
| 17>  H       -0.9730924789    -3.1258027876    -0.3381760671
| 18>  H       -1.8491965334    -0.6644153504    -0.8332185708
| 19> *
| 20>
| 21>                          ****END OF INPUT****

CARTESIAN COORDINATES (ANGSTROEM)
---------------------------------
  N      0.013486    1.262247   -0.157005
  C      0.018270    0.026867    0.080254
  O      1.108194   -0.703367    0.478604
  C      0.868637   -2.113885    0.366524
  C     -0.639331   -2.286521    0.270059
  O     -1.290599   -2.310934    1.583436
  C     -1.871721   -1.080773    1.375772
  O     -2.624339   -0.499814    2.079058
  C     -1.190739   -0.878402    0.004329
  H      0.944978    1.662586   -0.035336
  H      1.364357   -2.492541   -0.535217
  H      1.287405   -2.609595    1.245328
  H     -0.973092   -3.125803   -0.338176
  H     -1.849197   -0.664415   -0.833219

 Total Charge           Charge          ....    0
 Multiplicity           Mult            ....    1
 Number of Electrons    NEL             ....   66
 Basis Dimension        Dim             ....  309

ORBITAL ENERGIES
----------------

  NO   OCC          E(Eh)            E(eV)
   0   2.0000     -20.622669      -561.1713
   1   2.0000     -20.619242      -561.0781
   2   2.0000     -20.571828      -559.7879
   3   2.0000     -15.556808      -423.3223
   4   2.0000     -11.405781      -310.3671
   5   2.0000     -11.365480      -309.2704
   6   2.0000     -11.339828      -308.5724
   7   2.0000     -11.325158      -308.1732
   8   2.0000     -11.293161      -307.3025
   9   2.0000      -1.489636       -40.5351
  10   2.0000      -1.451358       -39.4935
  11   2.0000      -1.400543       -38.1107
  12   2.0000      -1.221744       -33.2453
  13   2.0000      -1.101146       -29.9637
  14   2.0000      -1.023793       -27.8588
  15   2.0000      -0.889869       -24.2146
  16   2.0000      -0.838832       -22.8258
  17   2.0000      -0.776420       -21.1275
  18   2.0000      -0.749818       -20.4036
  19   2.0000      -0.724918       -19.7260
  20   2.0000      -0.695970       -18.9383
  21   2.0000      -0.687059       -18.6958
  22   2.0000      -0.666116       -18.1259
  23   2.0000      -0.632464       -17.2102
  24   2.0000      -0.611748       -16.6465
  25   2.0000      -0.583508       -15.8781
  26   2.0000      -0.554253       -15.0820
  27   2.0000      -0.533705       -14.5229
  28   2.0000      -0.530484       -14.4352
  29   2.0000      -0.482473       -13.1288
  30   2.0000      -0.472320       -12.8525
  31   2.0000      -0.454981       -12.3807
  32   2.0000      -0.418045       -11.3756
  33   0.0000       0.122632         3.3370
  34   0.0000       0.123563         3.3623
  35   0.0000       0.152954         4.1621
  36   0.0000       0.158142         4.3032
  37   0.0000       0.171248         4.6599

MULLIKEN ATOMIC CHARGES
-----------------------
   0 N :   -0.364507
   1 C :    0.082394
   2 O :   -0.261344
   3 C :   -0.033016
   4 C :    0.016957
   5 O :   -0.239379
   6 C :    0.243457
   7 O :   -0.228351
   8 C :   -0.027963
   9 H :    0.232807
  10 H :    0.120714
  11 H :    0.143569
  12 H :    0.145067
  13 H :    0.169594
Sum of atomic charges:   -0.0000000

LOEWDIN ATOMIC CHARGES
----------------------
   0 N :   -0.031921
   1 C :   -0.385479
   2 O :    0.238195
   3 C :   -0.248003
   4 C :   -0.223179
   5 O :    0.253158
   6 C :   -0.422193
   7 O :    0.186273
   8 C :   -0.132988
   9 H :    0.174224
  10 H :    0.134600
  11 H :    0.141331
  12 H :    0.145420
  13 H :    0.170561

  Mayer bond orders larger than 0.1
B(  0-N ,  1-C ) :   2.0515 B(  0-N ,  9-H ) :   0.8492 B(  1-C ,  2-O ) :   1.0769
B(  1-C ,  8-C ) :   0.8706 B(  2-O ,  3-C ) :   0.8913 B(  3-C ,  4-C ) :   0.9512
B(  3-C , 10-H ) :   0.9187 B(  3-C , 11-H ) :   0.9082 B(  4-C ,  5-O ) :   0.8898
B(  4-C ,  8-C ) :   0.9357 B(  4-C , 12-H ) :   0.9207 B(  5-O ,  6-C ) :   1.0704
B(  6-C ,  7-O ) :   2.0764 B(  6-C ,  8-C ) :   0.8593 B(  8-C , 13-H ) :   0.8977

MP2 TOTAL ENERGY:     -473.106496899 Eh
FINAL SINGLE POINT ENERGY      -473.106496898992

DIPOLE MOMENT
-------------
                                X             Y             Z
Electronic contribution:     -2.63722       1.00822       2.57895
Nuclear contribution   :      3.58501      -2.28129      -3.71551
                        -----------------------------------------
Total Dipole Moment    :      0.94778      -1.27306      -1.13657
                        -----------------------------------------
Magnitude (a.u.)       :      1.95212
Magnitude (Debye)      :      4.96189

                             ****ORCA TERMINATED NORMALLY****
TOTAL RUN TIME: 0 days 0 hours 14 minutes 36 seconds 235 msec
