                         Program Version 3.0.3 - RELEASE   -
|  1> ! RI-MP2 RIJK def2-TZVP def2-TZVP/C def2-TZVP/JK TIGHTSCF
|  2> % maxcore 2000
|  3> % mp2 density relaxed end
|  4> *xyz 0 1
|  5>  C        1.2447926168     1.0191181874    -0.8992532641
|  6>  N        0.5395856146    -0.0749240116    -0.2440485829
|  7>  C        1.2971628665    -1.2385655786     0.1809879705
|  8>  C        0.6667508613    -0.3380932850     1.1935228010
|  9>  C        1.4270779390     0.5169212750     2.2088322729
| 10>  C        2.9505416115     0.5491243618     2.0854803111
| 11>  O        0.9996506599     1.8972096475     2.1141508796
| 12>  C        1.0395557608     0.0379456395     3.6307766290
| 13>  O        1.5323738830     0.9136930245     4.6182369254
| 14>  H        2.3057263994     1.1124562953    -0.6315860597
| 15>  H        1.1842887881     0.8572041543    -1.9804888855
| 16>  H        0.7534729567     1.9660866866    -0.6639912170
| 17>  H        0.8620632388    -2.2112870376    -0.0374997395
| 18>  H        2.3810386640    -1.1979481526     0.0855478856
| 19>  H       -0.2875272588    -0.6764840337     1.6025478290
| 20>  H        3.2760878822     1.0393081685     1.1674375487
| 21>  H        3.3586669155     1.1005172347     2.9355037268
| 22>  H        3.3588677259    -0.4641196231     2.1113710753
| 23>  H        0.0439844814     1.9000297486     1.9841819203
| 24>  H       -0.0600870315    -0.0441245500     3.6867597379
| 25>  H        1.4550901232    -0.9558253491     3.8299064350
| 26>  H        1.3409108117     1.8004623879     4.2828095408
| 27> *
| 28>
| 29>                          ****END OF INPUT****

CARTESIAN COORDINATES (ANGSTROEM)
---------------------------------
  C      1.244793    1.019118   -0.899253
  N      0.539586   -0.074924   -0.244049
  C      1.297163   -1.238566    0.180988
  C      0.666751   -0.338093    1.193523
  C      1.427078    0.516921    2.208832
  C      2.950542    0.549124    2.085480
  O      0.999651    1.897210    2.114151
  C      1.039556    0.037946    3.630777
  O      1.532374    0.913693    4.618237
  H      2.305726    1.112456   -0.631586
  H      1.184289    0.857204   -1.980489
  H      0.753473    1.966087   -0.663991
  H      0.862063   -2.211287   -0.037500
  H      2.381039   -1.197948    0.085548
  H     -0.287527   -0.676484    1.602548
  H      3.276088    1.039308    1.167438
  H      3.358667    1.100517    2.935504
  H      3.358868   -0.464120    2.111371
  H      0.043984    1.900030    1.984182
  H     -0.060087   -0.044125    3.686760
  H      1.455090   -0.955825    3.829906
  H      1.340911    1.800462    4.282810

 Total Charge           Charge          ....    0
 Multiplicity           Mult            ....    1
 Number of Electrons    NEL             ....   72
 Basis Dimension        Dim             ....  357

ORBITAL ENERGIES
----------------

  NO   OCC          E(Eh)            E(eV)
   0   2.0000     -20.569106      -559.7138
   1   2.0000     -20.552224      -559.2544
   2   2.0000     -15.564461      -423.5305
   3   2.0000     -11.301810      -307.5379
   4   2.0000     -11.278409      -306.9011
   5   2.0000     -11.267013      -306.5910
   6   2.0000     -11.261223      -306.4335
   7   2.0000     -11.246653      -306.0370
   8   2.0000     -11.218132      -305.2609
   9   2.0000      -1.384609       -37.6771
  10   2.0000      -1.351101       -36.7653
  11   2.0000      -1.275405       -34.7055
  12   2.0000      -1.055745       -28.7283
  13   2.0000      -0.993382       -27.0313
  14   2.0000      -0.937605       -25.5135
  15   2.0000      -0.865293       -23.5458
  16   2.0000      -0.827987       -22.5307
  17   2.0000      -0.779617       -21.2145
  18   2.0000      -0.705762       -19.2048
  19   2.0000      -0.698672       -19.0118
  20   2.0000      -0.661098       -17.9894
  21   2.0000      -0.653203       -17.7745
  22   2.0000      -0.616530       -16.7766
  23   2.0000      -0.597455       -16.2576
  24   2.0000      -0.590550       -16.0697
  25   2.0000      -0.578179       -15.7331
  26   2.0000      -0.558577       -15.1997
  27   2.0000      -0.542267       -14.7558
  28   2.0000      -0.532524       -14.4907
  29   2.0000      -0.520767       -14.1708
  30   2.0000      -0.496647       -13.5145
  31   2.0000      -0.486901       -13.2492
  32   2.0000      -0.457271       -12.4430
  33   2.0000      -0.453352       -12.3363
  34   2.0000      -0.424137       -11.5413
  35   2.0000      -0.372298       -10.1307
  36   0.0000       0.127524         3.4701
  37   0.0000       0.152925         4.1613
  38   0.0000       0.164849         4.4858
  39   0.0000       0.171913         4.6780
  40   0.0000       0.186730         5.0812

MULLIKEN ATOMIC CHARGES
-----------------------
   0 C :   -0.263252
   1 N :   -0.202673
   2 C :   -0.169966
   3 C :   -0.188852
   4 C :    0.196713
   5 C :   -0.430526
   6 O :   -0.495254
   7 C :    0.011220
   8 O :   -0.472331
   9 H :    0.096378
  10 H :    0.142349
  11 H :    0.128193
  12 H :    0.126927
  13 H :    0.126707
  14 H :    0.118236
  15 H :    0.139895
  16 H :    0.152299
  17 H :    0.129404
  18 H :    0.323656
  19 H :    0.092073
  20 H :    0.109598
  21 H :    0.329205
Sum of atomic charges:   -0.0000000

LOEWDIN ATOMIC CHARGES
----------------------
   0 C :   -0.327569
   1 N :    0.092746
   2 C :   -0.240185
   3 C :   -0.235565
   4 C :   -0.387438
   5 C :   -0.269556
   6 O :   -0.005623
   7 C :   -0.320758
   8 O :   -0.038539
   9 H :    0.104000
  10 H :    0.118628
  11 H :    0.117448
  12 H :    0.123820
  13 H :    0.126861
  14 H :    0.148275
  15 H :    0.122466
  16 H :    0.135082
  17 H :    0.129750
  18 H :    0.177798
  19 H :    0.117364
  20 H :    0.133579
  21 H :    0.177415

  Mayer bond orders larger than 0.1
B(  0-C ,  1-N ) :   0.8811 B(  0-C ,  9-H ) :   0.9301 B(  0-C , 10-H ) :   0.9332
B(  0-C , 11-H ) :   0.9381 B(  1-N ,  2-C ) :   0.9162 B(  1-N ,  3-C ) :   0.9225
B(  2-C ,  3-C ) :   0.9501 B(  2-C , 12-H ) :   0.9160 B(  2-C , 13-H ) :   0.9177
B(  3-C ,  4-C ) :   0.9422 B(  3-C , 14-H ) :   0.9029 B(  4-C ,  5-C ) :   0.8739
B(  4-C ,  6-O ) :   0.8187 B(  4-C ,  7-C ) :   0.9507 B(  5-C , 15-H ) :   0.9425
B(  5-C , 16-H ) :   0.9205 B(  5-C , 17-H ) :   0.9407 B(  6-O , 18-H ) :   0.8376
B(  7-C ,  8-O ) :   0.9451 B(  7-C , 19-H ) :   0.9054 B(  7-C , 20-H ) :   0.9246
B(  8-O , 21-H ) :   0.8198

MP2 TOTAL ENERGY:     -440.729305806 Eh
FINAL SINGLE POINT ENERGY      -440.729305806483

DIPOLE MOMENT
-------------
                                X             Y             Z
Electronic contribution:     -2.86709       0.89513       3.03086
Nuclear contribution   :      2.75825      -1.09860      -3.52483
                        -----------------------------------------
Total Dipole Moment    :     -0.10884      -0.20346      -0.49397
                        -----------------------------------------
Magnitude (a.u.)       :      0.54521
Magnitude (Debye)      :      1.38580

                             ****ORCA TERMINATED NORMALLY****
TOTAL RUN TIME: 0 days 0 hours 18 minutes 18 seconds 188 msec
