                         Program Version 3.0.3 - RELEASE   -
|  1> ! RI-MP2 RIJK def2-TZVP def2-TZVP/C def2-TZVP/JK TIGHTSCF
|  2> % maxcore 2000
|  3> % mp2 density relaxed end
|  4> *xyz 0 1
|  5>  C       -0.0203864052     1.4298597152    -0.1028146662
|  6>  C       -0.0172849102    -0.0964778041     0.0353595482
|  7>  C        0.7884685076    -0.5475814121     1.2492491593
|  8>  O        0.8979880187    -1.6972760284     1.6070128413
|  9>  C       -1.4197520119    -0.6893349947     0.0670298766
| 10>  C       -2.0839732691    -1.1384824070    -1.2225688358
| 11>  C       -1.6203132637    -2.1567375841    -0.2218539573
| 12>  O       -0.5165891225    -2.9329886685    -0.5669049469
| 13>  H        0.9972370249     1.8317522045    -0.1488287319
| 14>  H       -0.5444345973     1.7303883588    -1.0134121318
| 15>  H       -0.5292159740     1.9024091345     0.7450896173
| 16>  H        0.5088115459    -0.5401679568    -0.8209715892
| 17>  H        1.3109322079     0.2576729283     1.8129891965
| 18>  H       -2.0685704749    -0.2517169676     0.8224585054
| 19>  H       -3.1476244907    -0.9706439261    -1.3491325154
| 20>  H       -1.4984488089    -1.0631359997    -2.1326647904
| 21>  H       -2.3858147959    -2.6731205621     0.3579956628
| 22>  H        0.0765912294    -2.9069973001     0.2004810277
| 23> *
| 24>
| 25>                          ****END OF INPUT****

CARTESIAN COORDINATES (ANGSTROEM)
---------------------------------
  C     -0.020386    1.429860   -0.102815
  C     -0.017285   -0.096478    0.035360
  C      0.788469   -0.547581    1.249249
  O      0.897988   -1.697276    1.607013
  C     -1.419752   -0.689335    0.067030
  C     -2.083973   -1.138482   -1.222569
  C     -1.620313   -2.156738   -0.221854
  O     -0.516589   -2.932989   -0.566905
  H      0.997237    1.831752   -0.148829
  H     -0.544435    1.730388   -1.013412
  H     -0.529216    1.902409    0.745090
  H      0.508812   -0.540168   -0.820972
  H      1.310932    0.257673    1.812989
  H     -2.068570   -0.251717    0.822459
  H     -3.147624   -0.970644   -1.349133
  H     -1.498449   -1.063136   -2.132665
  H     -2.385815   -2.673121    0.357996
  H      0.076591   -2.906997    0.200481

 Total Charge           Charge          ....    0
 Multiplicity           Mult            ....    1
 Number of Electrons    NEL             ....   62
 Basis Dimension        Dim             ....  308

ORBITAL ENERGIES
----------------

  NO   OCC          E(Eh)            E(eV)
   0   2.0000     -20.570604      -559.7546
   1   2.0000     -20.545471      -559.0707
   2   2.0000     -11.344305      -308.6942
   3   2.0000     -11.279456      -306.9296
   4   2.0000     -11.255912      -306.2889
   5   2.0000     -11.240752      -305.8764
   6   2.0000     -11.236299      -305.7553
   7   2.0000     -11.227647      -305.5198
   8   2.0000      -1.410143       -38.3719
   9   2.0000      -1.359448       -36.9925
  10   2.0000      -1.144835       -31.1525
  11   2.0000      -1.062015       -28.8989
  12   2.0000      -0.911617       -24.8064
  13   2.0000      -0.844914       -22.9913
  14   2.0000      -0.815275       -22.1848
  15   2.0000      -0.770027       -20.9535
  16   2.0000      -0.700095       -19.0506
  17   2.0000      -0.682094       -18.5607
  18   2.0000      -0.671211       -18.2646
  19   2.0000      -0.645284       -17.5591
  20   2.0000      -0.609342       -16.5810
  21   2.0000      -0.578994       -15.7552
  22   2.0000      -0.554094       -15.0777
  23   2.0000      -0.550740       -14.9864
  24   2.0000      -0.544046       -14.8042
  25   2.0000      -0.526915       -14.3381
  26   2.0000      -0.500937       -13.6312
  27   2.0000      -0.483910       -13.1679
  28   2.0000      -0.441640       -12.0176
  29   2.0000      -0.408324       -11.1111
  30   2.0000      -0.391813       -10.6618
  31   0.0000       0.108107         2.9417
  32   0.0000       0.133332         3.6282
  33   0.0000       0.154532         4.2050
  34   0.0000       0.166363         4.5270
  35   0.0000       0.179917         4.8958

MULLIKEN ATOMIC CHARGES
-----------------------
   0 C :   -0.422160
   1 C :   -0.081624
   2 C :    0.119939
   3 O :   -0.309512
   4 C :   -0.128113
   5 C :   -0.262820
   6 C :    0.065529
   7 O :   -0.476627
   8 H :    0.142826
   9 H :    0.149383
  10 H :    0.131609
  11 H :    0.138238
  12 H :    0.104156
  13 H :    0.119042
  14 H :    0.134296
  15 H :    0.132545
  16 H :    0.107158
  17 H :    0.336134
Sum of atomic charges:    0.0000000

LOEWDIN ATOMIC CHARGES
----------------------
   0 C :   -0.286938
   1 C :   -0.270615
   2 C :   -0.249569
   3 O :    0.127555
   4 C :   -0.197292
   5 C :   -0.205209
   6 C :   -0.322727
   7 O :   -0.003931
   8 H :    0.125258
   9 H :    0.130867
  10 H :    0.126090
  11 H :    0.177605
  12 H :    0.118791
  13 H :    0.149602
  14 H :    0.132120
  15 H :    0.140373
  16 H :    0.130911
  17 H :    0.177110

  Mayer bond orders larger than 0.1
B(  0-C ,  1-C ) :   0.9071 B(  0-C ,  8-H ) :   0.9414 B(  0-C ,  9-H ) :   0.9384
B(  0-C , 10-H ) :   0.9296 B(  1-C ,  2-C ) :   0.8570 B(  1-C ,  4-C ) :   0.8996
B(  1-C , 11-H ) :   0.9000 B(  2-C ,  3-O ) :   1.8983 B(  2-C , 12-H ) :   0.9430
B(  4-C ,  5-C ) :   0.8951 B(  4-C ,  6-C ) :   0.8769 B(  4-C , 13-H ) :   0.9116
B(  5-C ,  6-C ) :   0.8745 B(  5-C , 14-H ) :   0.9243 B(  5-C , 15-H ) :   0.9194
B(  6-C ,  7-O ) :   1.0145 B(  6-C , 16-H ) :   0.9631 B(  7-O , 17-H ) :   0.8099

MP2 TOTAL ENERGY:     -384.297847750 Eh
FINAL SINGLE POINT ENERGY      -384.297847750132

DIPOLE MOMENT
-------------
                                X             Y             Z
Electronic contribution:      2.21901      -5.67220       2.59172
Nuclear contribution   :     -2.39188       6.91268      -2.46779
                        -----------------------------------------
Total Dipole Moment    :     -0.17288       1.24049       0.12394
                        -----------------------------------------
Magnitude (a.u.)       :      1.25859
Magnitude (Debye)      :      3.19909

                             ****ORCA TERMINATED NORMALLY****
TOTAL RUN TIME: 0 days 0 hours 12 minutes 40 seconds 210 msec
