                         Program Version 3.0.3 - RELEASE   -
|  1> ! RI-MP2 RIJK def2-TZVP def2-TZVP/C def2-TZVP/JK TIGHTSCF
|  2> % maxcore 2000
|  3> % mp2 density relaxed end
|  4> *xyz 0 1
|  5>  C       -0.0071920012    -1.2175438645    -0.0519253469
|  6>  C       -0.0154907640    -0.0151874702    -0.0094257263
|  7>  C       -0.0212290626     1.4306444159     0.0425274785
|  8>  C       -0.2215037605     2.1538428349     1.4217253363
|  9>  C        0.6522991370     3.2869579909     0.8177451047
| 10>  C        1.3394700596     2.2022501226    -0.0489823207
| 11>  O       -0.0892684470     4.1745938870    -0.0058625702
| 12>  C       -1.2115772945     3.5578500961    -0.6326898502
| 13>  C       -0.9775457132     2.0754583305    -0.9928268969
| 14>  H        0.0028453827    -2.2786777434    -0.0871950201
| 15>  H       -1.2371425136     2.3812371439     1.7516588517
| 16>  H        0.3114877345     1.6303403278     2.2174663154
| 17>  H        1.2587471257     3.9060649215     1.4802614124
| 18>  H        2.1337146382     1.6789165973     0.4879865051
| 19>  H        1.6824462255     2.5031751812    -1.0415870685
| 20>  H       -2.0837277444     3.6341852563     0.0320067773
| 21>  H       -1.4337034457     4.1517643730    -1.5237059637
| 22>  H       -0.5385159345     1.9667568303    -1.9900915558
| 23>  H       -1.9397506920     1.5536066989    -1.0020550121
| 24> *
| 25>
| 26>                          ****END OF INPUT****

CARTESIAN COORDINATES (ANGSTROEM)
---------------------------------
  C     -0.007192   -1.217544   -0.051925
  C     -0.015491   -0.015187   -0.009426
  C     -0.021229    1.430644    0.042527
  C     -0.221504    2.153843    1.421725
  C      0.652299    3.286958    0.817745
  C      1.339470    2.202250   -0.048982
  O     -0.089268    4.174594   -0.005863
  C     -1.211577    3.557850   -0.632690
  C     -0.977546    2.075458   -0.992827
  H      0.002845   -2.278678   -0.087195
  H     -1.237143    2.381237    1.751659
  H      0.311488    1.630340    2.217466
  H      1.258747    3.906065    1.480261
  H      2.133715    1.678917    0.487987
  H      1.682446    2.503175   -1.041587
  H     -2.083728    3.634185    0.032007
  H     -1.433703    4.151764   -1.523706
  H     -0.538516    1.966757   -1.990092
  H     -1.939751    1.553607   -1.002055

 Total Charge           Charge          ....    0
 Multiplicity           Mult            ....    1
 Number of Electrons    NEL             ....   66
 Basis Dimension        Dim             ....  339

ORBITAL ENERGIES
----------------

  NO   OCC          E(Eh)            E(eV)
   0   2.0000     -20.553328      -559.2845
   1   2.0000     -11.285840      -307.1033
   2   2.0000     -11.277509      -306.8766
   3   2.0000     -11.267581      -306.6065
   4   2.0000     -11.234745      -305.7130
   5   2.0000     -11.234570      -305.7082
   6   2.0000     -11.232359      -305.6480
   7   2.0000     -11.228955      -305.5554
   8   2.0000     -11.222742      -305.3863
   9   2.0000      -1.377307       -37.4784
  10   2.0000      -1.153600       -31.3911
  11   2.0000      -1.044111       -28.4117
  12   2.0000      -1.017576       -27.6896
  13   2.0000      -0.916095       -24.9282
  14   2.0000      -0.882859       -24.0238
  15   2.0000      -0.863471       -23.4962
  16   2.0000      -0.749696       -20.4003
  17   2.0000      -0.720610       -19.6088
  18   2.0000      -0.693751       -18.8779
  19   2.0000      -0.667373       -18.1601
  20   2.0000      -0.626898       -17.0587
  21   2.0000      -0.607707       -16.5366
  22   2.0000      -0.582306       -15.8454
  23   2.0000      -0.581056       -15.8113
  24   2.0000      -0.547018       -14.8851
  25   2.0000      -0.542277       -14.7561
  26   2.0000      -0.494668       -13.4606
  27   2.0000      -0.481878       -13.1126
  28   2.0000      -0.475855       -12.9487
  29   2.0000      -0.439298       -11.9539
  30   2.0000      -0.401993       -10.9388
  31   2.0000      -0.380456       -10.3527
  32   2.0000      -0.378045       -10.2871
  33   0.0000       0.133853         3.6423
  34   0.0000       0.152630         4.1533
  35   0.0000       0.160259         4.3609
  36   0.0000       0.163421         4.4469
  37   0.0000       0.178339         4.8529

MULLIKEN ATOMIC CHARGES
-----------------------
   0 C :   -0.124536
   1 C :    0.011726
   2 C :   -0.028742
   3 C :   -0.292022
   4 C :    0.110694
   5 C :   -0.289946
   6 O :   -0.318536
   7 C :   -0.069608
   8 C :   -0.286986
   9 H :    0.190716
  10 H :    0.127914
  11 H :    0.132146
  12 H :    0.119858
  13 H :    0.123979
  14 H :    0.118875
  15 H :    0.098763
  16 H :    0.123777
  17 H :    0.119129
  18 H :    0.132799
Sum of atomic charges:    0.0000000

LOEWDIN ATOMIC CHARGES
----------------------
   0 C :   -0.094297
   1 C :   -0.071564
   2 C :   -0.241896
   3 C :   -0.163381
   4 C :   -0.282730
   5 C :   -0.162965
   6 O :    0.167093
   7 C :   -0.300246
   8 C :   -0.202240
   9 H :    0.126578
  10 H :    0.132304
  11 H :    0.146844
  12 H :    0.131107
  13 H :    0.142895
  14 H :    0.132262
  15 H :    0.120669
  16 H :    0.129487
  17 H :    0.142728
  18 H :    0.147351

  Mayer bond orders larger than 0.1
B(  0-C ,  1-C ) :   2.6018 B(  0-C ,  2-C ) :  -0.1414 B(  0-C ,  9-H ) :   0.8738
B(  1-C ,  2-C ) :   1.1694 B(  2-C ,  3-C ) :   0.8963 B(  2-C ,  5-C ) :   0.9033
B(  2-C ,  8-C ) :   0.9150 B(  3-C ,  4-C ) :   0.9061 B(  3-C , 10-H ) :   0.9142
B(  3-C , 11-H ) :   0.9167 B(  4-C ,  5-C ) :   0.9151 B(  4-C ,  6-O ) :   0.9229
B(  4-C , 12-H ) :   0.9370 B(  5-C , 13-H ) :   0.9167 B(  5-C , 14-H ) :   0.9132
B(  6-O ,  7-C ) :   0.9479 B(  7-C ,  8-C ) :   0.9570 B(  7-C , 15-H ) :   0.9323
B(  7-C , 16-H ) :   0.9235 B(  8-C , 17-H ) :   0.9230 B(  8-C , 18-H ) :   0.9251

MP2 TOTAL ENERGY:     -385.162820408 Eh
FINAL SINGLE POINT ENERGY      -385.162820407698

DIPOLE MOMENT
-------------
                                X             Y             Z
Electronic contribution:      0.91218      -0.97659       0.28282
Nuclear contribution   :     -1.05063       0.65978      -0.21793
                        -----------------------------------------
Total Dipole Moment    :     -0.13846      -0.31680       0.06489
                        -----------------------------------------
Magnitude (a.u.)       :      0.35178
Magnitude (Debye)      :      0.89414

                             ****ORCA TERMINATED NORMALLY****
TOTAL RUN TIME: 0 days 0 hours 20 minutes 27 seconds 11 msec
