                         Program Version 3.0.3 - RELEASE   -
|  1> ! RI-MP2 RIJK def2-TZVP def2-TZVP/C def2-TZVP/JK TIGHTSCF
|  2> % maxcore 2000
|  3> % mp2 density relaxed end
|  4> *xyz 0 1
|  5>  C        0.0700218242     1.5334298111    -0.0826840718
|  6>  C        0.0236390882     0.0219342204     0.0431849323
|  7>  O        0.6347622484    -0.5190573300    -1.1500917407
|  8>  C        1.0668431163    -1.8110919504    -1.1081949144
|  9>  C        1.5011651168    -2.2625042723    -2.4722376537
| 10>  N        1.1287409178    -2.5759124259    -0.0960799038
| 11>  C        0.7120784266    -2.0566018987     1.2050956111
| 12>  C        0.7453743606    -0.5294893554     1.2793044184
| 13>  O        2.0738240282    -0.0326267955     1.3747847624
| 14>  H        1.1043006073     1.8796577095    -0.0328417023
| 15>  H       -0.3727926978     1.8514839534    -1.0299511766
| 16>  H       -0.4906131649     1.9942154054     0.7364666430
| 17>  H       -1.0191591605    -0.3254151066     0.0663621383
| 18>  H        2.2646098338    -1.5870240667    -2.8710456667
| 19>  H        1.8954819633    -3.2760330710    -2.4145944628
| 20>  H        0.6542691086    -2.2342719340    -3.1654896704
| 21>  H       -0.2955753908    -2.4284343572     1.4338702599
| 22>  H        1.3782957220    -2.4697903041     1.9703014859
| 23>  H        0.2305511212    -0.1754387029     2.1790359034
| 24>  H        2.6095451506    -0.4980623391     0.7226546483
| 25> *
| 26>
| 27>                          ****END OF INPUT****

CARTESIAN COORDINATES (ANGSTROEM)
---------------------------------
  C      0.070022    1.533430   -0.082684
  C      0.023639    0.021934    0.043185
  O      0.634762   -0.519057   -1.150092
  C      1.066843   -1.811092   -1.108195
  C      1.501165   -2.262504   -2.472238
  N      1.128741   -2.575912   -0.096080
  C      0.712078   -2.056602    1.205096
  C      0.745374   -0.529489    1.279304
  O      2.073824   -0.032627    1.374785
  H      1.104301    1.879658   -0.032842
  H     -0.372793    1.851484   -1.029951
  H     -0.490613    1.994215    0.736467
  H     -1.019159   -0.325415    0.066362
  H      2.264610   -1.587024   -2.871046
  H      1.895482   -3.276033   -2.414594
  H      0.654269   -2.234272   -3.165490
  H     -0.295575   -2.428434    1.433870
  H      1.378296   -2.469790    1.970301
  H      0.230551   -0.175439    2.179036
  H      2.609545   -0.498062    0.722655

 Total Charge           Charge          ....    0
 Multiplicity           Mult            ....    1
 Number of Electrons    NEL             ....   70
 Basis Dimension        Dim             ....  345

ORBITAL ENERGIES
----------------

  NO   OCC          E(Eh)            E(eV)
   0   2.0000     -20.592259      -560.3439
   1   2.0000     -20.559967      -559.4652
   2   2.0000     -15.541347      -422.9015
   3   2.0000     -11.337959      -308.5215
   4   2.0000     -11.296322      -307.3886
   5   2.0000     -11.287308      -307.1433
   6   2.0000     -11.255467      -306.2768
   7   2.0000     -11.229200      -305.5621
   8   2.0000     -11.220387      -305.3223
   9   2.0000      -1.428520       -38.8720
  10   2.0000      -1.365825       -37.1660
  11   2.0000      -1.216144       -33.0929
  12   2.0000      -1.082318       -29.4514
  13   2.0000      -1.000266       -27.2186
  14   2.0000      -0.968747       -26.3609
  15   2.0000      -0.883730       -24.0475
  16   2.0000      -0.839495       -22.8438
  17   2.0000      -0.746879       -20.3236
  18   2.0000      -0.706061       -19.2129
  19   2.0000      -0.681412       -18.5422
  20   2.0000      -0.653756       -17.7896
  21   2.0000      -0.634226       -17.2582
  22   2.0000      -0.618424       -16.8282
  23   2.0000      -0.602160       -16.3856
  24   2.0000      -0.574098       -15.6220
  25   2.0000      -0.562965       -15.3191
  26   2.0000      -0.549829       -14.9616
  27   2.0000      -0.545087       -14.8326
  28   2.0000      -0.527639       -14.3578
  29   2.0000      -0.524801       -14.2806
  30   2.0000      -0.509078       -13.8527
  31   2.0000      -0.488663       -13.2972
  32   2.0000      -0.449217       -12.2238
  33   2.0000      -0.398923       -10.8552
  34   2.0000      -0.385460       -10.4889
  35   0.0000       0.126605         3.4451
  36   0.0000       0.145372         3.9558
  37   0.0000       0.164507         4.4765
  38   0.0000       0.173652         4.7253
  39   0.0000       0.178225         4.8498

MULLIKEN ATOMIC CHARGES
-----------------------
   0 C :   -0.358660
   1 C :    0.044651
   2 O :   -0.259079
   3 C :    0.179553
   4 C :   -0.400185
   5 N :   -0.276052
   6 C :   -0.134285
   7 C :    0.029543
   8 O :   -0.463383
   9 H :    0.143075
  10 H :    0.142038
  11 H :    0.121807
  12 H :    0.089786
  13 H :    0.141308
  14 H :    0.153413
  15 H :    0.141433
  16 H :    0.120144
  17 H :    0.143376
  18 H :    0.115017
  19 H :    0.326502
Sum of atomic charges:    0.0000000

LOEWDIN ATOMIC CHARGES
----------------------
   0 C :   -0.287755
   1 C :   -0.298176
   2 O :    0.258605
   3 C :   -0.412171
   4 C :   -0.266398
   5 N :    0.082995
   6 C :   -0.283790
   7 C :   -0.336620
   8 O :   -0.008175
   9 H :    0.131214
  10 H :    0.127771
  11 H :    0.129496
  12 H :    0.146386
  13 H :    0.134405
  14 H :    0.136144
  15 H :    0.135141
  16 H :    0.139098
  17 H :    0.140286
  18 H :    0.151162
  19 H :    0.180383

  Mayer bond orders larger than 0.1
B(  0-C ,  1-C ) :   0.9294 B(  0-C ,  9-H ) :   0.9274 B(  0-C , 10-H ) :   0.9380
B(  0-C , 11-H ) :   0.9282 B(  1-C ,  2-O ) :   0.8669 B(  1-C ,  7-C ) :   0.9067
B(  1-C , 12-H ) :   0.9310 B(  2-O ,  3-C ) :   1.0784 B(  3-C ,  4-C ) :   0.9028
B(  3-C ,  5-N ) :   1.8609 B(  4-C , 13-H ) :   0.9248 B(  4-C , 14-H ) :   0.9472
B(  4-C , 15-H ) :   0.9242 B(  5-N ,  6-C ) :   0.9185 B(  6-C ,  7-C ) :   0.9352
B(  6-C , 16-H ) :   0.9157 B(  6-C , 17-H ) :   0.9364 B(  7-C ,  8-O ) :   0.9144
B(  7-C , 18-H ) :   0.9150 B(  8-O , 19-H ) :   0.8359

MP2 TOTAL ENERGY:     -439.594332426 Eh
FINAL SINGLE POINT ENERGY      -439.594332426457

DIPOLE MOMENT
-------------
                                X             Y             Z
Electronic contribution:      1.31183      -2.04930       0.99707
Nuclear contribution   :     -1.83839       2.26095      -1.14621
                        -----------------------------------------
Total Dipole Moment    :     -0.52656       0.21165      -0.14914
                        -----------------------------------------
Magnitude (a.u.)       :      0.58677
Magnitude (Debye)      :      1.49146

                             ****ORCA TERMINATED NORMALLY****
TOTAL RUN TIME: 0 days 0 hours 18 minutes 5 seconds 102 msec
