                         Program Version 3.0.3 - RELEASE   -
|  1> ! RI-MP2 RIJK def2-TZVP def2-TZVP/C def2-TZVP/JK TIGHTSCF
|  2> % maxcore 2000
|  3> % mp2 density relaxed end
|  4> *xyz 0 1
|  5>  C        0.0423248085     1.5149607333    -0.0185721194
|  6>  C       -0.0570025394     0.0233793578     0.0852004452
|  7>  C       -1.3676560329    -0.7986513023     0.0525316890
|  8>  C       -0.7060479931    -1.7926666214     1.0289939505
|  9>  C       -1.3772328125    -2.4717579719     2.1928806800
| 10>  C       -0.8338832310    -3.2814089192     1.0334296568
| 11>  O       -1.7202926442    -3.8224788178     0.0956983410
| 12>  C        0.5627200551    -0.9610504286     1.0424889685
| 13>  N        1.0812376861    -0.8001100739    -0.3179317779
| 14>  H        1.0624669740     1.8439117678     0.1956188566
| 15>  H       -0.2145329792     1.8542896534    -1.0294227479
| 16>  H       -0.6411222067     2.0061816386     0.6823181034
| 17>  H       -2.2141732912    -0.2719973606     0.5025653448
| 18>  H       -1.6688529460    -1.1882022387    -0.9250207830
| 19>  H       -0.8548317891    -2.5183254679     3.1438356668
| 20>  H       -2.4566355526    -2.3800409215     2.2670462745
| 21>  H        0.0675064540    -3.8702241940     1.2101145147
| 22>  H       -2.1698536701    -4.5692101974     0.5051872677
| 23>  H        1.2388025546    -0.8122628013     1.8779315475
| 24>  H        0.8175271558    -1.5789819943    -0.9201389587
| 25> *
| 26>
| 27>                          ****END OF INPUT****

CARTESIAN COORDINATES (ANGSTROEM)
---------------------------------
  C      0.042325    1.514961   -0.018572
  C     -0.057003    0.023379    0.085200
  C     -1.367656   -0.798651    0.052532
  C     -0.706048   -1.792667    1.028994
  C     -1.377233   -2.471758    2.192881
  C     -0.833883   -3.281409    1.033430
  O     -1.720293   -3.822479    0.095698
  C      0.562720   -0.961050    1.042489
  N      1.081238   -0.800110   -0.317932
  H      1.062467    1.843912    0.195619
  H     -0.214533    1.854290   -1.029423
  H     -0.641122    2.006182    0.682318
  H     -2.214173   -0.271997    0.502565
  H     -1.668853   -1.188202   -0.925021
  H     -0.854832   -2.518325    3.143836
  H     -2.456636   -2.380041    2.267046
  H      0.067506   -3.870224    1.210115
  H     -2.169854   -4.569210    0.505187
  H      1.238803   -0.812263    1.877932
  H      0.817527   -1.578982   -0.920139

 Total Charge           Charge          ....    0
 Multiplicity           Mult            ....    1
 Number of Electrons    NEL             ....   68
 Basis Dimension        Dim             ....  345

ORBITAL ENERGIES
----------------

  NO   OCC          E(Eh)            E(eV)
   0   2.0000     -20.566323      -559.6381
   1   2.0000     -15.549822      -423.1322
   2   2.0000     -11.283073      -307.0280
   3   2.0000     -11.261692      -306.4462
   4   2.0000     -11.253204      -306.2152
   5   2.0000     -11.241155      -305.8874
   6   2.0000     -11.229645      -305.5742
   7   2.0000     -11.227424      -305.5137
   8   2.0000     -11.215542      -305.1904
   9   2.0000      -1.374608       -37.4050
  10   2.0000      -1.280753       -34.8511
  11   2.0000      -1.132177       -30.8081
  12   2.0000      -1.009319       -27.4650
  13   2.0000      -0.970038       -26.3961
  14   2.0000      -0.875132       -23.8136
  15   2.0000      -0.832643       -22.6574
  16   2.0000      -0.781070       -21.2540
  17   2.0000      -0.720986       -19.6190
  18   2.0000      -0.707927       -19.2637
  19   2.0000      -0.681237       -18.5374
  20   2.0000      -0.633792       -17.2463
  21   2.0000      -0.620827       -16.8936
  22   2.0000      -0.595020       -16.1913
  23   2.0000      -0.576560       -15.6890
  24   2.0000      -0.555142       -15.1062
  25   2.0000      -0.550349       -14.9758
  26   2.0000      -0.518739       -14.1156
  27   2.0000      -0.498487       -13.5645
  28   2.0000      -0.486094       -13.2273
  29   2.0000      -0.467164       -12.7122
  30   2.0000      -0.421228       -11.4622
  31   2.0000      -0.413277       -11.2458
  32   2.0000      -0.395178       -10.7533
  33   2.0000      -0.363350        -9.8873
  34   0.0000       0.137536         3.7425
  35   0.0000       0.148694         4.0462
  36   0.0000       0.162584         4.4241
  37   0.0000       0.168116         4.5747
  38   0.0000       0.182256         4.9594

MULLIKEN ATOMIC CHARGES
-----------------------
   0 C :   -0.418912
   1 C :    0.113561
   2 C :   -0.194196
   3 C :    0.076227
   4 C :   -0.378529
   5 C :   -0.000852
   6 O :   -0.464566
   7 C :   -0.083073
   8 N :   -0.344455
   9 H :    0.144210
  10 H :    0.130312
  11 H :    0.125484
  12 H :    0.113151
  13 H :    0.127064
  14 H :    0.125287
  15 H :    0.143230
  16 H :    0.108915
  17 H :    0.323802
  18 H :    0.133486
  19 H :    0.219854
Sum of atomic charges:   -0.0000000

LOEWDIN ATOMIC CHARGES
----------------------
   0 C :   -0.275740
   1 C :   -0.278191
   2 C :   -0.152319
   3 C :   -0.204789
   4 C :   -0.197752
   5 C :   -0.307249
   6 O :   -0.004162
   7 C :   -0.183591
   8 N :    0.048130
   9 H :    0.134423
  10 H :    0.129720
  11 H :    0.127121
  12 H :    0.140414
  13 H :    0.135834
  14 H :    0.135270
  15 H :    0.138344
  16 H :    0.132530
  17 H :    0.180603
  18 H :    0.134052
  19 H :    0.167351

  Mayer bond orders larger than 0.1
B(  0-C ,  1-C ) :   0.8836 B(  0-C ,  9-H ) :   0.9420 B(  0-C , 10-H ) :   0.9363
B(  0-C , 11-H ) :   0.9432 B(  1-C ,  2-C ) :   0.9457 B(  1-C ,  7-C ) :   0.8729
B(  1-C ,  8-N ) :   0.9103 B(  2-C ,  3-C ) :   0.9159 B(  2-C , 12-H ) :   0.9087
B(  2-C , 13-H ) :   0.9004 B(  3-C ,  4-C ) :   0.8546 B(  3-C ,  5-C ) :   0.8114
B(  3-C ,  6-O ) :  -0.1490 B(  3-C ,  7-C ) :   0.8683 B(  4-C ,  5-C ) :   0.9206
B(  4-C , 14-H ) :   0.9169 B(  4-C , 15-H ) :   0.9224 B(  5-C ,  6-O ) :   1.0725
B(  5-C , 16-H ) :   0.9547 B(  6-O , 17-H ) :   0.8410 B(  7-C ,  8-N ) :   0.9787
B(  7-C , 18-H ) :   0.9053 B(  8-N , 19-H ) :   0.8667

MP2 TOTAL ENERGY:     -402.397400081 Eh
FINAL SINGLE POINT ENERGY      -402.397400080551

DIPOLE MOMENT
-------------
                                X             Y             Z
Electronic contribution:      0.71641      -4.16742      -0.63563
Nuclear contribution   :     -1.30242       3.80513       1.28666
                        -----------------------------------------
Total Dipole Moment    :     -0.58601      -0.36228       0.65102
                        -----------------------------------------
Magnitude (a.u.)       :      0.94789
Magnitude (Debye)      :      2.40934

                             ****ORCA TERMINATED NORMALLY****
TOTAL RUN TIME: 0 days 0 hours 16 minutes 47 seconds 628 msec
