                         Program Version 3.0.3 - RELEASE   -
|  1> ! RI-MP2 RIJK def2-TZVP def2-TZVP/C def2-TZVP/JK TIGHTSCF
|  2> % maxcore 2000
|  3> % mp2 density relaxed end
|  4> *xyz 0 1
|  5>  C       -0.3990445665     1.4765800815    -0.2046169911
|  6>  C        0.4009823797     0.1772208180    -0.0942417109
|  7>  C        1.0422225936    -0.2672508013    -1.4098441271
|  8>  C        1.9111593597    -1.5137407499    -1.2316867147
|  9>  O       -0.0288830356    -0.5168132969    -2.3299501037
| 10>  C        0.3111498590    -0.4565726652    -3.6990163349
| 11>  C       -0.8478804910    -1.0642443678    -4.4918880433
| 12>  C        0.5119852784     0.9916129560    -4.1442783079
| 13>  O        1.2331319063     1.3342430842    -5.0439535312
| 14>  H        0.2388101335     2.3097177819    -0.5216477871
| 15>  H       -1.2056335982     1.3721594495    -0.9344464866
| 16>  H       -0.8429060765     1.7474828827     0.7579889071
| 17>  H        1.1964724473     0.2864171076     0.6524083997
| 18>  H       -0.2490356957    -0.6346667792     0.2551869150
| 19>  H        1.6665557936     0.5562748311    -1.7960231134
| 20>  H        2.3588361786    -1.8368782074    -2.1759538892
| 21>  H        2.7276279596    -1.3137326259    -0.5307172466
| 22>  H        1.3094232726    -2.3391443492    -0.8383863205
| 23>  H        1.2358531852    -1.0069677301    -3.9205670441
| 24>  H       -1.7702060075    -0.5025456378    -4.3137065225
| 25>  H       -0.6250134335    -1.0508066328    -5.5616898741
| 26>  H       -1.0086751127    -2.0959664522    -4.1695067388
| 27>  H       -0.1086603201     1.7186674032    -3.5694650141
| 28> *
| 29>
| 30>                          ****END OF INPUT****

CARTESIAN COORDINATES (ANGSTROEM)
---------------------------------
  C     -0.399045    1.476580   -0.204617
  C      0.400982    0.177221   -0.094242
  C      1.042223   -0.267251   -1.409844
  C      1.911159   -1.513741   -1.231687
  O     -0.028883   -0.516813   -2.329950
  C      0.311150   -0.456573   -3.699016
  C     -0.847880   -1.064244   -4.491888
  C      0.511985    0.991613   -4.144278
  O      1.233132    1.334243   -5.043954
  H      0.238810    2.309718   -0.521648
  H     -1.205634    1.372159   -0.934446
  H     -0.842906    1.747483    0.757989
  H      1.196472    0.286417    0.652408
  H     -0.249036   -0.634667    0.255187
  H      1.666556    0.556275   -1.796023
  H      2.358836   -1.836878   -2.175954
  H      2.727628   -1.313733   -0.530717
  H      1.309423   -2.339144   -0.838386
  H      1.235853   -1.006968   -3.920567
  H     -1.770206   -0.502546   -4.313707
  H     -0.625013   -1.050807   -5.561690
  H     -1.008675   -2.095966   -4.169507
  H     -0.108660    1.718667   -3.569465

 Total Charge           Charge          ....    0
 Multiplicity           Mult            ....    1
 Number of Electrons    NEL             ....   72
 Basis Dimension        Dim             ....  363

ORBITAL ENERGIES
----------------

  NO   OCC          E(Eh)            E(eV)
   0   2.0000     -20.565436      -559.6140
   1   2.0000     -20.561923      -559.5184
   2   2.0000     -11.330862      -308.3284
   3   2.0000     -11.296384      -307.3902
   4   2.0000     -11.289896      -307.2137
   5   2.0000     -11.230633      -305.6011
   6   2.0000     -11.226199      -305.4804
   7   2.0000     -11.222641      -305.3836
   8   2.0000     -11.216099      -305.2056
   9   2.0000      -1.403867       -38.2012
  10   2.0000      -1.384996       -37.6877
  11   2.0000      -1.088420       -29.6174
  12   2.0000      -1.029016       -28.0009
  13   2.0000      -0.989661       -26.9300
  14   2.0000      -0.901598       -24.5337
  15   2.0000      -0.873818       -23.7778
  16   2.0000      -0.807625       -21.9766
  17   2.0000      -0.785210       -21.3666
  18   2.0000      -0.706369       -19.2213
  19   2.0000      -0.671125       -18.2622
  20   2.0000      -0.644081       -17.5263
  21   2.0000      -0.630197       -17.1485
  22   2.0000      -0.608228       -16.5507
  23   2.0000      -0.594701       -16.1826
  24   2.0000      -0.577823       -15.7234
  25   2.0000      -0.568823       -15.4785
  26   2.0000      -0.552936       -15.0461
  27   2.0000      -0.538295       -14.6478
  28   2.0000      -0.533501       -14.5173
  29   2.0000      -0.521410       -14.1883
  30   2.0000      -0.502983       -13.6869
  31   2.0000      -0.495792       -13.4912
  32   2.0000      -0.480583       -13.0773
  33   2.0000      -0.469179       -12.7670
  34   2.0000      -0.447916       -12.1884
  35   2.0000      -0.405382       -11.0310
  36   0.0000       0.120094         3.2679
  37   0.0000       0.135326         3.6824
  38   0.0000       0.144715         3.9379
  39   0.0000       0.164174         4.4674
  40   0.0000       0.173624         4.7245

MULLIKEN ATOMIC CHARGES
-----------------------
   0 C :   -0.407383
   1 C :   -0.156633
   2 C :    0.024642
   3 C :   -0.384735
   4 O :   -0.308862
   5 C :    0.136746
   6 C :   -0.377820
   7 C :    0.053533
   8 O :   -0.255652
   9 H :    0.119546
  10 H :    0.138823
  11 H :    0.136932
  12 H :    0.108154
  13 H :    0.109904
  14 H :    0.085335
  15 H :    0.130842
  16 H :    0.133223
  17 H :    0.130877
  18 H :    0.075156
  19 H :    0.132656
  20 H :    0.141590
  21 H :    0.142191
  22 H :    0.090934
Sum of atomic charges:   -0.0000000

LOEWDIN ATOMIC CHARGES
----------------------
   0 C :   -0.321745
   1 C :   -0.273753
   2 C :   -0.343273
   3 C :   -0.295533
   4 O :    0.205252
   5 C :   -0.360024
   6 C :   -0.280211
   7 C :   -0.281839
   8 O :    0.138767
   9 H :    0.119800
  10 H :    0.122234
  11 H :    0.121762
  12 H :    0.140890
  13 H :    0.141967
  14 H :    0.139954
  15 H :    0.121427
  16 H :    0.127607
  17 H :    0.127426
  18 H :    0.143252
  19 H :    0.128802
  20 H :    0.132011
  21 H :    0.130208
  22 H :    0.115018

  Mayer bond orders larger than 0.1
B(  0-C ,  1-C ) :   0.9183 B(  0-C ,  9-H ) :   0.9375 B(  0-C , 10-H ) :   0.9388
B(  0-C , 11-H ) :   0.9390 B(  1-C ,  2-C ) :   0.9285 B(  1-C , 12-H ) :   0.9285
B(  1-C , 13-H ) :   0.9239 B(  2-C ,  3-C ) :   0.9283 B(  2-C ,  4-O ) :   0.8765
B(  2-C , 14-H ) :   0.9284 B(  3-C , 15-H ) :   0.9354 B(  3-C , 16-H ) :   0.9336
B(  3-C , 17-H ) :   0.9346 B(  4-O ,  5-C ) :   0.9296 B(  5-C ,  6-C ) :   0.9084
B(  5-C ,  7-C ) :   0.8454 B(  5-C , 18-H ) :   0.9050 B(  6-C , 19-H ) :   0.9305
B(  6-C , 20-H ) :   0.9311 B(  6-C , 21-H ) :   0.9315 B(  7-C ,  8-O ) :   2.0091
B(  7-C , 22-H ) :   0.9303

MP2 TOTAL ENERGY:     -424.729075072 Eh
FINAL SINGLE POINT ENERGY      -424.729075072247

DIPOLE MOMENT
-------------
                                X             Y             Z
Electronic contribution:      1.24482       2.42337      -7.41243
Nuclear contribution   :     -1.37235      -2.84625       8.07259
                        -----------------------------------------
Total Dipole Moment    :     -0.12753      -0.42288       0.66016
                        -----------------------------------------
Magnitude (a.u.)       :      0.79429
Magnitude (Debye)      :      2.01893

                             ****ORCA TERMINATED NORMALLY****
TOTAL RUN TIME: 0 days 0 hours 19 minutes 32 seconds 573 msec
