                         Program Version 3.0.3 - RELEASE   -
|  1> ! RI-MP2 RIJK def2-TZVP def2-TZVP/C def2-TZVP/JK TIGHTSCF
|  2> % maxcore 2000
|  3> % mp2 density relaxed end
|  4> *xyz 0 1
|  5>  C       -0.0107059871     1.5346438208    -0.1994802022
|  6>  C       -0.0031448059     0.0233454150    -0.0352547552
|  7>  O        0.8049926681    -0.5225572865    -1.0637524088
|  8>  C        0.7607984173    -1.9178288940    -1.2177470507
|  9>  C        1.3220677544    -2.6743676119    -0.0136818961
| 10>  C       -0.5891843834    -2.5522595801    -1.7639576308
| 11>  C        0.2039789954    -3.0167686750    -2.9899197420
| 12>  O        0.7001974821    -1.8359753847    -3.6260408277
| 13>  C        1.4386371509    -2.3625934068    -2.5260760765
| 14>  H        1.0069421385     1.9302518777    -0.1352217243
| 15>  H       -0.4231879079     1.8114405845    -1.1735293904
| 16>  H       -0.6153186748     2.0014619006     0.5840925788
| 17>  H        0.3867666967    -0.2482126947     0.9578515187
| 18>  H       -1.0280074756    -0.3746774596    -0.1019235848
| 19>  H        0.6789287167    -2.5693088554     0.8648693284
| 20>  H        1.4085863140    -3.7424308039    -0.2356513904
| 21>  H        2.3166383398    -2.2919880049     0.2380227820
| 22>  H       -0.9727510185    -3.3563809431    -1.1317650855
| 23>  H       -1.3860734046    -1.8438350923    -1.9987451446
| 24>  H        0.0696123680    -3.8992293741    -3.6039301990
| 25>  H        2.4848505661    -2.5991183516    -2.6879721190
| 26> *
| 27>
| 28>                          ****END OF INPUT****

CARTESIAN COORDINATES (ANGSTROEM)
---------------------------------
  C     -0.010706    1.534644   -0.199480
  C     -0.003145    0.023345   -0.035255
  O      0.804993   -0.522557   -1.063752
  C      0.760798   -1.917829   -1.217747
  C      1.322068   -2.674368   -0.013682
  C     -0.589184   -2.552260   -1.763958
  C      0.203979   -3.016769   -2.989920
  O      0.700197   -1.835975   -3.626041
  C      1.438637   -2.362593   -2.526076
  H      1.006942    1.930252   -0.135222
  H     -0.423188    1.811441   -1.173529
  H     -0.615319    2.001462    0.584093
  H      0.386767   -0.248213    0.957852
  H     -1.028007   -0.374677   -0.101924
  H      0.678929   -2.569309    0.864869
  H      1.408586   -3.742431   -0.235651
  H      2.316638   -2.291988    0.238023
  H     -0.972751   -3.356381   -1.131765
  H     -1.386073   -1.843835   -1.998745
  H      0.069612   -3.899229   -3.603930
  H      2.484851   -2.599118   -2.687972

 Total Charge           Charge          ....    0
 Multiplicity           Mult            ....    1
 Number of Electrons    NEL             ....   70
 Basis Dimension        Dim             ....  351

ORBITAL ENERGIES
----------------

  NO   OCC          E(Eh)            E(eV)
   0   2.0000     -20.564776      -559.5960
   1   2.0000     -20.550885      -559.2180
   2   2.0000     -11.296828      -307.4023
   3   2.0000     -11.285792      -307.1020
   4   2.0000     -11.280060      -306.9460
   5   2.0000     -11.274172      -306.7858
   6   2.0000     -11.232311      -305.6467
   7   2.0000     -11.224947      -305.4463
   8   2.0000     -11.211936      -305.0923
   9   2.0000      -1.420727       -38.6600
  10   2.0000      -1.372695       -37.3529
  11   2.0000      -1.093951       -29.7679
  12   2.0000      -1.011066       -27.5125
  13   2.0000      -0.971605       -26.4387
  14   2.0000      -0.897869       -24.4323
  15   2.0000      -0.853956       -23.2373
  16   2.0000      -0.822268       -22.3750
  17   2.0000      -0.747744       -20.3471
  18   2.0000      -0.712006       -19.3747
  19   2.0000      -0.659665       -17.9504
  20   2.0000      -0.651399       -17.7255
  21   2.0000      -0.643697       -17.5159
  22   2.0000      -0.593446       -16.1485
  23   2.0000      -0.575496       -15.6601
  24   2.0000      -0.566173       -15.4063
  25   2.0000      -0.550891       -14.9905
  26   2.0000      -0.543140       -14.7796
  27   2.0000      -0.526413       -14.3244
  28   2.0000      -0.514493       -14.0001
  29   2.0000      -0.497390       -13.5347
  30   2.0000      -0.484314       -13.1788
  31   2.0000      -0.470910       -12.8141
  32   2.0000      -0.437142       -11.8952
  33   2.0000      -0.406182       -11.0528
  34   2.0000      -0.399170       -10.8620
  35   0.0000       0.131418         3.5761
  36   0.0000       0.155635         4.2350
  37   0.0000       0.167009         4.5445
  38   0.0000       0.176449         4.8014
  39   0.0000       0.188244         5.1224

MULLIKEN ATOMIC CHARGES
-----------------------
   0 C :   -0.362015
   1 C :   -0.058644
   2 O :   -0.287745
   3 C :    0.336951
   4 C :   -0.494152
   5 C :   -0.253956
   6 C :   -0.034673
   7 O :   -0.309044
   8 C :   -0.050098
   9 H :    0.129348
  10 H :    0.134350
  11 H :    0.119687
  12 H :    0.095181
  13 H :    0.093082
  14 H :    0.143509
  15 H :    0.143011
  16 H :    0.141341
  17 H :    0.127142
  18 H :    0.119169
  19 H :    0.132637
  20 H :    0.134918
Sum of atomic charges:    0.0000000

LOEWDIN ATOMIC CHARGES
----------------------
   0 C :   -0.315894
   1 C :   -0.344304
   2 O :    0.212179
   3 C :   -0.350321
   4 C :   -0.272586
   5 C :   -0.188756
   6 C :   -0.245243
   7 O :    0.188240
   8 C :   -0.215466
   9 H :    0.124388
  10 H :    0.125212
  11 H :    0.123041
  12 H :    0.116338
  13 H :    0.118268
  14 H :    0.126625
  15 H :    0.132954
  16 H :    0.130896
  17 H :    0.135976
  18 H :    0.136991
  19 H :    0.128752
  20 H :    0.132709

  Mayer bond orders larger than 0.1
B(  0-C ,  1-C ) :   0.9577 B(  0-C ,  9-H ) :   0.9355 B(  0-C , 10-H ) :   0.9376
B(  0-C , 11-H ) :   0.9331 B(  1-C ,  2-O ) :   0.9066 B(  1-C , 12-H ) :   0.9182
B(  1-C , 13-H ) :   0.9185 B(  2-O ,  3-C ) :   0.9742 B(  3-C ,  4-C ) :   0.8594
B(  3-C ,  5-C ) :   0.9468 B(  3-C ,  8-C ) :   0.8187 B(  4-C , 14-H ) :   0.9342
B(  4-C , 15-H ) :   0.9247 B(  4-C , 16-H ) :   0.9386 B(  5-C ,  6-C ) :   0.9438
B(  5-C , 17-H ) :   0.9089 B(  5-C , 18-H ) :   0.8983 B(  6-C ,  7-O ) :   0.9492
B(  6-C ,  8-C ) :   0.9175 B(  6-C , 19-H ) :   0.9331 B(  7-O ,  8-C ) :   0.9359
B(  8-C , 20-H ) :   0.9332

MP2 TOTAL ENERGY:     -423.471571565 Eh
FINAL SINGLE POINT ENERGY      -423.471571564635

DIPOLE MOMENT
-------------
                                X             Y             Z
Electronic contribution:      1.84624      -2.67349      -7.77902
Nuclear contribution   :     -2.06580       1.99201       8.63467
                        -----------------------------------------
Total Dipole Moment    :     -0.21956      -0.68148       0.85565
                        -----------------------------------------
Magnitude (a.u.)       :      1.11569
Magnitude (Debye)      :      2.83587

                             ****ORCA TERMINATED NORMALLY****
TOTAL RUN TIME: 0 days 0 hours 19 minutes 16 seconds 507 msec
