                         Program Version 3.0.3 - RELEASE   -
|  1> ! RI-MP2 RIJK def2-TZVP def2-TZVP/C def2-TZVP/JK TIGHTSCF
|  2> % maxcore 2000
|  3> % mp2 density relaxed end
|  4> *xyz 0 1
|  5>  C        0.1295301764     1.2759888527    -0.4180579293
|  6>  C        0.0425253546    -0.1924596852    -0.0141893204
|  7>  O        0.7005719829    -0.4603825598     1.2239154639
|  8>  C       -1.3979960440    -0.6737996377     0.0839833285
|  9>  O       -2.1823777194    -0.4560301617    -1.1255590114
| 10>  C       -2.6592059709    -1.8163774300    -1.1251105664
| 11>  C       -1.8390291287    -2.7669679787    -2.0188500474
| 12>  N       -0.8271025053    -2.9070873533    -0.9310202716
| 13>  C       -1.6985622282    -2.1874009488     0.0298618125
| 14>  H        1.1747817818     1.5865668674    -0.5003265420
| 15>  H       -0.3684179484     1.4377454369    -1.3777921318
| 16>  H       -0.3624985687     1.9170500390     0.3257311420
| 17>  H        0.5540673936    -0.8195255461    -0.7497440280
| 18>  H        0.3736980530     0.1752820848     1.8705935624
| 19>  H       -1.8935056971    -0.1859547966     0.9402533906
| 20>  H       -3.7492277408    -1.8819294922    -1.1292618887
| 21>  H       -2.3821606140    -3.6923998424    -2.2511117827
| 22>  H       -1.4481364994    -2.3338793924    -2.9451359343
| 23>  H       -0.6269505390    -3.8632383046    -0.6679982828
| 24>  H       -1.9613780682    -2.7066182712     0.9514393767
| 25> *
| 26>
| 27>                          ****END OF INPUT****

CARTESIAN COORDINATES (ANGSTROEM)
---------------------------------
  C      0.129530    1.275989   -0.418058
  C      0.042525   -0.192460   -0.014189
  O      0.700572   -0.460383    1.223915
  C     -1.397996   -0.673800    0.083983
  O     -2.182378   -0.456030   -1.125559
  C     -2.659206   -1.816377   -1.125111
  C     -1.839029   -2.766968   -2.018850
  N     -0.827103   -2.907087   -0.931020
  C     -1.698562   -2.187401    0.029862
  H      1.174782    1.586567   -0.500327
  H     -0.368418    1.437745   -1.377792
  H     -0.362499    1.917050    0.325731
  H      0.554067   -0.819526   -0.749744
  H      0.373698    0.175282    1.870594
  H     -1.893506   -0.185955    0.940253
  H     -3.749228   -1.881929   -1.129262
  H     -2.382161   -3.692400   -2.251112
  H     -1.448136   -2.333879   -2.945136
  H     -0.626951   -3.863238   -0.667998
  H     -1.961378   -2.706618    0.951439

 Total Charge           Charge          ....    0
 Multiplicity           Mult            ....    1
 Number of Electrons    NEL             ....   70
 Basis Dimension        Dim             ....  345

ORBITAL ENERGIES
----------------

  NO   OCC          E(Eh)            E(eV)
   0   2.0000     -20.551433      -559.2329
   1   2.0000     -20.550763      -559.2147
   2   2.0000     -15.546608      -423.0447
   3   2.0000     -11.284406      -307.0643
   4   2.0000     -11.278841      -306.9129
   5   2.0000     -11.269040      -306.6462
   6   2.0000     -11.263264      -306.4890
   7   2.0000     -11.256163      -306.2958
   8   2.0000     -11.210683      -305.0582
   9   2.0000      -1.387305       -37.7505
  10   2.0000      -1.354696       -36.8631
  11   2.0000      -1.219618       -33.1875
  12   2.0000      -1.032584       -28.0980
  13   2.0000      -0.966797       -26.3079
  14   2.0000      -0.953393       -25.9431
  15   2.0000      -0.881328       -23.9821
  16   2.0000      -0.811199       -22.0738
  17   2.0000      -0.743775       -20.2392
  18   2.0000      -0.712774       -19.3956
  19   2.0000      -0.674806       -18.3624
  20   2.0000      -0.645301       -17.5595
  21   2.0000      -0.636287       -17.3142
  22   2.0000      -0.623838       -16.9755
  23   2.0000      -0.592005       -16.1093
  24   2.0000      -0.557287       -15.1646
  25   2.0000      -0.554602       -15.0915
  26   2.0000      -0.549589       -14.9551
  27   2.0000      -0.526474       -14.3261
  28   2.0000      -0.516956       -14.0671
  29   2.0000      -0.493026       -13.4159
  30   2.0000      -0.476922       -12.9777
  31   2.0000      -0.448680       -12.2092
  32   2.0000      -0.430523       -11.7151
  33   2.0000      -0.404922       -11.0185
  34   2.0000      -0.370716       -10.0877
  35   0.0000       0.133812         3.6412
  36   0.0000       0.142232         3.8703
  37   0.0000       0.163685         4.4541
  38   0.0000       0.165379         4.5002
  39   0.0000       0.188757         5.1363

MULLIKEN ATOMIC CHARGES
-----------------------
   0 C :   -0.399685
   1 C :    0.094652
   2 O :   -0.477263
   3 C :    0.021753
   4 O :   -0.337031
   5 C :    0.001422
   6 C :   -0.109291
   7 N :   -0.401079
   8 C :    0.050231
   9 H :    0.145368
  10 H :    0.148918
  11 H :    0.105684
  12 H :    0.113141
  13 H :    0.307913
  14 H :    0.075502
  15 H :    0.109816
  16 H :    0.107745
  17 H :    0.108454
  18 H :    0.208954
  19 H :    0.124798
Sum of atomic charges:   -0.0000000

LOEWDIN ATOMIC CHARGES
----------------------
   0 C :   -0.302107
   1 C :   -0.358703
   2 O :   -0.018720
   3 C :   -0.251729
   4 O :    0.155884
   5 C :   -0.247849
   6 C :   -0.251130
   7 N :   -0.006618
   8 C :   -0.215298
   9 H :    0.125868
  10 H :    0.133567
  11 H :    0.119843
  12 H :    0.151399
  13 H :    0.171572
  14 H :    0.135484
  15 H :    0.124922
  16 H :    0.121796
  17 H :    0.123992
  18 H :    0.158549
  19 H :    0.129277

  Mayer bond orders larger than 0.1
B(  0-C ,  1-C ) :   0.9388 B(  0-C ,  9-H ) :   0.9426 B(  0-C , 10-H ) :   0.9302
B(  0-C , 11-H ) :   0.9167 B(  1-C ,  2-O ) :   0.8961 B(  1-C ,  3-C ) :   0.9352
B(  1-C , 12-H ) :   0.9129 B(  2-O , 13-H ) :   0.8439 B(  3-C ,  4-O ) :   0.8980
B(  3-C ,  8-C ) :   0.9184 B(  3-C , 14-H ) :   0.8927 B(  4-O ,  5-C ) :   0.9497
B(  5-C ,  6-C ) :   0.9369 B(  5-C ,  8-C ) :   0.9450 B(  5-C , 15-H ) :   0.9278
B(  6-C ,  7-N ) :   0.9422 B(  6-C , 16-H ) :   0.9136 B(  6-C , 17-H ) :   0.9100
B(  7-N ,  8-C ) :   1.0135 B(  7-N , 18-H ) :   0.8818 B(  8-C , 19-H ) :   0.9036

MP2 TOTAL ENERGY:     -439.514106947 Eh
FINAL SINGLE POINT ENERGY      -439.514106946867

DIPOLE MOMENT
-------------
                                X             Y             Z
Electronic contribution:     -1.48960      -2.09347       0.78315
Nuclear contribution   :      0.78582       1.64768      -0.49431
                        -----------------------------------------
Total Dipole Moment    :     -0.70378      -0.44579       0.28885
                        -----------------------------------------
Magnitude (a.u.)       :      0.88174
Magnitude (Debye)      :      2.24120

                             ****ORCA TERMINATED NORMALLY****
TOTAL RUN TIME: 0 days 0 hours 18 minutes 18 seconds 336 msec
