                         Program Version 3.0.3 - RELEASE   -
|  1> ! RI-MP2 RIJK def2-TZVP def2-TZVP/C def2-TZVP/JK TIGHTSCF
|  2> % maxcore 2000
|  3> % mp2 density relaxed end
|  4> *xyz 0 1
|  5>  C       -1.5943167627    -0.4736784437     0.1294338687
|  6>  C       -0.1597397887     0.0587943300     0.0566251817
|  7>  C        0.6568698248    -0.5975290284    -1.0492743359
|  8>  O        0.3034194893    -0.0454007556    -2.3104308352
|  9>  C        2.1072111897    -1.0197343448    -1.0521675703
| 10>  C        2.6147461644    -1.9115062277     0.1168070094
| 11>  C        1.6074581493    -2.3172029242     1.1678016009
| 12>  C        1.5388137226    -2.9447464360    -0.1916699958
| 13>  C        1.0021089999    -2.0439449839    -1.3308977167
| 14>  H       -2.0737556298    -0.4017954956    -0.8509362989
| 15>  H       -1.6071453611    -1.5254493774     0.4326415221
| 16>  H       -2.1936327302     0.0944175838     0.8474885039
| 17>  H       -0.1830899652     1.1330537897    -0.1761819569
| 18>  H        0.3361657353    -0.0101261059     1.0248843622
| 19>  H        0.5996119559     0.8718705093    -2.3138652352
| 20>  H        2.7927766712    -0.5938195711    -1.7752097435
| 21>  H        3.6731503373    -2.0790133047     0.2727531927
| 22>  H        2.0380915894    -2.9738566709     1.9198882636
| 23>  H        0.8344228377    -1.6757529917     1.5648538646
| 24>  H        1.6573846558    -4.0112346001    -0.3367765221
| 25>  H        0.7214100650    -2.4462803213    -2.2954476494
| 26> *
| 27>
| 28>                          ****END OF INPUT****

CARTESIAN COORDINATES (ANGSTROEM)
---------------------------------
  C     -1.594317   -0.473678    0.129434
  C     -0.159740    0.058794    0.056625
  C      0.656870   -0.597529   -1.049274
  O      0.303419   -0.045401   -2.310431
  C      2.107211   -1.019734   -1.052168
  C      2.614746   -1.911506    0.116807
  C      1.607458   -2.317203    1.167802
  C      1.538814   -2.944746   -0.191670
  C      1.002109   -2.043945   -1.330898
  H     -2.073756   -0.401795   -0.850936
  H     -1.607145   -1.525449    0.432642
  H     -2.193633    0.094418    0.847489
  H     -0.183090    1.133054   -0.176182
  H      0.336166   -0.010126    1.024884
  H      0.599612    0.871871   -2.313865
  H      2.792777   -0.593820   -1.775210
  H      3.673150   -2.079013    0.272753
  H      2.038092   -2.973857    1.919888
  H      0.834423   -1.675753    1.564854
  H      1.657385   -4.011235   -0.336777
  H      0.721410   -2.446280   -2.295448

 Total Charge           Charge          ....    0
 Multiplicity           Mult            ....    1
 Number of Electrons    NEL             ....   68
 Basis Dimension        Dim             ....  351

ORBITAL ENERGIES
----------------

  NO   OCC          E(Eh)            E(eV)
   0   2.0000     -20.556442      -559.3692
   1   2.0000     -11.293142      -307.3020
   2   2.0000     -11.236368      -305.7571
   3   2.0000     -11.234106      -305.6956
   4   2.0000     -11.230892      -305.6081
   5   2.0000     -11.229913      -305.5815
   6   2.0000     -11.228513      -305.5434
   7   2.0000     -11.223593      -305.4095
   8   2.0000     -11.209641      -305.0298
   9   2.0000      -1.368771       -37.2462
  10   2.0000      -1.204024       -32.7632
  11   2.0000      -1.069145       -29.0929
  12   2.0000      -1.025976       -27.9182
  13   2.0000      -0.882365       -24.0104
  14   2.0000      -0.868079       -23.6216
  15   2.0000      -0.828916       -22.5560
  16   2.0000      -0.754540       -20.5321
  17   2.0000      -0.723657       -19.6917
  18   2.0000      -0.704250       -19.1636
  19   2.0000      -0.644363       -17.5340
  20   2.0000      -0.637700       -17.3527
  21   2.0000      -0.622347       -16.9349
  22   2.0000      -0.585459       -15.9312
  23   2.0000      -0.582094       -15.8396
  24   2.0000      -0.542251       -14.7554
  25   2.0000      -0.526701       -14.3323
  26   2.0000      -0.515989       -14.0408
  27   2.0000      -0.486396       -13.2355
  28   2.0000      -0.479742       -13.0545
  29   2.0000      -0.475551       -12.9404
  30   2.0000      -0.443344       -12.0640
  31   2.0000      -0.433422       -11.7940
  32   2.0000      -0.384767       -10.4700
  33   2.0000      -0.319165        -8.6849
  34   0.0000       0.138304         3.7634
  35   0.0000       0.152284         4.1439
  36   0.0000       0.156590         4.2610
  37   0.0000       0.171628         4.6702
  38   0.0000       0.189525         5.1573

MULLIKEN ATOMIC CHARGES
-----------------------
   0 C :   -0.407568
   1 C :   -0.189406
   2 C :    0.198733
   3 O :   -0.470256
   4 C :   -0.178541
   5 C :   -0.162312
   6 C :   -0.230448
   7 C :   -0.154469
   8 C :   -0.125357
   9 H :    0.139611
  10 H :    0.133716
  11 H :    0.130773
  12 H :    0.086924
  13 H :    0.115148
  14 H :    0.316963
  15 H :    0.138926
  16 H :    0.132726
  17 H :    0.124419
  18 H :    0.127994
  19 H :    0.133230
  20 H :    0.139193
Sum of atomic charges:   -0.0000000

LOEWDIN ATOMIC CHARGES
----------------------
   0 C :   -0.311910
   1 C :   -0.263218
   2 C :   -0.307003
   3 O :    0.024234
   4 C :   -0.138629
   5 C :   -0.159344
   6 C :   -0.205196
   7 C :   -0.164319
   8 C :   -0.126439
   9 H :    0.127387
  10 H :    0.123210
  11 H :    0.119462
  12 H :    0.138620
  13 H :    0.135576
  14 H :    0.176710
  15 H :    0.140303
  16 H :    0.137387
  17 H :    0.143152
  18 H :    0.125577
  19 H :    0.138391
  20 H :    0.146049

  Mayer bond orders larger than 0.1
B(  0-C ,  1-C ) :   0.9230 B(  0-C ,  9-H ) :   0.9370 B(  0-C , 10-H ) :   0.9352
B(  0-C , 11-H ) :   0.9390 B(  1-C ,  2-C ) :   0.9037 B(  1-C , 12-H ) :   0.9148
B(  1-C , 13-H ) :   0.9283 B(  2-C ,  3-O ) :   0.8935 B(  2-C ,  4-C ) :   0.9015
B(  2-C ,  8-C ) :   0.8889 B(  3-O , 14-H ) :   0.8413 B(  4-C ,  5-C ) :   0.8589
B(  4-C ,  8-C ) :   0.8894 B(  4-C , 15-H ) :   0.9085 B(  5-C ,  6-C ) :   0.9042
B(  5-C ,  7-C ) :   0.8916 B(  5-C , 16-H ) :   0.9189 B(  6-C ,  7-C ) :   0.9051
B(  6-C , 17-H ) :   0.9317 B(  6-C , 18-H ) :   0.9037 B(  7-C ,  8-C ) :   0.8789
B(  7-C , 19-H ) :   0.9256 B(  8-C , 20-H ) :   0.9230

MP2 TOTAL ENERGY:     -386.325357964 Eh
FINAL SINGLE POINT ENERGY      -386.325357963929

DIPOLE MOMENT
-------------
                                X             Y             Z
Electronic contribution:      3.67889      -0.58595      -3.88586
Nuclear contribution   :     -3.32724       0.80085       4.24176
                        -----------------------------------------
Total Dipole Moment    :      0.35166       0.21490       0.35590
                        -----------------------------------------
Magnitude (a.u.)       :      0.54453
Magnitude (Debye)      :      1.38409

                             ****ORCA TERMINATED NORMALLY****
TOTAL RUN TIME: 0 days 0 hours 18 minutes 37 seconds 544 msec
