                         Program Version 3.0.3 - RELEASE   -
|  1> ! RI-MP2 RIJK def2-TZVP def2-TZVP/C def2-TZVP/JK TIGHTSCF
|  2> % maxcore 2000
|  3> % mp2 density relaxed end
|  4> *xyz 0 1
|  5>  C        0.1594413456     1.4841301645     0.1495451019
|  6>  C        0.1663723201    -0.0277922303     0.0123689048
|  7>  O        0.6463971413    -0.5895429750     1.2330865657
|  8>  C        0.6857990507    -2.0076714224     1.2528181693
|  9>  C        2.1460674617    -2.5139911881     1.0240548762
| 10>  O        2.9752438547    -1.7137306669     0.2238750880
| 11>  C        2.3549222247    -2.5154644154     2.5661436926
| 12>  C        0.8071767094    -2.4571114582     2.7386016814
| 13>  O        0.2469725125    -1.6050723742     3.6956169228
| 14>  H        1.1687224919     1.8649162577     0.3322370764
| 15>  H       -0.2196218883     1.9431760961    -0.7681508798
| 16>  H       -0.4800302982     1.7938107522     0.9811754688
| 17>  H       -0.8481934168    -0.4049602461    -0.1867733790
| 18>  H        0.8090924753    -0.3459914078    -0.8192105435
| 19>  H       -0.1240608680    -2.4245300580     0.6428038766
| 20>  H        2.1687479125    -3.5198337394     0.5966365039
| 21>  H        2.8635676619    -0.8112182351     0.5468885847
| 22>  H        2.8945786269    -3.3525032781     3.0133601603
| 23>  H        2.8118927779    -1.5779728478     2.8985730937
| 24>  H        0.3812187639    -3.4537236068     2.8876802021
| 25>  H        0.2676063303    -0.7232387910     3.3000263731
| 26> *
| 27>
| 28>                          ****END OF INPUT****

CARTESIAN COORDINATES (ANGSTROEM)
---------------------------------
  C      0.159441    1.484130    0.149545
  C      0.166372   -0.027792    0.012369
  O      0.646397   -0.589543    1.233087
  C      0.685799   -2.007671    1.252818
  C      2.146067   -2.513991    1.024055
  O      2.975244   -1.713731    0.223875
  C      2.354922   -2.515464    2.566144
  C      0.807177   -2.457111    2.738602
  O      0.246973   -1.605072    3.695617
  H      1.168722    1.864916    0.332237
  H     -0.219622    1.943176   -0.768151
  H     -0.480030    1.793811    0.981175
  H     -0.848193   -0.404960   -0.186773
  H      0.809092   -0.345991   -0.819211
  H     -0.124061   -2.424530    0.642804
  H      2.168748   -3.519834    0.596637
  H      2.863568   -0.811218    0.546889
  H      2.894579   -3.352503    3.013360
  H      2.811893   -1.577973    2.898573
  H      0.381219   -3.453724    2.887680
  H      0.267606   -0.723239    3.300026

 Total Charge           Charge          ....    0
 Multiplicity           Mult            ....    1
 Number of Electrons    NEL             ....   72
 Basis Dimension        Dim             ....  351

ORBITAL ENERGIES
----------------

  NO   OCC          E(Eh)            E(eV)
   0   2.0000     -20.576519      -559.9156
   1   2.0000     -20.559605      -559.4553
   2   2.0000     -20.550109      -559.1969
   3   2.0000     -11.289636      -307.2066
   4   2.0000     -11.285282      -307.0881
   5   2.0000     -11.283934      -307.0514
   6   2.0000     -11.281822      -306.9940
   7   2.0000     -11.228248      -305.5362
   8   2.0000     -11.221176      -305.3437
   9   2.0000      -1.404476       -38.2177
  10   2.0000      -1.364519       -37.1305
  11   2.0000      -1.355838       -36.8942
  12   2.0000      -1.111393       -30.2425
  13   2.0000      -1.026661       -27.9369
  14   2.0000      -0.903033       -24.5728
  15   2.0000      -0.878597       -23.9078
  16   2.0000      -0.852555       -23.1992
  17   2.0000      -0.784560       -21.3490
  18   2.0000      -0.718661       -19.5557
  19   2.0000      -0.695842       -18.9348
  20   2.0000      -0.686660       -18.6850
  21   2.0000      -0.643460       -17.5094
  22   2.0000      -0.623610       -16.9693
  23   2.0000      -0.604073       -16.4377
  24   2.0000      -0.594637       -16.1809
  25   2.0000      -0.578397       -15.7390
  26   2.0000      -0.564518       -15.3613
  27   2.0000      -0.550685       -14.9849
  28   2.0000      -0.540017       -14.6946
  29   2.0000      -0.526974       -14.3397
  30   2.0000      -0.516429       -14.0528
  31   2.0000      -0.489081       -13.3086
  32   2.0000      -0.477904       -13.0044
  33   2.0000      -0.433857       -11.8058
  34   2.0000      -0.416083       -11.3222
  35   2.0000      -0.405558       -11.0358
  36   0.0000       0.127288         3.4637
  37   0.0000       0.142675         3.8824
  38   0.0000       0.160143         4.3577
  39   0.0000       0.170128         4.6294
  40   0.0000       0.179630         4.8880

MULLIKEN ATOMIC CHARGES
-----------------------
   0 C :   -0.366263
   1 C :   -0.088853
   2 O :   -0.376181
   3 C :    0.046005
   4 C :    0.040187
   5 O :   -0.459784
   6 C :   -0.222066
   7 C :    0.080534
   8 O :   -0.472427
   9 H :    0.127343
  10 H :    0.132786
  11 H :    0.133339
  12 H :    0.106217
  13 H :    0.130255
  14 H :    0.096802
  15 H :    0.105983
  16 H :    0.322922
  17 H :    0.123791
  18 H :    0.110014
  19 H :    0.100448
  20 H :    0.328949
Sum of atomic charges:   -0.0000000

LOEWDIN ATOMIC CHARGES
----------------------
   0 C :   -0.316709
   1 C :   -0.345257
   2 O :    0.159287
   3 C :   -0.274745
   4 C :   -0.318845
   5 O :   -0.009085
   6 C :   -0.216035
   7 C :   -0.317048
   8 O :   -0.012305
   9 H :    0.122814
  10 H :    0.128455
  11 H :    0.124735
  12 H :    0.120725
  13 H :    0.123824
  14 H :    0.126258
  15 H :    0.141235
  16 H :    0.176889
  17 H :    0.126078
  18 H :    0.140213
  19 H :    0.141053
  20 H :    0.178464

  Mayer bond orders larger than 0.1
B(  0-C ,  1-C ) :   0.9530 B(  0-C ,  9-H ) :   0.9359 B(  0-C , 10-H ) :   0.9334
B(  0-C , 11-H ) :   0.9342 B(  1-C ,  2-O ) :   0.8698 B(  1-C , 12-H ) :   0.9208
B(  1-C , 13-H ) :   0.9289 B(  2-O ,  3-C ) :   0.9002 B(  3-C ,  4-C ) :   0.9101
B(  3-C ,  7-C ) :   0.9236 B(  3-C , 14-H ) :   0.9428 B(  4-C ,  5-O ) :   0.9687
B(  4-C ,  6-C ) :   0.9063 B(  4-C , 15-H ) :   0.9287 B(  5-O , 16-H ) :   0.8289
B(  6-C ,  7-C ) :   0.8821 B(  6-C , 17-H ) :   0.9256 B(  6-C , 18-H ) :   0.9076
B(  7-C ,  8-O ) :   1.0053 B(  7-C , 19-H ) :   0.9401 B(  8-O , 20-H ) :   0.8196

MP2 TOTAL ENERGY:     -460.611414702 Eh
FINAL SINGLE POINT ENERGY      -460.611414701703

DIPOLE MOMENT
-------------
                                X             Y             Z
Electronic contribution:      1.40676      -3.83651       2.85676
Nuclear contribution   :     -1.76524       4.16445      -3.49016
                        -----------------------------------------
Total Dipole Moment    :     -0.35848       0.32794      -0.63339
                        -----------------------------------------
Magnitude (a.u.)       :      0.79827
Magnitude (Debye)      :      2.02905

                             ****ORCA TERMINATED NORMALLY****
TOTAL RUN TIME: 0 days 0 hours 16 minutes 24 seconds 496 msec
