                         Program Version 3.0.3 - RELEASE   -
|  1> ! RI-MP2 RIJK def2-TZVP def2-TZVP/C def2-TZVP/JK TIGHTSCF
|  2> % maxcore 2000
|  3> % mp2 density relaxed end
|  4> *xyz 0 1
|  5>  O       -0.3524951072     0.3644519373     0.5581382190
|  6>  C        0.0656708415     1.1319081208    -0.2712187110
|  7>  C        1.2920497451     1.9934563089    -0.0690259338
|  8>  C        1.3738760046     3.3010335806    -0.8767552188
|  9>  N        0.1862896612     4.0822514194    -0.4561746382
| 10>  C        1.4228702932     4.1174234612     0.3690932557
| 11>  C        1.3671088783     2.8626133176     1.2208074673
| 12>  C        0.8878115951     2.6194203647     2.5751497393
| 13>  O        2.2952854782     2.5886682412     2.2400557811
| 14>  H       -0.4366071075     1.2484865066    -1.2568487857
| 15>  H        2.1947210487     1.3777195873    -0.1421661564
| 16>  H        1.8570058121     3.4672125226    -1.8304149817
| 17>  H        0.1664642387     4.9403241798    -1.0065277078
| 18>  H        1.9406122766     5.0427750924     0.5853634767
| 19>  H        0.5801865131     3.4566534680     3.1986319982
| 20>  H        0.4489395683     1.6536780814     2.8106838960
| 21> *
| 22>
| 23>                          ****END OF INPUT****

CARTESIAN COORDINATES (ANGSTROEM)
---------------------------------
  O     -0.352495    0.364452    0.558138
  C      0.065671    1.131908   -0.271219
  C      1.292050    1.993456   -0.069026
  C      1.373876    3.301034   -0.876755
  N      0.186290    4.082251   -0.456175
  C      1.422870    4.117423    0.369093
  C      1.367109    2.862613    1.220807
  C      0.887812    2.619420    2.575150
  O      2.295285    2.588668    2.240056
  H     -0.436607    1.248487   -1.256849
  H      2.194721    1.377720   -0.142166
  H      1.857006    3.467213   -1.830415
  H      0.166464    4.940324   -1.006528
  H      1.940612    5.042775    0.585363
  H      0.580187    3.456653    3.198632
  H      0.448940    1.653678    2.810684

 Total Charge           Charge          ....    0
 Multiplicity           Mult            ....    1
 Number of Electrons    NEL             ....   66
 Basis Dimension        Dim             ....  321

ORBITAL ENERGIES
----------------

  NO   OCC          E(Eh)            E(eV)
   0   2.0000     -20.574929      -559.8723
   1   2.0000     -20.557873      -559.4082
   2   2.0000     -15.586454      -424.1290
   3   2.0000     -11.335319      -308.4497
   4   2.0000     -11.309151      -307.7376
   5   2.0000     -11.287186      -307.1399
   6   2.0000     -11.283738      -307.0461
   7   2.0000     -11.283063      -307.0278
   8   2.0000     -11.260263      -306.4073
   9   2.0000      -1.422300       -38.7027
  10   2.0000      -1.397109       -38.0173
  11   2.0000      -1.303348       -35.4659
  12   2.0000      -1.070472       -29.1290
  13   2.0000      -0.945487       -25.7280
  14   2.0000      -0.919527       -25.0216
  15   2.0000      -0.855313       -23.2743
  16   2.0000      -0.814077       -22.1522
  17   2.0000      -0.752046       -20.4642
  18   2.0000      -0.740363       -20.1463
  19   2.0000      -0.684357       -18.6223
  20   2.0000      -0.668353       -18.1868
  21   2.0000      -0.651813       -17.7367
  22   2.0000      -0.625336       -17.0162
  23   2.0000      -0.580937       -15.8081
  24   2.0000      -0.556987       -15.1564
  25   2.0000      -0.542658       -14.7665
  26   2.0000      -0.532554       -14.4915
  27   2.0000      -0.504143       -13.7184
  28   2.0000      -0.484050       -13.1717
  29   2.0000      -0.464055       -12.6276
  30   2.0000      -0.431730       -11.7480
  31   2.0000      -0.419510       -11.4154
  32   2.0000      -0.384375       -10.4594
  33   0.0000       0.123854         3.3702
  34   0.0000       0.130445         3.5496
  35   0.0000       0.156801         4.2668
  36   0.0000       0.164200         4.4681
  37   0.0000       0.177455         4.8288

MULLIKEN ATOMIC CHARGES
-----------------------
   0 O :   -0.271564
   1 C :    0.060436
   2 C :    0.087580
   3 C :   -0.132558
   4 N :   -0.385347
   5 C :   -0.083100
   6 C :    0.112887
   7 C :   -0.079368
   8 O :   -0.334323
   9 H :    0.086857
  10 H :    0.139619
  11 H :    0.152317
  12 H :    0.222341
  13 H :    0.157943
  14 H :    0.120575
  15 H :    0.145706
Sum of atomic charges:   -0.0000000

LOEWDIN ATOMIC CHARGES
----------------------
   0 O :    0.137457
   1 C :   -0.263478
   2 C :   -0.167251
   3 C :   -0.206080
   4 N :    0.013563
   5 C :   -0.184020
   6 C :   -0.278851
   7 C :   -0.215744
   8 O :    0.176379
   9 H :    0.115318
  10 H :    0.174363
  11 H :    0.132063
  12 H :    0.174961
  13 H :    0.137632
  14 H :    0.123575
  15 H :    0.130112

  Mayer bond orders larger than 0.1
B(  0-O ,  1-C ) :   1.9715 B(  1-C ,  2-C ) :   0.8150 B(  1-C ,  9-H ) :   0.9383
B(  2-C ,  3-C ) :   0.9307 B(  2-C ,  6-C ) :   0.9677 B(  2-C , 10-H ) :   0.8821
B(  3-C ,  4-N ) :   0.9434 B(  3-C ,  5-C ) :   0.9096 B(  3-C , 11-H ) :   0.9177
B(  4-N ,  5-C ) :   0.9237 B(  4-N , 12-H ) :   0.8677 B(  5-C ,  6-C ) :   0.8733
B(  5-C , 13-H ) :   0.9027 B(  6-C ,  7-C ) :   0.9691 B(  6-C ,  8-O ) :   0.9218
B(  7-C ,  8-O ) :   0.8761 B(  7-C , 14-H ) :   0.9139 B(  7-C , 15-H ) :   0.9053

MP2 TOTAL ENERGY:     -437.086076975 Eh
FINAL SINGLE POINT ENERGY      -437.086076974971

DIPOLE MOMENT
-------------
                                X             Y             Z
Electronic contribution:      0.19461      -2.04541       0.81935
Nuclear contribution   :      0.16483       3.14966      -1.76709
                        -----------------------------------------
Total Dipole Moment    :      0.35944       1.10425      -0.94774
                        -----------------------------------------
Magnitude (a.u.)       :      1.49893
Magnitude (Debye)      :      3.80997

                             ****ORCA TERMINATED NORMALLY****
TOTAL RUN TIME: 0 days 0 hours 16 minutes 38 seconds 100 msec
