                         Program Version 3.0.3 - RELEASE   -
|  1> ! RI-MP2 RIJK def2-TZVP def2-TZVP/C def2-TZVP/JK TIGHTSCF
|  2> % maxcore 2000
|  3> % mp2 density relaxed end
|  4> *xyz 0 1
|  5>  C       -0.1547516355     1.5158924100    -0.0593621711
|  6>  C       -0.0229056277    -0.0007488122    -0.0072035813
|  7>  C       -1.3550857945    -0.7748549006    -0.0508456983
|  8>  C       -1.0428377033    -2.0548083788     0.7386821300
|  9>  O       -0.0943403152    -1.6748239280     1.7337228659
| 10>  C        0.7440419101    -0.6770501854     1.1888921701
| 11>  C        1.8592773727    -1.1853099758     0.2203996331
| 12>  C        1.0622747082    -0.5814632597    -0.9452697483
| 13>  O        1.2125636122    -0.5457371840    -2.1328423786
| 14>  H        0.8153175131     2.0100083010     0.0588006991
| 15>  H       -0.5695033682     1.8314894550    -1.0219164768
| 16>  H       -0.8171123702     1.8751585379     0.7353875773
| 17>  H       -2.1285610471    -0.1895152774     0.4575065258
| 18>  H       -1.6921807484    -0.9766167521    -1.0708238042
| 19>  H       -1.9091505294    -2.4795127367     1.2516054665
| 20>  H       -0.6262051581    -2.8313452054     0.0778856506
| 21>  H        1.0874646323    -0.0387231141     2.0046534130
| 22>  H        2.8360603341    -0.7107783373     0.3582523856
| 23>  H        2.0017864948    -2.2692951563     0.1893356617
| 24> *
| 25>
| 26>                          ****END OF INPUT****

CARTESIAN COORDINATES (ANGSTROEM)
---------------------------------
  C     -0.154752    1.515892   -0.059362
  C     -0.022906   -0.000749   -0.007204
  C     -1.355086   -0.774855   -0.050846
  C     -1.042838   -2.054808    0.738682
  O     -0.094340   -1.674824    1.733723
  C      0.744042   -0.677050    1.188892
  C      1.859277   -1.185310    0.220400
  C      1.062275   -0.581463   -0.945270
  O      1.212564   -0.545737   -2.132842
  H      0.815318    2.010008    0.058801
  H     -0.569503    1.831489   -1.021916
  H     -0.817112    1.875159    0.735388
  H     -2.128561   -0.189515    0.457507
  H     -1.692181   -0.976617   -1.070824
  H     -1.909151   -2.479513    1.251605
  H     -0.626205   -2.831345    0.077886
  H      1.087465   -0.038723    2.004653
  H      2.836060   -0.710778    0.358252
  H      2.001786   -2.269295    0.189336

 Total Charge           Charge          ....    0
 Multiplicity           Mult            ....    1
 Number of Electrons    NEL             ....   68
 Basis Dimension        Dim             ....  339

ORBITAL ENERGIES
----------------

  NO   OCC          E(Eh)            E(eV)
   0   2.0000     -20.564088      -559.5773
   1   2.0000     -20.556246      -559.3639
   2   2.0000     -11.331638      -308.3495
   3   2.0000     -11.291759      -307.2644
   4   2.0000     -11.284605      -307.0697
   5   2.0000     -11.252002      -306.1826
   6   2.0000     -11.240154      -305.8601
   7   2.0000     -11.240111      -305.8590
   8   2.0000     -11.234298      -305.7008
   9   2.0000      -1.400034       -38.0969
  10   2.0000      -1.389665       -37.8147
  11   2.0000      -1.138809       -30.9886
  12   2.0000      -1.049543       -28.5595
  13   2.0000      -0.986175       -26.8352
  14   2.0000      -0.905163       -24.6307
  15   2.0000      -0.844731       -22.9863
  16   2.0000      -0.808071       -21.9887
  17   2.0000      -0.709428       -19.3045
  18   2.0000      -0.697183       -18.9713
  19   2.0000      -0.679394       -18.4872
  20   2.0000      -0.650943       -17.7131
  21   2.0000      -0.617343       -16.7988
  22   2.0000      -0.602254       -16.3882
  23   2.0000      -0.596764       -16.2388
  24   2.0000      -0.576526       -15.6881
  25   2.0000      -0.574900       -15.6438
  26   2.0000      -0.554980       -15.1018
  27   2.0000      -0.515644       -14.0314
  28   2.0000      -0.509934       -13.8760
  29   2.0000      -0.498242       -13.5579
  30   2.0000      -0.482249       -13.1226
  31   2.0000      -0.456779       -12.4296
  32   2.0000      -0.417508       -11.3610
  33   2.0000      -0.389747       -10.6055
  34   0.0000       0.123354         3.3566
  35   0.0000       0.130575         3.5531
  36   0.0000       0.151479         4.1219
  37   0.0000       0.159704         4.3458
  38   0.0000       0.185937         5.0596

MULLIKEN ATOMIC CHARGES
-----------------------
   0 C :   -0.414556
   1 C :    0.193083
   2 C :   -0.274789
   3 C :   -0.066506
   4 O :   -0.314625
   5 C :    0.015519
   6 C :   -0.239587
   7 C :    0.020544
   8 O :   -0.247768
   9 H :    0.134020
  10 H :    0.150271
  11 H :    0.139835
  12 H :    0.119852
  13 H :    0.142729
  14 H :    0.126826
  15 H :    0.107206
  16 H :    0.119083
  17 H :    0.142616
  18 H :    0.146246
Sum of atomic charges:    0.0000000

LOEWDIN ATOMIC CHARGES
----------------------
   0 C :   -0.262423
   1 C :   -0.228705
   2 C :   -0.210455
   3 C :   -0.295465
   4 O :    0.173198
   5 C :   -0.242890
   6 C :   -0.191647
   7 C :   -0.278259
   8 O :    0.167083
   9 H :    0.129501
  10 H :    0.135208
  11 H :    0.129788
  12 H :    0.144303
  13 H :    0.146982
  14 H :    0.128106
  15 H :    0.121843
  16 H :    0.136525
  17 H :    0.149083
  18 H :    0.148228

  Mayer bond orders larger than 0.1
B(  0-C ,  1-C ) :   0.8815 B(  0-C ,  9-H ) :   0.9310 B(  0-C , 10-H ) :   0.9348
B(  0-C , 11-H ) :   0.9369 B(  1-C ,  2-C ) :   0.8857 B(  1-C ,  5-C ) :   0.9056
B(  1-C ,  6-C ) :  -0.1278 B(  1-C ,  7-C ) :   0.7824 B(  2-C ,  3-C ) :   0.9546
B(  2-C , 12-H ) :   0.9233 B(  2-C , 13-H ) :   0.9192 B(  3-C ,  4-O ) :   0.9105
B(  3-C , 14-H ) :   0.9277 B(  3-C , 15-H ) :   0.9309 B(  4-O ,  5-C ) :   0.9732
B(  5-C ,  6-C ) :   0.9081 B(  5-C , 16-H ) :   0.9273 B(  6-C ,  7-C ) :   0.9120
B(  6-C , 17-H ) :   0.8931 B(  6-C , 18-H ) :   0.8920 B(  7-C ,  8-O ) :   2.0474

MP2 TOTAL ENERGY:     -422.335340943 Eh
FINAL SINGLE POINT ENERGY      -422.335340943461

DIPOLE MOMENT
-------------
                                X             Y             Z
Electronic contribution:      2.83252      -2.46572      -1.64190
Nuclear contribution   :     -3.15959       2.72382       2.12205
                        -----------------------------------------
Total Dipole Moment    :     -0.32707       0.25810       0.48015
                        -----------------------------------------
Magnitude (a.u.)       :      0.63571
Magnitude (Debye)      :      1.61585

                             ****ORCA TERMINATED NORMALLY****
TOTAL RUN TIME: 0 days 0 hours 18 minutes 50 seconds 431 msec
