                         Program Version 3.0.3 - RELEASE   -
|  1> ! RI-MP2 RIJK def2-TZVP def2-TZVP/C def2-TZVP/JK TIGHTSCF
|  2> % maxcore 2000
|  3> % mp2 density relaxed end
|  4> *xyz 0 1
|  5>  C       -0.0865905612     1.6137592544    -0.0234654623
|  6>  C       -0.0397900928     0.0964541459     0.0089778149
|  7>  C       -1.3045387344    -0.5656928313    -0.5006678450
|  8>  O       -1.4704566284    -0.2077085218    -1.8658142730
|  9>  C        1.2484470427    -0.6137706003    -0.2416768481
| 10>  C        0.6435343938    -0.6519903538     1.1598761562
| 11>  C        1.3187759907     0.0660083914     2.2623229521
| 12>  O        1.3016102044    -0.2918814041     3.4154041641
| 13>  H        0.8773158247     2.0664134523     0.2191186974
| 14>  H       -0.3705886190     1.9389244818    -1.0276951708
| 15>  H       -0.8300913005     2.0034574159     0.6811942238
| 16>  H       -1.2248662125    -1.6578221218    -0.3846084490
| 17>  H       -2.1617113258    -0.2295231985     0.1039451971
| 18>  H       -2.3546403004    -0.4674698298    -2.1401611862
| 19>  H        1.2434762616    -1.5413213982    -0.8028917499
| 20>  H        2.1422938072    -0.0123796878    -0.3752485857
| 21>  H        0.1800617562    -1.5798390313     1.4802466426
| 22>  H        1.8786839234     0.9793870969     1.9580834217
| 23> *
| 24>
| 25>                          ****END OF INPUT****

CARTESIAN COORDINATES (ANGSTROEM)
---------------------------------
  C     -0.086591    1.613759   -0.023465
  C     -0.039790    0.096454    0.008978
  C     -1.304539   -0.565693   -0.500668
  O     -1.470457   -0.207709   -1.865814
  C      1.248447   -0.613771   -0.241677
  C      0.643534   -0.651990    1.159876
  C      1.318776    0.066008    2.262323
  O      1.301610   -0.291881    3.415404
  H      0.877316    2.066413    0.219119
  H     -0.370589    1.938924   -1.027695
  H     -0.830091    2.003457    0.681194
  H     -1.224866   -1.657822   -0.384608
  H     -2.161711   -0.229523    0.103945
  H     -2.354640   -0.467470   -2.140161
  H      1.243476   -1.541321   -0.802892
  H      2.142294   -0.012380   -0.375249
  H      0.180062   -1.579839    1.480247
  H      1.878684    0.979387    1.958083

 Total Charge           Charge          ....    0
 Multiplicity           Mult            ....    1
 Number of Electrons    NEL             ....   62
 Basis Dimension        Dim             ....  308

ORBITAL ENERGIES
----------------

  NO   OCC          E(Eh)            E(eV)
   0   2.0000     -20.567962      -559.6827
   1   2.0000     -20.547523      -559.1265
   2   2.0000     -11.328585      -308.2665
   3   2.0000     -11.292407      -307.2820
   4   2.0000     -11.262033      -306.4555
   5   2.0000     -11.247220      -306.0524
   6   2.0000     -11.246564      -306.0346
   7   2.0000     -11.227643      -305.5197
   8   2.0000      -1.386890       -37.7392
   9   2.0000      -1.373061       -37.3629
  10   2.0000      -1.178443       -32.0671
  11   2.0000      -0.996187       -27.1076
  12   2.0000      -0.944531       -25.7020
  13   2.0000      -0.903541       -24.5866
  14   2.0000      -0.795936       -21.6585
  15   2.0000      -0.756206       -20.5774
  16   2.0000      -0.715126       -19.4596
  17   2.0000      -0.672247       -18.2928
  18   2.0000      -0.665409       -18.1067
  19   2.0000      -0.636656       -17.3243
  20   2.0000      -0.613429       -16.6923
  21   2.0000      -0.578396       -15.7390
  22   2.0000      -0.563473       -15.3329
  23   2.0000      -0.560454       -15.2507
  24   2.0000      -0.551883       -15.0175
  25   2.0000      -0.532481       -14.4895
  26   2.0000      -0.499690       -13.5973
  27   2.0000      -0.461723       -12.5641
  28   2.0000      -0.439865       -11.9693
  29   2.0000      -0.417864       -11.3707
  30   2.0000      -0.407648       -11.0927
  31   0.0000       0.121663         3.3106
  32   0.0000       0.133517         3.6332
  33   0.0000       0.150995         4.1088
  34   0.0000       0.159188         4.3317
  35   0.0000       0.177709         4.8357

MULLIKEN ATOMIC CHARGES
-----------------------
   0 C :   -0.407797
   1 C :    0.123005
   2 C :   -0.093922
   3 O :   -0.462632
   4 C :   -0.296166
   5 C :   -0.086792
   6 C :    0.053690
   7 O :   -0.273348
   8 H :    0.125718
   9 H :    0.163378
  10 H :    0.134310
  11 H :    0.101616
  12 H :    0.113447
  13 H :    0.318523
  14 H :    0.145137
  15 H :    0.141176
  16 H :    0.131294
  17 H :    0.069362
Sum of atomic charges:   -0.0000000

LOEWDIN ATOMIC CHARGES
----------------------
   0 C :   -0.261231
   1 C :   -0.252073
   2 C :   -0.301986
   3 O :   -0.040431
   4 C :   -0.166072
   5 C :   -0.178825
   6 C :   -0.291305
   7 O :    0.123443
   8 H :    0.125042
   9 H :    0.137079
  10 H :    0.129387
  11 H :    0.124144
  12 H :    0.124357
  13 H :    0.174192
  14 H :    0.142315
  15 H :    0.141177
  16 H :    0.157070
  17 H :    0.113717

  Mayer bond orders larger than 0.1
B(  0-C ,  1-C ) :   0.9260 B(  0-C ,  8-H ) :   0.9281 B(  0-C ,  9-H ) :   0.9329
B(  0-C , 10-H ) :   0.9359 B(  1-C ,  2-C ) :   0.9208 B(  1-C ,  4-C ) :   0.8783
B(  1-C ,  5-C ) :   0.7695 B(  2-C ,  3-O ) :   1.0493 B(  2-C , 11-H ) :   0.9134
B(  2-C , 12-H ) :   0.9339 B(  3-O , 13-H ) :   0.8450 B(  4-C ,  5-C ) :   0.8412
B(  4-C , 14-H ) :   0.9199 B(  4-C , 15-H ) :   0.9246 B(  5-C ,  6-C ) :   0.8940
B(  5-C , 16-H ) :   0.9139 B(  6-C ,  7-O ) :   1.9868 B(  6-C , 17-H ) :   0.9546

MP2 TOTAL ENERGY:     -384.301122764 Eh
FINAL SINGLE POINT ENERGY      -384.301122763844

DIPOLE MOMENT
-------------
                                X             Y             Z
Electronic contribution:      1.39666      -2.03473       3.88662
Nuclear contribution   :     -2.07258       1.98879      -4.90706
                        -----------------------------------------
Total Dipole Moment    :     -0.67592      -0.04594      -1.02045
                        -----------------------------------------
Magnitude (a.u.)       :      1.22486
Magnitude (Debye)      :      3.11335

                             ****ORCA TERMINATED NORMALLY****
TOTAL RUN TIME: 0 days 0 hours 11 minutes 58 seconds 907 msec
