                         Program Version 3.0.3 - RELEASE   -
|  1> ! RI-MP2 RIJK def2-TZVP def2-TZVP/C def2-TZVP/JK TIGHTSCF
|  2> % maxcore 2000
|  3> % mp2 density relaxed end
|  4> *xyz 0 1
|  5>  C        0.1698251451     1.3429091680     0.0160960972
|  6>  O       -0.1811214996    -0.0051438742     0.2407364011
|  7>  C        0.6211096211    -0.6407714390     1.2031202053
|  8>  C        0.1905360686    -2.0997713633     1.3126321910
|  9>  C        1.1966220189    -2.5269683307     0.3128056664
| 10>  C        1.9737419483    -1.1985897214     0.6603814112
| 11>  C        2.4991027571    -1.9718689196     1.8766510288
| 12>  N        1.3594910429    -2.9442085823     1.7334762719
| 13>  H        1.1859277140     1.4471056676    -0.3920791076
| 14>  H       -0.5418771846     1.7437366681    -0.7093637420
| 15>  H        0.1076110240     1.9370221947     0.9409821598
| 16>  H        0.6758807540    -0.0311647410     2.1199730774
| 17>  H       -0.7973017107    -2.4898569109     1.5175738746
| 18>  H        1.1669523648    -3.2061171742    -0.5278442208
| 19>  H        2.6061217530    -0.5961239741     0.0112031719
| 20>  H        3.4335255493    -2.5083707151     1.6942952122
| 21>  H        2.5530946237    -1.4512111926     2.8409843014
| 22> *
| 23>
| 24>                          ****END OF INPUT****

CARTESIAN COORDINATES (ANGSTROEM)
---------------------------------
  C      0.169825    1.342909    0.016096
  O     -0.181121   -0.005144    0.240736
  C      0.621110   -0.640771    1.203120
  C      0.190536   -2.099771    1.312632
  C      1.196622   -2.526968    0.312806
  C      1.973742   -1.198590    0.660381
  C      2.499103   -1.971869    1.876651
  N      1.359491   -2.944209    1.733476
  H      1.185928    1.447106   -0.392079
  H     -0.541877    1.743737   -0.709364
  H      0.107611    1.937022    0.940982
  H      0.675881   -0.031165    2.119973
  H     -0.797302   -2.489857    1.517574
  H      1.166952   -3.206117   -0.527844
  H      2.606122   -0.596124    0.011203
  H      3.433526   -2.508371    1.694295
  H      2.553095   -1.451211    2.840984

 Total Charge           Charge          ....    0
 Multiplicity           Mult            ....    1
 Number of Electrons    NEL             ....   60
 Basis Dimension        Dim             ....  302

ORBITAL ENERGIES
----------------

  NO   OCC          E(Eh)            E(eV)
   0   2.0000     -20.562771      -559.5415
   1   2.0000     -15.563111      -423.4938
   2   2.0000     -11.290560      -307.2318
   3   2.0000     -11.276325      -306.8444
   4   2.0000     -11.262675      -306.4730
   5   2.0000     -11.257902      -306.3431
   6   2.0000     -11.257582      -306.3344
   7   2.0000     -11.244535      -305.9794
   8   2.0000      -1.388205       -37.7750
   9   2.0000      -1.312449       -35.7136
  10   2.0000      -1.024318       -27.8731
  11   2.0000      -0.991651       -26.9842
  12   2.0000      -0.924654       -25.1611
  13   2.0000      -0.868580       -23.6353
  14   2.0000      -0.774346       -21.0710
  15   2.0000      -0.745421       -20.2839
  16   2.0000      -0.707107       -19.2414
  17   2.0000      -0.671274       -18.2663
  18   2.0000      -0.648116       -17.6361
  19   2.0000      -0.622058       -16.9271
  20   2.0000      -0.599268       -16.3069
  21   2.0000      -0.576401       -15.6847
  22   2.0000      -0.559093       -15.2137
  23   2.0000      -0.517751       -14.0887
  24   2.0000      -0.492888       -13.4122
  25   2.0000      -0.458293       -12.4708
  26   2.0000      -0.439158       -11.9501
  27   2.0000      -0.429708       -11.6929
  28   2.0000      -0.414209       -11.2712
  29   2.0000      -0.367244        -9.9932
  30   0.0000       0.142211         3.8697
  31   0.0000       0.164262         4.4698
  32   0.0000       0.169597         4.6150
  33   0.0000       0.181078         4.9274
  34   0.0000       0.190227         5.1763

MULLIKEN ATOMIC CHARGES
-----------------------
   0 C :   -0.222424
   1 O :   -0.303541
   2 C :    0.064953
   3 C :   -0.063121
   4 C :   -0.128806
   5 C :   -0.094268
   6 C :   -0.128513
   7 N :   -0.229965
   8 H :    0.110321
   9 H :    0.144520
  10 H :    0.114824
  11 H :    0.077700
  12 H :    0.140833
  13 H :    0.147936
  14 H :    0.139725
  15 H :    0.122644
  16 H :    0.107182
Sum of atomic charges:   -0.0000000

LOEWDIN ATOMIC CHARGES
----------------------
   0 C :   -0.353247
   1 O :    0.171673
   2 C :   -0.283090
   3 C :   -0.189852
   4 C :   -0.163215
   5 C :   -0.171854
   6 C :   -0.231433
   7 N :    0.123480
   8 H :    0.100826
   9 H :    0.115069
  10 H :    0.102774
  11 H :    0.125415
  12 H :    0.138412
  13 H :    0.130414
  14 H :    0.131825
  15 H :    0.132422
  16 H :    0.120380

  Mayer bond orders larger than 0.1
B(  0-C ,  1-O ) :   0.9106 B(  0-C ,  8-H ) :   0.9342 B(  0-C ,  9-H ) :   0.9406
B(  0-C , 10-H ) :   0.9369 B(  1-O ,  2-C ) :   0.9980 B(  2-C ,  3-C ) :   0.8853
B(  2-C ,  5-C ) :   0.8984 B(  2-C , 11-H ) :   0.9375 B(  3-C ,  4-C ) :   0.9094
B(  3-C ,  7-N ) :   0.9106 B(  3-C , 12-H ) :   0.9290 B(  4-C ,  5-C ) :   0.9008
B(  4-C ,  7-N ) :   0.8896 B(  4-C , 13-H ) :   0.8928 B(  5-C ,  6-C ) :   0.9358
B(  5-C , 14-H ) :   0.9047 B(  6-C ,  7-N ) :   0.9118 B(  6-C , 15-H ) :   0.9308
B(  6-C , 16-H ) :   0.9189

MP2 TOTAL ENERGY:     -363.151405553 Eh
FINAL SINGLE POINT ENERGY      -363.151405552829

DIPOLE MOMENT
-------------
                                X             Y             Z
Electronic contribution:     -1.21742      -4.31947       0.37092
Nuclear contribution   :      1.64201       5.17951      -0.59476
                        -----------------------------------------
Total Dipole Moment    :      0.42459       0.86004      -0.22384
                        -----------------------------------------
Magnitude (a.u.)       :      0.98491
Magnitude (Debye)      :      2.50344

                             ****ORCA TERMINATED NORMALLY****
TOTAL RUN TIME: 0 days 0 hours 11 minutes 22 seconds 782 msec
