                         Program Version 3.0.3 - RELEASE   -
|  1> ! RI-MP2 RIJK def2-TZVP def2-TZVP/C def2-TZVP/JK TIGHTSCF
|  2> % maxcore 2000
|  3> % mp2 density relaxed end
|  4> *xyz 0 1
|  5>  C        0.0237520472     1.5912749259    -0.0474392298
|  6>  C        0.0651201530     0.0859072304    -0.0409820860
|  7>  O        1.3694677647    -0.5318938744    -0.0633988415
|  8>  C        0.5781355887    -0.6854038391     1.0922386907
|  9>  C        1.0025771998    -0.2749189192     2.4983821468
| 10>  O        0.5361448921    -1.5428436508     3.0178365579
| 11>  C        0.1594272235    -2.0251077276     1.6952459606
| 12>  C       -1.3099844513    -2.4122397739     1.6862349273
| 13>  O       -1.5640911439    -3.4031254025     2.6611797234
| 14>  H        0.7544374217     2.0072544283     0.6512818640
| 15>  H        0.2476742399     1.9777140863    -1.0467564899
| 16>  H       -0.9729943879     1.9467022751     0.2352426665
| 17>  H       -0.6532453397    -0.4049764235    -0.7001349848
| 18>  H        2.0844334487    -0.1484497913     2.6245247956
| 19>  H        0.4775941147     0.5760855117     2.9486355143
| 20>  H        0.7892747176    -2.8712620387     1.3929004816
| 21>  H       -1.9245543886    -1.5124307770     1.8526840294
| 22>  H       -1.5866961388    -2.8354329950     0.7141495965
| 23>  H       -1.2036677913    -3.0596758849     3.4881273874
| 24> *
| 25>
| 26>                          ****END OF INPUT****

CARTESIAN COORDINATES (ANGSTROEM)
---------------------------------
  C      0.023752    1.591275   -0.047439
  C      0.065120    0.085907   -0.040982
  O      1.369468   -0.531894   -0.063399
  C      0.578136   -0.685404    1.092239
  C      1.002577   -0.274919    2.498382
  O      0.536145   -1.542844    3.017837
  C      0.159427   -2.025108    1.695246
  C     -1.309984   -2.412240    1.686235
  O     -1.564091   -3.403125    2.661180
  H      0.754437    2.007254    0.651282
  H      0.247674    1.977714   -1.046756
  H     -0.972994    1.946702    0.235243
  H     -0.653245   -0.404976   -0.700135
  H      2.084433   -0.148450    2.624525
  H      0.477594    0.576086    2.948636
  H      0.789275   -2.871262    1.392900
  H     -1.924554   -1.512431    1.852684
  H     -1.586696   -2.835433    0.714150
  H     -1.203668   -3.059676    3.488127

 Total Charge           Charge          ....    0
 Multiplicity           Mult            ....    1
 Number of Electrons    NEL             ....   70
 Basis Dimension        Dim             ....  339

ORBITAL ENERGIES
----------------

  NO   OCC          E(Eh)            E(eV)
   0   2.0000     -20.580687      -560.0290
   1   2.0000     -20.565755      -559.6226
   2   2.0000     -20.557151      -559.3885
   3   2.0000     -11.305279      -307.6323
   4   2.0000     -11.303469      -307.5830
   5   2.0000     -11.294326      -307.3342
   6   2.0000     -11.293398      -307.3090
   7   2.0000     -11.283762      -307.0468
   8   2.0000     -11.239715      -305.8482
   9   2.0000      -1.433627       -39.0110
  10   2.0000      -1.392913       -37.9031
  11   2.0000      -1.359377       -36.9905
  12   2.0000      -1.029433       -28.0123
  13   2.0000      -1.018698       -27.7202
  14   2.0000      -0.980809       -26.6892
  15   2.0000      -0.883492       -24.0410
  16   2.0000      -0.857228       -23.3264
  17   2.0000      -0.755046       -20.5458
  18   2.0000      -0.716419       -19.4948
  19   2.0000      -0.712843       -19.3974
  20   2.0000      -0.678278       -18.4569
  21   2.0000      -0.650941       -17.7130
  22   2.0000      -0.624397       -16.9907
  23   2.0000      -0.608240       -16.5510
  24   2.0000      -0.589428       -16.0391
  25   2.0000      -0.575787       -15.6680
  26   2.0000      -0.570419       -15.5219
  27   2.0000      -0.550465       -14.9789
  28   2.0000      -0.535340       -14.5673
  29   2.0000      -0.505646       -13.7593
  30   2.0000      -0.491509       -13.3746
  31   2.0000      -0.471825       -12.8390
  32   2.0000      -0.451674       -12.2907
  33   2.0000      -0.436282       -11.8718
  34   2.0000      -0.414777       -11.2866
  35   0.0000       0.126162         3.4330
  36   0.0000       0.150633         4.0989
  37   0.0000       0.153206         4.1690
  38   0.0000       0.171173         4.6578
  39   0.0000       0.186596         5.0775

MULLIKEN ATOMIC CHARGES
-----------------------
   0 C :   -0.396064
   1 C :    0.073543
   2 O :   -0.323533
   3 C :    0.003233
   4 C :   -0.010957
   5 O :   -0.358332
   6 C :    0.113024
   7 C :   -0.040297
   8 O :   -0.473059
   9 H :    0.140169
  10 H :    0.146675
  11 H :    0.134434
  12 H :    0.122398
  13 H :    0.114421
  14 H :    0.111044
  15 H :    0.105247
  16 H :    0.095159
  17 H :    0.112399
  18 H :    0.330497
Sum of atomic charges:    0.0000000

LOEWDIN ATOMIC CHARGES
----------------------
   0 C :   -0.289161
   1 C :   -0.261227
   2 O :    0.194878
   3 C :   -0.292330
   4 C :   -0.226023
   5 O :    0.125822
   6 C :   -0.246870
   7 C :   -0.332973
   8 O :   -0.039074
   9 H :    0.131365
  10 H :    0.132284
  11 H :    0.132511
  12 H :    0.140767
  13 H :    0.128199
  14 H :    0.123614
  15 H :    0.145152
  16 H :    0.119733
  17 H :    0.132639
  18 H :    0.180693

  Mayer bond orders larger than 0.1
B(  0-C ,  1-C ) :   0.8901 B(  0-C ,  9-H ) :   0.9418 B(  0-C , 10-H ) :   0.9336
B(  0-C , 11-H ) :   0.9232 B(  1-C ,  2-O ) :   0.8769 B(  1-C ,  3-C ) :   0.9588
B(  1-C , 12-H ) :   0.9057 B(  2-O ,  3-C ) :   0.9388 B(  3-C ,  4-C ) :   0.9608
B(  3-C ,  6-C ) :   0.9099 B(  4-C ,  5-O ) :   0.9480 B(  4-C , 13-H ) :   0.9035
B(  4-C , 14-H ) :   0.9157 B(  5-O ,  6-C ) :   0.9082 B(  6-C ,  7-C ) :   0.9336
B(  6-C , 15-H ) :   0.9041 B(  7-C ,  8-O ) :   0.9301 B(  7-C , 16-H ) :   0.9131
B(  7-C , 17-H ) :   0.9258 B(  8-O , 18-H ) :   0.8312

MP2 TOTAL ENERGY:     -459.383239684 Eh
FINAL SINGLE POINT ENERGY      -459.383239683786

DIPOLE MOMENT
-------------
                                X             Y             Z
Electronic contribution:      2.30268      -4.63944       1.63623
Nuclear contribution   :     -2.56196       5.76192      -1.89170
                        -----------------------------------------
Total Dipole Moment    :     -0.25928       1.12248      -0.25547
                        -----------------------------------------
Magnitude (a.u.)       :      1.18002
Magnitude (Debye)      :      2.99938

                             ****ORCA TERMINATED NORMALLY****
TOTAL RUN TIME: 0 days 0 hours 15 minutes 45 seconds 411 msec
