                         Program Version 3.0.3 - RELEASE   -
|  1> ! RI-MP2 RIJK def2-TZVP def2-TZVP/C def2-TZVP/JK TIGHTSCF
|  2> % maxcore 2000
|  3> % mp2 density relaxed end
|  4> *xyz 0 1
|  5>  C       -0.0809517700     1.6313167199    -0.0025772810
|  6>  C       -0.0654773585     0.1096683527     0.0105553952
|  7>  C        1.0562122066    -0.6359166006    -0.7524117160
|  8>  C        2.0773514921    -0.4505141601     0.4107885556
|  9>  O        2.4401034797    -1.8614470958     0.4911988387
| 10>  C        0.9932239311    -1.8559415744     0.2256139784
| 11>  C        0.3453307523    -3.1974213346     0.0790858850
| 12>  O        0.9403720959    -3.9294645927    -0.9763254208
| 13>  C        0.7036521351    -0.6220466456     1.1383263265
| 14>  H        0.9144578037     2.0484869397     0.1836334684
| 15>  H       -0.4253760455     2.0122847682    -0.9701176908
| 16>  H       -0.7556091255     2.0251052989     0.7653997645
| 17>  H       -1.0692743886    -0.2901005785    -0.1742803302
| 18>  H        1.2802070038    -0.6721726295    -1.8184835186
| 19>  H        2.8634766620     0.2891027448     0.5526754866
| 20>  H        0.4158069045    -3.7355989207     1.0380508014
| 21>  H       -0.7166172686    -3.0796996830    -0.1619068955
| 22>  H        1.8944858572    -3.8562070272    -0.8529121692
| 23>  H        0.5332595026    -0.6351152817     2.2155911917
| 24> *
| 25>
| 26>                          ****END OF INPUT****

CARTESIAN COORDINATES (ANGSTROEM)
---------------------------------
  C     -0.080952    1.631317   -0.002577
  C     -0.065477    0.109668    0.010555
  C      1.056212   -0.635917   -0.752412
  C      2.077351   -0.450514    0.410789
  O      2.440103   -1.861447    0.491199
  C      0.993224   -1.855942    0.225614
  C      0.345331   -3.197421    0.079086
  O      0.940372   -3.929465   -0.976325
  C      0.703652   -0.622047    1.138326
  H      0.914458    2.048487    0.183633
  H     -0.425376    2.012285   -0.970118
  H     -0.755609    2.025105    0.765400
  H     -1.069274   -0.290101   -0.174280
  H      1.280207   -0.672173   -1.818484
  H      2.863477    0.289103    0.552675
  H      0.415807   -3.735599    1.038051
  H     -0.716617   -3.079700   -0.161907
  H      1.894486   -3.856207   -0.852912
  H      0.533260   -0.635115    2.215591

 Total Charge           Charge          ....    0
 Multiplicity           Mult            ....    1
 Number of Electrons    NEL             ....   68
 Basis Dimension        Dim             ....  339

ORBITAL ENERGIES
----------------

  NO   OCC          E(Eh)            E(eV)
   0   2.0000     -20.556061      -559.3589
   1   2.0000     -20.550106      -559.1968
   2   2.0000     -11.305533      -307.6392
   3   2.0000     -11.304858      -307.6208
   4   2.0000     -11.284013      -307.0536
   5   2.0000     -11.253119      -306.2129
   6   2.0000     -11.249084      -306.1031
   7   2.0000     -11.246720      -306.0388
   8   2.0000     -11.224275      -305.4280
   9   2.0000      -1.407530       -38.3008
  10   2.0000      -1.359810       -37.0023
  11   2.0000      -1.173557       -31.9341
  12   2.0000      -1.002623       -27.2828
  13   2.0000      -0.978657       -26.6306
  14   2.0000      -0.887199       -24.1419
  15   2.0000      -0.859004       -23.3747
  16   2.0000      -0.822047       -22.3690
  17   2.0000      -0.715617       -19.4729
  18   2.0000      -0.700249       -19.0547
  19   2.0000      -0.670910       -18.2564
  20   2.0000      -0.648276       -17.6405
  21   2.0000      -0.631170       -17.1750
  22   2.0000      -0.610790       -16.6204
  23   2.0000      -0.584641       -15.9089
  24   2.0000      -0.566179       -15.4065
  25   2.0000      -0.555490       -15.1156
  26   2.0000      -0.546874       -14.8812
  27   2.0000      -0.507482       -13.8093
  28   2.0000      -0.476020       -12.9532
  29   2.0000      -0.451411       -12.2835
  30   2.0000      -0.447607       -12.1800
  31   2.0000      -0.433357       -11.7922
  32   2.0000      -0.425734       -11.5848
  33   2.0000      -0.402297       -10.9471
  34   0.0000       0.134150         3.6504
  35   0.0000       0.148707         4.0465
  36   0.0000       0.160477         4.3668
  37   0.0000       0.173937         4.7331
  38   0.0000       0.182035         4.9534

MULLIKEN ATOMIC CHARGES
-----------------------
   0 C :   -0.418811
   1 C :   -0.095360
   2 C :   -0.038704
   3 C :   -0.067425
   4 O :   -0.361843
   5 C :    0.027824
   6 C :    0.011686
   7 O :   -0.468219
   8 C :   -0.059360
   9 H :    0.127323
  10 H :    0.135660
  11 H :    0.134227
  12 H :    0.104204
  13 H :    0.138612
  14 H :    0.135361
  15 H :    0.112581
  16 H :    0.116495
  17 H :    0.329649
  18 H :    0.136100
Sum of atomic charges:   -0.0000000

LOEWDIN ATOMIC CHARGES
----------------------
   0 C :   -0.293593
   1 C :   -0.217831
   2 C :   -0.100757
   3 C :   -0.187213
   4 O :    0.130841
   5 C :   -0.246300
   6 C :   -0.310213
   7 O :   -0.037212
   8 C :   -0.100991
   9 H :    0.125945
  10 H :    0.126261
  11 H :    0.125673
  12 H :    0.143698
  13 H :    0.133263
  14 H :    0.126731
  15 H :    0.129594
  16 H :    0.139020
  17 H :    0.181903
  18 H :    0.131180

  Mayer bond orders larger than 0.1
B(  0-C ,  1-C ) :   0.8981 B(  0-C ,  9-H ) :   0.9393 B(  0-C , 10-H ) :   0.9376
B(  0-C , 11-H ) :   0.9372 B(  1-C ,  2-C ) :   0.8882 B(  1-C ,  8-C ) :   0.8930
B(  1-C , 12-H ) :   0.9254 B(  2-C ,  3-C ) :   0.8683 B(  2-C ,  5-C ) :   0.8253
B(  2-C , 13-H ) :   0.8867 B(  3-C ,  4-O ) :   0.9250 B(  3-C ,  8-C ) :   0.8832
B(  3-C , 14-H ) :   0.9077 B(  4-O ,  5-C ) :   0.9105 B(  5-C ,  6-C ) :   0.8717
B(  5-C ,  8-C ) :   0.8072 B(  6-C ,  7-O ) :   0.9346 B(  6-C , 15-H ) :   0.9286
B(  6-C , 16-H ) :   0.9259 B(  7-O , 17-H ) :   0.8317 B(  8-C , 18-H ) :   0.8914

MP2 TOTAL ENERGY:     -422.229963013 Eh
FINAL SINGLE POINT ENERGY      -422.229963013410

DIPOLE MOMENT
-------------
                                X             Y             Z
Electronic contribution:      3.86878      -5.37850       0.04796
Nuclear contribution   :     -4.23261       6.23864       0.24890
                        -----------------------------------------
Total Dipole Moment    :     -0.36383       0.86014       0.29686
                        -----------------------------------------
Magnitude (a.u.)       :      0.97997
Magnitude (Debye)      :      2.49088

                             ****ORCA TERMINATED NORMALLY****
TOTAL RUN TIME: 0 days 0 hours 16 minutes 33 seconds 48 msec
