                         Program Version 3.0.3 - RELEASE   -
|  1> ! RI-MP2 RIJK def2-TZVP def2-TZVP/C def2-TZVP/JK TIGHTSCF
|  2> % maxcore 2000
|  3> % mp2 density relaxed end
|  4> *xyz 0 1
|  5>  C       -0.2031002023     1.5034864715    -0.0100928584
|  6>  C        0.0668735179     0.0025610271     0.0737911107
|  7>  C        1.0541441738    -0.5571674263    -1.0416944803
|  8>  C        2.2248522537    -1.1848155825    -0.2116451900
|  9>  C        1.5221467783    -1.8725983526     0.9792057053
| 10>  C        2.2845044267    -1.1754772820     2.1297956281
| 11>  O        1.0598725791    -0.4915385290     2.6684639162
| 12>  C        0.9414320424    -0.4530926412     1.2211409775
| 13>  C        2.4523704425    -0.1913296493     0.9483370445
| 14>  H        0.7312608315     2.0742041583     0.0166860241
| 15>  H       -0.7233394530     1.7550706148    -0.9398942015
| 16>  H       -0.8257684037     1.8399470323     0.8248621591
| 17>  H       -0.8812550177    -0.5453325958     0.0533636614
| 18>  H        0.5630227497    -1.3003076988    -1.6769371766
| 19>  H        1.4061007862     0.2528597957    -1.6889559072
| 20>  H        3.0397157174    -1.6448561861    -0.7709651928
| 21>  H        0.9503282630    -2.7992018472     1.0218919442
| 22>  H        2.9844419760    -1.5473239688     2.8763864917
| 23>  H        2.9395935485     0.7829146098     0.9585108440
| 24> *
| 25>
| 26>                          ****END OF INPUT****

CARTESIAN COORDINATES (ANGSTROEM)
---------------------------------
  C     -0.203100    1.503486   -0.010093
  C      0.066874    0.002561    0.073791
  C      1.054144   -0.557167   -1.041694
  C      2.224852   -1.184816   -0.211645
  C      1.522147   -1.872598    0.979206
  C      2.284504   -1.175477    2.129796
  O      1.059873   -0.491539    2.668464
  C      0.941432   -0.453093    1.221141
  C      2.452370   -0.191330    0.948337
  H      0.731261    2.074204    0.016686
  H     -0.723339    1.755071   -0.939894
  H     -0.825768    1.839947    0.824862
  H     -0.881255   -0.545333    0.053364
  H      0.563023   -1.300308   -1.676937
  H      1.406101    0.252860   -1.688956
  H      3.039716   -1.644856   -0.770965
  H      0.950328   -2.799202    1.021892
  H      2.984442   -1.547324    2.876386
  H      2.939594    0.782915    0.958511

 Total Charge           Charge          ....    0
 Multiplicity           Mult            ....    1
 Number of Electrons    NEL             ....   66
 Basis Dimension        Dim             ....  339

ORBITAL ENERGIES
----------------

  NO   OCC          E(Eh)            E(eV)
   0   2.0000     -20.546407      -559.0961
   1   2.0000     -11.301508      -307.5297
   2   2.0000     -11.298020      -307.4347
   3   2.0000     -11.245544      -306.0068
   4   2.0000     -11.244159      -305.9691
   5   2.0000     -11.237956      -305.8003
   6   2.0000     -11.237660      -305.7923
   7   2.0000     -11.233001      -305.6655
   8   2.0000     -11.218426      -305.2689
   9   2.0000      -1.394170       -37.9373
  10   2.0000      -1.193143       -32.4671
  11   2.0000      -1.063637       -28.9430
  12   2.0000      -0.962421       -26.1888
  13   2.0000      -0.897847       -24.4317
  14   2.0000      -0.883389       -24.0382
  15   2.0000      -0.850452       -23.1420
  16   2.0000      -0.770658       -20.9707
  17   2.0000      -0.694333       -18.8938
  18   2.0000      -0.677367       -18.4321
  19   2.0000      -0.654018       -17.7967
  20   2.0000      -0.618109       -16.8196
  21   2.0000      -0.596190       -16.2232
  22   2.0000      -0.588242       -16.0069
  23   2.0000      -0.558546       -15.1988
  24   2.0000      -0.551774       -15.0145
  25   2.0000      -0.503809       -13.7093
  26   2.0000      -0.491424       -13.3723
  27   2.0000      -0.471276       -12.8241
  28   2.0000      -0.457911       -12.4604
  29   2.0000      -0.450187       -12.2502
  30   2.0000      -0.423917       -11.5354
  31   2.0000      -0.402017       -10.9394
  32   2.0000      -0.386927       -10.5288
  33   0.0000       0.137355         3.7376
  34   0.0000       0.150846         4.1047
  35   0.0000       0.161039         4.3821
  36   0.0000       0.173832         4.7302
  37   0.0000       0.190938         5.1957

MULLIKEN ATOMIC CHARGES
-----------------------
   0 C :   -0.430162
   1 C :   -0.003998
   2 C :   -0.286869
   3 C :   -0.069180
   4 C :   -0.142930
   5 C :    0.030739
   6 O :   -0.336847
   7 C :    0.140206
   8 C :   -0.179868
   9 H :    0.127034
  10 H :    0.138221
  11 H :    0.142883
  12 H :    0.104170
  13 H :    0.123791
  14 H :    0.123363
  15 H :    0.122598
  16 H :    0.128264
  17 H :    0.138573
  18 H :    0.130011
Sum of atomic charges:    0.0000000

LOEWDIN ATOMIC CHARGES
----------------------
   0 C :   -0.290335
   1 C :   -0.218248
   2 C :   -0.178592
   3 C :   -0.173333
   4 C :   -0.096716
   5 C :   -0.160396
   6 O :    0.125559
   7 C :   -0.233399
   8 C :   -0.098772
   9 H :    0.125062
  10 H :    0.124774
  11 H :    0.128209
  12 H :    0.152294
  13 H :    0.134296
  14 H :    0.137111
  15 H :    0.132492
  16 H :    0.132578
  17 H :    0.125494
  18 H :    0.131922

  Mayer bond orders larger than 0.1
B(  0-C ,  1-C ) :   0.8859 B(  0-C ,  9-H ) :   0.9306 B(  0-C , 10-H ) :   0.9409
B(  0-C , 11-H ) :   0.9385 B(  1-C ,  2-C ) :   0.9436 B(  1-C ,  7-C ) :   0.9178
B(  1-C , 12-H ) :   0.9210 B(  2-C ,  3-C ) :   0.9083 B(  2-C , 13-H ) :   0.9240
B(  2-C , 14-H ) :   0.9220 B(  3-C ,  4-C ) :   0.8770 B(  3-C ,  8-C ) :   0.8762
B(  3-C , 15-H ) :   0.9099 B(  4-C ,  5-C ) :   0.8902 B(  4-C ,  7-C ) :   0.8805
B(  4-C , 16-H ) :   0.8984 B(  5-C ,  6-O ) :   0.8323 B(  5-C ,  8-C ) :   0.8682
B(  5-C , 17-H ) :   0.8985 B(  6-O ,  7-C ) :   1.0002 B(  7-C ,  8-C ) :   0.8728
B(  8-C , 18-H ) :   0.8940

MP2 TOTAL ENERGY:     -385.112223754 Eh
FINAL SINGLE POINT ENERGY      -385.112223754242

DIPOLE MOMENT
-------------
                                X             Y             Z
Electronic contribution:      2.31197      -3.39255       5.59798
Nuclear contribution   :     -2.07910       3.25255      -6.44079
                        -----------------------------------------
Total Dipole Moment    :      0.23288      -0.14000      -0.84281
                        -----------------------------------------
Magnitude (a.u.)       :      0.88552
Magnitude (Debye)      :      2.25083

                             ****ORCA TERMINATED NORMALLY****
TOTAL RUN TIME: 0 days 0 hours 21 minutes 43 seconds 151 msec
