                         Program Version 3.0.3 - RELEASE   -
|  1> ! RI-MP2 RIJK def2-TZVP def2-TZVP/C def2-TZVP/JK TIGHTSCF
|  2> % maxcore 2000
|  3> % mp2 density relaxed end
|  4> *xyz 0 1
|  5>  C       -1.7884424867    -2.0980524124     0.7660193083
|  6>  C       -0.4461539272    -1.6689668243     0.1390306805
|  7>  C       -0.6303953929    -0.4820710495    -0.7076706325
|  8>  N       -0.7797100727     0.4540315566    -1.3690606529
|  9>  C        0.5966630830    -1.3971948779     1.2236485918
| 10>  C        1.4761400017    -2.5042033979     1.7006204470
| 11>  N        2.0320157210    -1.3670049256     0.9810811128
| 12>  C        2.5646750776    -1.5825101617    -0.3569535894
| 13>  H       -2.1687494745    -1.3202262023     1.4339149696
| 14>  H       -2.5397486257    -2.2828187257    -0.0052961946
| 15>  H       -1.6456696456    -3.0131741040     1.3463216588
| 16>  H       -0.0935199834    -2.4751948547    -0.5127473306
| 17>  H        0.2658255508    -0.6460890542     1.9401535761
| 18>  H        1.7457123339    -2.5944992606     2.7495855434
| 19>  H        1.3987471929    -3.4540183227     1.1692908276
| 20>  H        2.0870201331    -2.4029884596    -0.9160121518
| 21>  H        2.4633566925    -0.6624866431    -0.9395663169
| 22>  H        3.6295813719    -1.8179570401    -0.2701940471
| 23> *
| 24>
| 25>                          ****END OF INPUT****

CARTESIAN COORDINATES (ANGSTROEM)
---------------------------------
  C     -1.788442   -2.098052    0.766019
  C     -0.446154   -1.668967    0.139031
  C     -0.630395   -0.482071   -0.707671
  N     -0.779710    0.454032   -1.369061
  C      0.596663   -1.397195    1.223649
  C      1.476140   -2.504203    1.700620
  N      2.032016   -1.367005    0.981081
  C      2.564675   -1.582510   -0.356954
  H     -2.168749   -1.320226    1.433915
  H     -2.539749   -2.282819   -0.005296
  H     -1.645670   -3.013174    1.346322
  H     -0.093520   -2.475195   -0.512747
  H      0.265826   -0.646089    1.940154
  H      1.745712   -2.594499    2.749586
  H      1.398747   -3.454018    1.169291
  H      2.087020   -2.402988   -0.916012
  H      2.463357   -0.662487   -0.939566
  H      3.629581   -1.817957   -0.270194

 Total Charge           Charge          ....    0
 Multiplicity           Mult            ....    1
 Number of Electrons    NEL             ....   60
 Basis Dimension        Dim             ....  308

ORBITAL ENERGIES
----------------

  NO   OCC          E(Eh)            E(eV)
   0   2.0000     -15.572267      -423.7429
   1   2.0000     -15.569151      -423.6581
   2   2.0000     -11.294303      -307.3336
   3   2.0000     -11.282435      -307.0107
   4   2.0000     -11.271558      -306.7147
   5   2.0000     -11.268894      -306.6422
   6   2.0000     -11.255801      -306.2859
   7   2.0000     -11.249630      -306.1180
   8   2.0000      -1.291060       -35.1315
   9   2.0000      -1.218763       -33.1642
  10   2.0000      -1.097601       -29.8672
  11   2.0000      -1.002533       -27.2803
  12   2.0000      -0.924413       -25.1546
  13   2.0000      -0.847751       -23.0685
  14   2.0000      -0.817569       -22.2472
  15   2.0000      -0.726290       -19.7634
  16   2.0000      -0.674074       -18.3425
  17   2.0000      -0.656965       -17.8769
  18   2.0000      -0.617418       -16.8008
  19   2.0000      -0.583919       -15.8892
  20   2.0000      -0.581981       -15.8365
  21   2.0000      -0.569154       -15.4875
  22   2.0000      -0.558565       -15.1993
  23   2.0000      -0.542669       -14.7668
  24   2.0000      -0.531198       -14.4546
  25   2.0000      -0.488548       -13.2941
  26   2.0000      -0.470283       -12.7971
  27   2.0000      -0.452538       -12.3142
  28   2.0000      -0.447691       -12.1823
  29   2.0000      -0.383081       -10.4242
  30   0.0000       0.118960         3.2371
  31   0.0000       0.145917         3.9706
  32   0.0000       0.160932         4.3792
  33   0.0000       0.167111         4.5473
  34   0.0000       0.169537         4.6133

MULLIKEN ATOMIC CHARGES
-----------------------
   0 C :   -0.391974
   1 C :    0.028461
   2 C :   -0.190949
   3 N :   -0.055636
   4 C :   -0.065721
   5 C :   -0.186418
   6 N :   -0.203101
   7 C :   -0.300345
   8 H :    0.144173
   9 H :    0.153617
  10 H :    0.145622
  11 H :    0.127575
  12 H :    0.133435
  13 H :    0.133979
  14 H :    0.118244
  15 H :    0.103481
  16 H :    0.156492
  17 H :    0.149064
Sum of atomic charges:    0.0000000

LOEWDIN ATOMIC CHARGES
----------------------
   0 C :   -0.258328
   1 C :   -0.257256
   2 C :   -0.168421
   3 N :    0.061969
   4 C :   -0.231297
   5 C :   -0.241905
   6 N :    0.098702
   7 C :   -0.325733
   8 H :    0.132389
   9 H :    0.131570
  10 H :    0.130089
  11 H :    0.175247
  12 H :    0.150869
  13 H :    0.126264
  14 H :    0.125103
  15 H :    0.103518
  16 H :    0.125533
  17 H :    0.121685

  Mayer bond orders larger than 0.1
B(  0-C ,  1-C ) :   0.9071 B(  0-C ,  8-H ) :   0.9295 B(  0-C ,  9-H ) :   0.9326
B(  0-C , 10-H ) :   0.9346 B(  1-C ,  2-C ) :   0.9132 B(  1-C ,  4-C ) :   0.8962
B(  1-C , 11-H ) :   0.9167 B(  2-C ,  3-N ) :   2.8757 B(  4-C ,  5-C ) :   0.9390
B(  4-C ,  6-N ) :   0.9454 B(  4-C , 12-H ) :   0.9093 B(  5-C ,  6-N ) :   0.9036
B(  5-C , 13-H ) :   0.9187 B(  5-C , 14-H ) :   0.9151 B(  6-N ,  7-C ) :   0.8745
B(  7-C , 15-H ) :   0.9245 B(  7-C , 16-H ) :   0.9348 B(  7-C , 17-H ) :   0.9345

MP2 TOTAL ENERGY:     -343.360160075 Eh
FINAL SINGLE POINT ENERGY      -343.360160074787

DIPOLE MOMENT
-------------
                                X             Y             Z
Electronic contribution:     -1.10360       5.02139      -2.09745
Nuclear contribution   :      1.07867      -6.56205       2.73936
                        -----------------------------------------
Total Dipole Moment    :     -0.02493      -1.54066       0.64191
                        -----------------------------------------
Magnitude (a.u.)       :      1.66922
Magnitude (Debye)      :      4.24282

                             ****ORCA TERMINATED NORMALLY****
TOTAL RUN TIME: 0 days 0 hours 12 minutes 13 seconds 772 msec
