                         Program Version 3.0.3 - RELEASE   -
|  1> ! RI-MP2 RIJK def2-TZVP def2-TZVP/C def2-TZVP/JK TIGHTSCF
|  2> % maxcore 2000
|  3> % mp2 density relaxed end
|  4> *xyz 0 1
|  5>  C       -0.0182619204     1.5109952366     0.0024185887
|  6>  C       -0.0113633095     0.0250115144     0.0012337215
|  7>  N       -0.0404588070    -0.7543735842    -1.0591792051
|  8>  N       -0.0217691383    -2.0933375536    -0.6739716473
|  9>  C        0.0176733550    -2.0435497080     0.6223731939
| 10>  O        0.0529284909    -2.9430511763     1.6310714427
| 11>  C        0.0846760454    -2.1884987041     2.7884212841
| 12>  C        0.0702401730    -0.8681548391     2.5207194017
| 13>  N        0.0270346770    -0.7726305778     1.1266619716
| 14>  H        0.8810073020     1.9226793893     0.4747167740
| 15>  H       -0.0533873002     1.8526124428    -1.0330801455
| 16>  H       -0.8888750113     1.9143711046     0.5320710416
| 17>  H        0.1156020032    -2.7398606332     3.7118818265
| 18>  H        0.0865256502    -0.0205087415     3.1824617517
| 19> *
| 20>
| 21>                          ****END OF INPUT****

CARTESIAN COORDINATES (ANGSTROEM)
---------------------------------
  C     -0.018262    1.510995    0.002419
  C     -0.011363    0.025012    0.001234
  N     -0.040459   -0.754374   -1.059179
  N     -0.021769   -2.093338   -0.673972
  C      0.017673   -2.043550    0.622373
  O      0.052928   -2.943051    1.631071
  C      0.084676   -2.188499    2.788421
  C      0.070240   -0.868155    2.520719
  N      0.027035   -0.772631    1.126662
  H      0.881007    1.922679    0.474717
  H     -0.053387    1.852612   -1.033080
  H     -0.888875    1.914371    0.532071
  H      0.115602   -2.739861    3.711882
  H      0.086526   -0.020509    3.182462

 Total Charge           Charge          ....    0
 Multiplicity           Mult            ....    1
 Number of Electrons    NEL             ....   64
 Basis Dimension        Dim             ....  309

ORBITAL ENERGIES
----------------

  NO   OCC          E(Eh)            E(eV)
   0   2.0000     -20.653632      -562.0139
   1   2.0000     -15.647526      -425.7908
   2   2.0000     -15.582278      -424.0153
   3   2.0000     -15.572843      -423.7586
   4   2.0000     -11.365415      -309.2687
   5   2.0000     -11.333192      -308.3918
   6   2.0000     -11.316449      -307.9362
   7   2.0000     -11.315626      -307.9138
   8   2.0000     -11.251644      -306.1728
   9   2.0000      -1.511047       -41.1177
  10   2.0000      -1.386644       -37.7325
  11   2.0000      -1.255091       -34.1528
  12   2.0000      -1.111299       -30.2400
  13   2.0000      -1.065617       -28.9969
  14   2.0000      -0.986198       -26.8358
  15   2.0000      -0.896455       -24.3938
  16   2.0000      -0.855380       -23.2761
  17   2.0000      -0.812391       -22.1063
  18   2.0000      -0.710254       -19.3270
  19   2.0000      -0.701746       -19.0955
  20   2.0000      -0.690548       -18.7908
  21   2.0000      -0.671431       -18.2706
  22   2.0000      -0.620787       -16.8925
  23   2.0000      -0.618044       -16.8178
  24   2.0000      -0.583388       -15.8748
  25   2.0000      -0.568762       -15.4768
  26   2.0000      -0.562993       -15.3198
  27   2.0000      -0.493086       -13.4176
  28   2.0000      -0.480168       -13.0660
  29   2.0000      -0.432333       -11.7644
  30   2.0000      -0.362990        -9.8775
  31   2.0000      -0.340455        -9.2642
  32   0.0000       0.118047         3.2122
  33   0.0000       0.121975         3.3191
  34   0.0000       0.155399         4.2286
  35   0.0000       0.167007         4.5445
  36   0.0000       0.180465         4.9107

MULLIKEN ATOMIC CHARGES
-----------------------
   0 C :   -0.432954
   1 C :    0.134777
   2 N :   -0.152014
   3 N :   -0.178945
   4 C :    0.247952
   5 O :   -0.215460
   6 C :    0.001189
   7 C :   -0.151724
   8 N :   -0.069973
   9 H :    0.146460
  10 H :    0.173974
  11 H :    0.146388
  12 H :    0.173256
  13 H :    0.177074
Sum of atomic charges:    0.0000000

LOEWDIN ATOMIC CHARGES
----------------------
   0 C :   -0.273605
   1 C :   -0.340572
   2 N :    0.055006
   3 N :    0.027252
   4 C :   -0.405113
   5 O :    0.335439
   6 C :   -0.210678
   7 C :   -0.190698
   8 N :    0.295771
   9 H :    0.133673
  10 H :    0.148575
  11 H :    0.133651
  12 H :    0.142850
  13 H :    0.148447

  Mayer bond orders larger than 0.1
B(  0-C ,  1-C ) :   0.8655 B(  0-C ,  9-H ) :   0.9311 B(  0-C , 10-H ) :   0.9427
B(  0-C , 11-H ) :   0.9312 B(  1-C ,  2-N ) :   1.6518 B(  1-C ,  8-N ) :   1.0953
B(  2-N ,  3-N ) :   1.0020 B(  3-N ,  4-C ) :   1.6955 B(  4-C ,  5-O ) :   1.0552
B(  4-C ,  8-N ) :   1.0861 B(  5-O ,  6-C ) :   1.0031 B(  6-C ,  7-C ) :   1.6681
B(  6-C , 12-H ) :   0.9272 B(  7-C ,  8-N ) :   1.0003 B(  7-C , 13-H ) :   0.9077

MP2 TOTAL ENERGY:     -432.150235902 Eh
FINAL SINGLE POINT ENERGY      -432.150235901562

DIPOLE MOMENT
-------------
                                X             Y             Z
Electronic contribution:      0.01768      -6.84384      -0.48300
Nuclear contribution   :      0.04787       7.96454       2.78932
                        -----------------------------------------
Total Dipole Moment    :      0.06555       1.12070       2.30632
                        -----------------------------------------
Magnitude (a.u.)       :      2.56503
Magnitude (Debye)      :      6.51978

                             ****ORCA TERMINATED NORMALLY****
TOTAL RUN TIME: 0 days 0 hours 14 minutes 15 seconds 650 msec
