                         Program Version 3.0.3 - RELEASE   -
|  1> ! RI-MP2 RIJK def2-TZVP def2-TZVP/C def2-TZVP/JK TIGHTSCF
|  2> % maxcore 2000
|  3> % mp2 density relaxed end
|  4> *xyz 0 1
|  5>  C        0.0718839642     1.4404100391     0.0639636316
|  6>  C        0.0262999208    -0.0427890110    -0.0517315337
|  7>  N       -0.0544053246    -0.7166804577    -1.1303220977
|  8>  C        0.0025517627    -2.1130378670    -0.7336312954
|  9>  C        1.3925262967    -2.7999963025    -0.7409015112
| 10>  N        2.3212260050    -1.8920928698    -0.0424405812
| 11>  C        1.4493657444    -2.7753896174     0.7578997970
| 12>  C        0.0733833446    -2.0940943075     0.8278747388
| 13>  O        0.0502041125    -0.7035290838     1.1549605458
| 14>  H        1.0246928798     1.7480536248     0.5059315174
| 15>  H       -0.0329222682     1.8888639955    -0.9232709444
| 16>  H       -0.7257659712     1.7969957652     0.7228555421
| 17>  H       -0.7808179910    -2.7177798117    -1.1949688275
| 18>  H        1.7559331542    -3.5448968907    -1.4378590595
| 19>  H        3.2438646464    -2.3235110313    -0.0672317782
| 20>  H        1.8643494559    -3.4912472616     1.4567305602
| 21>  H       -0.6839305720    -2.6254166327     1.4054880058
| 22> *
| 23>
| 24>                          ****END OF INPUT****

CARTESIAN COORDINATES (ANGSTROEM)
---------------------------------
  C      0.071884    1.440410    0.063964
  C      0.026300   -0.042789   -0.051732
  N     -0.054405   -0.716680   -1.130322
  C      0.002552   -2.113038   -0.733631
  C      1.392526   -2.799996   -0.740902
  N      2.321226   -1.892093   -0.042441
  C      1.449366   -2.775390    0.757900
  C      0.073383   -2.094094    0.827875
  O      0.050204   -0.703529    1.154961
  H      1.024693    1.748054    0.505932
  H     -0.032922    1.888864   -0.923271
  H     -0.725766    1.796996    0.722856
  H     -0.780818   -2.717780   -1.194969
  H      1.755933   -3.544897   -1.437859
  H      3.243865   -2.323511   -0.067232
  H      1.864349   -3.491247    1.456731
  H     -0.683931   -2.625417    1.405488

 Total Charge           Charge          ....    0
 Multiplicity           Mult            ....    1
 Number of Electrons    NEL             ....   66
 Basis Dimension        Dim             ....  327

ORBITAL ENERGIES
----------------

  NO   OCC          E(Eh)            E(eV)
   0   2.0000     -20.583338      -560.1011
   1   2.0000     -15.569525      -423.6683
   2   2.0000     -15.528958      -422.5644
   3   2.0000     -11.327414      -308.2346
   4   2.0000     -11.291901      -307.2683
   5   2.0000     -11.270172      -306.6770
   6   2.0000     -11.269478      -306.6581
   7   2.0000     -11.263434      -306.4936
   8   2.0000     -11.226711      -305.4944
   9   2.0000      -1.428349       -38.8673
  10   2.0000      -1.286902       -35.0184
  11   2.0000      -1.201551       -32.6959
  12   2.0000      -1.061430       -28.8830
  13   2.0000      -0.981556       -26.7095
  14   2.0000      -0.897783       -24.4299
  15   2.0000      -0.848540       -23.0900
  16   2.0000      -0.773166       -21.0389
  17   2.0000      -0.753482       -20.5033
  18   2.0000      -0.734084       -19.9754
  19   2.0000      -0.665150       -18.0997
  20   2.0000      -0.647390       -17.6164
  21   2.0000      -0.618226       -16.8228
  22   2.0000      -0.580016       -15.7830
  23   2.0000      -0.563489       -15.3333
  24   2.0000      -0.553429       -15.0596
  25   2.0000      -0.540366       -14.7041
  26   2.0000      -0.532631       -14.4936
  27   2.0000      -0.501786       -13.6543
  28   2.0000      -0.473104       -12.8738
  29   2.0000      -0.472120       -12.8470
  30   2.0000      -0.413403       -11.2493
  31   2.0000      -0.369310       -10.0494
  32   2.0000      -0.368249       -10.0206
  33   0.0000       0.135907         3.6982
  34   0.0000       0.158293         4.3074
  35   0.0000       0.163444         4.4475
  36   0.0000       0.171260         4.6602
  37   0.0000       0.186873         5.0851

MULLIKEN ATOMIC CHARGES
-----------------------
   0 C :   -0.421618
   1 C :    0.250835
   2 N :   -0.301938
   3 C :    0.104811
   4 C :   -0.129125
   5 N :   -0.376592
   6 C :   -0.110520
   7 C :    0.084449
   8 O :   -0.293666
   9 H :    0.152159
  10 H :    0.156191
  11 H :    0.146052
  12 H :    0.117626
  13 H :    0.140066
  14 H :    0.218891
  15 H :    0.143395
  16 H :    0.118984
Sum of atomic charges:    0.0000000

LOEWDIN ATOMIC CHARGES
----------------------
   0 C :   -0.262314
   1 C :   -0.372857
   2 N :    0.107567
   3 C :   -0.226286
   4 C :   -0.207024
   5 N :    0.019954
   6 C :   -0.217694
   7 C :   -0.226277
   8 O :    0.252760
   9 H :    0.140896
  10 H :    0.139268
  11 H :    0.136754
  12 H :    0.143006
  13 H :    0.128968
  14 H :    0.176015
  15 H :    0.128842
  16 H :    0.138421

  Mayer bond orders larger than 0.1
B(  0-C ,  1-C ) :   0.8827 B(  0-C ,  9-H ) :   0.9241 B(  0-C , 10-H ) :   0.9490
B(  0-C , 11-H ) :   0.9278 B(  1-C ,  2-N ) :   1.8553 B(  1-C ,  8-O ) :   1.0460
B(  2-N ,  3-C ) :   0.9158 B(  3-C ,  4-C ) :   0.8906 B(  3-C ,  7-C ) :   0.9596
B(  3-C , 12-H ) :   0.9382 B(  4-C ,  5-N ) :   0.9331 B(  4-C ,  6-C ) :   0.8716
B(  4-C , 13-H ) :   0.9130 B(  5-N ,  6-C ) :   0.9107 B(  5-N , 14-H ) :   0.8632
B(  6-C ,  7-C ) :   0.9052 B(  6-C , 15-H ) :   0.9101 B(  7-C ,  8-O ) :   0.8812
B(  7-C , 16-H ) :   0.9318

MP2 TOTAL ENERGY:     -417.270609294 Eh
FINAL SINGLE POINT ENERGY      -417.270609294053

DIPOLE MOMENT
-------------
                                X             Y             Z
Electronic contribution:     -0.53028      -1.77759       0.19122
Nuclear contribution   :      0.80935       0.85546       0.20637
                        -----------------------------------------
Total Dipole Moment    :      0.27907      -0.92213       0.39759
                        -----------------------------------------
Magnitude (a.u.)       :      1.04225
Magnitude (Debye)      :      2.64920

                             ****ORCA TERMINATED NORMALLY****
TOTAL RUN TIME: 0 days 0 hours 17 minutes 3 seconds 865 msec
