                         Program Version 3.0.3 - RELEASE   -
|  1> ! RI-MP2 RIJK def2-TZVP def2-TZVP/C def2-TZVP/JK TIGHTSCF
|  2> % maxcore 2000
|  3> % mp2 density relaxed end
|  4> *xyz 0 1
|  5>  C       -0.8737339771     1.1788684911     0.7674820147
|  6>  N       -1.2043447705    -0.1785366613     0.3906399204
|  7>  C       -0.6531152179    -0.7951768421    -0.6817812851
|  8>  O        0.1726267105    -0.3004575562    -1.4297544243
|  9>  C       -1.1376295504    -2.2284444879    -0.9123697326
| 10>  O       -2.1575653245    -2.5800188355    -0.0030869956
| 11>  C       -2.4520910356    -3.9744014511     0.0921003140
| 12>  C       -3.2721780575    -4.1551189533     1.3638613298
| 13>  C       -3.1871529254    -4.4841653066    -1.1494751946
| 14>  H       -0.1336028494     1.5449570577     0.0544374630
| 15>  H       -1.7550799243     1.8294646700     0.7336245900
| 16>  H       -0.4489116421     1.2211674543     1.7768579338
| 17>  H       -1.8828179688    -0.7102029117     0.9128829382
| 18>  H       -1.4685294524    -2.2921294252    -1.9576589467
| 19>  H       -0.2644463401    -2.8906722448    -0.8059058524
| 20>  H       -1.5001839030    -4.5219480925     0.1946844070
| 21>  H       -4.2171320405    -3.6074435692     1.2886416070
| 22>  H       -3.4994371034    -5.2122747369     1.5281219582
| 23>  H       -2.7233665512    -3.7786495326     2.2313083130
| 24>  H       -4.1241736909    -3.9349755109    -1.2871126250
| 25>  H       -2.5842637579    -4.3691327417    -2.0545224648
| 26>  H       -3.4218731476    -5.5475959537    -1.0408429380
| 27> *
| 28>
| 29>                          ****END OF INPUT****

CARTESIAN COORDINATES (ANGSTROEM)
---------------------------------
  C     -0.873734    1.178868    0.767482
  N     -1.204345   -0.178537    0.390640
  C     -0.653115   -0.795177   -0.681781
  O      0.172627   -0.300458   -1.429754
  C     -1.137630   -2.228444   -0.912370
  O     -2.157565   -2.580019   -0.003087
  C     -2.452091   -3.974401    0.092100
  C     -3.272178   -4.155119    1.363861
  C     -3.187153   -4.484165   -1.149475
  H     -0.133603    1.544957    0.054437
  H     -1.755080    1.829465    0.733625
  H     -0.448912    1.221167    1.776858
  H     -1.882818   -0.710203    0.912883
  H     -1.468529   -2.292129   -1.957659
  H     -0.264446   -2.890672   -0.805906
  H     -1.500184   -4.521948    0.194684
  H     -4.217132   -3.607444    1.288642
  H     -3.499437   -5.212275    1.528122
  H     -2.723367   -3.778650    2.231308
  H     -4.124174   -3.934976   -1.287113
  H     -2.584264   -4.369133   -2.054522
  H     -3.421873   -5.547596   -1.040843

 Total Charge           Charge          ....    0
 Multiplicity           Mult            ....    1
 Number of Electrons    NEL             ....   72
 Basis Dimension        Dim             ....  357

ORBITAL ENERGIES
----------------

  NO   OCC          E(Eh)            E(eV)
   0   2.0000     -20.570289      -559.7460
   1   2.0000     -20.505623      -557.9864
   2   2.0000     -15.575027      -423.8180
   3   2.0000     -11.341096      -308.6069
   4   2.0000     -11.295266      -307.3598
   5   2.0000     -11.290562      -307.2318
   6   2.0000     -11.253601      -306.2261
   7   2.0000     -11.225519      -305.4619
   8   2.0000     -11.224825      -305.4430
   9   2.0000      -1.396619       -38.0039
  10   2.0000      -1.367993       -37.2250
  11   2.0000      -1.223208       -33.2852
  12   2.0000      -1.069201       -29.0944
  13   2.0000      -0.983619       -26.7656
  14   2.0000      -0.949747       -25.8439
  15   2.0000      -0.920480       -25.0475
  16   2.0000      -0.811666       -22.0866
  17   2.0000      -0.776418       -21.1274
  18   2.0000      -0.711302       -19.3555
  19   2.0000      -0.694583       -18.9006
  20   2.0000      -0.664267       -18.0756
  21   2.0000      -0.628450       -17.1010
  22   2.0000      -0.621634       -16.9155
  23   2.0000      -0.608862       -16.5680
  24   2.0000      -0.596033       -16.2189
  25   2.0000      -0.562021       -15.2934
  26   2.0000      -0.555051       -15.1037
  27   2.0000      -0.546793       -14.8790
  28   2.0000      -0.542994       -14.7756
  29   2.0000      -0.531996       -14.4764
  30   2.0000      -0.521826       -14.1996
  31   2.0000      -0.498526       -13.5656
  32   2.0000      -0.478333       -13.0161
  33   2.0000      -0.437945       -11.9171
  34   2.0000      -0.414052       -11.2669
  35   2.0000      -0.384147       -10.4532
  36   0.0000       0.126679         3.4471
  37   0.0000       0.151388         4.1195
  38   0.0000       0.158328         4.3083
  39   0.0000       0.165736         4.5099
  40   0.0000       0.183583         4.9955

MULLIKEN ATOMIC CHARGES
-----------------------
   0 C :   -0.292155
   1 N :   -0.307020
   2 C :    0.253696
   3 O :   -0.396573
   4 C :   -0.046858
   5 O :   -0.326547
   6 C :    0.075866
   7 C :   -0.370122
   8 C :   -0.397827
   9 H :    0.174447
  10 H :    0.133895
  11 H :    0.132990
  12 H :    0.255464
  13 H :    0.123760
  14 H :    0.116391
  15 H :    0.077137
  16 H :    0.129651
  17 H :    0.128000
  18 H :    0.134446
  19 H :    0.130200
  20 H :    0.139150
  21 H :    0.132011
Sum of atomic charges:   -0.0000000

LOEWDIN ATOMIC CHARGES
----------------------
   0 C :   -0.312439
   1 N :    0.090328
   2 C :   -0.469206
   3 O :    0.065091
   4 C :   -0.288218
   5 O :    0.162368
   6 C :   -0.371887
   7 C :   -0.293604
   8 C :   -0.296860
   9 H :    0.134228
  10 H :    0.115131
  11 H :    0.114901
  12 H :    0.188444
  13 H :    0.134920
  14 H :    0.135335
  15 H :    0.134189
  16 H :    0.126493
  17 H :    0.127432
  18 H :    0.124596
  19 H :    0.127203
  20 H :    0.123360
  21 H :    0.128196

  Mayer bond orders larger than 0.1
B(  0-C ,  1-N ) :   0.8563 B(  0-C ,  9-H ) :   0.9274 B(  0-C , 10-H ) :   0.9363
B(  0-C , 11-H ) :   0.9355 B(  1-N ,  2-C ) :   1.1871 B(  1-N , 12-H ) :   0.8530
B(  2-C ,  3-O ) :   1.8984 B(  2-C ,  4-C ) :   0.9446 B(  4-C ,  5-O ) :   0.8901
B(  4-C , 13-H ) :   0.9123 B(  4-C , 14-H ) :   0.9131 B(  5-O ,  6-C ) :   0.9144
B(  6-C ,  7-C ) :   0.9292 B(  6-C ,  8-C ) :   0.9131 B(  6-C , 15-H ) :   0.9420
B(  7-C , 16-H ) :   0.9339 B(  7-C , 17-H ) :   0.9323 B(  7-C , 18-H ) :   0.9380
B(  8-C , 19-H ) :   0.9294 B(  8-C , 20-H ) :   0.9362 B(  8-C , 21-H ) :   0.9304

MP2 TOTAL ENERGY:     -440.794625296 Eh
FINAL SINGLE POINT ENERGY      -440.794625295512

DIPOLE MOMENT
-------------
                                X             Y             Z
Electronic contribution:      5.30398       5.82150      -2.62066
Nuclear contribution   :     -6.19457      -6.56173       3.52007
                        -----------------------------------------
Total Dipole Moment    :     -0.89060      -0.74022       0.89940
                        -----------------------------------------
Magnitude (a.u.)       :      1.46629
Magnitude (Debye)      :      3.72702

                             ****ORCA TERMINATED NORMALLY****
TOTAL RUN TIME: 0 days 0 hours 17 minutes 44 seconds 702 msec
