                         Program Version 3.0.3 - RELEASE   -
|  1> ! RI-MP2 RIJK def2-TZVP def2-TZVP/C def2-TZVP/JK TIGHTSCF
|  2> % maxcore 2000
|  3> % mp2 density relaxed end
|  4> *xyz 0 1
|  5>  O       -0.1102435020    -0.0727342518     0.1282105932
|  6>  C       -0.0521959414     1.1315224853     0.0283123955
|  7>  N        1.1132469231     1.8460702799    -0.1198013266
|  8>  C        1.1181347808     3.3055725738    -0.1120589146
|  9>  C        2.1988303845     3.9043929141    -1.0180910885
| 10>  O        2.0856228104     4.9967204841    -1.5301818277
| 11>  N        3.3214055698     3.1260507610    -1.1348896442
| 12>  C        3.4264737776     1.8289532904    -0.6128823257
| 13>  C        2.3532551421     1.1922170163    -0.1374310001
| 14>  H       -0.9391111865     1.7924879842     0.0465207024
| 15>  H        0.1529909273     3.6853998893    -0.4493094581
| 16>  H        1.2977236119     3.6924109115     0.9030917427
| 17>  H        4.0812547940     3.5237583189    -1.6661153853
| 18>  H        4.4108882923     1.3846826469    -0.6251873561
| 19>  H        2.3596191862     0.1779237560     0.2305636629
| 20> *
| 21>
| 22>                          ****END OF INPUT****

CARTESIAN COORDINATES (ANGSTROEM)
---------------------------------
  O     -0.110244   -0.072734    0.128211
  C     -0.052196    1.131522    0.028312
  N      1.113247    1.846070   -0.119801
  C      1.118135    3.305573   -0.112059
  C      2.198830    3.904393   -1.018091
  O      2.085623    4.996720   -1.530182
  N      3.321406    3.126051   -1.134890
  C      3.426474    1.828953   -0.612882
  C      2.353255    1.192217   -0.137431
  H     -0.939111    1.792488    0.046521
  H      0.152991    3.685400   -0.449309
  H      1.297724    3.692411    0.903092
  H      4.081255    3.523758   -1.666115
  H      4.410888    1.384683   -0.625187
  H      2.359619    0.177924    0.230564

 Total Charge           Charge          ....    0
 Multiplicity           Mult            ....    1
 Number of Electrons    NEL             ....   66
 Basis Dimension        Dim             ....  315

ORBITAL ENERGIES
----------------

  NO   OCC          E(Eh)            E(eV)
   0   2.0000     -20.544260      -559.0377
   1   2.0000     -20.544218      -559.0366
   2   2.0000     -15.623013      -425.1238
   3   2.0000     -15.617117      -424.9634
   4   2.0000     -11.377672      -309.6022
   5   2.0000     -11.368391      -309.3496
   6   2.0000     -11.308098      -307.7090
   7   2.0000     -11.293429      -307.3098
   8   2.0000     -11.282691      -307.0176
   9   2.0000      -1.412690       -38.4412
  10   2.0000      -1.404914       -38.2297
  11   2.0000      -1.304666       -35.5018
  12   2.0000      -1.253874       -34.1196
  13   2.0000      -1.061327       -28.8802
  14   2.0000      -1.006202       -27.3802
  15   2.0000      -0.905899       -24.6508
  16   2.0000      -0.830991       -22.6124
  17   2.0000      -0.776999       -21.1432
  18   2.0000      -0.745837       -20.2953
  19   2.0000      -0.711339       -19.3565
  20   2.0000      -0.689773       -18.7697
  21   2.0000      -0.672416       -18.2974
  22   2.0000      -0.642320       -17.4784
  23   2.0000      -0.630201       -17.1486
  24   2.0000      -0.608602       -16.5609
  25   2.0000      -0.587356       -15.9828
  26   2.0000      -0.575859       -15.6699
  27   2.0000      -0.561917       -15.2905
  28   2.0000      -0.504076       -13.7166
  29   2.0000      -0.466004       -12.6806
  30   2.0000      -0.449578       -12.2336
  31   2.0000      -0.430338       -11.7101
  32   2.0000      -0.323215        -8.7951
  33   0.0000       0.106466         2.8971
  34   0.0000       0.125676         3.4198
  35   0.0000       0.140665         3.8277
  36   0.0000       0.163098         4.4381
  37   0.0000       0.163722         4.4551

MULLIKEN ATOMIC CHARGES
-----------------------
   0 O :   -0.338182
   1 C :    0.149876
   2 N :   -0.066064
   3 C :   -0.154221
   4 C :    0.216855
   5 O :   -0.321123
   6 N :   -0.272082
   7 C :   -0.039673
   8 C :   -0.142062
   9 H :    0.089852
  10 H :    0.153744
  11 H :    0.140408
  12 H :    0.252883
  13 H :    0.158595
  14 H :    0.171193
Sum of atomic charges:    0.0000000

LOEWDIN ATOMIC CHARGES
----------------------
   0 O :    0.082317
   1 C :   -0.390236
   2 N :    0.189283
   3 C :   -0.200014
   4 C :   -0.436125
   5 O :    0.106184
   6 N :    0.151168
   7 C :   -0.225859
   8 C :   -0.202933
   9 H :    0.117647
  10 H :    0.153951
  11 H :    0.149335
  12 H :    0.200817
  13 H :    0.147760
  14 H :    0.156705

  Mayer bond orders larger than 0.1
B(  0-O ,  1-C ) :   1.9026 B(  1-C ,  2-N ) :   1.0808 B(  1-C ,  9-H ) :   0.9278
B(  2-N ,  3-C ) :   0.8749 B(  2-N ,  8-C ) :   0.9641 B(  3-C ,  4-C ) :   0.9095
B(  3-C , 10-H ) :   0.9214 B(  3-C , 11-H ) :   0.8971 B(  4-C ,  5-O ) :   2.0001
B(  4-C ,  6-N ) :   1.1470 B(  6-N ,  7-C ) :   0.9645 B(  6-N , 12-H ) :   0.8581
B(  7-C ,  8-C ) :   1.7059 B(  7-C , 13-H ) :   0.9132 B(  8-C , 14-H ) :   0.9195

MP2 TOTAL ENERGY:     -453.265628244 Eh
FINAL SINGLE POINT ENERGY      -453.265628244041

DIPOLE MOMENT
-------------
                                X             Y             Z
Electronic contribution:     -0.18469       0.20923      -1.12761
Nuclear contribution   :      1.10248       0.02138       1.37766
                        -----------------------------------------
Total Dipole Moment    :      0.91779       0.23061       0.25005
                        -----------------------------------------
Magnitude (a.u.)       :      0.97880
Magnitude (Debye)      :      2.48790

                             ****ORCA TERMINATED NORMALLY****
TOTAL RUN TIME: 0 days 0 hours 14 minutes 20 seconds 897 msec
