                         Program Version 3.0.3 - RELEASE   -
|  1> ! RI-MP2 RIJK def2-TZVP def2-TZVP/C def2-TZVP/JK TIGHTSCF
|  2> % maxcore 2000
|  3> % mp2 density relaxed end
|  4> *xyz 0 1
|  5>  C       -0.0990292323     1.5289059740    -0.0131458835
|  6>  C        0.0312824754    -0.0044335407    -0.0931086989
|  7>  C        0.8026366627    -0.3968091568    -1.2777795557
|  8>  N        1.4293899932    -0.7042255382    -2.1993611863
|  9>  C        0.6809926459    -0.5990217812     1.1712013121
| 10>  C       -0.1096154007    -0.5286739086     2.5247309509
| 11>  C        0.0561512858    -2.0464261626     2.6728429217
| 12>  C       -0.5868046950    -2.7439572464     1.5113237320
| 13>  C        0.7702539661    -2.1228257015     1.3189248383
| 14>  H        0.8849364242     1.9972140938     0.0813731401
| 15>  H       -0.5839920962     1.9319976217    -0.9054916716
| 16>  H       -0.6969174823     1.8039169420     0.8600322636
| 17>  H       -0.9709925726    -0.4354314405    -0.2088957387
| 18>  H        1.6694968819    -0.1464917641     1.2934420986
| 19>  H        0.4151417864     0.0553379533     3.2829184923
| 20>  H       -1.1451086305    -0.1734565746     2.4683455198
| 21>  H        0.2962042410    -2.5610477041     3.5945421652
| 22>  H       -0.5830219141    -3.8281257790     1.5544695879
| 23>  H       -1.4757482838    -2.3285023867     1.0413138873
| 24>  H        1.6268757050    -2.7182085398     1.0291548749
| 25> *
| 26>
| 27>                          ****END OF INPUT****

CARTESIAN COORDINATES (ANGSTROEM)
---------------------------------
  C     -0.099029    1.528906   -0.013146
  C      0.031282   -0.004434   -0.093109
  C      0.802637   -0.396809   -1.277780
  N      1.429390   -0.704226   -2.199361
  C      0.680993   -0.599022    1.171201
  C     -0.109615   -0.528674    2.524731
  C      0.056151   -2.046426    2.672843
  C     -0.586805   -2.743957    1.511324
  C      0.770254   -2.122826    1.318925
  H      0.884936    1.997214    0.081373
  H     -0.583992    1.931998   -0.905492
  H     -0.696917    1.803917    0.860032
  H     -0.970993   -0.435431   -0.208896
  H      1.669497   -0.146492    1.293442
  H      0.415142    0.055338    3.282918
  H     -1.145109   -0.173457    2.468346
  H      0.296204   -2.561048    3.594542
  H     -0.583022   -3.828126    1.554470
  H     -1.475748   -2.328502    1.041314
  H      1.626876   -2.718209    1.029155

 Total Charge           Charge          ....    0
 Multiplicity           Mult            ....    1
 Number of Electrons    NEL             ....   66
 Basis Dimension        Dim             ....  345

ORBITAL ENERGIES
----------------

  NO   OCC          E(Eh)            E(eV)
   0   2.0000     -15.561842      -423.4593
   1   2.0000     -11.280638      -306.9618
   2   2.0000     -11.264747      -306.5294
   3   2.0000     -11.255280      -306.2717
   4   2.0000     -11.243047      -305.9389
   5   2.0000     -11.241913      -305.9080
   6   2.0000     -11.241690      -305.9019
   7   2.0000     -11.240994      -305.8830
   8   2.0000     -11.237083      -305.7766
   9   2.0000      -1.215982       -33.0885
  10   2.0000      -1.200985       -32.6805
  11   2.0000      -1.092712       -29.7342
  12   2.0000      -0.987423       -26.8691
  13   2.0000      -0.929188       -25.2845
  14   2.0000      -0.870641       -23.6913
  15   2.0000      -0.809378       -22.0243
  16   2.0000      -0.744274       -20.2527
  17   2.0000      -0.714270       -19.4363
  18   2.0000      -0.688521       -18.7356
  19   2.0000      -0.636945       -17.3322
  20   2.0000      -0.617574       -16.8050
  21   2.0000      -0.583577       -15.8799
  22   2.0000      -0.566729       -15.4215
  23   2.0000      -0.558627       -15.2010
  24   2.0000      -0.550168       -14.9708
  25   2.0000      -0.535401       -14.5690
  26   2.0000      -0.522809       -14.2263
  27   2.0000      -0.486971       -13.2511
  28   2.0000      -0.470974       -12.8159
  29   2.0000      -0.451398       -12.2832
  30   2.0000      -0.446026       -12.1370
  31   2.0000      -0.420261       -11.4359
  32   2.0000      -0.387791       -10.5523
  33   0.0000       0.123679         3.3655
  34   0.0000       0.143334         3.9003
  35   0.0000       0.154154         4.1947
  36   0.0000       0.157135         4.2759
  37   0.0000       0.175444         4.7741

MULLIKEN ATOMIC CHARGES
-----------------------
   0 C :   -0.384916
   1 C :    0.042136
   2 C :   -0.209601
   3 N :   -0.056972
   4 C :   -0.096812
   5 C :   -0.248168
   6 C :   -0.100717
   7 C :   -0.282838
   8 C :   -0.111127
   9 H :    0.140239
  10 H :    0.152005
  11 H :    0.141373
  12 H :    0.112408
  13 H :    0.116177
  14 H :    0.131086
  15 H :    0.115551
  16 H :    0.135256
  17 H :    0.136742
  18 H :    0.127309
  19 H :    0.140869
Sum of atomic charges:    0.0000000

LOEWDIN ATOMIC CHARGES
----------------------
   0 C :   -0.263434
   1 C :   -0.250002
   2 C :   -0.167252
   3 N :    0.056984
   4 C :   -0.177323
   5 C :   -0.190762
   6 C :   -0.180326
   7 C :   -0.206549
   8 C :   -0.159168
   9 H :    0.130954
  10 H :    0.130825
  11 H :    0.128318
  12 H :    0.174489
  13 H :    0.160530
  14 H :    0.136338
  15 H :    0.130736
  16 H :    0.135025
  17 H :    0.142494
  18 H :    0.128658
  19 H :    0.139466

  Mayer bond orders larger than 0.1
B(  0-C ,  1-C ) :   0.8973 B(  0-C ,  9-H ) :   0.9284 B(  0-C , 10-H ) :   0.9346
B(  0-C , 11-H ) :   0.9363 B(  1-C ,  2-C ) :   0.9272 B(  1-C ,  4-C ) :   0.8987
B(  1-C , 12-H ) :   0.9006 B(  2-C ,  3-N ) :   2.8880 B(  4-C ,  5-C ) :   0.9587
B(  4-C ,  8-C ) :   0.9366 B(  4-C , 13-H ) :   0.9141 B(  5-C ,  6-C ) :   0.9367
B(  5-C , 14-H ) :   0.9282 B(  5-C , 15-H ) :   0.9158 B(  6-C ,  7-C ) :   0.8913
B(  6-C ,  8-C ) :   0.8294 B(  6-C , 16-H ) :   0.9283 B(  7-C ,  8-C ) :   0.8707
B(  7-C , 17-H ) :   0.9301 B(  7-C , 18-H ) :   0.9248 B(  8-C , 19-H ) :   0.9284

MP2 TOTAL ENERGY:     -365.338813294 Eh
FINAL SINGLE POINT ENERGY      -365.338813294349

DIPOLE MOMENT
-------------
                                X             Y             Z
Electronic contribution:      3.05591      -2.13328      -5.21380
Nuclear contribution   :     -3.76006       2.45459       6.62467
                        -----------------------------------------
Total Dipole Moment    :     -0.70415       0.32130       1.41087
                        -----------------------------------------
Magnitude (a.u.)       :      1.60923
Magnitude (Debye)      :      4.09033

                             ****ORCA TERMINATED NORMALLY****
TOTAL RUN TIME: 0 days 0 hours 19 minutes 51 seconds 433 msec
