                         Program Version 3.0.3 - RELEASE   -
|  1> ! RI-MP2 RIJK def2-TZVP def2-TZVP/C def2-TZVP/JK TIGHTSCF
|  2> % maxcore 2000
|  3> % mp2 density relaxed end
|  4> *xyz 0 1
|  5>  C       -0.0703234540     1.4272816577     0.0334032785
|  6>  N       -0.0771713041    -0.0133759884     0.1459328931
|  7>  C       -1.4208231622    -0.6314188675     0.1573412367
|  8>  C       -1.1292160831    -1.8526235850     0.9540123087
|  9>  C        0.0745189275    -1.8432830835     1.5628007770
| 10>  C        0.7730813179    -0.5608292728     1.2330802452
| 11>  C        0.1498805801    -3.0634824579     2.3075709885
| 12>  C       -1.0331341203    -3.6999373425     2.0697837329
| 13>  O       -1.8389629762    -2.9643691499     1.2354342069
| 14>  H        0.9592229365     1.7854572558    -0.0718278636
| 15>  H       -0.6206756038     1.7355743751    -0.8619258371
| 16>  H       -0.5214579230     1.9439659694     0.9034094101
| 17>  H       -2.1825147105     0.0069974750     0.6458783191
| 18>  H       -1.7701885913    -0.8238658318    -0.8661970315
| 19>  H        1.8041778031    -0.6826073248     0.8756684733
| 20>  H        0.8142505433     0.1141882475     2.1085937720
| 21>  H        0.9517094169    -3.4339768085     2.9271699742
| 22>  H       -1.4431350867    -4.6423829479     2.3924593459
| 23> *
| 24>
| 25>                          ****END OF INPUT****

CARTESIAN COORDINATES (ANGSTROEM)
---------------------------------
  C     -0.070323    1.427282    0.033403
  N     -0.077171   -0.013376    0.145933
  C     -1.420823   -0.631419    0.157341
  C     -1.129216   -1.852624    0.954012
  C      0.074519   -1.843283    1.562801
  C      0.773081   -0.560829    1.233080
  C      0.149881   -3.063482    2.307571
  C     -1.033134   -3.699937    2.069784
  O     -1.838963   -2.964369    1.235434
  H      0.959223    1.785457   -0.071828
  H     -0.620676    1.735574   -0.861926
  H     -0.521458    1.943966    0.903409
  H     -2.182515    0.006997    0.645878
  H     -1.770189   -0.823866   -0.866197
  H      1.804178   -0.682607    0.875668
  H      0.814251    0.114188    2.108594
  H      0.951709   -3.433977    2.927170
  H     -1.443135   -4.642383    2.392459

 Total Charge           Charge          ....    0
 Multiplicity           Mult            ....    1
 Number of Electrons    NEL             ....   66
 Basis Dimension        Dim             ....  333

ORBITAL ENERGIES
----------------

  NO   OCC          E(Eh)            E(eV)
   0   2.0000     -20.621823      -561.1483
   1   2.0000     -15.549657      -423.1277
   2   2.0000     -11.285608      -307.0970
   3   2.0000     -11.274140      -306.7849
   4   2.0000     -11.265853      -306.5594
   5   2.0000     -11.261473      -306.4403
   6   2.0000     -11.245791      -306.0135
   7   2.0000     -11.233435      -305.6773
   8   2.0000     -11.217019      -305.2306
   9   2.0000      -1.456426       -39.6314
  10   2.0000      -1.240114       -33.7452
  11   2.0000      -1.090833       -29.6831
  12   2.0000      -1.031059       -28.0566
  13   2.0000      -0.970968       -26.4214
  14   2.0000      -0.923628       -25.1332
  15   2.0000      -0.813467       -22.1356
  16   2.0000      -0.799700       -21.7609
  17   2.0000      -0.744170       -20.2499
  18   2.0000      -0.704890       -19.1810
  19   2.0000      -0.665949       -18.1214
  20   2.0000      -0.626641       -17.0518
  21   2.0000      -0.620758       -16.8917
  22   2.0000      -0.608485       -16.5577
  23   2.0000      -0.571647       -15.5553
  24   2.0000      -0.568526       -15.4704
  25   2.0000      -0.558338       -15.1932
  26   2.0000      -0.546456       -14.8698
  27   2.0000      -0.519949       -14.1485
  28   2.0000      -0.502885       -13.6842
  29   2.0000      -0.497545       -13.5389
  30   2.0000      -0.391300       -10.6478
  31   2.0000      -0.354156        -9.6371
  32   2.0000      -0.302368        -8.2279
  33   0.0000       0.136830         3.7233
  34   0.0000       0.147763         4.0208
  35   0.0000       0.170531         4.6404
  36   0.0000       0.178615         4.8604
  37   0.0000       0.183047         4.9810

MULLIKEN ATOMIC CHARGES
-----------------------
   0 C :   -0.332214
   1 N :   -0.143577
   2 C :   -0.155186
   3 C :    0.113240
   4 C :    0.039515
   5 C :   -0.145931
   6 C :   -0.304487
   7 C :    0.033053
   8 O :   -0.228865
   9 H :    0.137460
  10 H :    0.137358
  11 H :    0.107238
  12 H :    0.106418
  13 H :    0.124583
  14 H :    0.119589
  15 H :    0.104557
  16 H :    0.140160
  17 H :    0.147090
Sum of atomic charges:   -0.0000000

LOEWDIN ATOMIC CHARGES
----------------------
   0 C :   -0.339529
   1 N :    0.076669
   2 C :   -0.228491
   3 C :   -0.233705
   4 C :   -0.152986
   5 C :   -0.222055
   6 C :   -0.165665
   7 C :   -0.229890
   8 O :    0.354082
   9 H :    0.119902
  10 H :    0.119335
  11 H :    0.100734
  12 H :    0.129488
  13 H :    0.135722
  14 H :    0.133285
  15 H :    0.128000
  16 H :    0.143940
  17 H :    0.131165

  Mayer bond orders larger than 0.1
B(  0-C ,  1-N ) :   0.9154 B(  0-C ,  9-H ) :   0.9375 B(  0-C , 10-H ) :   0.9376
B(  0-C , 11-H ) :   0.9236 B(  1-N ,  2-C ) :   0.9549 B(  1-N ,  5-C ) :   0.9603
B(  2-C ,  3-C ) :   0.9852 B(  2-C , 12-H ) :   0.9192 B(  2-C , 13-H ) :   0.8988
B(  3-C ,  4-C ) :   1.4852 B(  3-C ,  8-O ) :   1.0752 B(  4-C ,  5-C ) :   0.9415
B(  4-C ,  6-C ) :   1.1576 B(  5-C , 14-H ) :   0.8990 B(  5-C , 15-H ) :   0.9178
B(  6-C ,  7-C ) :   1.5531 B(  6-C , 16-H ) :   0.9167 B(  7-C ,  8-O ) :   1.0178
B(  7-C , 17-H ) :   0.9384

MP2 TOTAL ENERGY:     -401.256491833 Eh
FINAL SINGLE POINT ENERGY      -401.256491832858

DIPOLE MOMENT
-------------
                                X             Y             Z
Electronic contribution:     -2.39525      -7.95450       1.59741
Nuclear contribution   :      2.51583       8.19547      -1.34854
                        -----------------------------------------
Total Dipole Moment    :      0.12059       0.24096       0.24887
                        -----------------------------------------
Magnitude (a.u.)       :      0.36680
Magnitude (Debye)      :      0.93233

                             ****ORCA TERMINATED NORMALLY****
TOTAL RUN TIME: 0 days 0 hours 16 minutes 39 seconds 370 msec
