                         Program Version 3.0.3 - RELEASE   -
|  1> ! RI-MP2 RIJK def2-TZVP def2-TZVP/C def2-TZVP/JK TIGHTSCF
|  2> % maxcore 2000
|  3> % mp2 density relaxed end
|  4> *xyz 0 1
|  5>  C        1.0989009142     0.9828544020    -0.0823799084
|  6>  N        0.0262310106    -0.0164063498     0.0137816138
|  7>  C       -0.7943963709    -0.1613495614    -1.1176336614
|  8>  N       -1.7475762592    -0.9347544944    -1.4305553303
|  9>  C       -2.2445184077    -1.9964216005    -0.5881912230
| 10>  C       -1.2850751674    -2.4798371427     0.4826241850
| 11>  O       -1.1026778193    -1.4795065125     1.4912712182
| 12>  C       -0.2028856263    -0.4866534628     1.3122105695
| 13>  N        0.4153678500     0.0469258090     2.2871814204
| 14>  H        2.0122662420     0.5837968405     0.3600638972
| 15>  H        1.2745169572     1.2104558838    -1.1342352881
| 16>  H        0.8379597276     1.8959438959     0.4591546389
| 17>  H       -0.4978940839     0.5643204721    -1.8757038600
| 18>  H       -3.1765231059    -1.6717502926    -0.1056494459
| 19>  H       -2.5139872119    -2.8418351929    -1.2354368613
| 20>  H       -1.6944350561    -3.3452537040     1.0109865860
| 21>  H       -0.3176877320    -2.7629332473     0.0511985425
| 22>  H        0.1734488393    -0.4447947025     3.1450749570
| 23> *
| 24>
| 25>                          ****END OF INPUT****

CARTESIAN COORDINATES (ANGSTROEM)
---------------------------------
  C      1.098901    0.982854   -0.082380
  N      0.026231   -0.016406    0.013782
  C     -0.794396   -0.161350   -1.117634
  N     -1.747576   -0.934754   -1.430555
  C     -2.244518   -1.996422   -0.588191
  C     -1.285075   -2.479837    0.482624
  O     -1.102678   -1.479507    1.491271
  C     -0.202886   -0.486653    1.312211
  N      0.415368    0.046926    2.287181
  H      2.012266    0.583797    0.360064
  H      1.274517    1.210456   -1.134235
  H      0.837960    1.895944    0.459155
  H     -0.497894    0.564320   -1.875704
  H     -3.176523   -1.671750   -0.105649
  H     -2.513987   -2.841835   -1.235437
  H     -1.694435   -3.345254    1.010987
  H     -0.317688   -2.762933    0.051199
  H      0.173449   -0.444795    3.145075

 Total Charge           Charge          ....    0
 Multiplicity           Mult            ....    1
 Number of Electrons    NEL             ....   68
 Basis Dimension        Dim             ....  333

ORBITAL ENERGIES
----------------

  NO   OCC          E(Eh)            E(eV)
   0   2.0000     -20.601002      -560.5818
   1   2.0000     -15.611102      -424.7997
   2   2.0000     -15.549241      -423.1164
   3   2.0000     -15.524304      -422.4378
   4   2.0000     -11.377201      -309.5894
   5   2.0000     -11.325870      -308.1926
   6   2.0000     -11.300501      -307.5023
   7   2.0000     -11.265061      -306.5379
   8   2.0000     -11.262765      -306.4754
   9   2.0000      -1.444815       -39.3154
  10   2.0000      -1.295388       -35.2493
  11   2.0000      -1.230926       -33.4952
  12   2.0000      -1.165572       -31.7168
  13   2.0000      -1.032437       -28.0940
  14   2.0000      -0.951987       -25.9049
  15   2.0000      -0.926800       -25.2195
  16   2.0000      -0.848518       -23.0893
  17   2.0000      -0.761599       -20.7242
  18   2.0000      -0.725468       -19.7410
  19   2.0000      -0.698342       -19.0028
  20   2.0000      -0.654615       -17.8130
  21   2.0000      -0.646521       -17.5927
  22   2.0000      -0.632066       -17.1994
  23   2.0000      -0.622698       -16.9445
  24   2.0000      -0.596332       -16.2270
  25   2.0000      -0.584889       -15.9156
  26   2.0000      -0.561712       -15.2849
  27   2.0000      -0.527183       -14.3454
  28   2.0000      -0.514261       -13.9938
  29   2.0000      -0.485723       -13.2172
  30   2.0000      -0.445925       -12.1342
  31   2.0000      -0.426590       -11.6081
  32   2.0000      -0.402318       -10.9476
  33   2.0000      -0.349638        -9.5141
  34   0.0000       0.131568         3.5801
  35   0.0000       0.145222         3.9517
  36   0.0000       0.157675         4.2906
  37   0.0000       0.166201         4.5226
  38   0.0000       0.179401         4.8817

MULLIKEN ATOMIC CHARGES
-----------------------
   0 C :   -0.276093
   1 N :   -0.104545
   2 C :   -0.008665
   3 N :   -0.259677
   4 C :   -0.116488
   5 C :   -0.092457
   6 O :   -0.274392
   7 C :    0.255927
   8 N :   -0.441431
   9 H :    0.153896
  10 H :    0.131502
  11 H :    0.152061
  12 H :    0.129078
  13 H :    0.126814
  14 H :    0.129478
  15 H :    0.139733
  16 H :    0.131179
  17 H :    0.224081
Sum of atomic charges:   -0.0000000

LOEWDIN ATOMIC CHARGES
----------------------
   0 C :   -0.272949
   1 N :    0.176515
   2 C :   -0.298329
   3 N :    0.076948
   4 C :   -0.314191
   5 C :   -0.290847
   6 O :    0.244591
   7 C :   -0.473369
   8 N :   -0.082518
   9 H :    0.126960
  10 H :    0.119322
  11 H :    0.123331
  12 H :    0.142336
  13 H :    0.142806
  14 H :    0.141421
  15 H :    0.136377
  16 H :    0.133023
  17 H :    0.168573

  Mayer bond orders larger than 0.1
B(  0-C ,  1-N ) :   0.8698 B(  0-C ,  9-H ) :   0.9324 B(  0-C , 10-H ) :   0.9223
B(  0-C , 11-H ) :   0.9327 B(  1-N ,  2-C ) :   1.0133 B(  1-N ,  7-C ) :   1.0292
B(  2-C ,  3-N ) :   1.8921 B(  2-C , 12-H ) :   0.9252 B(  3-N ,  4-C ) :   0.9230
B(  4-C ,  5-C ) :   0.9270 B(  4-C , 13-H ) :   0.9183 B(  4-C , 14-H ) :   0.9259
B(  5-C ,  6-O ) :   0.8304 B(  5-C , 15-H ) :   0.9242 B(  5-C , 16-H ) :   0.9325
B(  6-O ,  7-C ) :   1.1090 B(  7-C ,  8-N ) :   1.8907 B(  8-N , 17-H ) :   0.8557

MP2 TOTAL ENERGY:     -434.549748658 Eh
FINAL SINGLE POINT ENERGY      -434.549748657566

DIPOLE MOMENT
-------------
                                X             Y             Z
Electronic contribution:     -1.55391      -0.33039       1.59637
Nuclear contribution   :      1.71719      -0.22256      -1.79308
                        -----------------------------------------
Total Dipole Moment    :      0.16328      -0.55296      -0.19671
                        -----------------------------------------
Magnitude (a.u.)       :      0.60919
Magnitude (Debye)      :      1.54845

                             ****ORCA TERMINATED NORMALLY****
TOTAL RUN TIME: 0 days 0 hours 16 minutes 12 seconds 82 msec
