                         Program Version 3.0.3 - RELEASE   -
|  1> ! RI-MP2 RIJK def2-TZVP def2-TZVP/C def2-TZVP/JK TIGHTSCF
|  2> % maxcore 2000
|  3> % mp2 density relaxed end
|  4> *xyz 0 1
|  5>  C        0.6021801618     0.7662215947    -0.3133294824
|  6>  O       -0.6998588297     0.9740065325     0.2026457215
|  7>  C       -1.5601313754    -0.0489852415    -0.0081465380
|  8>  C       -1.4500456234    -1.2770260412    -0.6167656704
|  9>  C       -2.7399795465    -1.8953781996    -0.5131222052
| 10>  C       -3.5741757325    -1.0345946068     0.1539730450
| 11>  N       -4.9202224755    -1.0970042509     0.5852569252
| 12>  N       -2.8361095175     0.0984517752     0.4582873067
| 13>  H        1.1785645369     1.6610331867    -0.0739202252
| 14>  H        1.0750526177    -0.1104344053     0.1480451775
| 15>  H        0.5780428774     0.6237589196    -1.4015067925
| 16>  H       -0.5711291489    -1.6861174305    -1.0868272736
| 17>  H       -3.0157498775    -2.8649855050    -0.8998191626
| 18>  H       -5.5715359383    -0.8432963796    -0.1526210593
| 19>  H       -5.1589863933    -2.0347660940     0.8855208619
| 20>  H       -3.1726267655     0.8734501359     1.0032237113
| 21> *
| 22>
| 23>                          ****END OF INPUT****

CARTESIAN COORDINATES (ANGSTROEM)
---------------------------------
  C      0.602180    0.766222   -0.313329
  O     -0.699859    0.974007    0.202646
  C     -1.560131   -0.048985   -0.008147
  C     -1.450046   -1.277026   -0.616766
  C     -2.739980   -1.895378   -0.513122
  C     -3.574176   -1.034595    0.153973
  N     -4.920222   -1.097004    0.585257
  N     -2.836110    0.098452    0.458287
  H      1.178565    1.661033   -0.073920
  H      1.075053   -0.110434    0.148045
  H      0.578043    0.623759   -1.401507
  H     -0.571129   -1.686117   -1.086827
  H     -3.015750   -2.864986   -0.899819
  H     -5.571536   -0.843296   -0.152621
  H     -5.158986   -2.034766    0.885521
  H     -3.172627    0.873450    1.003224

 Total Charge           Charge          ....    0
 Multiplicity           Mult            ....    1
 Number of Electrons    NEL             ....   60
 Basis Dimension        Dim             ....  296

ORBITAL ENERGIES
----------------

  NO   OCC          E(Eh)            E(eV)
   0   2.0000     -20.586797      -560.1952
   1   2.0000     -15.588447      -424.1832
   2   2.0000     -15.557336      -423.3366
   3   2.0000     -11.308898      -307.7308
   4   2.0000     -11.282297      -307.0069
   5   2.0000     -11.274327      -306.7900
   6   2.0000     -11.201229      -304.8009
   7   2.0000     -11.196991      -304.6856
   8   2.0000      -1.418547       -38.6006
   9   2.0000      -1.286604       -35.0103
  10   2.0000      -1.176883       -32.0246
  11   2.0000      -1.038603       -28.2618
  12   2.0000      -0.974865       -26.5274
  13   2.0000      -0.911013       -24.7899
  14   2.0000      -0.782236       -21.2857
  15   2.0000      -0.775323       -21.0976
  16   2.0000      -0.732824       -19.9411
  17   2.0000      -0.669640       -18.2218
  18   2.0000      -0.656524       -17.8649
  19   2.0000      -0.643957       -17.5230
  20   2.0000      -0.619434       -16.8557
  21   2.0000      -0.587896       -15.9975
  22   2.0000      -0.568944       -15.4818
  23   2.0000      -0.555840       -15.1252
  24   2.0000      -0.545750       -14.8506
  25   2.0000      -0.501963       -13.6591
  26   2.0000      -0.477911       -13.0046
  27   2.0000      -0.425991       -11.5918
  28   2.0000      -0.346689        -9.4339
  29   2.0000      -0.268834        -7.3154
  30   0.0000       0.136999         3.7279
  31   0.0000       0.150107         4.0846
  32   0.0000       0.170895         4.6503
  33   0.0000       0.179991         4.8978
  34   0.0000       0.190449         5.1824

MULLIKEN ATOMIC CHARGES
-----------------------
   0 C :   -0.229116
   1 O :   -0.299674
   2 C :    0.289428
   3 C :   -0.267835
   4 C :   -0.245439
   5 C :    0.150991
   6 N :   -0.550015
   7 N :   -0.259467
   8 H :    0.147180
   9 H :    0.131514
  10 H :    0.131084
  11 H :    0.132109
  12 H :    0.120066
  13 H :    0.249861
  14 H :    0.252228
  15 H :    0.247083
Sum of atomic charges:    0.0000000

LOEWDIN ATOMIC CHARGES
----------------------
   0 C :   -0.324874
   1 O :    0.213460
   2 C :   -0.350648
   3 C :   -0.213623
   4 C :   -0.200410
   5 C :   -0.342584
   6 N :   -0.127263
   7 N :    0.211074
   8 H :    0.115569
   9 H :    0.109849
  10 H :    0.109759
  11 H :    0.137544
  12 H :    0.135941
  13 H :    0.164256
  14 H :    0.167375
  15 H :    0.194576

  Mayer bond orders larger than 0.1
B(  0-C ,  1-O ) :   0.8764 B(  0-C ,  8-H ) :   0.9385 B(  0-C ,  9-H ) :   0.9355
B(  0-C , 10-H ) :   0.9353 B(  1-O ,  2-C ) :   1.0766 B(  2-C ,  3-C ) :   1.4572
B(  2-C ,  7-N ) :   1.1344 B(  3-C ,  4-C ) :   1.1646 B(  3-C , 11-H ) :   0.9294
B(  4-C ,  5-C ) :   1.5398 B(  4-C , 12-H ) :   0.9375 B(  5-C ,  6-N ) :   1.0502
B(  5-C ,  7-N ) :   1.0776 B(  6-N , 13-H ) :   0.8811 B(  6-N , 14-H ) :   0.8902
B(  7-N , 15-H ) :   0.8615

MP2 TOTAL ENERGY:     -379.300812943 Eh
FINAL SINGLE POINT ENERGY      -379.300812943408

DIPOLE MOMENT
-------------
                                X             Y             Z
Electronic contribution:     -2.28413       1.12583       1.33276
Nuclear contribution   :      2.27230      -1.09697      -1.51765
                        -----------------------------------------
Total Dipole Moment    :     -0.01182       0.02886      -0.18489
                        -----------------------------------------
Magnitude (a.u.)       :      0.18751
Magnitude (Debye)      :      0.47660

                             ****ORCA TERMINATED NORMALLY****
TOTAL RUN TIME: 0 days 0 hours 10 minutes 33 seconds 668 msec
