                         Program Version 3.0.3 - RELEASE   -
|  1> ! RI-MP2 RIJK def2-TZVP def2-TZVP/C def2-TZVP/JK TIGHTSCF
|  2> % maxcore 2000
|  3> % mp2 density relaxed end
|  4> *xyz 0 1
|  5>  O        0.0790033560     0.0488188143     0.4168102806
|  6>  C        0.0438965539     1.1956448039     0.0398045316
|  7>  N        1.0809120424     1.8602852948    -0.5864806054
|  8>  C        2.4697487578     1.7793616123    -0.1672288734
|  9>  C        3.3899815878     2.3765898970    -1.2746439109
| 10>  C        2.6061548986     2.8875085842    -2.4520907956
| 11>  C        2.6251615510     3.6946505690    -1.1825339078
| 12>  C        1.7243283479     3.0700935588    -0.0756287959
| 13>  H       -0.8637724876     1.8274536354     0.0946941072
| 14>  H        2.7576491734     1.0863218366     0.6116816911
| 15>  H        4.4593911238     2.2172493230    -1.2965876756
| 16>  H        3.2124178521     3.2970260879    -3.2537175180
| 17>  H        1.7009211263     2.3836632832    -2.7691763207
| 18>  H        3.0161211532     4.7013228318    -1.1228984297
| 19>  H        1.3334192334     3.5761629879     0.7984865224
| 20> *
| 21>
| 22>                          ****END OF INPUT****

CARTESIAN COORDINATES (ANGSTROEM)
---------------------------------
  O      0.079003    0.048819    0.416810
  C      0.043897    1.195645    0.039805
  N      1.080912    1.860285   -0.586481
  C      2.469749    1.779362   -0.167229
  C      3.389982    2.376590   -1.274644
  C      2.606155    2.887509   -2.452091
  C      2.625162    3.694651   -1.182534
  C      1.724328    3.070094   -0.075629
  H     -0.863772    1.827454    0.094694
  H      2.757649    1.086322    0.611682
  H      4.459391    2.217249   -1.296588
  H      3.212418    3.297026   -3.253718
  H      1.700921    2.383663   -2.769176
  H      3.016121    4.701323   -1.122898
  H      1.333419    3.576163    0.798487

 Total Charge           Charge          ....    0
 Multiplicity           Mult            ....    1
 Number of Electrons    NEL             ....   58
 Basis Dimension        Dim             ....  290

ORBITAL ENERGIES
----------------

  NO   OCC          E(Eh)            E(eV)
   0   2.0000     -20.538536      -558.8820
   1   2.0000     -15.590379      -424.2358
   2   2.0000     -11.354294      -308.9660
   3   2.0000     -11.292015      -307.2714
   4   2.0000     -11.284981      -307.0799
   5   2.0000     -11.251201      -306.1607
   6   2.0000     -11.250116      -306.1312
   7   2.0000     -11.240162      -305.8604
   8   2.0000      -1.396293       -37.9951
   9   2.0000      -1.317764       -35.8582
  10   2.0000      -1.157878       -31.5075
  11   2.0000      -0.989887       -26.9362
  12   2.0000      -0.898444       -24.4479
  13   2.0000      -0.844084       -22.9687
  14   2.0000      -0.772182       -21.0121
  15   2.0000      -0.754947       -20.5432
  16   2.0000      -0.732698       -19.9377
  17   2.0000      -0.673225       -18.3194
  18   2.0000      -0.651358       -17.7244
  19   2.0000      -0.637467       -17.3464
  20   2.0000      -0.582218       -15.8430
  21   2.0000      -0.557064       -15.1585
  22   2.0000      -0.533710       -14.5230
  23   2.0000      -0.504640       -13.7320
  24   2.0000      -0.483899       -13.1676
  25   2.0000      -0.450754       -12.2657
  26   2.0000      -0.436111       -11.8672
  27   2.0000      -0.406674       -11.0662
  28   2.0000      -0.348422        -9.4811
  29   0.0000       0.134217         3.6522
  30   0.0000       0.151012         4.1092
  31   0.0000       0.156091         4.2474
  32   0.0000       0.170474         4.6388
  33   0.0000       0.179678         4.8893

MULLIKEN ATOMIC CHARGES
-----------------------
   0 O :   -0.311395
   1 C :    0.122093
   2 N :   -0.159174
   3 C :   -0.080217
   4 C :   -0.103325
   5 C :   -0.265260
   6 C :   -0.108431
   7 C :   -0.087718
   8 H :    0.089646
   9 H :    0.158019
  10 H :    0.147826
  11 H :    0.135297
  12 H :    0.159471
  13 H :    0.146158
  14 H :    0.157010
Sum of atomic charges:   -0.0000000

LOEWDIN ATOMIC CHARGES
----------------------
   0 O :    0.094914
   1 C :   -0.403213
   2 N :    0.191983
   3 C :   -0.159068
   4 C :   -0.158523
   5 C :   -0.198479
   6 C :   -0.162776
   7 C :   -0.162711
   8 H :    0.112853
   9 H :    0.143949
  10 H :    0.139327
  11 H :    0.143407
  12 H :    0.139575
  13 H :    0.138597
  14 H :    0.140166

  Mayer bond orders larger than 0.1
B(  0-O ,  1-C ) :   1.9509 B(  1-C ,  2-N ) :   1.0316 B(  1-C ,  8-H ) :   0.9312
B(  2-N ,  3-C ) :   0.8508 B(  2-N ,  7-C ) :   0.8763 B(  3-C ,  4-C ) :   0.8668
B(  3-C ,  7-C ) :   0.9654 B(  3-C ,  9-H ) :   0.9230 B(  4-C ,  5-C ) :   0.9074
B(  4-C ,  6-C ) :   0.8785 B(  4-C , 10-H ) :   0.9259 B(  5-C ,  6-C ) :   0.9045
B(  5-C , 11-H ) :   0.9315 B(  5-C , 12-H ) :   0.9019 B(  6-C ,  7-C ) :   0.8688
B(  6-C , 13-H ) :   0.9209 B(  7-C , 14-H ) :   0.9110

MP2 TOTAL ENERGY:     -361.960166444 Eh
FINAL SINGLE POINT ENERGY      -361.960166443584

DIPOLE MOMENT
-------------
                                X             Y             Z
Electronic contribution:     -2.71762      -2.96676       2.22835
Nuclear contribution   :      3.39379       4.25989      -2.28353
                        -----------------------------------------
Total Dipole Moment    :      0.67617       1.29313      -0.05519
                        -----------------------------------------
Magnitude (a.u.)       :      1.46029
Magnitude (Debye)      :      3.71177

                             ****ORCA TERMINATED NORMALLY****
TOTAL RUN TIME: 0 days 0 hours 11 minutes 56 seconds 495 msec
