                         Program Version 3.0.3 - RELEASE   -
|  1> ! RI-MP2 RIJK def2-TZVP def2-TZVP/C def2-TZVP/JK TIGHTSCF
|  2> % maxcore 2000
|  3> % mp2 density relaxed end
|  4> *xyz 0 1
|  5>  O       -0.0027753225     1.3924738941     0.0820204361
|  6>  C        0.0399863491     0.0141401679     0.0129357944
|  7>  C       -1.2841810775    -0.7285050208     0.0093321621
|  8>  N       -2.4391444940     0.1329982559    -0.0472862216
|  9>  C       -3.1843443676     0.0151780888    -1.3059541552
| 10>  C       -2.2920720512     0.4095378587    -2.4839901857
| 11>  O       -2.7137139959     0.9994785958    -3.4580279562
| 12>  N       -0.9807387737     0.0514895712    -2.3377450861
| 13>  C       -0.4450422178    -0.6993155118    -1.2482509814
| 14>  H       -0.9504944240     1.6134196666     0.1024626440
| 15>  H        0.8861256834    -0.4182644514     0.5380183807
| 16>  H       -1.3815757186    -1.6785337477     0.5308701616
| 17>  H       -3.0393785213     0.0047164800     0.7572903344
| 18>  H       -3.5757758259    -1.0001599549    -1.4866257852
| 19>  H       -4.0285262228     0.7064704310    -1.3044767816
| 20>  H       -0.3546995301     0.4060704192    -3.0467862028
| 21>  H        0.0544857505    -1.6241449726    -1.5271877973
| 22> *
| 23>
| 24>                          ****END OF INPUT****

CARTESIAN COORDINATES (ANGSTROEM)
---------------------------------
  O     -0.002775    1.392474    0.082020
  C      0.039986    0.014140    0.012936
  C     -1.284181   -0.728505    0.009332
  N     -2.439144    0.132998   -0.047286
  C     -3.184344    0.015178   -1.305954
  C     -2.292072    0.409538   -2.483990
  O     -2.713714    0.999479   -3.458028
  N     -0.980739    0.051490   -2.337745
  C     -0.445042   -0.699316   -1.248251
  H     -0.950494    1.613420    0.102463
  H      0.886126   -0.418264    0.538018
  H     -1.381576   -1.678534    0.530870
  H     -3.039379    0.004716    0.757290
  H     -3.575776   -1.000160   -1.486626
  H     -4.028526    0.706470   -1.304477
  H     -0.354700    0.406070   -3.046786
  H      0.054486   -1.624145   -1.527188

 Total Charge           Charge          ....    0
 Multiplicity           Mult            ....    1
 Number of Electrons    NEL             ....   68
 Basis Dimension        Dim             ....  327

ORBITAL ENERGIES
----------------

  NO   OCC          E(Eh)            E(eV)
   0   2.0000     -20.560198      -559.4714
   1   2.0000     -20.519309      -558.3588
   2   2.0000     -15.589478      -424.2113
   3   2.0000     -15.583699      -424.0540
   4   2.0000     -11.352910      -308.9284
   5   2.0000     -11.294588      -307.3414
   6   2.0000     -11.284244      -307.0599
   7   2.0000     -11.282352      -307.0084
   8   2.0000     -11.279638      -306.9346
   9   2.0000      -1.388812       -37.7915
  10   2.0000      -1.378507       -37.5111
  11   2.0000      -1.272743       -34.6331
  12   2.0000      -1.214369       -33.0447
  13   2.0000      -1.108633       -30.1674
  14   2.0000      -0.967293       -26.3214
  15   2.0000      -0.868960       -23.6456
  16   2.0000      -0.837407       -22.7870
  17   2.0000      -0.762194       -20.7403
  18   2.0000      -0.732047       -19.9200
  19   2.0000      -0.719791       -19.5865
  20   2.0000      -0.679040       -18.4776
  21   2.0000      -0.654763       -17.8170
  22   2.0000      -0.641245       -17.4492
  23   2.0000      -0.633508       -17.2386
  24   2.0000      -0.595994       -16.2178
  25   2.0000      -0.581967       -15.8361
  26   2.0000      -0.562847       -15.3158
  27   2.0000      -0.554360       -15.0849
  28   2.0000      -0.528957       -14.3936
  29   2.0000      -0.461980       -12.5711
  30   2.0000      -0.442599       -12.0437
  31   2.0000      -0.419136       -11.4053
  32   2.0000      -0.410056       -11.1582
  33   2.0000      -0.361072        -9.8253
  34   0.0000       0.116102         3.1593
  35   0.0000       0.145228         3.9519
  36   0.0000       0.155677         4.2362
  37   0.0000       0.162972         4.4347
  38   0.0000       0.179455         4.8832

MULLIKEN ATOMIC CHARGES
-----------------------
   0 O :   -0.464252
   1 C :    0.067023
   2 C :   -0.036717
   3 N :   -0.438666
   4 C :   -0.095278
   5 C :    0.189231
   6 O :   -0.341208
   7 N :   -0.284000
   8 C :   -0.059452
   9 H :    0.337658
  10 H :    0.126059
  11 H :    0.130387
  12 H :    0.226111
  13 H :    0.121913
  14 H :    0.145330
  15 H :    0.244896
  16 H :    0.130965
Sum of atomic charges:    0.0000000

LOEWDIN ATOMIC CHARGES
----------------------
   0 O :    0.011240
   1 C :   -0.307310
   2 C :   -0.254683
   3 N :    0.006983
   4 C :   -0.253997
   5 C :   -0.454594
   6 O :    0.086980
   7 N :    0.148729
   8 C :   -0.237890
   9 H :    0.180682
  10 H :    0.138123
  11 H :    0.136976
  12 H :    0.176310
  13 H :    0.134987
  14 H :    0.146491
  15 H :    0.196987
  16 H :    0.143986

  Mayer bond orders larger than 0.1
B(  0-O ,  1-C ) :   1.0177 B(  0-O ,  9-H ) :   0.7930 B(  1-C ,  2-C ) :   0.8838
B(  1-C ,  8-C ) :   0.8292 B(  1-C , 10-H ) :   0.9477 B(  2-C ,  3-N ) :   0.9863
B(  2-C ,  8-C ) :   0.8903 B(  2-C , 11-H ) :   0.9211 B(  3-N ,  4-C ) :   0.8810
B(  3-N , 12-H ) :   0.8832 B(  4-C ,  5-C ) :   0.9228 B(  4-C , 13-H ) :   0.9110
B(  4-C , 14-H ) :   0.9230 B(  5-C ,  6-O ) :   2.0044 B(  5-C ,  7-N ) :   1.1785
B(  7-N ,  8-C ) :   0.9209 B(  7-N , 15-H ) :   0.8585 B(  8-C , 16-H ) :   0.9274

MP2 TOTAL ENERGY:     -454.418794901 Eh
FINAL SINGLE POINT ENERGY      -454.418794901244

DIPOLE MOMENT
-------------
                                X             Y             Z
Electronic contribution:      0.45793       2.05164      -2.76683
Nuclear contribution   :     -0.49798      -3.41921       3.85582
                        -----------------------------------------
Total Dipole Moment    :     -0.04005      -1.36757       1.08899
                        -----------------------------------------
Magnitude (a.u.)       :      1.74864
Magnitude (Debye)      :      4.44470

                             ****ORCA TERMINATED NORMALLY****
TOTAL RUN TIME: 0 days 0 hours 16 minutes 29 seconds 856 msec
