                         Program Version 3.0.3 - RELEASE   -
|  1> ! RI-MP2 RIJK def2-TZVP def2-TZVP/C def2-TZVP/JK TIGHTSCF
|  2> % maxcore 2000
|  3> % mp2 density relaxed end
|  4> *xyz 0 1
|  5>  O        0.0696885822     1.3813414103    -0.3260900133
|  6>  C        0.0990713245     0.0476896857     0.1469848132
|  7>  C       -1.2908343348    -0.5574819543     0.0990468619
|  8>  O       -1.8472177985    -0.5311585059    -1.2526235111
|  9>  C       -2.1735790230    -1.9151257360    -1.1705192247
| 10>  C       -0.9547105909    -2.7570563731    -1.0503083545
| 11>  C       -1.5113815484    -2.0763614155     0.2017998773
| 12>  C       -1.9092078147    -2.7746551666     1.3712781854
| 13>  C       -2.2363677745    -3.3485369714     2.3775931680
| 14>  H       -0.3294707461     1.3497190708    -1.2038015425
| 15>  H        0.8059423341    -0.5693019522    -0.4270593774
| 16>  H        0.4491553306     0.0811810134     1.1843557087
| 17>  H       -1.9661791097    -0.0133929760     0.7682025533
| 18>  H       -3.1416215422    -2.2351382198    -1.5368549770
| 19>  H       -1.1225174723    -3.8287964110    -1.0593868778
| 20>  H       -0.0224407637    -2.4267393653    -1.4966854254
| 21>  H       -2.5294893928    -3.8573426431     3.2621301760
| 22> *
| 23>
| 24>                          ****END OF INPUT****

CARTESIAN COORDINATES (ANGSTROEM)
---------------------------------
  O      0.069689    1.381341   -0.326090
  C      0.099071    0.047690    0.146985
  C     -1.290834   -0.557482    0.099047
  O     -1.847218   -0.531159   -1.252624
  C     -2.173579   -1.915126   -1.170519
  C     -0.954711   -2.757056   -1.050308
  C     -1.511382   -2.076361    0.201800
  C     -1.909208   -2.774655    1.371278
  C     -2.236368   -3.348537    2.377593
  H     -0.329471    1.349719   -1.203802
  H      0.805942   -0.569302   -0.427059
  H      0.449155    0.081181    1.184356
  H     -1.966179   -0.013393    0.768203
  H     -3.141622   -2.235138   -1.536855
  H     -1.122517   -3.828796   -1.059387
  H     -0.022441   -2.426739   -1.496685
  H     -2.529489   -3.857343    3.262130

 Total Charge           Charge          ....    0
 Multiplicity           Mult            ....    1
 Number of Electrons    NEL             ....   66
 Basis Dimension        Dim             ....  327

ORBITAL ENERGIES
----------------

  NO   OCC          E(Eh)            E(eV)
   0   2.0000     -20.573900      -559.8443
   1   2.0000     -20.557575      -559.4001
   2   2.0000     -11.313416      -307.8537
   3   2.0000     -11.304114      -307.6006
   4   2.0000     -11.281686      -306.9903
   5   2.0000     -11.277944      -306.8885
   6   2.0000     -11.256723      -306.3110
   7   2.0000     -11.247322      -306.0552
   8   2.0000     -11.234809      -305.7147
   9   2.0000      -1.415755       -38.5247
  10   2.0000      -1.361453       -37.0470
  11   2.0000      -1.150322       -31.3019
  12   2.0000      -1.039921       -28.2977
  13   2.0000      -1.013033       -27.5660
  14   2.0000      -0.903201       -24.5774
  15   2.0000      -0.840295       -22.8656
  16   2.0000      -0.811472       -22.0813
  17   2.0000      -0.749793       -20.4029
  18   2.0000      -0.708640       -19.2831
  19   2.0000      -0.699009       -19.0210
  20   2.0000      -0.677662       -18.4401
  21   2.0000      -0.637850       -17.3568
  22   2.0000      -0.610698       -16.6179
  23   2.0000      -0.573377       -15.6024
  24   2.0000      -0.567355       -15.4385
  25   2.0000      -0.546616       -14.8742
  26   2.0000      -0.537450       -14.6248
  27   2.0000      -0.502210       -13.6658
  28   2.0000      -0.476795       -12.9742
  29   2.0000      -0.450762       -12.2658
  30   2.0000      -0.427158       -11.6236
  31   2.0000      -0.387672       -10.5491
  32   2.0000      -0.358728        -9.7615
  33   0.0000       0.144816         3.9406
  34   0.0000       0.149141         4.0583
  35   0.0000       0.151759         4.1296
  36   0.0000       0.161969         4.4074
  37   0.0000       0.165375         4.5001

MULLIKEN ATOMIC CHARGES
-----------------------
   0 O :   -0.471434
   1 C :   -0.023426
   2 C :    0.065760
   3 O :   -0.350605
   4 C :    0.093809
   5 C :   -0.250912
   6 C :   -0.227947
   7 C :   -0.019170
   8 C :   -0.103134
   9 H :    0.329380
  10 H :    0.100430
  11 H :    0.117559
  12 H :    0.113162
  13 H :    0.142775
  14 H :    0.145683
  15 H :    0.141776
  16 H :    0.196292
Sum of atomic charges:   -0.0000000

LOEWDIN ATOMIC CHARGES
----------------------
   0 O :   -0.039304
   1 C :   -0.326634
   2 C :   -0.221443
   3 O :    0.161972
   4 C :   -0.207357
   5 C :   -0.162539
   6 C :   -0.182687
   7 C :   -0.081284
   8 C :   -0.082613
   9 H :    0.180285
  10 H :    0.119891
  11 H :    0.136413
  12 H :    0.152387
  13 H :    0.137047
  14 H :    0.151365
  15 H :    0.136170
  16 H :    0.128331

  Mayer bond orders larger than 0.1
B(  0-O ,  1-C ) :   0.9176 B(  0-O ,  9-H ) :   0.8341 B(  1-C ,  2-C ) :   0.9507
B(  1-C , 10-H ) :   0.9168 B(  1-C , 11-H ) :   0.9223 B(  2-C ,  3-O ) :   0.8999
B(  2-C ,  6-C ) :   0.9205 B(  2-C , 12-H ) :   0.9031 B(  3-O ,  4-C ) :   0.9634
B(  4-C ,  5-C ) :   0.8942 B(  4-C ,  6-C ) :   0.8548 B(  4-C , 13-H ) :   0.9116
B(  5-C ,  6-C ) :   0.8430 B(  5-C , 14-H ) :   0.9180 B(  5-C , 15-H ) :   0.9011
B(  6-C ,  7-C ) :   1.2254 B(  6-C ,  8-C ) :  -0.1680 B(  7-C ,  8-C ) :   2.6109
B(  8-C , 16-H ) :   0.8698

MP2 TOTAL ENERGY:     -421.028685731 Eh
FINAL SINGLE POINT ENERGY      -421.028685731010

DIPOLE MOMENT
-------------
                                X             Y             Z
Electronic contribution:     -2.24542       0.21641       0.31605
Nuclear contribution   :      2.08336      -1.14258      -0.37722
                        -----------------------------------------
Total Dipole Moment    :     -0.16206      -0.92616      -0.06117
                        -----------------------------------------
Magnitude (a.u.)       :      0.94222
Magnitude (Debye)      :      2.39494

                             ****ORCA TERMINATED NORMALLY****
TOTAL RUN TIME: 0 days 0 hours 26 minutes 30 seconds 263 msec
