                         Program Version 3.0.3 - RELEASE   -
|  1> ! RI-MP2 RIJK def2-TZVP def2-TZVP/C def2-TZVP/JK TIGHTSCF
|  2> % maxcore 2000
|  3> % mp2 density relaxed end
|  4> *xyz 0 1
|  5>  C       -0.0933721748     1.4754467851     0.0699648602
|  6>  C        0.0479323372    -0.0057731585     0.0391267317
|  7>  C        1.1874749776    -0.8482940199    -0.3802784818
|  8>  C        0.6120698565    -1.0057670188     1.0557790058
|  9>  C        1.3780432191    -0.8478843075     2.2367015516
| 10>  C        2.0239121187    -0.7115899193     3.2422492776
| 11>  C       -0.7413510738    -1.6709679781     0.9010970903
| 12>  O       -1.3510393015    -2.5548871092     1.4012508765
| 13>  O       -1.1686827787    -0.8010232111    -0.0927494190
| 14>  H        0.8607671620     1.9365134776     0.3385804143
| 15>  H       -0.3934499825     1.8532091583    -0.9129417817
| 16>  H       -0.8480252718     1.7749045844     0.8021081238
| 17>  H        1.0399519612    -1.6451914860    -1.1017426433
| 18>  H        2.1653486148    -0.3773331134    -0.3888749671
| 19>  H        2.5873784958    -0.5975995937     4.1351689410
| 20> *
| 21>
| 22>                          ****END OF INPUT****

CARTESIAN COORDINATES (ANGSTROEM)
---------------------------------
  C     -0.093372    1.475447    0.069965
  C      0.047932   -0.005773    0.039127
  C      1.187475   -0.848294   -0.380278
  C      0.612070   -1.005767    1.055779
  C      1.378043   -0.847884    2.236702
  C      2.023912   -0.711590    3.242249
  C     -0.741351   -1.670968    0.901097
  O     -1.351039   -2.554887    1.401251
  O     -1.168683   -0.801023   -0.092749
  H      0.860767    1.936513    0.338580
  H     -0.393450    1.853209   -0.912942
  H     -0.848025    1.774905    0.802108
  H      1.039952   -1.645191   -1.101743
  H      2.165349   -0.377333   -0.388875
  H      2.587378   -0.597600    4.135169

 Total Charge           Charge          ....    0
 Multiplicity           Mult            ....    1
 Number of Electrons    NEL             ....   64
 Basis Dimension        Dim             ....  315

ORBITAL ENERGIES
----------------

  NO   OCC          E(Eh)            E(eV)
   0   2.0000     -20.609361      -560.8092
   1   2.0000     -20.562085      -559.5228
   2   2.0000     -11.397456      -310.1405
   3   2.0000     -11.342164      -308.6360
   4   2.0000     -11.298100      -307.4369
   5   2.0000     -11.281404      -306.9826
   6   2.0000     -11.257278      -306.3261
   7   2.0000     -11.254495      -306.2504
   8   2.0000     -11.246468      -306.0320
   9   2.0000      -1.477633       -40.2084
  10   2.0000      -1.393609       -37.9220
  11   2.0000      -1.178314       -32.0635
  12   2.0000      -1.054785       -28.7022
  13   2.0000      -1.021933       -27.8082
  14   2.0000      -0.930571       -25.3221
  15   2.0000      -0.826865       -22.5001
  16   2.0000      -0.821341       -22.3498
  17   2.0000      -0.727865       -19.8062
  18   2.0000      -0.717245       -19.5172
  19   2.0000      -0.694093       -18.8872
  20   2.0000      -0.673716       -18.3327
  21   2.0000      -0.618131       -16.8202
  22   2.0000      -0.610712       -16.6183
  23   2.0000      -0.593896       -16.1607
  24   2.0000      -0.584042       -15.8926
  25   2.0000      -0.563769       -15.3409
  26   2.0000      -0.528479       -14.3806
  27   2.0000      -0.487371       -13.2620
  28   2.0000      -0.468105       -12.7378
  29   2.0000      -0.458948       -12.4886
  30   2.0000      -0.399087       -10.8597
  31   2.0000      -0.375609       -10.2208
  32   0.0000       0.123964         3.3732
  33   0.0000       0.136279         3.7083
  34   0.0000       0.148477         4.0403
  35   0.0000       0.154532         4.2050
  36   0.0000       0.168629         4.5886

MULLIKEN ATOMIC CHARGES
-----------------------
   0 C :   -0.394496
   1 C :    0.209433
   2 C :   -0.211683
   3 C :   -0.244551
   4 C :   -0.019558
   5 C :   -0.099590
   6 C :    0.289205
   7 O :   -0.236627
   8 O :   -0.254342
   9 H :    0.145288
  10 H :    0.155206
  11 H :    0.153410
  12 H :    0.158203
  13 H :    0.150369
  14 H :    0.199734
Sum of atomic charges:   -0.0000000

LOEWDIN ATOMIC CHARGES
----------------------
   0 C :   -0.253994
   1 C :   -0.246637
   2 C :   -0.115601
   3 C :   -0.146695
   4 C :   -0.073824
   5 C :   -0.065171
   6 C :   -0.394578
   7 O :    0.180824
   8 O :    0.262712
   9 H :    0.142460
  10 H :    0.140242
  11 H :    0.140966
  12 H :    0.145940
  13 H :    0.152932
  14 H :    0.130423

  Mayer bond orders larger than 0.1
B(  0-C ,  1-C ) :   0.9031 B(  0-C ,  9-H ) :   0.9256 B(  0-C , 10-H ) :   0.9310
B(  0-C , 11-H ) :   0.9279 B(  1-C ,  2-C ) :   0.9300 B(  1-C ,  3-C ) :   0.7904
B(  1-C ,  8-O ) :   0.9089 B(  2-C ,  3-C ) :   0.7840 B(  2-C , 12-H ) :   0.8940
B(  2-C , 13-H ) :   0.9196 B(  3-C ,  4-C ) :   1.2631 B(  3-C ,  5-C ) :  -0.1793
B(  3-C ,  6-C ) :   0.9036 B(  4-C ,  5-C ) :   2.5922 B(  5-C , 14-H ) :   0.8735
B(  6-C ,  7-O ) :   2.0899 B(  6-C ,  8-O ) :   1.0583

MP2 TOTAL ENERGY:     -419.877844664 Eh
FINAL SINGLE POINT ENERGY      -419.877844664361

DIPOLE MOMENT
-------------
                                X             Y             Z
Electronic contribution:     -2.97971      -5.86638       2.02000
Nuclear contribution   :      4.19833       7.07490      -2.37748
                        -----------------------------------------
Total Dipole Moment    :      1.21862       1.20852      -0.35749
                        -----------------------------------------
Magnitude (a.u.)       :      1.75310
Magnitude (Debye)      :      4.45603

                             ****ORCA TERMINATED NORMALLY****
TOTAL RUN TIME: 0 days 0 hours 17 minutes 15 seconds 436 msec
