                         Program Version 3.0.3 - RELEASE   -
|  1> ! RI-MP2 RIJK def2-TZVP def2-TZVP/C def2-TZVP/JK TIGHTSCF
|  2> % maxcore 2000
|  3> % mp2 density relaxed end
|  4> *xyz 0 1
|  5>  O       -0.1290069605     1.4441004544     0.0256138117
|  6>  C       -0.0287858999     0.0308243128    -0.0932702258
|  7>  C       -1.4163315571    -0.5219573758    -0.0019472515
|  8>  N       -2.4708583864    -0.2550188154    -1.0470857872
|  9>  C       -3.1597157898    -1.1152569082    -0.0196648679
| 10>  C       -1.8852151753    -2.0122570768     0.0642454291
| 11>  C       -1.7532958259    -2.4606296832     1.5111630829
| 12>  O       -2.1564152915    -1.2668400627     2.2156910852
| 13>  C       -2.4542909060    -0.3827476040     1.1584585829
| 14>  H        0.7451182573     1.8208775629    -0.1106204188
| 15>  H        0.4161143292    -0.2631577741    -1.0563195558
| 16>  H        0.5868711283    -0.4008104539     0.7122896995
| 17>  H       -2.7897204135     0.7144963821    -0.9538889863
| 18>  H       -4.1978254950    -1.4338678517    -0.1174931296
| 19>  H       -1.6475796462    -2.6923997209    -0.7520278354
| 20>  H       -2.4214746174    -3.2913391321     1.7692592599
| 21>  H       -0.7300986450    -2.7339402306     1.7961915137
| 22>  H       -2.7810307553     0.5914114273     1.5202322933
| 23> *
| 24>
| 25>                          ****END OF INPUT****

CARTESIAN COORDINATES (ANGSTROEM)
---------------------------------
  O     -0.129007    1.444100    0.025614
  C     -0.028786    0.030824   -0.093270
  C     -1.416332   -0.521957   -0.001947
  N     -2.470858   -0.255019   -1.047086
  C     -3.159716   -1.115257   -0.019665
  C     -1.885215   -2.012257    0.064245
  C     -1.753296   -2.460630    1.511163
  O     -2.156415   -1.266840    2.215691
  C     -2.454291   -0.382748    1.158459
  H      0.745118    1.820878   -0.110620
  H      0.416114   -0.263158   -1.056320
  H      0.586871   -0.400810    0.712290
  H     -2.789720    0.714496   -0.953889
  H     -4.197825   -1.433868   -0.117493
  H     -1.647580   -2.692400   -0.752028
  H     -2.421475   -3.291339    1.769259
  H     -0.730099   -2.733940    1.796192
  H     -2.781031    0.591411    1.520232

 Total Charge           Charge          ....    0
 Multiplicity           Mult            ....    1
 Number of Electrons    NEL             ....   68
 Basis Dimension        Dim             ....  333

ORBITAL ENERGIES
----------------

  NO   OCC          E(Eh)            E(eV)
   0   2.0000     -20.564428      -559.5865
   1   2.0000     -20.557135      -559.3881
   2   2.0000     -15.551081      -423.1664
   3   2.0000     -11.286803      -307.1295
   4   2.0000     -11.284958      -307.0793
   5   2.0000     -11.279097      -306.9198
   6   2.0000     -11.273175      -306.7587
   7   2.0000     -11.270079      -306.6745
   8   2.0000     -11.245222      -305.9980
   9   2.0000      -1.395111       -37.9629
  10   2.0000      -1.367853       -37.2212
  11   2.0000      -1.269317       -34.5399
  12   2.0000      -1.029546       -28.0154
  13   2.0000      -0.984167       -26.7805
  14   2.0000      -0.965678       -26.2774
  15   2.0000      -0.829863       -22.5817
  16   2.0000      -0.822059       -22.3694
  17   2.0000      -0.752065       -20.4647
  18   2.0000      -0.709140       -19.2967
  19   2.0000      -0.687268       -18.7015
  20   2.0000      -0.663373       -18.0513
  21   2.0000      -0.650902       -17.7119
  22   2.0000      -0.626393       -17.0450
  23   2.0000      -0.593974       -16.1629
  24   2.0000      -0.548717       -14.9314
  25   2.0000      -0.540035       -14.6951
  26   2.0000      -0.524133       -14.2624
  27   2.0000      -0.506495       -13.7824
  28   2.0000      -0.491645       -13.3783
  29   2.0000      -0.479241       -13.0408
  30   2.0000      -0.456363       -12.4183
  31   2.0000      -0.440634       -11.9903
  32   2.0000      -0.390871       -10.6361
  33   2.0000      -0.383186       -10.4270
  34   0.0000       0.130652         3.5552
  35   0.0000       0.149031         4.0554
  36   0.0000       0.162468         4.4210
  37   0.0000       0.180732         4.9180
  38   0.0000       0.185637         5.0514

MULLIKEN ATOMIC CHARGES
-----------------------
   0 O :   -0.466784
   1 C :   -0.160428
   2 C :    0.060689
   3 N :   -0.324246
   4 C :   -0.144422
   5 C :   -0.062355
   6 C :   -0.066389
   7 O :   -0.324358
   8 C :    0.116608
   9 H :    0.317015
  10 H :    0.117343
  11 H :    0.110582
  12 H :    0.208129
  13 H :    0.134238
  14 H :    0.130934
  15 H :    0.112695
  16 H :    0.109602
  17 H :    0.131146
Sum of atomic charges:   -0.0000000

LOEWDIN ATOMIC CHARGES
----------------------
   0 O :   -0.043383
   1 C :   -0.315084
   2 C :   -0.241049
   3 N :    0.029921
   4 C :   -0.188900
   5 C :   -0.158049
   6 C :   -0.259004
   7 O :    0.162435
   8 C :   -0.240224
   9 H :    0.174101
  10 H :    0.127770
  11 H :    0.127361
  12 H :    0.163875
  13 H :    0.124012
  14 H :    0.145673
  15 H :    0.126146
  16 H :    0.124213
  17 H :    0.140183

  Mayer bond orders larger than 0.1
B(  0-O ,  1-C ) :   1.0989 B(  0-O ,  2-C ) :  -0.1410 B(  0-O ,  9-H ) :   0.8474
B(  1-C ,  2-C ) :   0.8223 B(  1-C , 10-H ) :   0.9361 B(  1-C , 11-H ) :   0.9387
B(  2-C ,  3-N ) :   0.9222 B(  2-C ,  5-C ) :   0.8390 B(  2-C ,  8-C ) :   0.8542
B(  3-N ,  4-C ) :   0.9376 B(  3-N , 12-H ) :   0.8805 B(  4-C ,  5-C ) :   0.8856
B(  4-C ,  8-C ) :   0.8960 B(  4-C , 13-H ) :   0.9036 B(  5-C ,  6-C ) :   0.9684
B(  5-C , 14-H ) :   0.8976 B(  6-C ,  7-O ) :   0.9220 B(  6-C , 15-H ) :   0.9181
B(  6-C , 16-H ) :   0.9228 B(  7-O ,  8-C ) :   0.9756 B(  8-C , 17-H ) :   0.9287

MP2 TOTAL ENERGY:     -438.300199283 Eh
FINAL SINGLE POINT ENERGY      -438.300199282652

DIPOLE MOMENT
-------------
                                X             Y             Z
Electronic contribution:     -1.49468       1.24391       0.92418
Nuclear contribution   :      2.10201      -1.47038      -1.03824
                        -----------------------------------------
Total Dipole Moment    :      0.60733      -0.22647      -0.11406
                        -----------------------------------------
Magnitude (a.u.)       :      0.65814
Magnitude (Debye)      :      1.67286

                             ****ORCA TERMINATED NORMALLY****
TOTAL RUN TIME: 0 days 0 hours 17 minutes 36 seconds 266 msec
