                         Program Version 3.0.3 - RELEASE   -
|  1> ! RI-MP2 RIJK def2-TZVP def2-TZVP/C def2-TZVP/JK TIGHTSCF
|  2> % maxcore 2000
|  3> % mp2 density relaxed end
|  4> *xyz 0 1
|  5>  O       -0.0900407633     0.0762308818    -0.3266038036
|  6>  C       -0.0119520771     1.2272898864    -0.0475974863
|  7>  O       -0.9911162658     2.0505057687     0.4571574181
|  8>  C       -0.0760340645     3.1892627505     0.5650002763
|  9>  C        1.0407272366     2.3555989218    -0.0864806642
| 10>  O        2.2779563466     2.1913972828     0.6156630347
| 11>  C        3.0113148340     2.6380151892    -0.5400014463
| 12>  C        2.7940293390     1.7079585839    -1.6858162997
| 13>  C        1.7541507359     2.7685713716    -1.3665133055
| 14>  H       -0.4503754949     4.0455733123     0.0004964409
| 15>  H        0.1114818366     3.4489732358     1.6083483991
| 16>  H        3.8636418312     3.2845805641    -0.3756424722
| 17>  H        3.3796525522     1.9165106311    -2.5758359610
| 18>  H        2.5815922608     0.6607176673    -1.4962532468
| 19>  H        1.4230513928     3.5265341828    -2.0621595636
| 20> *
| 21>
| 22>                          ****END OF INPUT****

CARTESIAN COORDINATES (ANGSTROEM)
---------------------------------
  O     -0.090041    0.076231   -0.326604
  C     -0.011952    1.227290   -0.047597
  O     -0.991116    2.050506    0.457157
  C     -0.076034    3.189263    0.565000
  C      1.040727    2.355599   -0.086481
  O      2.277956    2.191397    0.615663
  C      3.011315    2.638015   -0.540001
  C      2.794029    1.707959   -1.685816
  C      1.754151    2.768571   -1.366513
  H     -0.450375    4.045573    0.000496
  H      0.111482    3.448973    1.608348
  H      3.863642    3.284581   -0.375642
  H      3.379653    1.916511   -2.575836
  H      2.581592    0.660718   -1.496253
  H      1.423051    3.526534   -2.062160

 Total Charge           Charge          ....    0
 Multiplicity           Mult            ....    1
 Number of Electrons    NEL             ....   66
 Basis Dimension        Dim             ....  315

ORBITAL ENERGIES
----------------

  NO   OCC          E(Eh)            E(eV)
   0   2.0000     -20.608958      -560.7983
   1   2.0000     -20.589800      -560.2769
   2   2.0000     -20.560989      -559.4930
   3   2.0000     -11.386265      -309.8360
   4   2.0000     -11.334663      -308.4319
   5   2.0000     -11.316265      -307.9312
   6   2.0000     -11.313752      -307.8628
   7   2.0000     -11.268911      -306.6427
   8   2.0000     -11.256062      -306.2930
   9   2.0000      -1.472725       -40.0749
  10   2.0000      -1.426617       -38.8202
  11   2.0000      -1.386595       -37.7312
  12   2.0000      -1.145778       -31.1782
  13   2.0000      -1.040840       -28.3227
  14   2.0000      -0.927565       -25.2403
  15   2.0000      -0.868650       -23.6372
  16   2.0000      -0.828735       -22.5510
  17   2.0000      -0.747302       -20.3351
  18   2.0000      -0.715888       -19.4803
  19   2.0000      -0.710902       -19.3446
  20   2.0000      -0.694878       -18.9086
  21   2.0000      -0.671818       -18.2811
  22   2.0000      -0.649086       -17.6625
  23   2.0000      -0.606602       -16.5065
  24   2.0000      -0.578754       -15.7487
  25   2.0000      -0.565269       -15.3817
  26   2.0000      -0.550255       -14.9732
  27   2.0000      -0.540508       -14.7080
  28   2.0000      -0.519138       -14.1265
  29   2.0000      -0.472309       -12.8522
  30   2.0000      -0.461200       -12.5499
  31   2.0000      -0.418772       -11.3954
  32   2.0000      -0.410634       -11.1739
  33   0.0000       0.135020         3.6741
  34   0.0000       0.137848         3.7510
  35   0.0000       0.152872         4.1598
  36   0.0000       0.164552         4.4777
  37   0.0000       0.178217         4.8495

MULLIKEN ATOMIC CHARGES
-----------------------
   0 O :   -0.253991
   1 C :    0.252520
   2 O :   -0.231893
   3 C :   -0.040500
   4 C :    0.149651
   5 O :   -0.313543
   6 C :    0.049844
   7 C :   -0.249531
   8 C :   -0.220135
   9 H :    0.123282
  10 H :    0.130866
  11 H :    0.140930
  12 H :    0.139885
  13 H :    0.168671
  14 H :    0.153944
Sum of atomic charges:   -0.0000000

LOEWDIN ATOMIC CHARGES
----------------------
   0 O :    0.169569
   1 C :   -0.420003
   2 O :    0.234697
   3 C :   -0.188205
   4 C :   -0.264330
   5 O :    0.207703
   6 C :   -0.225839
   7 C :   -0.189022
   8 C :   -0.151701
   9 H :    0.126912
  10 H :    0.131843
  11 H :    0.133542
  12 H :    0.146334
  13 H :    0.145935
  14 H :    0.142566

  Mayer bond orders larger than 0.1
B(  0-O ,  1-C ) :   2.0433 B(  1-C ,  2-O ) :   1.0968 B(  1-C ,  4-C ) :   0.8818
B(  2-O ,  3-C ) :   0.8966 B(  3-C ,  4-C ) :   0.9413 B(  3-C ,  9-H ) :   0.9131
B(  3-C , 10-H ) :   0.9110 B(  4-C ,  5-O ) :   0.9447 B(  4-C ,  8-C ) :   0.8914
B(  5-O ,  6-C ) :   0.9328 B(  6-C ,  7-C ) :   0.8875 B(  6-C ,  8-C ) :   0.9191
B(  6-C , 11-H ) :   0.9214 B(  7-C ,  8-C ) :   0.8793 B(  7-C , 12-H ) :   0.9230
B(  7-C , 13-H ) :   0.9068 B(  8-C , 14-H ) :   0.9071

MP2 TOTAL ENERGY:     -456.989844977 Eh
FINAL SINGLE POINT ENERGY      -456.989844976798

DIPOLE MOMENT
-------------
                                X             Y             Z
Electronic contribution:     -3.50020      -2.96681       2.61060
Nuclear contribution   :      4.29666       4.52578      -3.19360
                        -----------------------------------------
Total Dipole Moment    :      0.79646       1.55897      -0.58300
                        -----------------------------------------
Magnitude (a.u.)       :      1.84516
Magnitude (Debye)      :      4.69002

                             ****ORCA TERMINATED NORMALLY****
TOTAL RUN TIME: 0 days 0 hours 15 minutes 19 seconds 73 msec
