                         Program Version 3.0.3 - RELEASE   -
|  1> ! RI-MP2 RIJK def2-TZVP def2-TZVP/C def2-TZVP/JK TIGHTSCF
|  2> % maxcore 2000
|  3> % mp2 density relaxed end
|  4> *xyz 0 1
|  5>  C       -0.2189166171     1.3868870334     0.4251272072
|  6>  C        0.0733466334    -0.0745663576     0.1720595002
|  7>  C        1.4381563487    -0.5099862640    -0.3329282294
|  8>  C        1.0110622103    -0.8457014113     1.0600833133
|  9>  O        1.7005069235    -0.1505783922     2.0854086749
| 10>  C        1.2329272364    -0.3309795842     3.3460960496
| 11>  C        2.0604613912     0.4618227414     4.3289671289
| 12>  O        0.2979998481    -1.0370887336     3.6203198978
| 13>  H        0.6568309645     1.8982660492     0.8333209778
| 14>  H       -0.5051436863     1.8947399321    -0.5017391525
| 15>  H       -1.0397533070     1.5054711058     1.1406956681
| 16>  H       -0.7732580113    -0.6500651987    -0.1931727877
| 17>  H        1.5139218728    -1.3109054410    -1.0598093492
| 18>  H        2.1919792112     0.2642941194    -0.4314747453
| 19>  H        0.7647120386    -1.8639548702     1.3342593150
| 20>  H        2.0179468321     1.5266582010     4.0828020897
| 21>  H        1.6810882697     0.2979665915     5.3367189477
| 22>  H        3.1088889312     0.1566007890     4.2691884341
| 23> *
| 24>
| 25>                          ****END OF INPUT****

CARTESIAN COORDINATES (ANGSTROEM)
---------------------------------
  C     -0.218917    1.386887    0.425127
  C      0.073347   -0.074566    0.172060
  C      1.438156   -0.509986   -0.332928
  C      1.011062   -0.845701    1.060083
  O      1.700507   -0.150578    2.085409
  C      1.232927   -0.330980    3.346096
  C      2.060461    0.461823    4.328967
  O      0.298000   -1.037089    3.620320
  H      0.656831    1.898266    0.833321
  H     -0.505144    1.894740   -0.501739
  H     -1.039753    1.505471    1.140696
  H     -0.773258   -0.650065   -0.193173
  H      1.513922   -1.310905   -1.059809
  H      2.191979    0.264294   -0.431475
  H      0.764712   -1.863955    1.334259
  H      2.017947    1.526658    4.082802
  H      1.681088    0.297967    5.336719
  H      3.108889    0.156601    4.269188

 Total Charge           Charge          ....    0
 Multiplicity           Mult            ....    1
 Number of Electrons    NEL             ....   62
 Basis Dimension        Dim             ....  308

ORBITAL ENERGIES
----------------

  NO   OCC          E(Eh)            E(eV)
   0   2.0000     -20.601843      -560.6046
   1   2.0000     -20.542147      -558.9802
   2   2.0000     -11.379892      -309.6626
   3   2.0000     -11.288796      -307.1838
   4   2.0000     -11.241307      -305.8915
   5   2.0000     -11.236778      -305.7683
   6   2.0000     -11.228783      -305.5507
   7   2.0000     -11.220084      -305.3140
   8   2.0000      -1.459920       -39.7264
   9   2.0000      -1.362056       -37.0634
  10   2.0000      -1.149647       -31.2835
  11   2.0000      -1.019554       -27.7435
  12   2.0000      -0.967849       -26.3365
  13   2.0000      -0.853041       -23.2124
  14   2.0000      -0.810736       -22.0613
  15   2.0000      -0.750334       -20.4176
  16   2.0000      -0.702532       -19.1169
  17   2.0000      -0.673056       -18.3148
  18   2.0000      -0.669434       -18.2162
  19   2.0000      -0.634158       -17.2563
  20   2.0000      -0.592612       -16.1258
  21   2.0000      -0.577317       -15.7096
  22   2.0000      -0.574047       -15.6206
  23   2.0000      -0.553314       -15.0564
  24   2.0000      -0.546921       -14.8825
  25   2.0000      -0.530607       -14.4385
  26   2.0000      -0.502167       -13.6647
  27   2.0000      -0.485556       -13.2126
  28   2.0000      -0.451326       -12.2812
  29   2.0000      -0.419529       -11.4160
  30   2.0000      -0.398908       -10.8548
  31   0.0000       0.133671         3.6374
  32   0.0000       0.155913         4.2426
  33   0.0000       0.169584         4.6146
  34   0.0000       0.171944         4.6788
  35   0.0000       0.181767         4.9461

MULLIKEN ATOMIC CHARGES
-----------------------
   0 C :   -0.424900
   1 C :   -0.056738
   2 C :   -0.268058
   3 C :    0.018495
   4 O :   -0.254776
   5 C :    0.320535
   6 C :   -0.395559
   7 O :   -0.329034
   8 H :    0.135345
   9 H :    0.137963
  10 H :    0.139212
  11 H :    0.120970
  12 H :    0.136575
  13 H :    0.133849
  14 H :    0.131191
  15 H :    0.149321
  16 H :    0.154211
  17 H :    0.151396
Sum of atomic charges:   -0.0000000

LOEWDIN ATOMIC CHARGES
----------------------
   0 C :   -0.294866
   1 C :   -0.232728
   2 C :   -0.207779
   3 C :   -0.260042
   4 O :    0.273835
   5 C :   -0.492524
   6 C :   -0.272467
   7 O :    0.124610
   8 H :    0.127633
   9 H :    0.126717
  10 H :    0.128129
  11 H :    0.149257
  12 H :    0.133183
  13 H :    0.140987
  14 H :    0.142391
  15 H :    0.138497
  16 H :    0.135791
  17 H :    0.139375

  Mayer bond orders larger than 0.1
B(  0-C ,  1-C ) :   0.9103 B(  0-C ,  8-H ) :   0.9342 B(  0-C ,  9-H ) :   0.9369
B(  0-C , 10-H ) :   0.9395 B(  1-C ,  2-C ) :   0.8880 B(  1-C ,  3-C ) :   0.8987
B(  1-C , 11-H ) :   0.9226 B(  2-C ,  3-C ) :   0.8809 B(  2-C , 12-H ) :   0.9249
B(  2-C , 13-H ) :   0.9150 B(  3-C ,  4-O ) :   0.8711 B(  3-C , 14-H ) :   0.9358
B(  4-O ,  5-C ) :   1.0629 B(  5-C ,  6-C ) :   0.9249 B(  5-C ,  7-O ) :   1.9366
B(  6-C , 15-H ) :   0.9169 B(  6-C , 16-H ) :   0.9434 B(  6-C , 17-H ) :   0.9167

MP2 TOTAL ENERGY:     -384.323862490 Eh
FINAL SINGLE POINT ENERGY      -384.323862490026

DIPOLE MOMENT
-------------
                                X             Y             Z
Electronic contribution:      0.35159      -4.22270       3.32200
Nuclear contribution   :      0.07370       4.64256      -3.69042
                        -----------------------------------------
Total Dipole Moment    :      0.42530       0.41986      -0.36842
                        -----------------------------------------
Magnitude (a.u.)       :      0.70207
Magnitude (Debye)      :      1.78451

                             ****ORCA TERMINATED NORMALLY****
TOTAL RUN TIME: 0 days 0 hours 11 minutes 48 seconds 922 msec
