                         Program Version 3.0.3 - RELEASE   -
|  1> ! RI-MP2 RIJK def2-TZVP def2-TZVP/C def2-TZVP/JK TIGHTSCF
|  2> % maxcore 2000
|  3> % mp2 density relaxed end
|  4> *xyz 0 1
|  5>  C        0.1396753582     1.5369677801    -0.0634900360
|  6>  C       -0.0307999619     0.0140782640    -0.0658774641
|  7>  C       -1.4930791765    -0.5161298173     0.0306547168
|  8>  C       -2.1628216952    -0.0592053949     1.3474899329
|  9>  C       -2.3376981930    -0.0356761581    -1.1723303966
| 10>  C       -1.4364603231    -1.9845365534     0.0130167392
| 11>  C       -1.3819948848    -3.1880481105    -0.0019935206
| 12>  C       -1.3198472815    -4.6433685872    -0.0198756585
| 13>  H        1.2014659503     1.7934289158    -0.1347900966
| 14>  H       -0.3662381421     2.0100639474    -0.9105565779
| 15>  H       -0.2437678676     1.9935882662     0.8539843947
| 16>  H        0.4144958457    -0.3987873207    -0.9785122725
| 17>  H        0.5357534491    -0.4150989366     0.7686725705
| 18>  H       -2.2708499571     1.0292837536     1.3752344820
| 19>  H       -3.1592013039    -0.4999522549     1.4420171231
| 20>  H       -1.5726641433    -0.3708484058     2.2144315626
| 21>  H       -1.8733416012    -0.3303862895    -2.1181180822
| 22>  H       -3.3381491592    -0.4758800678    -1.1365060831
| 23>  H       -2.4471233642     1.0530000168    -1.1646512919
| 24>  H       -1.8834852934    -5.0571247605    -0.8636900895
| 25>  H       -0.2868241916    -4.9982476518    -0.1082450446
| 26>  H       -1.7381064637    -5.0725478951     0.8976039023
| 27> *
| 28>
| 29>                          ****END OF INPUT****

CARTESIAN COORDINATES (ANGSTROEM)
---------------------------------
  C      0.139675    1.536968   -0.063490
  C     -0.030800    0.014078   -0.065877
  C     -1.493079   -0.516130    0.030655
  C     -2.162822   -0.059205    1.347490
  C     -2.337698   -0.035676   -1.172330
  C     -1.436460   -1.984537    0.013017
  C     -1.381995   -3.188048   -0.001994
  C     -1.319847   -4.643369   -0.019876
  H      1.201466    1.793429   -0.134790
  H     -0.366238    2.010064   -0.910557
  H     -0.243768    1.993588    0.853984
  H      0.414496   -0.398787   -0.978512
  H      0.535753   -0.415099    0.768673
  H     -2.270850    1.029284    1.375234
  H     -3.159201   -0.499952    1.442017
  H     -1.572664   -0.370848    2.214432
  H     -1.873342   -0.330386   -2.118118
  H     -3.338149   -0.475880   -1.136506
  H     -2.447123    1.053000   -1.164651
  H     -1.883485   -5.057125   -0.863690
  H     -0.286824   -4.998248   -0.108245
  H     -1.738106   -5.072548    0.897604

 Total Charge           Charge          ....    0
 Multiplicity           Mult            ....    1
 Number of Electrons    NEL             ....   62
 Basis Dimension        Dim             ....  332

ORBITAL ENERGIES
----------------

  NO   OCC          E(Eh)            E(eV)
   0   2.0000     -11.254284      -306.2446
   1   2.0000     -11.240771      -305.8769
   2   2.0000     -11.220693      -305.3306
   3   2.0000     -11.213756      -305.1418
   4   2.0000     -11.213742      -305.1414
   5   2.0000     -11.212909      -305.1188
   6   2.0000     -11.212595      -305.1102
   7   2.0000     -11.206157      -304.9350
   8   2.0000      -1.115318       -30.3493
   9   2.0000      -1.038987       -28.2723
  10   2.0000      -0.995339       -27.0846
  11   2.0000      -0.940937       -25.6042
  12   2.0000      -0.931071       -25.3357
  13   2.0000      -0.868556       -23.6346
  14   2.0000      -0.774635       -21.0789
  15   2.0000      -0.659186       -17.9374
  16   2.0000      -0.619372       -16.8540
  17   2.0000      -0.619174       -16.8486
  18   2.0000      -0.601040       -16.3551
  19   2.0000      -0.581517       -15.8239
  20   2.0000      -0.579176       -15.7602
  21   2.0000      -0.563042       -15.3212
  22   2.0000      -0.538551       -14.6547
  23   2.0000      -0.533859       -14.5270
  24   2.0000      -0.527745       -14.3607
  25   2.0000      -0.494009       -13.4427
  26   2.0000      -0.487135       -13.2556
  27   2.0000      -0.465157       -12.6576
  28   2.0000      -0.459170       -12.4947
  29   2.0000      -0.358684        -9.7603
  30   2.0000      -0.357901        -9.7390
  31   0.0000       0.126660         3.4466
  32   0.0000       0.146437         3.9848
  33   0.0000       0.173911         4.7323
  34   0.0000       0.175421         4.7734
  35   0.0000       0.181050         4.9266

MULLIKEN ATOMIC CHARGES
-----------------------
   0 C :   -0.430469
   1 C :   -0.176248
   2 C :   -0.034739
   3 C :   -0.419839
   4 C :   -0.419838
   5 C :   -0.054070
   6 C :    0.107624
   7 C :   -0.497255
   8 H :    0.139308
   9 H :    0.131092
  10 H :    0.131093
  11 H :    0.116600
  12 H :    0.116603
  13 H :    0.133439
  14 H :    0.136585
  15 H :    0.133123
  16 H :    0.133125
  17 H :    0.136583
  18 H :    0.133439
  19 H :    0.161279
  20 H :    0.161284
  21 H :    0.161280
Sum of atomic charges:   -0.0000000

LOEWDIN ATOMIC CHARGES
----------------------
   0 C :   -0.317680
   1 C :   -0.239294
   2 C :   -0.314451
   3 C :   -0.254374
   4 C :   -0.254374
   5 C :   -0.047284
   6 C :   -0.103004
   7 C :   -0.298414
   8 H :    0.123799
   9 H :    0.120191
  10 H :    0.120191
  11 H :    0.142921
  12 H :    0.142922
  13 H :    0.123021
  14 H :    0.128815
  15 H :    0.128376
  16 H :    0.128376
  17 H :    0.128815
  18 H :    0.123021
  19 H :    0.139491
  20 H :    0.139443
  21 H :    0.139491

  Mayer bond orders larger than 0.1
B(  0-C ,  1-C ) :   0.8974 B(  0-C ,  8-H ) :   0.9405 B(  0-C ,  9-H ) :   0.9404
B(  0-C , 10-H ) :   0.9404 B(  1-C ,  2-C ) :   0.9385 B(  1-C , 11-H ) :   0.9306
B(  1-C , 12-H ) :   0.9306 B(  2-C ,  3-C ) :   0.9027 B(  2-C ,  4-C ) :   0.9027
B(  2-C ,  5-C ) :   1.1649 B(  2-C ,  6-C ) :  -0.1735 B(  3-C , 13-H ) :   0.9367
B(  3-C , 14-H ) :   0.9342 B(  3-C , 15-H ) :   0.9344 B(  4-C , 16-H ) :   0.9345
B(  4-C , 17-H ) :   0.9342 B(  4-C , 18-H ) :   0.9367 B(  5-C ,  6-C ) :   2.6162
B(  6-C ,  7-C ) :   0.8103 B(  7-C , 19-H ) :   0.9524 B(  7-C , 20-H ) :   0.9527
B(  7-C , 21-H ) :   0.9524

MP2 TOTAL ENERGY:     -312.474900150 Eh
FINAL SINGLE POINT ENERGY      -312.474900150492

DIPOLE MOMENT
-------------
                                X             Y             Z
Electronic contribution:     -0.38185      -4.80237      -0.01837
Nuclear contribution   :      0.41905       4.73916       0.01520
                        -----------------------------------------
Total Dipole Moment    :      0.03720      -0.06321      -0.00316
                        -----------------------------------------
Magnitude (a.u.)       :      0.07341
Magnitude (Debye)      :      0.18659

                             ****ORCA TERMINATED NORMALLY****
TOTAL RUN TIME: 0 days 0 hours 13 minutes 34 seconds 222 msec
