                         Program Version 3.0.3 - RELEASE   -
|  1> ! RI-MP2 RIJK def2-TZVP def2-TZVP/C def2-TZVP/JK TIGHTSCF
|  2> % maxcore 2000
|  3> % mp2 density relaxed end
|  4> *xyz 0 1
|  5>  O       -0.4293455415     1.4630161001     0.1151739050
|  6>  C       -0.2267372087     0.1009723301    -0.0953457483
|  7>  C       -1.4785609618    -0.7145062903     0.1619453713
|  8>  O       -2.4940875979    -0.1329976141     0.5116101883
|  9>  C       -1.4152294719    -2.2053267496    -0.0247195683
| 10>  C       -2.0150038063    -2.9953376351     1.1901757371
| 11>  C       -3.3483612593    -3.1828008153     0.4041457507
| 12>  O       -4.3929876282    -2.3341568142     0.7920239554
| 13>  C       -2.5970468667    -2.7589514340    -0.8945903908
| 14>  H       -1.3578531434     1.5453748625     0.3843372849
| 15>  H        0.0999083139    -0.1065177974    -1.1294407247
| 16>  H        0.5704784637    -0.2972495088     0.5565941313
| 17>  H       -0.4125256511    -2.5038383342    -0.3385212852
| 18>  H       -1.4781564249    -3.9321137669     1.3567907410
| 19>  H       -2.1021075952    -2.4540508080     2.1346619564
| 20>  H       -3.7598632124    -4.1948443224     0.4042728741
| 21>  H       -4.0417507738    -1.4299405400     0.7965922072
| 22>  H       -3.1237622090    -2.0391257017    -1.5247132522
| 23>  H       -2.2765795456    -3.6078439207    -1.5030284533
| 24> *
| 25>
| 26>                          ****END OF INPUT****

CARTESIAN COORDINATES (ANGSTROEM)
---------------------------------
  O     -0.429346    1.463016    0.115174
  C     -0.226737    0.100972   -0.095346
  C     -1.478561   -0.714506    0.161945
  O     -2.494088   -0.132998    0.511610
  C     -1.415229   -2.205327   -0.024720
  C     -2.015004   -2.995338    1.190176
  C     -3.348361   -3.182801    0.404146
  O     -4.392988   -2.334157    0.792024
  C     -2.597047   -2.758951   -0.894590
  H     -1.357853    1.545375    0.384337
  H      0.099908   -0.106518   -1.129441
  H      0.570478   -0.297250    0.556594
  H     -0.412526   -2.503838   -0.338521
  H     -1.478156   -3.932114    1.356791
  H     -2.102108   -2.454051    2.134662
  H     -3.759863   -4.194844    0.404273
  H     -4.041751   -1.429941    0.796592
  H     -3.123762   -2.039126   -1.524713
  H     -2.276580   -3.607844   -1.503028

 Total Charge           Charge          ....    0
 Multiplicity           Mult            ....    1
 Number of Electrons    NEL             ....   70
 Basis Dimension        Dim             ....  339

ORBITAL ENERGIES
----------------

  NO   OCC          E(Eh)            E(eV)
   0   2.0000     -20.575213      -559.8800
   1   2.0000     -20.564038      -559.5759
   2   2.0000     -20.545128      -559.0614
   3   2.0000     -11.356280      -309.0201
   4   2.0000     -11.303080      -307.5724
   5   2.0000     -11.287599      -307.1512
   6   2.0000     -11.261402      -306.4383
   7   2.0000     -11.243927      -305.9628
   8   2.0000     -11.243913      -305.9624
   9   2.0000      -1.426858       -38.8268
  10   2.0000      -1.370731       -37.2995
  11   2.0000      -1.358399       -36.9639
  12   2.0000      -1.140669       -31.0392
  13   2.0000      -1.014912       -27.6172
  14   2.0000      -0.924968       -25.1697
  15   2.0000      -0.918320       -24.9888
  16   2.0000      -0.813799       -22.1446
  17   2.0000      -0.755363       -20.5545
  18   2.0000      -0.730707       -19.8835
  19   2.0000      -0.692621       -18.8472
  20   2.0000      -0.677736       -18.4421
  21   2.0000      -0.664225       -18.0745
  22   2.0000      -0.638265       -17.3681
  23   2.0000      -0.611509       -16.6400
  24   2.0000      -0.590926       -16.0799
  25   2.0000      -0.580115       -15.7857
  26   2.0000      -0.577302       -15.7092
  27   2.0000      -0.552164       -15.0251
  28   2.0000      -0.528049       -14.3689
  29   2.0000      -0.525346       -14.2954
  30   2.0000      -0.475035       -12.9264
  31   2.0000      -0.461597       -12.5607
  32   2.0000      -0.455525       -12.3955
  33   2.0000      -0.434984       -11.8365
  34   2.0000      -0.418468       -11.3871
  35   0.0000       0.112848         3.0707
  36   0.0000       0.119900         3.2626
  37   0.0000       0.146137         3.9766
  38   0.0000       0.161747         4.4013
  39   0.0000       0.170765         4.6468

MULLIKEN ATOMIC CHARGES
-----------------------
   0 O :   -0.479042
   1 C :   -0.023428
   2 C :    0.173535
   3 O :   -0.397356
   4 C :   -0.059074
   5 C :   -0.240426
   6 C :    0.047065
   7 O :   -0.466384
   8 C :   -0.240404
   9 H :    0.338243
  10 H :    0.125252
  11 H :    0.125213
  12 H :    0.127415
  13 H :    0.128029
  14 H :    0.132563
  15 H :    0.113503
  16 H :    0.334703
  17 H :    0.132558
  18 H :    0.128034
Sum of atomic charges:   -0.0000000

LOEWDIN ATOMIC CHARGES
----------------------
   0 O :   -0.028547
   1 C :   -0.336418
   2 C :   -0.304656
   3 O :    0.123960
   4 C :   -0.200767
   5 C :   -0.191011
   6 C :   -0.330322
   7 O :   -0.009851
   8 C :   -0.191000
   9 H :    0.183062
  10 H :    0.140676
  11 H :    0.140676
  12 H :    0.149709
  13 H :    0.138766
  14 H :    0.135979
  15 H :    0.131947
  16 H :    0.173054
  17 H :    0.135979
  18 H :    0.138766

  Mayer bond orders larger than 0.1
B(  0-O ,  1-C ) :   1.0228 B(  0-O ,  9-H ) :   0.8063 B(  1-C ,  2-C ) :   0.9680
B(  1-C , 10-H ) :   0.9021 B(  1-C , 11-H ) :   0.9020 B(  2-C ,  3-O ) :   1.7554
B(  2-C ,  4-C ) :   0.8995 B(  4-C ,  5-C ) :   0.8632 B(  4-C ,  8-C ) :   0.8632
B(  4-C , 12-H ) :   0.9110 B(  5-C ,  6-C ) :   0.9115 B(  5-C , 13-H ) :   0.9122
B(  5-C , 14-H ) :   0.9218 B(  6-C ,  7-O ) :   0.9918 B(  6-C ,  8-C ) :   0.9114
B(  6-C , 15-H ) :   0.9484 B(  7-O , 16-H ) :   0.8087 B(  8-C , 17-H ) :   0.9218
B(  8-C , 18-H ) :   0.9122

MP2 TOTAL ENERGY:     -459.431528015 Eh
FINAL SINGLE POINT ENERGY      -459.431528015393

DIPOLE MOMENT
-------------
                                X             Y             Z
Electronic contribution:     -1.62710       4.15895       0.92559
Nuclear contribution   :      2.53870      -5.07985      -1.28411
                        -----------------------------------------
Total Dipole Moment    :      0.91160      -0.92090      -0.35853
                        -----------------------------------------
Magnitude (a.u.)       :      1.34448
Magnitude (Debye)      :      3.41739

                             ****ORCA TERMINATED NORMALLY****
TOTAL RUN TIME: 0 days 0 hours 17 minutes 22 seconds 848 msec
