                         Program Version 3.0.3 - RELEASE   -
|  1> ! RI-MP2 RIJK def2-TZVP def2-TZVP/C def2-TZVP/JK TIGHTSCF
|  2> % maxcore 2000
|  3> % mp2 density relaxed end
|  4> *xyz 0 1
|  5>  C       -0.2423541416     1.4543602301    -0.0188770799
|  6>  N        0.0113847239     0.0180458625     0.0029476012
|  7>  C        1.2200959245    -0.4698499691    -0.7912489871
|  8>  C        2.1502429512    -0.0357539414     0.3812835116
|  9>  C        0.8750347030    -0.5070910165     1.1733928833
| 10>  C        0.8600388866    -2.0030237985     0.7977488722
| 11>  C        1.0915273435    -1.9721813699    -0.5146331054
| 12>  C        0.5785394573    -0.0936846104     2.5180332085
| 13>  C        0.3371809411     0.2706833338     3.6384383338
| 14>  H        0.6340784229     2.1141817473     0.0873990829
| 15>  H       -0.7336191221     1.6972428205    -0.9671417605
| 16>  H       -0.9399621325     1.6928307492     0.7896823124
| 17>  H        1.3361444219    -0.1142487849    -1.8140643073
| 18>  H        3.0754105234    -0.5921093558     0.5444846752
| 19>  H        2.3287512838     1.0387184114     0.4457512056
| 20>  H        0.6703806540    -2.8180733603     1.4792744438
| 21>  H        1.1510630060    -2.7732847759    -1.2361266165
| 22>  H        0.1227145429     0.5868806578     4.6292929862
| 23> *
| 24>
| 25>                          ****END OF INPUT****

CARTESIAN COORDINATES (ANGSTROEM)
---------------------------------
  C     -0.242354    1.454360   -0.018877
  N      0.011385    0.018046    0.002948
  C      1.220096   -0.469850   -0.791249
  C      2.150243   -0.035754    0.381284
  C      0.875035   -0.507091    1.173393
  C      0.860039   -2.003024    0.797749
  C      1.091527   -1.972181   -0.514633
  C      0.578539   -0.093685    2.518033
  C      0.337181    0.270683    3.638438
  H      0.634078    2.114182    0.087399
  H     -0.733619    1.697243   -0.967142
  H     -0.939962    1.692831    0.789682
  H      1.336144   -0.114249   -1.814064
  H      3.075411   -0.592109    0.544485
  H      2.328751    1.038718    0.445751
  H      0.670381   -2.818073    1.479274
  H      1.151063   -2.773285   -1.236127
  H      0.122715    0.586881    4.629293

 Total Charge           Charge          ....    0
 Multiplicity           Mult            ....    1
 Number of Electrons    NEL             ....   64
 Basis Dimension        Dim             ....  333

ORBITAL ENERGIES
----------------

  NO   OCC          E(Eh)            E(eV)
   0   2.0000     -15.555811      -423.2951
   1   2.0000     -11.296081      -307.3820
   2   2.0000     -11.272549      -306.7416
   3   2.0000     -11.238619      -305.8184
   4   2.0000     -11.238364      -305.8114
   5   2.0000     -11.237829      -305.7969
   6   2.0000     -11.233187      -305.6706
   7   2.0000     -11.231111      -305.6141
   8   2.0000     -11.230434      -305.5956
   9   2.0000      -1.274038       -34.6683
  10   2.0000      -1.081504       -29.4292
  11   2.0000      -1.046795       -28.4848
  12   2.0000      -0.970380       -26.4054
  13   2.0000      -0.939553       -25.5665
  14   2.0000      -0.892710       -24.2919
  15   2.0000      -0.789483       -21.4829
  16   2.0000      -0.741617       -20.1804
  17   2.0000      -0.721863       -19.6429
  18   2.0000      -0.699759       -19.0414
  19   2.0000      -0.648450       -17.6452
  20   2.0000      -0.594947       -16.1893
  21   2.0000      -0.589366       -16.0375
  22   2.0000      -0.578229       -15.7344
  23   2.0000      -0.543690       -14.7945
  24   2.0000      -0.523692       -14.2504
  25   2.0000      -0.505227       -13.7479
  26   2.0000      -0.499105       -13.5813
  27   2.0000      -0.463449       -12.6111
  28   2.0000      -0.397645       -10.8205
  29   2.0000      -0.385830       -10.4990
  30   2.0000      -0.359648        -9.7865
  31   2.0000      -0.346354        -9.4248
  32   0.0000       0.137560         3.7432
  33   0.0000       0.146151         3.9770
  34   0.0000       0.156985         4.2718
  35   0.0000       0.159680         4.3451
  36   0.0000       0.168728         4.5913

MULLIKEN ATOMIC CHARGES
-----------------------
   0 C :   -0.333302
   1 N :   -0.178212
   2 C :   -0.026432
   3 C :   -0.199359
   4 C :    0.014959
   5 C :   -0.219577
   6 C :   -0.193495
   7 C :    0.012643
   8 C :   -0.123213
   9 H :    0.096339
  10 H :    0.141706
  11 H :    0.148400
  12 H :    0.138699
  13 H :    0.118467
  14 H :    0.127325
  15 H :    0.142349
  16 H :    0.139416
  17 H :    0.193285
Sum of atomic charges:   -0.0000000

LOEWDIN ATOMIC CHARGES
----------------------
   0 C :   -0.339014
   1 N :    0.130928
   2 C :   -0.199852
   3 C :   -0.155016
   4 C :   -0.226143
   5 C :   -0.089696
   6 C :   -0.122050
   7 C :   -0.065281
   8 C :   -0.076108
   9 H :    0.101000
  10 H :    0.120042
  11 H :    0.124095
  12 H :    0.132737
  13 H :    0.130417
  14 H :    0.131263
  15 H :    0.139053
  16 H :    0.135221
  17 H :    0.128405

  Mayer bond orders larger than 0.1
B(  0-C ,  1-N ) :   0.9018 B(  0-C ,  9-H ) :   0.9136 B(  0-C , 10-H ) :   0.9367
B(  0-C , 11-H ) :   0.9354 B(  1-N ,  2-C ) :   0.8805 B(  1-N ,  4-C ) :   0.8727
B(  2-C ,  3-C ) :   0.9491 B(  2-C ,  6-C ) :   0.9390 B(  2-C , 12-H ) :   0.9025
B(  3-C ,  4-C ) :   0.9060 B(  3-C , 13-H ) :   0.9079 B(  3-C , 14-H ) :   0.9187
B(  4-C ,  5-C ) :   0.8953 B(  4-C ,  7-C ) :   1.1732 B(  4-C ,  8-C ) :  -0.1468
B(  5-C ,  6-C ) :   1.7635 B(  5-C , 15-H ) :   0.9336 B(  6-C , 16-H ) :   0.9285
B(  7-C ,  8-C ) :   2.6202 B(  8-C , 17-H ) :   0.8671

MP2 TOTAL ENERGY:     -364.043405129 Eh
FINAL SINGLE POINT ENERGY      -364.043405128984

DIPOLE MOMENT
-------------
                                X             Y             Z
Electronic contribution:     -0.33036      -3.33617       2.62078
Nuclear contribution   :      0.76398       3.56181      -2.68998
                        -----------------------------------------
Total Dipole Moment    :      0.43362       0.22565      -0.06920
                        -----------------------------------------
Magnitude (a.u.)       :      0.49369
Magnitude (Debye)      :      1.25487

                             ****ORCA TERMINATED NORMALLY****
TOTAL RUN TIME: 0 days 0 hours 19 minutes 31 seconds 827 msec
