                         Program Version 3.0.3 - RELEASE   -
|  1> ! RI-MP2 RIJK def2-TZVP def2-TZVP/C def2-TZVP/JK TIGHTSCF
|  2> % maxcore 2000
|  3> % mp2 density relaxed end
|  4> *xyz 0 1
|  5>  C        0.0326084126     1.5604448388     0.0284891271
|  6>  C        0.0089179329     0.0336947303    -0.0145842029
|  7>  C        0.6520275179    -0.5167528465    -1.3014110981
|  8>  C        0.6622692535    -2.0572781354    -1.3129633943
|  9>  O        1.3689189129    -2.5665921145    -2.4090197127
| 10>  C        1.2436287597    -2.5766558341    -0.0029463195
| 11>  O        2.1480198928    -3.3858791569    -0.0135996231
| 12>  C        0.6530759619    -1.9644462566     1.2576763292
| 13>  N        0.6419243046    -0.4984440741     1.2027028427
| 14>  H        1.0632090591     1.9346234680     0.0036160640
| 15>  H       -0.4930953329     1.9831878043    -0.8324291101
| 16>  H       -0.4398947354     1.9256709909     0.9436634196
| 17>  H       -1.0398063525    -0.2985117884     0.0184499816
| 18>  H        0.1299533423    -0.1554434235    -2.1945514853
| 19>  H        1.6902650756    -0.1664691382    -1.3732165376
| 20>  H       -0.3884177837    -2.4042367664    -1.3403888881
| 21>  H        2.0095177852    -3.1898178410    -2.0291196462
| 22>  H       -0.3822469111    -2.3149749922     1.3733933886
| 23>  H        1.2216062777    -2.3063765081     2.1258157912
| 24>  H        1.5981883867    -0.1555499765     1.2569339938
| 25> *
| 26>
| 27>                          ****END OF INPUT****

CARTESIAN COORDINATES (ANGSTROEM)
---------------------------------
  C      0.032608    1.560445    0.028489
  C      0.008918    0.033695   -0.014584
  C      0.652028   -0.516753   -1.301411
  C      0.662269   -2.057278   -1.312963
  O      1.368919   -2.566592   -2.409020
  C      1.243629   -2.576656   -0.002946
  O      2.148020   -3.385879   -0.013600
  C      0.653076   -1.964446    1.257676
  N      0.641924   -0.498444    1.202703
  H      1.063209    1.934623    0.003616
  H     -0.493095    1.983188   -0.832429
  H     -0.439895    1.925671    0.943663
  H     -1.039806   -0.298512    0.018450
  H      0.129953   -0.155443   -2.194551
  H      1.690265   -0.166469   -1.373217
  H     -0.388418   -2.404237   -1.340389
  H      2.009518   -3.189818   -2.029120
  H     -0.382247   -2.314975    1.373393
  H      1.221606   -2.306377    2.125816
  H      1.598188   -0.155550    1.256934

 Total Charge           Charge          ....    0
 Multiplicity           Mult            ....    1
 Number of Electrons    NEL             ....   70
 Basis Dimension        Dim             ....  345

ORBITAL ENERGIES
----------------

  NO   OCC          E(Eh)            E(eV)
   0   2.0000     -20.566929      -559.6546
   1   2.0000     -20.555810      -559.3520
   2   2.0000     -15.565363      -423.5551
   3   2.0000     -11.339093      -308.5524
   4   2.0000     -11.296840      -307.4026
   5   2.0000     -11.276187      -306.8407
   6   2.0000     -11.273096      -306.7565
   7   2.0000     -11.236779      -305.7683
   8   2.0000     -11.226528      -305.4893
   9   2.0000      -1.415874       -38.5279
  10   2.0000      -1.361710       -37.0540
  11   2.0000      -1.236834       -33.6560
  12   2.0000      -1.063463       -28.9383
  13   2.0000      -1.034380       -28.1469
  14   2.0000      -0.943648       -25.6780
  15   2.0000      -0.879975       -23.9453
  16   2.0000      -0.823443       -22.4070
  17   2.0000      -0.770587       -20.9688
  18   2.0000      -0.714166       -19.4334
  19   2.0000      -0.671923       -18.2839
  20   2.0000      -0.665981       -18.1223
  21   2.0000      -0.645113       -17.5544
  22   2.0000      -0.633875       -17.2486
  23   2.0000      -0.611276       -16.6337
  24   2.0000      -0.585251       -15.9255
  25   2.0000      -0.563497       -15.3335
  26   2.0000      -0.546372       -14.8676
  27   2.0000      -0.541942       -14.7470
  28   2.0000      -0.525951       -14.3118
  29   2.0000      -0.516761       -14.0618
  30   2.0000      -0.503663       -13.7054
  31   2.0000      -0.494517       -13.4565
  32   2.0000      -0.452336       -12.3087
  33   2.0000      -0.441951       -12.0261
  34   2.0000      -0.377679       -10.2772
  35   0.0000       0.111240         3.0270
  36   0.0000       0.135565         3.6889
  37   0.0000       0.153399         4.1742
  38   0.0000       0.156843         4.2679
  39   0.0000       0.172803         4.7022

MULLIKEN ATOMIC CHARGES
-----------------------
   0 C :   -0.377589
   1 C :   -0.069658
   2 C :   -0.196861
   3 C :    0.109484
   4 O :   -0.472201
   5 C :    0.122024
   6 O :   -0.309819
   7 C :   -0.154094
   8 N :   -0.307734
   9 H :    0.122323
  10 H :    0.133354
  11 H :    0.148490
  12 H :    0.097724
  13 H :    0.129692
  14 H :    0.107184
  15 H :    0.095789
  16 H :    0.334464
  17 H :    0.131674
  18 H :    0.153016
  19 H :    0.202737
Sum of atomic charges:    0.0000000

LOEWDIN ATOMIC CHARGES
----------------------
   0 C :   -0.291790
   1 C :   -0.328840
   2 C :   -0.222849
   3 C :   -0.338800
   4 O :   -0.004759
   5 C :   -0.311339
   6 O :    0.140284
   7 C :   -0.269164
   8 N :    0.008466
   9 H :    0.123747
  10 H :    0.127300
  11 H :    0.127927
  12 H :    0.149476
  13 H :    0.144791
  14 H :    0.143981
  15 H :    0.152504
  16 H :    0.183636
  17 H :    0.146801
  18 H :    0.144354
  19 H :    0.174276

  Mayer bond orders larger than 0.1
B(  0-C ,  1-C ) :   0.9260 B(  0-C ,  9-H ) :   0.9253 B(  0-C , 10-H ) :   0.9394
B(  0-C , 11-H ) :   0.9402 B(  1-C ,  2-C ) :   0.9085 B(  1-C ,  8-N ) :   0.9436
B(  1-C , 12-H ) :   0.9250 B(  2-C ,  3-C ) :   0.8526 B(  2-C ,  4-O ) :  -0.1175
B(  2-C , 13-H ) :   0.9183 B(  2-C , 14-H ) :   0.9055 B(  3-C ,  4-O ) :   1.1244
B(  3-C ,  5-C ) :   0.9151 B(  3-C , 15-H ) :   0.9210 B(  4-O , 16-H ) :   0.8029
B(  5-C ,  6-O ) :   1.9148 B(  5-C ,  7-C ) :   0.8999 B(  7-C ,  8-N ) :   0.9512
B(  7-C , 17-H ) :   0.9187 B(  7-C , 18-H ) :   0.9241 B(  8-N , 19-H ) :   0.8757

MP2 TOTAL ENERGY:     -439.595426330 Eh
FINAL SINGLE POINT ENERGY      -439.595426329592

DIPOLE MOMENT
-------------
                                X             Y             Z
Electronic contribution:      3.57441      -8.36933      -0.87433
Nuclear contribution   :     -4.04800       9.00695       1.26779
                        -----------------------------------------
Total Dipole Moment    :     -0.47359       0.63762       0.39345
                        -----------------------------------------
Magnitude (a.u.)       :      0.88637
Magnitude (Debye)      :      2.25297

                             ****ORCA TERMINATED NORMALLY****
TOTAL RUN TIME: 0 days 0 hours 20 minutes 14 seconds 83 msec
