                         Program Version 3.0.3 - RELEASE   -
|  1> ! RI-MP2 RIJK def2-TZVP def2-TZVP/C def2-TZVP/JK TIGHTSCF
|  2> % maxcore 2000
|  3> % mp2 density relaxed end
|  4> *xyz 0 1
|  5>  C       -0.0866409307     1.5528132599    -0.0352695631
|  6>  C        0.0129117349     0.0395032632     0.0811880168
|  7>  C       -1.2263375325    -0.6515392319    -0.4661811667
|  8>  N        1.2365720365    -0.7166346449    -0.2974055109
|  9>  C        2.4198659633     0.1184853059     0.0955851224
| 10>  C        2.0220835902     0.0554877246     1.5946581909
| 11>  O        1.8315304165     1.2299382985     2.3594309091
| 12>  C        0.7492950250    -0.6699562559     1.1674161192
| 13>  C        0.2404071285    -1.8480943131     1.9519017305
| 14>  H        0.6720494038     2.0856371267     0.5337671525
| 15>  H       -0.0296533432     1.8527601219    -1.0889074927
| 16>  H       -1.0622915215     1.8763109406     0.3426357497
| 17>  H       -1.4655478889    -0.2439334413    -1.4542650823
| 18>  H       -1.0691051996    -1.7247691309    -0.5828318324
| 19>  H       -2.0923283855    -0.4844754721     0.1839421528
| 20>  H        3.3459861342    -0.4110656029    -0.1398113625
| 21>  H        2.4497208317     1.1108712164    -0.3618590480
| 22>  H        2.6775997419    -0.6426456387     2.1323181822
| 23>  H        2.6899867618     1.5241246346     2.6802495078
| 24>  H       -0.0640847903    -1.5131583077     2.9509919192
| 25>  H       -0.6204491843    -2.3296754208     1.4856378032
| 26>  H        1.0237527181    -2.6036415220     2.0791107122
| 27> *
| 28>
| 29>                          ****END OF INPUT****

CARTESIAN COORDINATES (ANGSTROEM)
---------------------------------
  C     -0.086641    1.552813   -0.035270
  C      0.012912    0.039503    0.081188
  C     -1.226338   -0.651539   -0.466181
  N      1.236572   -0.716635   -0.297406
  C      2.419866    0.118485    0.095585
  C      2.022084    0.055488    1.594658
  O      1.831530    1.229938    2.359431
  C      0.749295   -0.669956    1.167416
  C      0.240407   -1.848094    1.951902
  H      0.672049    2.085637    0.533767
  H     -0.029653    1.852760   -1.088907
  H     -1.062292    1.876311    0.342636
  H     -1.465548   -0.243933   -1.454265
  H     -1.069105   -1.724769   -0.582832
  H     -2.092328   -0.484475    0.183942
  H      3.345986   -0.411066   -0.139811
  H      2.449721    1.110871   -0.361859
  H      2.677600   -0.642646    2.132318
  H      2.689987    1.524125    2.680250
  H     -0.064085   -1.513158    2.950992
  H     -0.620449   -2.329675    1.485638
  H      1.023753   -2.603642    2.079111

 Total Charge           Charge          ....    0
 Multiplicity           Mult            ....    1
 Number of Electrons    NEL             ....   70
 Basis Dimension        Dim             ....  357

ORBITAL ENERGIES
----------------

  NO   OCC          E(Eh)            E(eV)
   0   2.0000     -20.563780      -559.5689
   1   2.0000     -15.550243      -423.1436
   2   2.0000     -11.286572      -307.1232
   3   2.0000     -11.262970      -306.4810
   4   2.0000     -11.258718      -306.3653
   5   2.0000     -11.247108      -306.0494
   6   2.0000     -11.218170      -305.2619
   7   2.0000     -11.210700      -305.0587
   8   2.0000     -11.209070      -305.0143
   9   2.0000      -1.371572       -37.3224
  10   2.0000      -1.276952       -34.7476
  11   2.0000      -1.042814       -28.3764
  12   2.0000      -1.002611       -27.2824
  13   2.0000      -0.957399       -26.0522
  14   2.0000      -0.923387       -25.1267
  15   2.0000      -0.880408       -23.9571
  16   2.0000      -0.749581       -20.3971
  17   2.0000      -0.717521       -19.5247
  18   2.0000      -0.706554       -19.2263
  19   2.0000      -0.646972       -17.6050
  20   2.0000      -0.639259       -17.3951
  21   2.0000      -0.605975       -16.4894
  22   2.0000      -0.584465       -15.9041
  23   2.0000      -0.570321       -15.5192
  24   2.0000      -0.557823       -15.1791
  25   2.0000      -0.549688       -14.9578
  26   2.0000      -0.534338       -14.5401
  27   2.0000      -0.530332       -14.4311
  28   2.0000      -0.526144       -14.3171
  29   2.0000      -0.514910       -14.0114
  30   2.0000      -0.470513       -12.8033
  31   2.0000      -0.438981       -11.9453
  32   2.0000      -0.424011       -11.5379
  33   2.0000      -0.402740       -10.9591
  34   2.0000      -0.358479        -9.7547
  35   0.0000       0.128676         3.5014
  36   0.0000       0.145810         3.9677
  37   0.0000       0.159561         4.3419
  38   0.0000       0.176255         4.7961
  39   0.0000       0.195407         5.3173

MULLIKEN ATOMIC CHARGES
-----------------------
   0 C :   -0.390859
   1 C :    0.166748
   2 C :   -0.471536
   3 N :   -0.273657
   4 C :   -0.161324
   5 C :    0.001366
   6 O :   -0.455910
   7 C :    0.109252
   8 C :   -0.412703
   9 H :    0.160271
  10 H :    0.129131
  11 H :    0.131686
  12 H :    0.132505
  13 H :    0.144608
  14 H :    0.134867
  15 H :    0.122398
  16 H :    0.114073
  17 H :    0.089434
  18 H :    0.317743
  19 H :    0.144057
  20 H :    0.138893
  21 H :    0.128958
Sum of atomic charges:    0.0000000

LOEWDIN ATOMIC CHARGES
----------------------
   0 C :   -0.271050
   1 C :   -0.297530
   2 C :   -0.264833
   3 N :    0.142534
   4 C :   -0.239795
   5 C :   -0.303784
   6 O :   -0.018730
   7 C :   -0.209239
   8 C :   -0.269831
   9 H :    0.129330
  10 H :    0.127648
  11 H :    0.133518
  12 H :    0.130057
  13 H :    0.129279
  14 H :    0.126500
  15 H :    0.125385
  16 H :    0.124673
  17 H :    0.137309
  18 H :    0.174372
  19 H :    0.136100
  20 H :    0.129746
  21 H :    0.128341

  Mayer bond orders larger than 0.1
B(  0-C ,  1-C ) :   0.8517 B(  0-C ,  9-H ) :   0.9369 B(  0-C , 10-H ) :   0.9338
B(  0-C , 11-H ) :   0.9279 B(  1-C ,  2-C ) :   0.8578 B(  1-C ,  3-N ) :   0.9341
B(  1-C ,  7-C ) :   0.9398 B(  2-C , 12-H ) :   0.9331 B(  2-C , 13-H ) :   0.9461
B(  2-C , 14-H ) :   0.9412 B(  3-N ,  4-C ) :   0.9519 B(  3-N ,  7-C ) :   0.8006
B(  4-C ,  5-C ) :   0.9720 B(  4-C , 15-H ) :   0.9139 B(  4-C , 16-H ) :   0.9275
B(  5-C ,  6-O ) :   1.1156 B(  5-C ,  7-C ) :   0.8583 B(  5-C , 17-H ) :   0.9445
B(  6-O ,  7-C ) :  -0.1067 B(  6-O , 18-H ) :   0.8427 B(  7-C ,  8-C ) :   0.8597
B(  8-C , 19-H ) :   0.9369 B(  8-C , 20-H ) :   0.9447 B(  8-C , 21-H ) :   0.9332

MP2 TOTAL ENERGY:     -403.625561786 Eh
FINAL SINGLE POINT ENERGY      -403.625561785675

DIPOLE MOMENT
-------------
                                X             Y             Z
Electronic contribution:      4.22885       0.78231       1.34066
Nuclear contribution   :     -3.77943      -0.55784      -0.88520
                        -----------------------------------------
Total Dipole Moment    :      0.44942       0.22447       0.45546
                        -----------------------------------------
Magnitude (a.u.)       :      0.67809
Magnitude (Debye)      :      1.72357

                             ****ORCA TERMINATED NORMALLY****
TOTAL RUN TIME: 0 days 0 hours 21 minutes 53 seconds 89 msec
