                         Program Version 3.0.3 - RELEASE   -
|  1> ! RI-MP2 RIJK def2-TZVP def2-TZVP/C def2-TZVP/JK TIGHTSCF
|  2> % maxcore 2000
|  3> % mp2 density relaxed end
|  4> *xyz 0 1
|  5>  C       -0.0284290403     1.5200927840     0.0045641385
|  6>  C        0.0035630084     0.0137516934     0.0070547286
|  7>  C        0.6691290012    -0.7514954645    -1.0733745790
|  8>  N        1.2996901859    -0.6512398726     0.2698445212
|  9>  C        1.0118679238    -1.8305576541     1.0577052940
| 10>  O        1.8310879760    -2.6297534614     1.4286758133
| 11>  N       -0.3408122789    -1.8680608443     1.2992283136
| 12>  C       -1.0763478667    -0.7255822027     0.8059154926
| 13>  H        0.8371138805     1.9229260830    -0.5265669447
| 14>  H       -0.9358437486     1.8871997884    -0.4881547631
| 15>  H       -0.0139271364     1.9126895434     1.0267645465
| 16>  H        0.2626262795    -1.7170787448    -1.3637162786
| 17>  H        1.2025528262    -0.2221042055    -1.8570325437
| 18>  H       -0.7324757372    -2.5851218585     1.8864804754
| 19>  H       -1.4458670416    -0.0870423513     1.6203408926
| 20>  H       -1.9367021319    -1.0157982725     0.1899045128
| 21> *
| 22>
| 23>                          ****END OF INPUT****

CARTESIAN COORDINATES (ANGSTROEM)
---------------------------------
  C     -0.028429    1.520093    0.004564
  C      0.003563    0.013752    0.007055
  C      0.669129   -0.751495   -1.073375
  N      1.299690   -0.651240    0.269845
  C      1.011868   -1.830558    1.057705
  O      1.831088   -2.629753    1.428676
  N     -0.340812   -1.868061    1.299228
  C     -1.076348   -0.725582    0.805915
  H      0.837114    1.922926   -0.526567
  H     -0.935844    1.887200   -0.488155
  H     -0.013927    1.912690    1.026765
  H      0.262626   -1.717079   -1.363716
  H      1.202553   -0.222104   -1.857033
  H     -0.732476   -2.585122    1.886480
  H     -1.445867   -0.087042    1.620341
  H     -1.936702   -1.015798    0.189905

 Total Charge           Charge          ....    0
 Multiplicity           Mult            ....    1
 Number of Electrons    NEL             ....   60
 Basis Dimension        Dim             ....  296

ORBITAL ENERGIES
----------------

  NO   OCC          E(Eh)            E(eV)
   0   2.0000     -20.518473      -558.3360
   1   2.0000     -15.588346      -424.1805
   2   2.0000     -15.580559      -423.9686
   3   2.0000     -11.372214      -309.4537
   4   2.0000     -11.290431      -307.2283
   5   2.0000     -11.289018      -307.1898
   6   2.0000     -11.278971      -306.9164
   7   2.0000     -11.237377      -305.7846
   8   2.0000      -1.401056       -38.1247
   9   2.0000      -1.313628       -35.7456
  10   2.0000      -1.216310       -33.0975
  11   2.0000      -1.041911       -28.3519
  12   2.0000      -0.954489       -25.9730
  13   2.0000      -0.928724       -25.2719
  14   2.0000      -0.802530       -21.8379
  15   2.0000      -0.795363       -21.6429
  16   2.0000      -0.696322       -18.9479
  17   2.0000      -0.675237       -18.3741
  18   2.0000      -0.652636       -17.7591
  19   2.0000      -0.632481       -17.2107
  20   2.0000      -0.607509       -16.5312
  21   2.0000      -0.586932       -15.9712
  22   2.0000      -0.577023       -15.7016
  23   2.0000      -0.560798       -15.2601
  24   2.0000      -0.519832       -14.1453
  25   2.0000      -0.509627       -13.8677
  26   2.0000      -0.471648       -12.8342
  27   2.0000      -0.426926       -11.6173
  28   2.0000      -0.408018       -11.1027
  29   2.0000      -0.396743       -10.7959
  30   0.0000       0.123616         3.3638
  31   0.0000       0.145005         3.9458
  32   0.0000       0.162577         4.4240
  33   0.0000       0.174787         4.7562
  34   0.0000       0.185456         5.0465

MULLIKEN ATOMIC CHARGES
-----------------------
   0 C :   -0.430925
   1 C :    0.124845
   2 C :   -0.176360
   3 N :   -0.216121
   4 C :    0.254594
   5 O :   -0.309741
   6 N :   -0.350403
   7 C :   -0.085700
   8 H :    0.148219
   9 H :    0.133872
  10 H :    0.137537
  11 H :    0.133678
  12 H :    0.138408
  13 H :    0.246555
  14 H :    0.122022
  15 H :    0.129522
Sum of atomic charges:   -0.0000000

LOEWDIN ATOMIC CHARGES
----------------------
   0 C :   -0.262773
   1 C :   -0.296679
   2 C :   -0.194183
   3 N :    0.167356
   4 C :   -0.508216
   5 O :    0.103596
   6 N :    0.106996
   7 C :   -0.235170
   8 H :    0.135991
   9 H :    0.131084
  10 H :    0.131082
  11 H :    0.134781
  12 H :    0.132541
  13 H :    0.185504
  14 H :    0.134048
  15 H :    0.134041

  Mayer bond orders larger than 0.1
B(  0-C ,  1-C ) :   0.8974 B(  0-C ,  8-H ) :   0.9374 B(  0-C ,  9-H ) :   0.9364
B(  0-C , 10-H ) :   0.9362 B(  1-C ,  2-C ) :   0.9545 B(  1-C ,  3-N ) :   0.8023
B(  1-C ,  7-C ) :   0.9214 B(  2-C ,  3-N ) :   0.8725 B(  2-C , 11-H ) :   0.9038
B(  2-C , 12-H ) :   0.9132 B(  3-N ,  4-C ) :   0.9774 B(  4-C ,  5-O ) :   2.0567
B(  4-C ,  6-N ) :   1.1409 B(  6-N ,  7-C ) :   0.9098 B(  6-N , 13-H ) :   0.8664
B(  7-C , 14-H ) :   0.9271 B(  7-C , 15-H ) :   0.9229

MP2 TOTAL ENERGY:     -379.312086856 Eh
FINAL SINGLE POINT ENERGY      -379.312086856423

DIPOLE MOMENT
-------------
                                X             Y             Z
Electronic contribution:      3.88946      -5.91867       2.72361
Nuclear contribution   :     -5.70974       6.65732      -3.20361
                        -----------------------------------------
Total Dipole Moment    :     -1.82028       0.73865      -0.47999
                        -----------------------------------------
Magnitude (a.u.)       :      2.02223
Magnitude (Debye)      :      5.14010

                             ****ORCA TERMINATED NORMALLY****
TOTAL RUN TIME: 0 days 0 hours 12 minutes 7 seconds 951 msec
