                         Program Version 3.0.3 - RELEASE   -
|  1> ! RI-MP2 RIJK def2-TZVP def2-TZVP/C def2-TZVP/JK TIGHTSCF
|  2> % maxcore 2000
|  3> % mp2 density relaxed end
|  4> *xyz 0 1
|  5>  C       -0.0821817749     1.5873271817    -0.0518796472
|  6>  C        0.0192729841     0.0596365554     0.0182161593
|  7>  C        0.7910660056    -0.5732701406    -1.1714314817
|  8>  C        1.5537248540    -1.7833551276    -0.5810124767
|  9>  C        1.6178022422    -1.4553892337     0.8967067724
| 10>  C        2.4953739370    -2.2314829446     1.8225731873
| 11>  O        2.3299058315    -1.7707483935     3.1517099688
| 12>  C        0.7840212939    -0.4653228306     1.2142592362
| 13>  H        0.9140241820     2.0434841619    -0.0628811186
| 14>  H       -0.6099509961     1.9065417948    -0.9573319282
| 15>  H       -0.6254407866     1.9903707277     0.8095457272
| 16>  H       -1.0069899469    -0.3405580803     0.0484121552
| 17>  H        0.1386550064    -0.8447847503    -2.0059416436
| 18>  H        1.5131659434     0.1588606490    -1.5510210835
| 19>  H        1.0114358883    -2.7269396342    -0.7419984327
| 20>  H        2.5432141807    -1.9210815985    -1.0347696850
| 21>  H        2.2508870931    -3.3062047963     1.7361783643
| 22>  H        3.5454646934    -2.1331806947     1.4917152568
| 23>  H        2.9191347206    -2.2764735349     3.7180834432
| 24>  H        0.6339731782    -0.0922198507     2.2202907767
| 25> *
| 26>
| 27>                          ****END OF INPUT****

CARTESIAN COORDINATES (ANGSTROEM)
---------------------------------
  C     -0.082182    1.587327   -0.051880
  C      0.019273    0.059637    0.018216
  C      0.791066   -0.573270   -1.171431
  C      1.553725   -1.783355   -0.581012
  C      1.617802   -1.455389    0.896707
  C      2.495374   -2.231483    1.822573
  O      2.329906   -1.770748    3.151710
  C      0.784021   -0.465323    1.214259
  H      0.914024    2.043484   -0.062881
  H     -0.609951    1.906542   -0.957332
  H     -0.625441    1.990371    0.809546
  H     -1.006990   -0.340558    0.048412
  H      0.138655   -0.844785   -2.005942
  H      1.513166    0.158861   -1.551021
  H      1.011436   -2.726940   -0.741998
  H      2.543214   -1.921082   -1.034770
  H      2.250887   -3.306205    1.736178
  H      3.545465   -2.133181    1.491715
  H      2.919135   -2.276474    3.718083
  H      0.633973   -0.092220    2.220291

 Total Charge           Charge          ....    0
 Multiplicity           Mult            ....    1
 Number of Electrons    NEL             ....   62
 Basis Dimension        Dim             ....  320

ORBITAL ENERGIES
----------------

  NO   OCC          E(Eh)            E(eV)
   0   2.0000     -20.556419      -559.3686
   1   2.0000     -11.280662      -306.9624
   2   2.0000     -11.221781      -305.3602
   3   2.0000     -11.221179      -305.3438
   4   2.0000     -11.219044      -305.2857
   5   2.0000     -11.214541      -305.1632
   6   2.0000     -11.206993      -304.9578
   7   2.0000     -11.205199      -304.9090
   8   2.0000      -1.361788       -37.0561
   9   2.0000      -1.133005       -30.8306
  10   2.0000      -1.019539       -27.7431
  11   2.0000      -0.969131       -26.3714
  12   2.0000      -0.919601       -25.0236
  13   2.0000      -0.861016       -23.4294
  14   2.0000      -0.769386       -20.9361
  15   2.0000      -0.703688       -19.1483
  16   2.0000      -0.691802       -18.8249
  17   2.0000      -0.645721       -17.5710
  18   2.0000      -0.637238       -17.3401
  19   2.0000      -0.617896       -16.8138
  20   2.0000      -0.571671       -15.5560
  21   2.0000      -0.563436       -15.3319
  22   2.0000      -0.537732       -14.6324
  23   2.0000      -0.510237       -13.8843
  24   2.0000      -0.499504       -13.5922
  25   2.0000      -0.479893       -13.0586
  26   2.0000      -0.476129       -12.9561
  27   2.0000      -0.461592       -12.5606
  28   2.0000      -0.450808       -12.2671
  29   2.0000      -0.450037       -12.2461
  30   2.0000      -0.328129        -8.9289
  31   0.0000       0.132929         3.6172
  32   0.0000       0.144642         3.9359
  33   0.0000       0.154888         4.2147
  34   0.0000       0.168117         4.5747
  35   0.0000       0.184028         5.0076

MULLIKEN ATOMIC CHARGES
-----------------------
   0 C :   -0.415895
   1 C :    0.070170
   2 C :   -0.264929
   3 C :   -0.194163
   4 C :    0.029548
   5 C :   -0.093805
   6 O :   -0.461335
   7 C :   -0.257095
   8 H :    0.123679
   9 H :    0.128526
  10 H :    0.128415
  11 H :    0.088157
  12 H :    0.121018
  13 H :    0.105775
  14 H :    0.111280
  15 H :    0.118450
  16 H :    0.102987
  17 H :    0.105887
  18 H :    0.313466
  19 H :    0.139863
Sum of atomic charges:    0.0000000

LOEWDIN ATOMIC CHARGES
----------------------
   0 C :   -0.297033
   1 C :   -0.257769
   2 C :   -0.215671
   3 C :   -0.214507
   4 C :   -0.177377
   5 C :   -0.316269
   6 O :   -0.038309
   7 C :   -0.113190
   8 H :    0.122315
   9 H :    0.121961
  10 H :    0.122269
  11 H :    0.152265
  12 H :    0.130379
  13 H :    0.139351
  14 H :    0.139281
  15 H :    0.135026
  16 H :    0.124788
  17 H :    0.124821
  18 H :    0.172989
  19 H :    0.144680

  Mayer bond orders larger than 0.1
B(  0-C ,  1-C ) :   0.8985 B(  0-C ,  8-H ) :   0.9344 B(  0-C ,  9-H ) :   0.9396
B(  0-C , 10-H ) :   0.9400 B(  1-C ,  2-C ) :   0.9327 B(  1-C ,  7-C ) :   0.8967
B(  1-C , 11-H ) :   0.9154 B(  2-C ,  3-C ) :   0.9488 B(  2-C , 12-H ) :   0.9346
B(  2-C , 13-H ) :   0.9256 B(  3-C ,  4-C ) :   0.9141 B(  3-C , 14-H ) :   0.9019
B(  3-C , 15-H ) :   0.9294 B(  4-C ,  5-C ) :   0.9117 B(  4-C ,  6-O ) :  -0.1186
B(  4-C ,  7-C ) :   1.7659 B(  5-C ,  6-O ) :   1.0506 B(  5-C , 16-H ) :   0.9242
B(  5-C , 17-H ) :   0.9395 B(  6-O , 18-H ) :   0.8484 B(  7-C , 19-H ) :   0.9225

MP2 TOTAL ENERGY:     -348.411244469 Eh
FINAL SINGLE POINT ENERGY      -348.411244469099

DIPOLE MOMENT
-------------
                                X             Y             Z
Electronic contribution:      1.69347      -2.88943       4.42789
Nuclear contribution   :     -1.30745       2.37760      -4.54137
                        -----------------------------------------
Total Dipole Moment    :      0.38602      -0.51182      -0.11348
                        -----------------------------------------
Magnitude (a.u.)       :      0.65104
Magnitude (Debye)      :      1.65481

                             ****ORCA TERMINATED NORMALLY****
TOTAL RUN TIME: 0 days 0 hours 12 minutes 28 seconds 857 msec
