                         Program Version 3.0.3 - RELEASE   -
|  1> ! RI-MP2 RIJK def2-TZVP def2-TZVP/C def2-TZVP/JK TIGHTSCF
|  2> % maxcore 2000
|  3> % mp2 density relaxed end
|  4> *xyz 0 1
|  5>  C       -0.5589752543     1.1667236924     0.3305720344
|  6>  C       -0.1935580173    -0.2861517550     0.0198875148
|  7>  C        0.6228686870    -0.4649900041    -1.2660586293
|  8>  C        0.9743953062    -1.9369651000    -1.5039228561
|  9>  C        1.8160607288    -2.1550540046    -2.7758608839
| 10>  C        2.1524527551    -3.5550140643    -3.0011974713
| 11>  C        2.4169601355    -4.7164608443    -3.1636012091
| 12>  O       -0.1267960962     0.0109384053    -2.3877417396
| 13>  C        0.3926374779     1.1585057345    -3.0222001526
| 14>  H        0.3354079928     1.7868840874     0.4602855958
| 15>  H       -1.1574982934     1.5975061376    -0.4768079104
| 16>  H       -1.1439362737     1.2342460601     1.2528400139
| 17>  H        0.3767979093    -0.7150253798     0.8533536005
| 18>  H       -1.1087384918    -0.8837750804    -0.0742367059
| 19>  H        1.5554074233     0.1166094333    -1.1828840406
| 20>  H        1.5161756492    -2.3245937526    -0.6343587926
| 21>  H        0.0465371167    -2.5138775416    -1.5863845336
| 22>  H        1.2586145175    -1.7651051530    -3.6349305934
| 23>  H        2.7409210447    -1.5656141631    -2.7115050479
| 24>  H        2.6555078077    -5.7389923433    -3.3196704501
| 25>  H        0.4302506185     2.0276558873    -2.3500636506
| 26>  H        1.4040259100     0.9887389537    -3.4217635287
| 27>  H       -0.2746981837     1.3927197944    -3.8562884337
| 28> *
| 29>
| 30>                          ****END OF INPUT****

CARTESIAN COORDINATES (ANGSTROEM)
---------------------------------
  C     -0.558975    1.166724    0.330572
  C     -0.193558   -0.286152    0.019888
  C      0.622869   -0.464990   -1.266059
  C      0.974395   -1.936965   -1.503923
  C      1.816061   -2.155054   -2.775861
  C      2.152453   -3.555014   -3.001197
  C      2.416960   -4.716461   -3.163601
  O     -0.126796    0.010938   -2.387742
  C      0.392637    1.158506   -3.022200
  H      0.335408    1.786884    0.460286
  H     -1.157498    1.597506   -0.476808
  H     -1.143936    1.234246    1.252840
  H      0.376798   -0.715025    0.853354
  H     -1.108738   -0.883775   -0.074237
  H      1.555407    0.116609   -1.182884
  H      1.516176   -2.324594   -0.634359
  H      0.046537   -2.513878   -1.586385
  H      1.258615   -1.765105   -3.634931
  H      2.740921   -1.565614   -2.711505
  H      2.655508   -5.738992   -3.319670
  H      0.430251    2.027656   -2.350064
  H      1.404026    0.988739   -3.421764
  H     -0.274698    1.392720   -3.856288

 Total Charge           Charge          ....    0
 Multiplicity           Mult            ....    1
 Number of Electrons    NEL             ....   70
 Basis Dimension        Dim             ....  363

ORBITAL ENERGIES
----------------

  NO   OCC          E(Eh)            E(eV)
   0   2.0000     -20.552510      -559.2622
   1   2.0000     -11.281394      -306.9823
   2   2.0000     -11.273413      -306.7652
   3   2.0000     -11.247256      -306.0534
   4   2.0000     -11.228961      -305.5556
   5   2.0000     -11.227210      -305.5079
   6   2.0000     -11.221666      -305.3571
   7   2.0000     -11.214502      -305.1621
   8   2.0000     -11.214492      -305.1618
   9   2.0000      -1.372021       -37.3346
  10   2.0000      -1.093524       -29.7563
  11   2.0000      -1.053199       -28.6590
  12   2.0000      -1.000060       -27.2130
  13   2.0000      -0.949594       -25.8398
  14   2.0000      -0.901631       -24.5346
  15   2.0000      -0.841970       -22.9112
  16   2.0000      -0.791829       -21.5468
  17   2.0000      -0.715227       -19.4623
  18   2.0000      -0.677931       -18.4474
  19   2.0000      -0.664754       -18.0889
  20   2.0000      -0.630175       -17.1479
  21   2.0000      -0.618660       -16.8346
  22   2.0000      -0.607484       -16.5305
  23   2.0000      -0.585578       -15.9344
  24   2.0000      -0.571165       -15.5422
  25   2.0000      -0.561533       -15.2801
  26   2.0000      -0.519239       -14.1292
  27   2.0000      -0.515088       -14.0163
  28   2.0000      -0.495626       -13.4867
  29   2.0000      -0.488359       -13.2889
  30   2.0000      -0.480018       -13.0619
  31   2.0000      -0.464270       -12.6334
  32   2.0000      -0.417586       -11.3631
  33   2.0000      -0.380553       -10.3554
  34   2.0000      -0.377471       -10.2715
  35   0.0000       0.133204         3.6247
  36   0.0000       0.150234         4.0881
  37   0.0000       0.153811         4.1854
  38   0.0000       0.169116         4.6019
  39   0.0000       0.173324         4.7164

MULLIKEN ATOMIC CHARGES
-----------------------
   0 C :   -0.416349
   1 C :   -0.168600
   2 C :    0.055428
   3 C :   -0.171886
   4 C :   -0.416712
   5 C :   -0.003946
   6 C :   -0.115188
   7 O :   -0.339369
   8 C :   -0.224436
   9 H :    0.119538
  10 H :    0.142877
  11 H :    0.137671
  12 H :    0.107043
  13 H :    0.111300
  14 H :    0.082624
  15 H :    0.120677
  16 H :    0.120634
  17 H :    0.159624
  18 H :    0.132984
  19 H :    0.188093
  20 H :    0.121579
  21 H :    0.117756
  22 H :    0.138658
Sum of atomic charges:    0.0000000

LOEWDIN ATOMIC CHARGES
----------------------
   0 C :   -0.320506
   1 C :   -0.274803
   2 C :   -0.321942
   3 C :   -0.230526
   4 C :   -0.249226
   5 C :   -0.111927
   6 C :   -0.112739
   7 O :    0.152410
   8 C :   -0.368239
   9 H :    0.118908
  10 H :    0.124283
  11 H :    0.122102
  12 H :    0.139639
  13 H :    0.141947
  14 H :    0.140915
  15 H :    0.145557
  16 H :    0.147969
  17 H :    0.160917
  18 H :    0.154224
  19 H :    0.125062
  20 H :    0.101542
  21 H :    0.100343
  22 H :    0.114090

  Mayer bond orders larger than 0.1
B(  0-C ,  1-C ) :   0.9089 B(  0-C ,  9-H ) :   0.9378 B(  0-C , 10-H ) :   0.9427
B(  0-C , 11-H ) :   0.9403 B(  1-C ,  2-C ) :   0.9363 B(  1-C , 12-H ) :   0.9308
B(  1-C , 13-H ) :   0.9265 B(  2-C ,  3-C ) :   0.9348 B(  2-C ,  7-O ) :   0.8227
B(  2-C , 14-H ) :   0.9243 B(  3-C ,  4-C ) :   0.9294 B(  3-C , 15-H ) :   0.9311
B(  3-C , 16-H ) :   0.9139 B(  4-C ,  5-C ) :   1.1419 B(  4-C ,  6-C ) :  -0.1344
B(  4-C , 17-H ) :   0.9182 B(  4-C , 18-H ) :   0.9205 B(  5-C ,  6-C ) :   2.6072
B(  6-C , 19-H ) :   0.8932 B(  7-O ,  8-C ) :   0.9110 B(  8-C , 20-H ) :   0.9343
B(  8-C , 21-H ) :   0.9339 B(  8-C , 22-H ) :   0.9403

MP2 TOTAL ENERGY:     -387.566901487 Eh
FINAL SINGLE POINT ENERGY      -387.566901487216

DIPOLE MOMENT
-------------
                                X             Y             Z
Electronic contribution:      2.37164      -7.66603      -4.45135
Nuclear contribution   :     -2.13631       8.18366       4.71285
                        -----------------------------------------
Total Dipole Moment    :      0.23533       0.51763       0.26150
                        -----------------------------------------
Magnitude (a.u.)       :      0.62587
Magnitude (Debye)      :      1.59082

                             ****ORCA TERMINATED NORMALLY****
TOTAL RUN TIME: 0 days 0 hours 18 minutes 34 seconds 239 msec
