                         Program Version 3.0.3 - RELEASE   -
|  1> ! RI-MP2 RIJK def2-TZVP def2-TZVP/C def2-TZVP/JK TIGHTSCF
|  2> % maxcore 2000
|  3> % mp2 density relaxed end
|  4> *xyz 0 1
|  5>  O       -0.1747822257     1.4026941404    -0.4658753109
|  6>  C       -0.0496013722     0.0704881146    -0.1131620932
|  7>  C       -1.3102831958    -0.6643568102     0.2644053207
|  8>  O       -2.4553796491     0.1459247567     0.2524272956
|  9>  C       -3.3945319029    -0.1771365269    -0.7329986477
| 10>  O       -3.1188552304     0.4292070410    -1.9816115704
| 11>  C       -2.0454692328    -0.0203075360    -2.6990012850
| 12>  N       -1.0183965112    -0.6643154654    -2.3582447041
| 13>  C       -0.6091994633    -1.0090524597    -1.0484940610
| 14>  H       -1.0868515883     1.6603828117    -0.2701363174
| 15>  H        0.8758692561    -0.1479504876     0.4110076701
| 16>  H       -1.3111130478    -1.3998717584     1.0652942843
| 17>  H       -3.4641187326    -1.2647555016    -0.8599110102
| 18>  H       -4.3503339537     0.2429571325    -0.4160662089
| 19>  H       -2.1727563174     0.2767130472    -3.7382473909
| 20>  H       -0.0580070529    -1.9452651583    -1.0219134610
| 21> *
| 22>
| 23>                          ****END OF INPUT****

CARTESIAN COORDINATES (ANGSTROEM)
---------------------------------
  O     -0.174782    1.402694   -0.465875
  C     -0.049601    0.070488   -0.113162
  C     -1.310283   -0.664357    0.264405
  O     -2.455380    0.145925    0.252427
  C     -3.394532   -0.177137   -0.732999
  O     -3.118855    0.429207   -1.981612
  C     -2.045469   -0.020308   -2.699001
  N     -1.018397   -0.664315   -2.358245
  C     -0.609199   -1.009052   -1.048494
  H     -1.086852    1.660383   -0.270136
  H      0.875869   -0.147950    0.411008
  H     -1.311113   -1.399872    1.065294
  H     -3.464119   -1.264756   -0.859911
  H     -4.350334    0.242957   -0.416066
  H     -2.172756    0.276713   -3.738247
  H     -0.058007   -1.945265   -1.021913

 Total Charge           Charge          ....    0
 Multiplicity           Mult            ....    1
 Number of Electrons    NEL             ....   68
 Basis Dimension        Dim             ....  321

ORBITAL ENERGIES
----------------

  NO   OCC          E(Eh)            E(eV)
   0   2.0000     -20.607825      -560.7674
   1   2.0000     -20.598059      -560.5017
   2   2.0000     -20.562970      -559.5469
   3   2.0000     -15.560737      -423.4292
   4   2.0000     -11.359814      -309.1162
   5   2.0000     -11.344050      -308.6873
   6   2.0000     -11.299569      -307.4769
   7   2.0000     -11.292633      -307.2882
   8   2.0000     -11.274418      -306.7925
   9   2.0000      -1.464671       -39.8557
  10   2.0000      -1.403228       -38.1838
  11   2.0000      -1.372206       -37.3396
  12   2.0000      -1.238575       -33.7033
  13   2.0000      -1.109151       -30.1815
  14   2.0000      -0.991937       -26.9920
  15   2.0000      -0.869084       -23.6490
  16   2.0000      -0.836093       -22.7512
  17   2.0000      -0.800945       -21.7948
  18   2.0000      -0.754718       -20.5369
  19   2.0000      -0.741981       -20.1903
  20   2.0000      -0.697780       -18.9876
  21   2.0000      -0.664098       -18.0710
  22   2.0000      -0.659968       -17.9586
  23   2.0000      -0.617333       -16.7985
  24   2.0000      -0.597646       -16.2628
  25   2.0000      -0.578083       -15.7304
  26   2.0000      -0.571661       -15.5557
  27   2.0000      -0.563958       -15.3461
  28   2.0000      -0.512835       -13.9550
  29   2.0000      -0.500330       -13.6147
  30   2.0000      -0.478404       -13.0180
  31   2.0000      -0.447351       -12.1730
  32   2.0000      -0.390286       -10.6202
  33   2.0000      -0.362594        -9.8667
  34   0.0000       0.137364         3.7379
  35   0.0000       0.158887         4.3235
  36   0.0000       0.165085         4.4922
  37   0.0000       0.178595         4.8598
  38   0.0000       0.184559         5.0221

MULLIKEN ATOMIC CHARGES
-----------------------
   0 O :   -0.461502
   1 C :    0.075352
   2 C :   -0.001778
   3 O :   -0.338341
   4 C :    0.085166
   5 O :   -0.266861
   6 C :    0.067146
   7 N :   -0.230799
   8 C :   -0.062435
   9 H :    0.337298
  10 H :    0.127989
  11 H :    0.127352
  12 H :    0.123837
  13 H :    0.144737
  14 H :    0.139789
  15 H :    0.133051
Sum of atomic charges:   -0.0000000

LOEWDIN ATOMIC CHARGES
----------------------
   0 O :    0.023348
   1 C :   -0.294359
   2 C :   -0.285886
   3 O :    0.195940
   4 C :   -0.363674
   5 O :    0.212625
   6 C :   -0.351683
   7 N :    0.125337
   8 C :   -0.258426
   9 H :    0.183788
  10 H :    0.138443
  11 H :    0.137192
  12 H :    0.121259
  13 H :    0.128046
  14 H :    0.136208
  15 H :    0.151843

  Mayer bond orders larger than 0.1
B(  0-O ,  1-C ) :   0.9960 B(  0-O ,  9-H ) :   0.8095 B(  1-C ,  2-C ) :   0.8809
B(  1-C ,  8-C ) :   0.8136 B(  1-C , 10-H ) :   0.9436 B(  2-C ,  3-O ) :   0.9011
B(  2-C ,  8-C ) :   0.8408 B(  2-C , 11-H ) :   0.9280 B(  3-O ,  4-C ) :   0.9450
B(  4-C ,  5-O ) :   0.9104 B(  4-C , 12-H ) :   0.9421 B(  4-C , 13-H ) :   0.9287
B(  5-O ,  6-C ) :   1.0186 B(  6-C ,  7-N ) :   1.8417 B(  6-C , 14-H ) :   0.9263
B(  7-N ,  8-C ) :   0.9835 B(  8-C , 15-H ) :   0.9238

MP2 TOTAL ENERGY:     -474.236894390 Eh
FINAL SINGLE POINT ENERGY      -474.236894389516

DIPOLE MOMENT
-------------
                                X             Y             Z
Electronic contribution:     -0.38299       1.54514      -1.26701
Nuclear contribution   :     -0.33957      -2.29625       1.83032
                        -----------------------------------------
Total Dipole Moment    :     -0.72256      -0.75111       0.56331
                        -----------------------------------------
Magnitude (a.u.)       :      1.18473
Magnitude (Debye)      :      3.01135

                             ****ORCA TERMINATED NORMALLY****
TOTAL RUN TIME: 0 days 0 hours 15 minutes 35 seconds 345 msec
