                         Program Version 3.0.3 - RELEASE   -
|  1> ! RI-MP2 RIJK def2-TZVP def2-TZVP/C def2-TZVP/JK TIGHTSCF
|  2> % maxcore 2000
|  3> % mp2 density relaxed end
|  4> *xyz 0 1
|  5>  O       -0.2399660395    -0.0310657602     0.0901815733
|  6>  C       -0.1046968048     1.1570608854     0.0741557017
|  7>  C       -1.2190316990     2.2439741668     0.0316086619
|  8>  N       -0.6391767418     3.4475560445     0.6422732980
|  9>  C        0.6249546582     3.2744813307     0.6308422582
| 10>  N        1.6349216803     3.9510842044     1.2923779776
| 11>  C        2.6460827741     2.9902660083     1.5524815354
| 12>  C        2.4413858622     1.8300088177     0.9095604000
| 13>  C        1.1958378217     1.9933730434     0.0778019380
| 14>  H       -1.5056130726     2.4039379555    -1.0185845730
| 15>  H       -2.1180964371     1.9209852148     0.5652510919
| 16>  H        1.3881335418     4.6403208054     1.9882035181
| 17>  H        3.4739800547     3.2737687340     2.1873763447
| 18>  H        3.1163002272     0.9889963875     0.8815515530
| 19>  H        1.4499919546     2.0976423916    -0.9919760188
| 20> *
| 21>
| 22>                          ****END OF INPUT****

CARTESIAN COORDINATES (ANGSTROEM)
---------------------------------
  O     -0.239966   -0.031066    0.090182
  C     -0.104697    1.157061    0.074156
  C     -1.219032    2.243974    0.031609
  N     -0.639177    3.447556    0.642273
  C      0.624955    3.274481    0.630842
  N      1.634922    3.951084    1.292378
  C      2.646083    2.990266    1.552482
  C      2.441386    1.830009    0.909560
  C      1.195838    1.993373    0.077802
  H     -1.505613    2.403938   -1.018585
  H     -2.118096    1.920985    0.565251
  H      1.388134    4.640321    1.988204
  H      3.473980    3.273769    2.187376
  H      3.116300    0.988996    0.881552
  H      1.449992    2.097642   -0.991976

 Total Charge           Charge          ....    0
 Multiplicity           Mult            ....    1
 Number of Electrons    NEL             ....   64
 Basis Dimension        Dim             ....  315

ORBITAL ENERGIES
----------------

  NO   OCC          E(Eh)            E(eV)
   0   2.0000     -20.562042      -559.5216
   1   2.0000     -15.604831      -424.6291
   2   2.0000     -15.554281      -423.2535
   3   2.0000     -11.345598      -308.7294
   4   2.0000     -11.325569      -308.1844
   5   2.0000     -11.296897      -307.4042
   6   2.0000     -11.269608      -306.6616
   7   2.0000     -11.266124      -306.5668
   8   2.0000     -11.246044      -306.0204
   9   2.0000      -1.407748       -38.3068
  10   2.0000      -1.321823       -35.9686
  11   2.0000      -1.228476       -33.4285
  12   2.0000      -1.087911       -29.6036
  13   2.0000      -0.985677       -26.8216
  14   2.0000      -0.970514       -26.4090
  15   2.0000      -0.825246       -22.4561
  16   2.0000      -0.800020       -21.7696
  17   2.0000      -0.756284       -20.5795
  18   2.0000      -0.695307       -18.9203
  19   2.0000      -0.675510       -18.3815
  20   2.0000      -0.639393       -17.3988
  21   2.0000      -0.628409       -17.0999
  22   2.0000      -0.617577       -16.8051
  23   2.0000      -0.598160       -16.2768
  24   2.0000      -0.591779       -16.1031
  25   2.0000      -0.554637       -15.0924
  26   2.0000      -0.538857       -14.6631
  27   2.0000      -0.507952       -13.8221
  28   2.0000      -0.466454       -12.6929
  29   2.0000      -0.415424       -11.3043
  30   2.0000      -0.394302       -10.7295
  31   2.0000      -0.331822        -9.0293
  32   0.0000       0.116597         3.1728
  33   0.0000       0.129897         3.5347
  34   0.0000       0.137765         3.7488
  35   0.0000       0.154963         4.2168
  36   0.0000       0.164237         4.4691

MULLIKEN ATOMIC CHARGES
-----------------------
   0 O :   -0.242674
   1 C :    0.108949
   2 C :   -0.113843
   3 N :   -0.215470
   4 C :    0.044797
   5 N :   -0.291424
   6 C :   -0.018092
   7 C :   -0.259973
   8 C :    0.016125
   9 H :    0.133315
  10 H :    0.142305
  11 H :    0.249529
  12 H :    0.151667
  13 H :    0.153242
  14 H :    0.141549
Sum of atomic charges:   -0.0000000

LOEWDIN ATOMIC CHARGES
----------------------
   0 O :    0.175104
   1 C :   -0.276200
   2 C :   -0.244232
   3 N :    0.090721
   4 C :   -0.305019
   5 N :    0.133763
   6 C :   -0.187944
   7 C :   -0.161396
   8 C :   -0.170617
   9 H :    0.143886
  10 H :    0.140321
  11 H :    0.190829
  12 H :    0.138895
  13 H :    0.143691
  14 H :    0.188197

  Mayer bond orders larger than 0.1
B(  0-O ,  1-C ) :   2.0689 B(  1-C ,  2-C ) :   0.9081 B(  1-C ,  8-C ) :   0.8385
B(  2-C ,  3-N ) :   0.9313 B(  2-C ,  9-H ) :   0.8976 B(  2-C , 10-H ) :   0.9134
B(  3-N ,  4-C ) :   1.8445 B(  4-C ,  5-N ) :   1.1053 B(  4-C ,  8-C ) :   0.9614
B(  5-N ,  6-C ) :   1.0040 B(  5-N , 11-H ) :   0.8593 B(  6-C ,  7-C ) :   1.7412
B(  6-C , 12-H ) :   0.9160 B(  7-C ,  8-C ) :   0.9091 B(  7-C , 13-H ) :   0.9298
B(  8-C , 14-H ) :   0.8550

MP2 TOTAL ENERGY:     -416.118832974 Eh
FINAL SINGLE POINT ENERGY      -416.118832974251

DIPOLE MOMENT
-------------
                                X             Y             Z
Electronic contribution:     -0.75836      -0.81502       0.06432
Nuclear contribution   :      1.60298       1.42568       0.08819
                        -----------------------------------------
Total Dipole Moment    :      0.84462       0.61066       0.15251
                        -----------------------------------------
Magnitude (a.u.)       :      1.05335
Magnitude (Debye)      :      2.67740

                             ****ORCA TERMINATED NORMALLY****
TOTAL RUN TIME: 0 days 0 hours 15 minutes 33 seconds 955 msec
