                         Program Version 3.0.3 - RELEASE   -
|  1> ! RI-MP2 RIJK def2-TZVP def2-TZVP/C def2-TZVP/JK TIGHTSCF
|  2> % maxcore 2000
|  3> % mp2 density relaxed end
|  4> *xyz 0 1
|  5>  C       -1.3831379451     1.5697308479     1.8697115078
|  6>  C       -1.3920927491     0.0895008456     1.4985308244
|  7>  N       -0.1031067138    -0.5160722210     1.8456116586
|  8>  C        0.2313741833    -1.8514640329     1.3831785897
|  9>  C       -0.7008309348    -2.6997560179     0.5450941471
| 10>  O       -1.8107065408    -3.1780858114     1.2950874944
| 11>  C        0.9456192194    -0.6500342312     0.8160046873
| 12>  C        0.7295412297    -0.2405352572    -0.5453566014
| 13>  C        0.5777362325     0.1397866588    -1.6771877610
| 14>  H       -0.6332639509     2.1123304465     1.2853361724
| 15>  H       -2.3596652770     2.0210041150     1.6681767612
| 16>  H       -1.1485262086     1.7009691185     2.9297822337
| 17>  H       -2.1550167626    -0.4513854036     2.0667635808
| 18>  H       -1.6437251951    -0.0188951468     0.4348072102
| 19>  H        0.7879614991    -2.4292849915     2.1250571026
| 20>  H       -1.1209520334    -2.1279081666    -0.2836578037
| 21>  H       -0.1247887698    -3.5299381803     0.1069964182
| 22>  H       -1.4701141822    -3.6962033625     2.0318584828
| 23>  H        1.9469376866    -0.4369185555     1.1852355776
| 24>  H        0.4447232926     0.4673177060    -2.6786961828
| 25> *
| 26>
| 27>                          ****END OF INPUT****

CARTESIAN COORDINATES (ANGSTROEM)
---------------------------------
  C     -1.383138    1.569731    1.869712
  C     -1.392093    0.089501    1.498531
  N     -0.103107   -0.516072    1.845612
  C      0.231374   -1.851464    1.383179
  C     -0.700831   -2.699756    0.545094
  O     -1.810707   -3.178086    1.295087
  C      0.945619   -0.650034    0.816005
  C      0.729541   -0.240535   -0.545357
  C      0.577736    0.139787   -1.677188
  H     -0.633264    2.112330    1.285336
  H     -2.359665    2.021004    1.668177
  H     -1.148526    1.700969    2.929782
  H     -2.155017   -0.451385    2.066764
  H     -1.643725   -0.018895    0.434807
  H      0.787961   -2.429285    2.125057
  H     -1.120952   -2.127908   -0.283658
  H     -0.124789   -3.529938    0.106996
  H     -1.470114   -3.696203    2.031858
  H      1.946938   -0.436919    1.185236
  H      0.444723    0.467318   -2.678696

 Total Charge           Charge          ....    0
 Multiplicity           Mult            ....    1
 Number of Electrons    NEL             ....   68
 Basis Dimension        Dim             ....  345

ORBITAL ENERGIES
----------------

  NO   OCC          E(Eh)            E(eV)
   0   2.0000     -20.562309      -559.5289
   1   2.0000     -15.567716      -423.6191
   2   2.0000     -11.287821      -307.1572
   3   2.0000     -11.284425      -307.0648
   4   2.0000     -11.272450      -306.7390
   5   2.0000     -11.246839      -306.0420
   6   2.0000     -11.243460      -305.9501
   7   2.0000     -11.232781      -305.6595
   8   2.0000     -11.207287      -304.9658
   9   2.0000      -1.366662       -37.1888
  10   2.0000      -1.283588       -34.9282
  11   2.0000      -1.055661       -28.7260
  12   2.0000      -1.032370       -28.0922
  13   2.0000      -0.967633       -26.3306
  14   2.0000      -0.912082       -24.8190
  15   2.0000      -0.854412       -23.2497
  16   2.0000      -0.784871       -21.3574
  17   2.0000      -0.724350       -19.7106
  18   2.0000      -0.699372       -19.0309
  19   2.0000      -0.691052       -18.8045
  20   2.0000      -0.661805       -18.0086
  21   2.0000      -0.619000       -16.8438
  22   2.0000      -0.596478       -16.2310
  23   2.0000      -0.593660       -16.1543
  24   2.0000      -0.556526       -15.1438
  25   2.0000      -0.529473       -14.4077
  26   2.0000      -0.516184       -14.0461
  27   2.0000      -0.506313       -13.7775
  28   2.0000      -0.490688       -13.3523
  29   2.0000      -0.463899       -12.6233
  30   2.0000      -0.450836       -12.2679
  31   2.0000      -0.410559       -11.1719
  32   2.0000      -0.394481       -10.7344
  33   2.0000      -0.356115        -9.6904
  34   0.0000       0.129005         3.5104
  35   0.0000       0.150085         4.0840
  36   0.0000       0.155891         4.2420
  37   0.0000       0.163839         4.4583
  38   0.0000       0.167046         4.5456

MULLIKEN ATOMIC CHARGES
-----------------------
   0 C :   -0.376482
   1 C :   -0.112358
   2 N :   -0.189490
   3 C :   -0.066261
   4 C :   -0.008387
   5 O :   -0.473101
   6 C :   -0.254724
   7 C :   -0.015449
   8 C :   -0.119971
   9 H :    0.130068
  10 H :    0.125513
  11 H :    0.127293
  12 H :    0.132030
  13 H :    0.101418
  14 H :    0.115513
  15 H :    0.122743
  16 H :    0.117003
  17 H :    0.313739
  18 H :    0.138592
  19 H :    0.192311
Sum of atomic charges:   -0.0000000

LOEWDIN ATOMIC CHARGES
----------------------
   0 C :   -0.315064
   1 C :   -0.306553
   2 N :    0.147711
   3 C :   -0.242400
   4 C :   -0.326547
   5 O :   -0.045521
   6 C :   -0.218393
   7 C :   -0.102130
   8 C :   -0.089560
   9 H :    0.122797
  10 H :    0.122221
  11 H :    0.122490
  12 H :    0.136715
  13 H :    0.127366
  14 H :    0.142203
  15 H :    0.137381
  16 H :    0.126154
  17 H :    0.173438
  18 H :    0.159356
  19 H :    0.128336

  Mayer bond orders larger than 0.1
B(  0-C ,  1-C ) :   0.9216 B(  0-C ,  9-H ) :   0.9355 B(  0-C , 10-H ) :   0.9383
B(  0-C , 11-H ) :   0.9369 B(  1-C ,  2-N ) :   0.8839 B(  1-C , 12-H ) :   0.9278
B(  1-C , 13-H ) :   0.9245 B(  2-N ,  3-C ) :   0.9099 B(  2-N ,  6-C ) :   0.9121
B(  3-C ,  4-C ) :   0.9515 B(  3-C ,  6-C ) :   0.8947 B(  3-C , 14-H ) :   0.9027
B(  4-C ,  5-O ) :   0.9076 B(  4-C , 15-H ) :   0.9208 B(  4-C , 16-H ) :   0.9238
B(  5-O , 17-H ) :   0.8474 B(  6-C ,  7-C ) :   1.1318 B(  6-C ,  8-C ) :  -0.1203
B(  6-C , 18-H ) :   0.9315 B(  7-C ,  8-C ) :   2.5479 B(  8-C , 19-H ) :   0.9035

MP2 TOTAL ENERGY:     -402.379390799 Eh
FINAL SINGLE POINT ENERGY      -402.379390798823

DIPOLE MOMENT
-------------
                                X             Y             Z
Electronic contribution:      3.27037      -3.19416      -1.76744
Nuclear contribution   :     -2.92248       2.90014       1.61665
                        -----------------------------------------
Total Dipole Moment    :      0.34789      -0.29401      -0.15079
                        -----------------------------------------
Magnitude (a.u.)       :      0.47980
Magnitude (Debye)      :      1.21956

                             ****ORCA TERMINATED NORMALLY****
TOTAL RUN TIME: 0 days 0 hours 18 minutes 49 seconds 201 msec
