                         Program Version 3.0.3 - RELEASE   -
|  1> ! RI-MP2 RIJK def2-TZVP def2-TZVP/C def2-TZVP/JK TIGHTSCF
|  2> % maxcore 2000
|  3> % mp2 density relaxed end
|  4> *xyz 0 1
|  5>  O       -0.0518735561    -0.0670612584     0.1030579574
|  6>  C       -0.0537379488     1.1327239053     0.0439103456
|  7>  C       -1.1202243594     2.2554774866     0.0791454658
|  8>  C        0.0774729337     3.2498164378    -0.0427220146
|  9>  N        0.9495684019     2.0640826776    -0.0778177480
| 10>  C        0.1323523722     4.1312564906    -1.2600076690
| 11>  C       -0.3787013012     5.5480001340    -1.1813686381
| 12>  C        1.1000646807     5.2896763723    -1.3127417473
| 13>  H       -1.8032225963     2.2526021847    -0.7725029553
| 14>  H       -1.6903853333     2.3071843159     1.0080492192
| 15>  H        0.2274358281     3.8538805862     0.8616599973
| 16>  H        1.9524375737     1.9644647958    -0.1393434123
| 17>  H       -0.0383755726     3.6021609326    -2.1941529694
| 18>  H       -0.9132984519     5.9466930497    -2.0357951513
| 19>  H       -0.7481462925     5.9008980313    -0.2238993594
| 20>  H        1.7233820316     5.4707900816    -0.4426406974
| 21>  H        1.5826040101     5.5120850764    -2.2576694531
| 22> *
| 23>
| 24>                          ****END OF INPUT****

CARTESIAN COORDINATES (ANGSTROEM)
---------------------------------
  O     -0.051874   -0.067061    0.103058
  C     -0.053738    1.132724    0.043910
  C     -1.120224    2.255477    0.079145
  C      0.077473    3.249816   -0.042722
  N      0.949568    2.064083   -0.077818
  C      0.132352    4.131256   -1.260008
  C     -0.378701    5.548000   -1.181369
  C      1.100065    5.289676   -1.312742
  H     -1.803223    2.252602   -0.772503
  H     -1.690385    2.307184    1.008049
  H      0.227436    3.853881    0.861660
  H      1.952438    1.964465   -0.139343
  H     -0.038376    3.602161   -2.194153
  H     -0.913298    5.946693   -2.035795
  H     -0.748146    5.900898   -0.223899
  H      1.723382    5.470790   -0.442641
  H      1.582604    5.512085   -2.257669

 Total Charge           Charge          ....    0
 Multiplicity           Mult            ....    1
 Number of Electrons    NEL             ....   60
 Basis Dimension        Dim             ....  302

ORBITAL ENERGIES
----------------

  NO   OCC          E(Eh)            E(eV)
   0   2.0000     -20.521019      -558.4053
   1   2.0000     -15.580789      -423.9748
   2   2.0000     -11.348256      -308.8018
   3   2.0000     -11.288488      -307.1754
   4   2.0000     -11.245853      -306.0152
   5   2.0000     -11.245209      -305.9977
   6   2.0000     -11.239935      -305.8542
   7   2.0000     -11.239287      -305.8365
   8   2.0000      -1.383497       -37.6469
   9   2.0000      -1.267714       -34.4963
  10   2.0000      -1.154877       -31.4258
  11   2.0000      -1.007498       -27.4154
  12   2.0000      -0.924435       -25.1552
  13   2.0000      -0.836459       -22.7612
  14   2.0000      -0.799294       -21.7499
  15   2.0000      -0.783538       -21.3212
  16   2.0000      -0.698673       -19.0118
  17   2.0000      -0.670557       -18.2468
  18   2.0000      -0.650795       -17.7090
  19   2.0000      -0.644834       -17.5468
  20   2.0000      -0.597581       -16.2610
  21   2.0000      -0.555763       -15.1231
  22   2.0000      -0.534604       -14.5473
  23   2.0000      -0.530866       -14.4456
  24   2.0000      -0.524143       -14.2627
  25   2.0000      -0.518145       -14.0994
  26   2.0000      -0.439849       -11.9689
  27   2.0000      -0.433554       -11.7976
  28   2.0000      -0.406301       -11.0560
  29   2.0000      -0.393296       -10.7021
  30   0.0000       0.135665         3.6916
  31   0.0000       0.144484         3.9316
  32   0.0000       0.147511         4.0140
  33   0.0000       0.157314         4.2807
  34   0.0000       0.182691         4.9713

MULLIKEN ATOMIC CHARGES
-----------------------
   0 O :   -0.315862
   1 C :    0.211714
   2 C :   -0.231407
   3 C :    0.052986
   4 N :   -0.338052
   5 C :   -0.118134
   6 C :   -0.271084
   7 C :   -0.273603
   8 H :    0.133027
   9 H :    0.132858
  10 H :    0.117597
  11 H :    0.233214
  12 H :    0.131237
  13 H :    0.137369
  14 H :    0.130611
  15 H :    0.129938
  16 H :    0.137591
Sum of atomic charges:   -0.0000000

LOEWDIN ATOMIC CHARGES
----------------------
   0 O :    0.097962
   1 C :   -0.443271
   2 C :   -0.176538
   3 C :   -0.234784
   4 N :    0.142088
   5 C :   -0.220337
   6 C :   -0.223151
   7 C :   -0.227096
   8 H :    0.143350
   9 H :    0.140148
  10 H :    0.145030
  11 H :    0.170795
  12 H :    0.152146
  13 H :    0.133429
  14 H :    0.134152
  15 H :    0.133099
  16 H :    0.132978

  Mayer bond orders larger than 0.1
B(  0-O ,  1-C ) :   2.0292 B(  1-C ,  2-C ) :   0.8981 B(  1-C ,  4-N ) :   1.1556
B(  2-C ,  3-C ) :   0.9000 B(  2-C ,  8-H ) :   0.9003 B(  2-C ,  9-H ) :   0.9076
B(  3-C ,  4-N ) :   0.8610 B(  3-C ,  5-C ) :   0.9158 B(  3-C , 10-H ) :   0.9168
B(  4-N , 11-H ) :   0.8607 B(  5-C ,  6-C ) :   0.8719 B(  5-C ,  7-C ) :   0.8790
B(  5-C , 12-H ) :   0.9168 B(  6-C ,  7-C ) :   0.9057 B(  6-C , 13-H ) :   0.9287
B(  6-C , 14-H ) :   0.9274 B(  7-C , 15-H ) :   0.9289 B(  7-C , 16-H ) :   0.9287

MP2 TOTAL ENERGY:     -363.247077109 Eh
FINAL SINGLE POINT ENERGY      -363.247077109211

DIPOLE MOMENT
-------------
                                X             Y             Z
Electronic contribution:      0.70955      -8.23110       1.85883
Nuclear contribution   :     -0.47125       9.83657      -2.01875
                        -----------------------------------------
Total Dipole Moment    :      0.23830       1.60546      -0.15992
                        -----------------------------------------
Magnitude (a.u.)       :      1.63091
Magnitude (Debye)      :      4.14545

                             ****ORCA TERMINATED NORMALLY****
TOTAL RUN TIME: 0 days 0 hours 11 minutes 0 seconds 719 msec
