                         Program Version 3.0.3 - RELEASE   -
|  1> ! RI-MP2 RIJK def2-TZVP def2-TZVP/C def2-TZVP/JK TIGHTSCF
|  2> % maxcore 2000
|  3> % mp2 density relaxed end
|  4> *xyz 0 1
|  5>  C        0.0362924225     1.4498944729    -0.0141335040
|  6>  N       -0.0024330775    -0.0062665045    -0.0110109487
|  7>  C       -0.0473638424    -0.6849701207     1.1923423615
|  8>  O       -0.0574718300    -0.1427879083     2.2743052991
|  9>  C        0.0073505307    -0.6736094952    -1.2319116340
| 10>  N       -0.0258714638    -2.0042088226    -1.3401902105
| 11>  N       -0.0010326984    -2.1915983370    -2.6584785395
| 12>  N        0.0450010258    -1.1126897844    -3.4136401981
| 13>  C        0.0516809320    -0.1152319663    -2.5270736283
| 14>  H        0.9488444358     1.8130443291    -0.4985611968
| 15>  H       -0.8325107032     1.8602662594    -0.5395449193
| 16>  H        0.0210006639     1.7739254606     1.0252629456
| 17>  H       -0.0732150980    -1.7751503457     1.0506460835
| 18>  H       -0.0169344506    -3.1177155819    -3.0533639762
| 19>  H        0.0864629331     0.9126608745    -2.8449290842
| 20> *
| 21>
| 22>                          ****END OF INPUT****

CARTESIAN COORDINATES (ANGSTROEM)
---------------------------------
  C      0.036292    1.449894   -0.014134
  N     -0.002433   -0.006267   -0.011011
  C     -0.047364   -0.684970    1.192342
  O     -0.057472   -0.142788    2.274305
  C      0.007351   -0.673609   -1.231912
  N     -0.025871   -2.004209   -1.340190
  N     -0.001033   -2.191598   -2.658479
  N      0.045001   -1.112690   -3.413640
  C      0.051681   -0.115232   -2.527074
  H      0.948844    1.813044   -0.498561
  H     -0.832511    1.860266   -0.539545
  H      0.021001    1.773925    1.025263
  H     -0.073215   -1.775150    1.050646
  H     -0.016934   -3.117716   -3.053364
  H      0.086463    0.912661   -2.844929

 Total Charge           Charge          ....    0
 Multiplicity           Mult            ....    1
 Number of Electrons    NEL             ....   66
 Basis Dimension        Dim             ....  315

ORBITAL ENERGIES
----------------

  NO   OCC          E(Eh)            E(eV)
   0   2.0000     -20.538592      -558.8835
   1   2.0000     -15.692186      -427.0061
   2   2.0000     -15.637520      -425.5186
   3   2.0000     -15.620003      -425.0419
   4   2.0000     -15.617231      -424.9665
   5   2.0000     -11.359186      -309.0992
   6   2.0000     -11.327258      -308.2304
   7   2.0000     -11.276976      -306.8621
   8   2.0000     -11.274301      -306.7893
   9   2.0000      -1.464597       -39.8537
  10   2.0000      -1.399735       -38.0887
  11   2.0000      -1.286881       -35.0178
  12   2.0000      -1.203268       -32.7426
  13   2.0000      -1.110640       -30.2221
  14   2.0000      -0.982505       -26.7353
  15   2.0000      -0.906535       -24.6681
  16   2.0000      -0.859107       -23.3775
  17   2.0000      -0.785219       -21.3669
  18   2.0000      -0.769703       -20.9447
  19   2.0000      -0.720911       -19.6170
  20   2.0000      -0.680536       -18.5183
  21   2.0000      -0.652871       -17.7655
  22   2.0000      -0.640544       -17.4301
  23   2.0000      -0.639007       -17.3883
  24   2.0000      -0.608050       -16.5459
  25   2.0000      -0.566382       -15.4120
  26   2.0000      -0.550820       -14.9886
  27   2.0000      -0.528074       -14.3696
  28   2.0000      -0.492475       -13.4009
  29   2.0000      -0.471400       -12.8274
  30   2.0000      -0.442112       -12.0305
  31   2.0000      -0.411086       -11.1862
  32   2.0000      -0.344734        -9.3807
  33   0.0000       0.110778         3.0144
  34   0.0000       0.126549         3.4436
  35   0.0000       0.136915         3.7257
  36   0.0000       0.152747         4.1565
  37   0.0000       0.185234         5.0405

MULLIKEN ATOMIC CHARGES
-----------------------
   0 C :   -0.361354
   1 N :   -0.091293
   2 C :    0.139043
   3 O :   -0.341040
   4 C :    0.183106
   5 N :   -0.220305
   6 N :   -0.003294
   7 N :   -0.173000
   8 C :   -0.178390
   9 H :    0.148106
  10 H :    0.148103
  11 H :    0.190603
  12 H :    0.133072
  13 H :    0.273594
  14 H :    0.153049
Sum of atomic charges:    0.0000000

LOEWDIN ATOMIC CHARGES
----------------------
   0 C :   -0.271042
   1 N :    0.181413
   2 C :   -0.372016
   3 O :    0.078633
   4 C :   -0.326339
   5 N :    0.038243
   6 N :    0.067389
   7 N :    0.023721
   8 C :   -0.262521
   9 H :    0.122162
  10 H :    0.122168
  11 H :    0.138411
  12 H :    0.127620
  13 H :    0.191482
  14 H :    0.140674

  Mayer bond orders larger than 0.1
B(  0-C ,  1-N ) :   0.8519 B(  0-C ,  9-H ) :   0.9314 B(  0-C , 10-H ) :   0.9313
B(  0-C , 11-H ) :   0.9158 B(  1-N ,  2-C ) :   1.0671 B(  1-N ,  4-C ) :   1.0435
B(  2-C ,  3-O ) :   1.9081 B(  2-C , 12-H ) :   0.9270 B(  4-C ,  5-N ) :   1.4323
B(  4-C ,  8-C ) :   1.3158 B(  5-N ,  6-N ) :   1.1262 B(  6-N ,  7-N ) :   1.1599
B(  6-N , 13-H ) :   0.8746 B(  7-N ,  8-C ) :   1.4854 B(  8-C , 14-H ) :   0.9312

MP2 TOTAL ENERGY:     -449.413960261 Eh
FINAL SINGLE POINT ENERGY      -449.413960261086

DIPOLE MOMENT
-------------
                                X             Y             Z
Electronic contribution:     -0.10062      -4.77854      -1.17273
Nuclear contribution   :      0.12414       4.73844       0.08198
                        -----------------------------------------
Total Dipole Moment    :      0.02352      -0.04010      -1.09075
                        -----------------------------------------
Magnitude (a.u.)       :      1.09174
Magnitude (Debye)      :      2.77497

                             ****ORCA TERMINATED NORMALLY****
TOTAL RUN TIME: 0 days 0 hours 16 minutes 23 seconds 665 msec
