                         Program Version 3.0.3 - RELEASE   -
|  1> ! RI-MP2 RIJK def2-TZVP def2-TZVP/C def2-TZVP/JK TIGHTSCF
|  2> % maxcore 2000
|  3> % mp2 density relaxed end
|  4> *xyz 0 1
|  5>  C        0.0046878484     1.4497926947    -0.2017618885
|  6>  C        1.2759644767     0.6848121101    -0.0201331768
|  7>  C        1.9163036811     0.5353508630     1.3732899775
|  8>  C        1.6231422871     1.7269950032     2.2978239085
|  9>  O        0.2526390070     1.5625175873     2.6905935043
| 10>  C       -0.0469875382     0.1884578528     2.6253303506
| 11>  C        1.0922131395    -0.5946293649     2.0551395997
| 12>  C       -0.2135747430    -0.5602939408     1.2932972798
| 13>  N       -0.0146801811    -0.0176459261    -0.0445183222
| 14>  H       -0.3676127701     2.0617516102     0.6088458618
| 15>  H       -0.2632563264     1.7875268764    -1.2001770167
| 16>  H        1.9217617681     0.5234576602    -0.8805996768
| 17>  H        2.9822410940     0.3137047616     1.3050329598
| 18>  H        2.2693615583     1.7119736633     3.1873134686
| 19>  H        1.7206859158     2.6979706433     1.8044014978
| 20>  H       -0.6404449201    -0.1558623949     3.4664996135
| 21>  H        1.5570344615    -1.4653263788     2.5007856921
| 22>  H       -0.8974826586    -1.4024767606     1.3234836970
| 23> *
| 24>
| 25>                          ****END OF INPUT****

CARTESIAN COORDINATES (ANGSTROEM)
---------------------------------
  C      0.004688    1.449793   -0.201762
  C      1.275964    0.684812   -0.020133
  C      1.916304    0.535351    1.373290
  C      1.623142    1.726995    2.297824
  O      0.252639    1.562518    2.690594
  C     -0.046988    0.188458    2.625330
  C      1.092213   -0.594629    2.055140
  C     -0.213575   -0.560294    1.293297
  N     -0.014680   -0.017646   -0.044518
  H     -0.367613    2.061752    0.608846
  H     -0.263256    1.787527   -1.200177
  H      1.921762    0.523458   -0.880600
  H      2.982241    0.313705    1.305033
  H      2.269362    1.711974    3.187313
  H      1.720686    2.697971    1.804401
  H     -0.640445   -0.155862    3.466500
  H      1.557034   -1.465326    2.500786
  H     -0.897483   -1.402477    1.323484

 Total Charge           Charge          ....    0
 Multiplicity           Mult            ....    1
 Number of Electrons    NEL             ....   66
 Basis Dimension        Dim             ....  333

ORBITAL ENERGIES
----------------

  NO   OCC          E(Eh)            E(eV)
   0   2.0000     -20.561087      -559.4956
   1   2.0000     -15.557019      -423.3280
   2   2.0000     -11.286519      -307.1218
   3   2.0000     -11.281053      -306.9731
   4   2.0000     -11.260898      -306.4246
   5   2.0000     -11.256932      -306.3167
   6   2.0000     -11.249334      -306.1099
   7   2.0000     -11.247306      -306.0547
   8   2.0000     -11.233335      -305.6746
   9   2.0000      -1.391262       -37.8582
  10   2.0000      -1.279979       -34.8300
  11   2.0000      -1.125538       -30.6274
  12   2.0000      -1.041884       -28.3511
  13   2.0000      -0.923989       -25.1430
  14   2.0000      -0.871963       -23.7273
  15   2.0000      -0.798838       -21.7375
  16   2.0000      -0.779963       -21.2239
  17   2.0000      -0.774999       -21.0888
  18   2.0000      -0.728681       -19.8284
  19   2.0000      -0.661992       -18.0137
  20   2.0000      -0.618555       -16.8317
  21   2.0000      -0.611792       -16.6477
  22   2.0000      -0.606818       -16.5124
  23   2.0000      -0.591545       -16.0967
  24   2.0000      -0.562967       -15.3191
  25   2.0000      -0.509399       -13.8615
  26   2.0000      -0.491891       -13.3850
  27   2.0000      -0.486816       -13.2469
  28   2.0000      -0.481273       -13.0961
  29   2.0000      -0.466823       -12.7029
  30   2.0000      -0.408411       -11.1134
  31   2.0000      -0.383497       -10.4355
  32   2.0000      -0.352291        -9.5863
  33   0.0000       0.140668         3.8278
  34   0.0000       0.167364         4.5542
  35   0.0000       0.172211         4.6861
  36   0.0000       0.177841         4.8393
  37   0.0000       0.195395         5.3170

MULLIKEN ATOMIC CHARGES
-----------------------
   0 C :   -0.188517
   1 C :   -0.122338
   2 C :    0.002642
   3 C :   -0.073556
   4 O :   -0.332671
   5 C :    0.069120
   6 C :   -0.212659
   7 C :   -0.097733
   8 N :   -0.209231
   9 H :    0.166730
  10 H :    0.121777
  11 H :    0.123606
  12 H :    0.135166
  13 H :    0.104147
  14 H :    0.123682
  15 H :    0.124406
  16 H :    0.141632
  17 H :    0.123797
Sum of atomic charges:    0.0000000

LOEWDIN ATOMIC CHARGES
----------------------
   0 C :   -0.228121
   1 C :   -0.215198
   2 C :   -0.193761
   3 C :   -0.265119
   4 O :    0.167982
   5 C :   -0.255727
   6 C :   -0.156260
   7 C :   -0.216407
   8 N :    0.132534
   9 H :    0.135017
  10 H :    0.124267
  11 H :    0.137360
  12 H :    0.156205
  13 H :    0.123390
  14 H :    0.130038
  15 H :    0.139622
  16 H :    0.138320
  17 H :    0.145857

  Mayer bond orders larger than 0.1
B(  0-C ,  1-C ) :   0.9464 B(  0-C ,  8-N ) :   0.8673 B(  0-C ,  9-H ) :   0.9014
B(  0-C , 10-H ) :   0.9293 B(  1-C ,  2-C ) :   0.9255 B(  1-C ,  8-N ) :   0.8991
B(  1-C , 11-H ) :   0.9070 B(  2-C ,  3-C ) :   0.9361 B(  2-C ,  6-C ) :   0.8950
B(  2-C , 12-H ) :   0.9065 B(  3-C ,  4-O ) :   0.8927 B(  3-C , 13-H ) :   0.9167
B(  3-C , 14-H ) :   0.9275 B(  4-O ,  5-C ) :   0.9457 B(  5-C ,  6-C ) :   0.8927
B(  5-C ,  7-C ) :   0.8411 B(  5-C , 15-H ) :   0.9361 B(  6-C ,  7-C ) :   0.8644
B(  6-C , 16-H ) :   0.9067 B(  7-C ,  8-N ) :   0.9793 B(  7-C , 17-H ) :   0.9371

MP2 TOTAL ENERGY:     -401.205226433 Eh
FINAL SINGLE POINT ENERGY      -401.205226432844

DIPOLE MOMENT
-------------
                                X             Y             Z
Electronic contribution:     -1.58179      -0.82437       0.40971
Nuclear contribution   :      2.27119       0.76681      -0.12707
                        -----------------------------------------
Total Dipole Moment    :      0.68940      -0.05756       0.28264
                        -----------------------------------------
Magnitude (a.u.)       :      0.74730
Magnitude (Debye)      :      1.89950

                             ****ORCA TERMINATED NORMALLY****
TOTAL RUN TIME: 0 days 0 hours 18 minutes 14 seconds 418 msec
