                         Program Version 3.0.3 - RELEASE   -
|  1> ! RI-MP2 RIJK def2-TZVP def2-TZVP/C def2-TZVP/JK TIGHTSCF
|  2> % maxcore 2000
|  3> % mp2 density relaxed end
|  4> *xyz 0 1
|  5>  C       -0.0224857090     1.6366498588     0.0074251478
|  6>  C       -0.0369404212     0.0965130915     0.0455776484
|  7>  C       -1.4348651526    -0.4511644931     0.0126410600
|  8>  N       -2.1241762202    -0.7135917010    -1.0333131620
|  9>  O       -1.4422268799    -0.4407735226    -2.2153169204
| 10>  C       -2.1272314079    -0.6904199495     1.3367432669
| 11>  N       -3.3802464544    -1.2030596380     1.2578160762
| 12>  O       -1.5649799403    -0.4263733511     2.3857960947
| 13>  H        1.0067921285     2.0057826774     0.0361343754
| 14>  H       -0.4949143353     2.0103953539    -0.9051474922
| 15>  H       -0.5545175741     2.0464516048     0.8702442063
| 16>  H        0.5172491137    -0.3020421609    -0.8078304727
| 17>  H        0.4323005523    -0.2467081714     0.9697426393
| 18>  H       -2.0754423936    -0.7074895641    -2.8912200084
| 19>  H       -3.8048226027    -1.3622239029     0.3603114799
| 20>  H       -3.8985790232    -1.3418807218     2.1078420309
| 21> *
| 22>
| 23>                          ****END OF INPUT****

CARTESIAN COORDINATES (ANGSTROEM)
---------------------------------
  C     -0.022486    1.636650    0.007425
  C     -0.036940    0.096513    0.045578
  C     -1.434865   -0.451164    0.012641
  N     -2.124176   -0.713592   -1.033313
  O     -1.442227   -0.440774   -2.215317
  C     -2.127231   -0.690420    1.336743
  N     -3.380246   -1.203060    1.257816
  O     -1.564980   -0.426373    2.385796
  H      1.006792    2.005783    0.036134
  H     -0.494914    2.010395   -0.905147
  H     -0.554518    2.046452    0.870244
  H      0.517249   -0.302042   -0.807830
  H      0.432301   -0.246708    0.969743
  H     -2.075442   -0.707490   -2.891220
  H     -3.804823   -1.362224    0.360311
  H     -3.898579   -1.341881    2.107842

 Total Charge           Charge          ....    0
 Multiplicity           Mult            ....    1
 Number of Electrons    NEL             ....   62
 Basis Dimension        Dim             ....  296

ORBITAL ENERGIES
----------------

  NO   OCC          E(Eh)            E(eV)
   0   2.0000     -20.616129      -560.9934
   1   2.0000     -20.527518      -558.5822
   2   2.0000     -15.644823      -425.7173
   3   2.0000     -15.582413      -424.0190
   4   2.0000     -11.361737      -309.1686
   5   2.0000     -11.294138      -307.3291
   6   2.0000     -11.233054      -305.6669
   7   2.0000     -11.219392      -305.2952
   8   2.0000      -1.447365       -39.3848
   9   2.0000      -1.390100       -37.8265
  10   2.0000      -1.224461       -33.3193
  11   2.0000      -1.174556       -31.9613
  12   2.0000      -1.038155       -28.2496
  13   2.0000      -0.906949       -24.6793
  14   2.0000      -0.856813       -23.3151
  15   2.0000      -0.767506       -20.8849
  16   2.0000      -0.726745       -19.7757
  17   2.0000      -0.703118       -19.1328
  18   2.0000      -0.696953       -18.9650
  19   2.0000      -0.634006       -17.2522
  20   2.0000      -0.622042       -16.9266
  21   2.0000      -0.609974       -16.5982
  22   2.0000      -0.584602       -15.9078
  23   2.0000      -0.576161       -15.6781
  24   2.0000      -0.537714       -14.6319
  25   2.0000      -0.517998       -14.0954
  26   2.0000      -0.494037       -13.4434
  27   2.0000      -0.469644       -12.7797
  28   2.0000      -0.429886       -11.6978
  29   2.0000      -0.419300       -11.4097
  30   2.0000      -0.402061       -10.9406
  31   0.0000       0.098525         2.6810
  32   0.0000       0.130262         3.5446
  33   0.0000       0.148902         4.0518
  34   0.0000       0.164547         4.4775
  35   0.0000       0.191838         5.2202

MULLIKEN ATOMIC CHARGES
-----------------------
   0 C :   -0.436301
   1 C :   -0.161001
   2 C :    0.085391
   3 N :   -0.137397
   4 O :   -0.360729
   5 C :    0.257435
   6 N :   -0.461263
   7 O :   -0.355876
   8 H :    0.134568
   9 H :    0.139073
  10 H :    0.146407
  11 H :    0.133196
  12 H :    0.146770
  13 H :    0.338938
  14 H :    0.272919
  15 H :    0.257871
Sum of atomic charges:   -0.0000000

LOEWDIN ATOMIC CHARGES
----------------------
   0 C :   -0.301612
   1 C :   -0.254619
   2 C :   -0.243662
   3 N :    0.022043
   4 O :   -0.051452
   5 C :   -0.453378
   6 N :   -0.002171
   7 O :    0.089099
   8 H :    0.123020
   9 H :    0.123197
  10 H :    0.126635
  11 H :    0.146610
  12 H :    0.154925
  13 H :    0.174018
  14 H :    0.173362
  15 H :    0.173985

  Mayer bond orders larger than 0.1
B(  0-C ,  1-C ) :   0.8857 B(  0-C ,  8-H ) :   0.9366 B(  0-C ,  9-H ) :   0.9382
B(  0-C , 10-H ) :   0.9386 B(  1-C ,  2-C ) :   0.9432 B(  1-C , 11-H ) :   0.9223
B(  1-C , 12-H ) :   0.9124 B(  2-C ,  3-N ) :   1.6938 B(  2-C ,  5-C ) :   0.9172
B(  3-N ,  4-O ) :   0.8525 B(  4-O , 13-H ) :   0.8419 B(  5-C ,  6-N ) :   1.2113
B(  5-C ,  7-O ) :   1.9446 B(  6-N , 14-H ) :   0.8520 B(  6-N , 15-H ) :   0.8600

MP2 TOTAL ENERGY:     -416.393697541 Eh
FINAL SINGLE POINT ENERGY      -416.393697540795

DIPOLE MOMENT
-------------
                                X             Y             Z
Electronic contribution:     -3.90853      -4.26185       0.67899
Nuclear contribution   :      3.14652       3.99565      -1.69927
                        -----------------------------------------
Total Dipole Moment    :     -0.76200      -0.26620      -1.02028
                        -----------------------------------------
Magnitude (a.u.)       :      1.30095
Magnitude (Debye)      :      3.30676

                             ****ORCA TERMINATED NORMALLY****
TOTAL RUN TIME: 0 days 0 hours 10 minutes 8 seconds 612 msec
