                         Program Version 3.0.3 - RELEASE   -
|  1> ! RI-MP2 RIJK def2-TZVP def2-TZVP/C def2-TZVP/JK TIGHTSCF
|  2> % maxcore 2000
|  3> % mp2 density relaxed end
|  4> *xyz 0 1
|  5>  C        0.2669072089     0.6824991815    -0.6716365917
|  6>  O       -0.4641324733     0.3229746354     0.4902173152
|  7>  C       -1.5823800672    -0.4925558375     0.2538549247
|  8>  C       -1.2494872735    -1.9842805295     0.1027425760
|  9>  C       -2.4503166116    -2.9561502516     0.0432850822
| 10>  O       -2.0244976929    -3.4301450726    -1.2677262794
| 11>  C       -0.9465348271    -2.5570865917    -1.2719984587
| 12>  N       -0.0715016139    -2.3611714115    -2.1437067319
| 13>  C       -0.1087743307    -3.1269469846    -3.3820884834
| 14>  H        1.0701907073     1.3450825496    -0.3402582137
| 15>  H        0.6907144026    -0.1889213166    -1.1841238307
| 16>  H       -0.3703997566     1.2285971378    -1.3846941317
| 17>  H       -2.2254051313    -0.3833683650     1.1360481163
| 18>  H       -2.1553995613    -0.1439684136    -0.6210671295
| 19>  H       -0.4980350540    -2.2535673877     0.8495981362
| 20>  H       -2.4610929968    -3.7688591720     0.7732027891
| 21>  H       -3.4372234083    -2.4864967306    -0.0139811199
| 22>  H        0.8239434198    -3.6931109092    -3.4808575479
| 23>  H       -0.9518278175    -3.8237726725    -3.4513006183
| 24>  H       -0.1531397825    -2.4346430079    -4.2299477729
| 25> *
| 26>
| 27>                          ****END OF INPUT****

CARTESIAN COORDINATES (ANGSTROEM)
---------------------------------
  C      0.266907    0.682499   -0.671637
  O     -0.464132    0.322975    0.490217
  C     -1.582380   -0.492556    0.253855
  C     -1.249487   -1.984281    0.102743
  C     -2.450317   -2.956150    0.043285
  O     -2.024498   -3.430145   -1.267726
  C     -0.946535   -2.557087   -1.271998
  N     -0.071502   -2.361171   -2.143707
  C     -0.108774   -3.126947   -3.382088
  H      1.070191    1.345083   -0.340258
  H      0.690714   -0.188921   -1.184124
  H     -0.370400    1.228597   -1.384694
  H     -2.225405   -0.383368    1.136048
  H     -2.155400   -0.143968   -0.621067
  H     -0.498035   -2.253567    0.849598
  H     -2.461093   -3.768859    0.773203
  H     -3.437223   -2.486497   -0.013981
  H      0.823943   -3.693111   -3.480858
  H     -0.951828   -3.823773   -3.451301
  H     -0.153140   -2.434643   -4.229948

 Total Charge           Charge          ....    0
 Multiplicity           Mult            ....    1
 Number of Electrons    NEL             ....   70
 Basis Dimension        Dim             ....  345

ORBITAL ENERGIES
----------------

  NO   OCC          E(Eh)            E(eV)
   0   2.0000     -20.590150      -560.2865
   1   2.0000     -20.556104      -559.3600
   2   2.0000     -15.542246      -422.9260
   3   2.0000     -11.333920      -308.4117
   4   2.0000     -11.303270      -307.5776
   5   2.0000     -11.290126      -307.2199
   6   2.0000     -11.259758      -306.3936
   7   2.0000     -11.254975      -306.2635
   8   2.0000     -11.242755      -305.9309
   9   2.0000      -1.431916       -38.9644
  10   2.0000      -1.375343       -37.4250
  11   2.0000      -1.216448       -33.1012
  12   2.0000      -1.068958       -29.0878
  13   2.0000      -0.958053       -26.0700
  14   2.0000      -0.951373       -25.8882
  15   2.0000      -0.886203       -24.1148
  16   2.0000      -0.852113       -23.1872
  17   2.0000      -0.736959       -20.0537
  18   2.0000      -0.689536       -18.7632
  19   2.0000      -0.684026       -18.6133
  20   2.0000      -0.669977       -18.2310
  21   2.0000      -0.645998       -17.5785
  22   2.0000      -0.639799       -17.4098
  23   2.0000      -0.612937       -16.6789
  24   2.0000      -0.585310       -15.9271
  25   2.0000      -0.569164       -15.4877
  26   2.0000      -0.545453       -14.8425
  27   2.0000      -0.530961       -14.4482
  28   2.0000      -0.518559       -14.1107
  29   2.0000      -0.516072       -14.0430
  30   2.0000      -0.493635       -13.4325
  31   2.0000      -0.470922       -12.8144
  32   2.0000      -0.424021       -11.5382
  33   2.0000      -0.409521       -11.1436
  34   2.0000      -0.382888       -10.4189
  35   0.0000       0.137189         3.7331
  36   0.0000       0.155043         4.2189
  37   0.0000       0.162598         4.4245
  38   0.0000       0.165325         4.4987
  39   0.0000       0.185267         5.0414

MULLIKEN ATOMIC CHARGES
-----------------------
   0 C :   -0.219499
   1 O :   -0.318675
   2 C :   -0.071499
   3 C :   -0.058962
   4 C :   -0.041911
   5 O :   -0.286176
   6 C :    0.172348
   7 N :   -0.276189
   8 C :   -0.282100
   9 H :    0.133221
  10 H :    0.146192
  11 H :    0.102557
  12 H :    0.124984
  13 H :    0.107023
  14 H :    0.129202
  15 H :    0.119010
  16 H :    0.114018
  17 H :    0.137970
  18 H :    0.132805
  19 H :    0.135683
Sum of atomic charges:   -0.0000000

LOEWDIN ATOMIC CHARGES
----------------------
   0 C :   -0.350435
   1 O :    0.132370
   2 C :   -0.311670
   3 C :   -0.199048
   4 C :   -0.214383
   5 O :    0.205660
   6 C :   -0.350993
   7 N :    0.071086
   8 C :   -0.325724
   9 H :    0.111275
  10 H :    0.109069
  11 H :    0.101269
  12 H :    0.134943
  13 H :    0.126553
  14 H :    0.163217
  15 H :    0.122735
  16 H :    0.124278
  17 H :    0.119511
  18 H :    0.111814
  19 H :    0.118471

  Mayer bond orders larger than 0.1
B(  0-C ,  1-O ) :   0.8939 B(  0-C ,  9-H ) :   0.9377 B(  0-C , 10-H ) :   0.9230
B(  0-C , 11-H ) :   0.9377 B(  1-O ,  2-C ) :   0.9581 B(  2-C ,  3-C ) :   0.8805
B(  2-C , 12-H ) :   0.9308 B(  2-C , 13-H ) :   0.9360 B(  3-C ,  4-C ) :   0.9406
B(  3-C ,  6-C ) :   0.8963 B(  3-C , 14-H ) :   0.9075 B(  4-C ,  5-O ) :   0.9045
B(  4-C , 15-H ) :   0.9188 B(  4-C , 16-H ) :   0.9128 B(  5-O ,  6-C ) :   1.0413
B(  6-C ,  7-N ) :   1.8808 B(  7-N ,  8-C ) :   0.8525 B(  8-C , 17-H ) :   0.9354
B(  8-C , 18-H ) :   0.9313 B(  8-C , 19-H ) :   0.9350

MP2 TOTAL ENERGY:     -439.532205806 Eh
FINAL SINGLE POINT ENERGY      -439.532205805516

DIPOLE MOMENT
-------------
                                X             Y             Z
Electronic contribution:     -1.32675      -2.57815       2.24302
Nuclear contribution   :      0.79222       2.39126      -2.11854
                        -----------------------------------------
Total Dipole Moment    :     -0.53453      -0.18688       0.12447
                        -----------------------------------------
Magnitude (a.u.)       :      0.57978
Magnitude (Debye)      :      1.47368

                             ****ORCA TERMINATED NORMALLY****
TOTAL RUN TIME: 0 days 0 hours 16 minutes 37 seconds 336 msec
