                         Program Version 3.0.3 - RELEASE   -
|  1> ! RI-MP2 RIJK def2-TZVP def2-TZVP/C def2-TZVP/JK TIGHTSCF
|  2> % maxcore 2000
|  3> % mp2 density relaxed end
|  4> *xyz 0 1
|  5>  C       -0.0887590373     1.5040107191     0.0121579230
|  6>  C        0.0120687329    -0.0274538705     0.0026313203
|  7>  C        0.7417443628    -0.5083891446    -1.2609831927
|  8>  O        0.9293653580    -1.9112188419    -1.2573775133
|  9>  C        1.8647140144    -2.3279219693    -0.2814761726
| 10>  C        1.6436194333    -1.6956305127     1.0799660941
| 11>  O        2.1326295669    -0.3563098824     1.2591010199
| 12>  C        0.7087951995    -0.5682969493     1.2482021788
| 13>  C        0.0202889555    -0.3539507050     2.5767933928
| 14>  H        0.9032120406     1.9529039499     0.1259864087
| 15>  H       -0.5202795556     1.8685400617    -0.9259874931
| 16>  H       -0.7213742416     1.8677958049     0.8263084190
| 17>  H       -0.9980840928    -0.4583295702    -0.0151477197
| 18>  H        0.1429126486    -0.2806304185    -2.1477001483
| 19>  H        1.7073809703     0.0129734948    -1.3530337287
| 20>  H        1.7588644832    -3.4147108286    -0.2039501941
| 21>  H        2.8947750030    -2.1083601882    -0.6093311114
| 22>  H        1.8330285207    -2.3464997760     1.9347192709
| 23>  H       -0.0961457451     0.7124094345     2.7929939644
| 24>  H       -0.9765023326    -0.8080524700     2.5737902633
| 25>  H        0.6039549555    -0.7997356575     3.3860213687
| 26> *
| 27>
| 28>                          ****END OF INPUT****

CARTESIAN COORDINATES (ANGSTROEM)
---------------------------------
  C     -0.088759    1.504011    0.012158
  C      0.012069   -0.027454    0.002631
  C      0.741744   -0.508389   -1.260983
  O      0.929365   -1.911219   -1.257378
  C      1.864714   -2.327922   -0.281476
  C      1.643619   -1.695631    1.079966
  O      2.132630   -0.356310    1.259101
  C      0.708795   -0.568297    1.248202
  C      0.020289   -0.353951    2.576793
  H      0.903212    1.952904    0.125986
  H     -0.520280    1.868540   -0.925987
  H     -0.721374    1.867796    0.826308
  H     -0.998084   -0.458330   -0.015148
  H      0.142913   -0.280630   -2.147700
  H      1.707381    0.012973   -1.353034
  H      1.758864   -3.414711   -0.203950
  H      2.894775   -2.108360   -0.609331
  H      1.833029   -2.346500    1.934719
  H     -0.096146    0.712409    2.792994
  H     -0.976502   -0.808052    2.573790
  H      0.603955   -0.799736    3.386021

 Total Charge           Charge          ....    0
 Multiplicity           Mult            ....    1
 Number of Electrons    NEL             ....   70
 Basis Dimension        Dim             ....  351

ORBITAL ENERGIES
----------------

  NO   OCC          E(Eh)            E(eV)
   0   2.0000     -20.561302      -559.5015
   1   2.0000     -20.555279      -559.3376
   2   2.0000     -11.292109      -307.2739
   3   2.0000     -11.283264      -307.0332
   4   2.0000     -11.280138      -306.9482
   5   2.0000     -11.271661      -306.7175
   6   2.0000     -11.235157      -305.7242
   7   2.0000     -11.225728      -305.4676
   8   2.0000     -11.219863      -305.3080
   9   2.0000      -1.412576       -38.4382
  10   2.0000      -1.372832       -37.3567
  11   2.0000      -1.083193       -29.4752
  12   2.0000      -1.010211       -27.4892
  13   2.0000      -0.985328       -26.8122
  14   2.0000      -0.924977       -25.1699
  15   2.0000      -0.853929       -23.2366
  16   2.0000      -0.833775       -22.6882
  17   2.0000      -0.743663       -20.2361
  18   2.0000      -0.696145       -18.9431
  19   2.0000      -0.664486       -18.0816
  20   2.0000      -0.644134       -17.5278
  21   2.0000      -0.634661       -17.2700
  22   2.0000      -0.602710       -16.4006
  23   2.0000      -0.591838       -16.1047
  24   2.0000      -0.577512       -15.7149
  25   2.0000      -0.551117       -14.9966
  26   2.0000      -0.544611       -14.8196
  27   2.0000      -0.536055       -14.5868
  28   2.0000      -0.515713       -14.0333
  29   2.0000      -0.507970       -13.8226
  30   2.0000      -0.493458       -13.4277
  31   2.0000      -0.457581       -12.4514
  32   2.0000      -0.436475       -11.8771
  33   2.0000      -0.426144       -11.5960
  34   2.0000      -0.405207       -11.0262
  35   0.0000       0.136510         3.7146
  36   0.0000       0.158288         4.3072
  37   0.0000       0.162989         4.4352
  38   0.0000       0.171307         4.6615
  39   0.0000       0.192815         5.2468

MULLIKEN ATOMIC CHARGES
-----------------------
   0 C :   -0.471011
   1 C :    0.011091
   2 C :   -0.091448
   3 O :   -0.313605
   4 C :   -0.012553
   5 C :   -0.050183
   6 O :   -0.345200
   7 C :    0.210393
   8 C :   -0.442717
   9 H :    0.151122
  10 H :    0.137151
  11 H :    0.137058
  12 H :    0.087126
  13 H :    0.128673
  14 H :    0.110326
  15 H :    0.120727
  16 H :    0.096919
  17 H :    0.114313
  18 H :    0.143442
  19 H :    0.136125
  20 H :    0.142251
Sum of atomic charges:    0.0000000

LOEWDIN ATOMIC CHARGES
----------------------
   0 C :   -0.284574
   1 C :   -0.247395
   2 C :   -0.290558
   3 O :    0.158328
   4 C :   -0.303481
   5 C :   -0.244932
   6 O :    0.176531
   7 C :   -0.302270
   8 C :   -0.262546
   9 H :    0.131222
  10 H :    0.126525
  11 H :    0.123523
  12 H :    0.159651
  13 H :    0.132232
  14 H :    0.128927
  15 H :    0.135289
  16 H :    0.129309
  17 H :    0.139302
  18 H :    0.130030
  19 H :    0.132395
  20 H :    0.132492

  Mayer bond orders larger than 0.1
B(  0-C ,  1-C ) :   0.8808 B(  0-C ,  9-H ) :   0.9311 B(  0-C , 10-H ) :   0.9391
B(  0-C , 11-H ) :   0.9371 B(  1-C ,  2-C ) :   0.9280 B(  1-C ,  7-C ) :   0.9337
B(  1-C , 12-H ) :   0.9095 B(  2-C ,  3-O ) :   0.9184 B(  2-C , 13-H ) :   0.9275
B(  2-C , 14-H ) :   0.9354 B(  3-O ,  4-C ) :   0.9503 B(  4-C ,  5-C ) :   0.8987
B(  4-C , 15-H ) :   0.9257 B(  4-C , 16-H ) :   0.9241 B(  5-C ,  6-O ) :   0.9110
B(  5-C ,  7-C ) :   0.9585 B(  5-C , 17-H ) :   0.9160 B(  6-O ,  7-C ) :   0.8524
B(  7-C ,  8-C ) :   0.8680 B(  8-C , 18-H ) :   0.9404 B(  8-C , 19-H ) :   0.9351
B(  8-C , 20-H ) :   0.9400

MP2 TOTAL ENERGY:     -423.519581954 Eh
FINAL SINGLE POINT ENERGY      -423.519581954486

DIPOLE MOMENT
-------------
                                X             Y             Z
Electronic contribution:      3.48041      -4.17305      -1.53910
Nuclear contribution   :     -3.90668       4.13967       1.84834
                        -----------------------------------------
Total Dipole Moment    :     -0.42626      -0.03338       0.30924
                        -----------------------------------------
Magnitude (a.u.)       :      0.52768
Magnitude (Debye)      :      1.34126

                             ****ORCA TERMINATED NORMALLY****
TOTAL RUN TIME: 0 days 0 hours 18 minutes 59 seconds 984 msec
