                         Program Version 3.0.3 - RELEASE   -
|  1> ! RI-MP2 RIJK def2-TZVP def2-TZVP/C def2-TZVP/JK TIGHTSCF
|  2> % maxcore 2000
|  3> % mp2 density relaxed end
|  4> *xyz 0 1
|  5>  C        0.0953150778     1.4734964604     0.1936590164
|  6>  N       -0.0491253893     0.0362671408     0.1691404453
|  7>  C       -1.3453409369    -0.5502484359     0.5633850221
|  8>  C       -0.5697900990    -1.7031461730     1.2218787082
|  9>  C        0.6564648191    -0.7667156893     1.1899392469
| 10>  O       -1.0932978860    -2.0758350065     2.4910067953
| 11>  C       -0.4079378344    -3.0647722423     3.1232739230
| 12>  N       -0.9820837452    -3.3250144886     4.3348516093
| 13>  O        0.5804571311    -3.6040987757     2.6842796387
| 14>  H        1.1304881882     1.7455628439    -0.0382882330
| 15>  H       -0.5483889986     1.9252574488    -0.5688719772
| 16>  H       -0.1659093288     1.9213905706     1.1721295691
| 17>  H       -1.8810775453     0.0358965320     1.3283444174
| 18>  H       -2.0270897548    -0.7789361543    -0.2620471693
| 19>  H       -0.4484566956    -2.5873697762     0.5960764134
| 20>  H        1.6185224718    -1.1826903908     0.8804506626
| 21>  H        0.7716838920    -0.2478487524     2.1560889439
| 22>  H       -1.9134938233    -2.9910443264     4.5144576389
| 23>  H       -0.6812325029    -4.1649299951     4.7979899689
| 24> *
| 25>
| 26>                          ****END OF INPUT****

CARTESIAN COORDINATES (ANGSTROEM)
---------------------------------
  C      0.095315    1.473496    0.193659
  N     -0.049125    0.036267    0.169140
  C     -1.345341   -0.550248    0.563385
  C     -0.569790   -1.703146    1.221879
  C      0.656465   -0.766716    1.189939
  O     -1.093298   -2.075835    2.491007
  C     -0.407938   -3.064772    3.123274
  N     -0.982084   -3.325014    4.334852
  O      0.580457   -3.604099    2.684280
  H      1.130488    1.745563   -0.038288
  H     -0.548389    1.925257   -0.568872
  H     -0.165909    1.921391    1.172130
  H     -1.881078    0.035897    1.328344
  H     -2.027090   -0.778936   -0.262047
  H     -0.448457   -2.587370    0.596076
  H      1.618522   -1.182690    0.880451
  H      0.771684   -0.247849    2.156089
  H     -1.913494   -2.991044    4.514458
  H     -0.681233   -4.164930    4.797990

 Total Charge           Charge          ....    0
 Multiplicity           Mult            ....    1
 Number of Electrons    NEL             ....   70
 Basis Dimension        Dim             ....  339

ORBITAL ENERGIES
----------------

  NO   OCC          E(Eh)            E(eV)
   0   2.0000     -20.602702      -560.6280
   1   2.0000     -20.528400      -558.6062
   2   2.0000     -15.588483      -424.1842
   3   2.0000     -15.547628      -423.0725
   4   2.0000     -11.404757      -310.3392
   5   2.0000     -11.291974      -307.2702
   6   2.0000     -11.254845      -306.2599
   7   2.0000     -11.250316      -306.1367
   8   2.0000     -11.243850      -305.9607
   9   2.0000      -1.466398       -39.9027
  10   2.0000      -1.360280       -37.0151
  11   2.0000      -1.252047       -34.0699
  12   2.0000      -1.218840       -33.1663
  13   2.0000      -1.028354       -27.9829
  14   2.0000      -0.925658       -25.1884
  15   2.0000      -0.900960       -24.5164
  16   2.0000      -0.811385       -22.0789
  17   2.0000      -0.766096       -20.8465
  18   2.0000      -0.752220       -20.4689
  19   2.0000      -0.708293       -19.2736
  20   2.0000      -0.683006       -18.5855
  21   2.0000      -0.658961       -17.9312
  22   2.0000      -0.647280       -17.6134
  23   2.0000      -0.623256       -16.9597
  24   2.0000      -0.601431       -16.3658
  25   2.0000      -0.568968       -15.4824
  26   2.0000      -0.555608       -15.1189
  27   2.0000      -0.548237       -14.9183
  28   2.0000      -0.519292       -14.1307
  29   2.0000      -0.487451       -13.2642
  30   2.0000      -0.471182       -12.8215
  31   2.0000      -0.458566       -12.4782
  32   2.0000      -0.443008       -12.0549
  33   2.0000      -0.431973       -11.7546
  34   2.0000      -0.362680        -9.8690
  35   0.0000       0.131504         3.5784
  36   0.0000       0.144599         3.9347
  37   0.0000       0.168610         4.5881
  38   0.0000       0.182364         4.9624
  39   0.0000       0.187150         5.0926

MULLIKEN ATOMIC CHARGES
-----------------------
   0 C :   -0.316955
   1 N :   -0.136866
   2 C :   -0.153919
   3 C :    0.101624
   4 C :   -0.202389
   5 O :   -0.292699
   6 C :    0.417602
   7 N :   -0.508152
   8 O :   -0.375694
   9 H :    0.137840
  10 H :    0.135576
  11 H :    0.101451
  12 H :    0.098382
  13 H :    0.117482
  14 H :    0.111844
  15 H :    0.128067
  16 H :    0.098342
  17 H :    0.268172
  18 H :    0.270293
Sum of atomic charges:   -0.0000000

LOEWDIN ATOMIC CHARGES
----------------------
   0 C :   -0.341891
   1 N :    0.063079
   2 C :   -0.234370
   3 C :   -0.269820
   4 C :   -0.234323
   5 O :    0.245928
   6 C :   -0.608592
   7 N :   -0.033715
   8 O :    0.081209
   9 H :    0.119438
  10 H :    0.118473
  11 H :    0.100026
  12 H :    0.125529
  13 H :    0.121294
  14 H :    0.143438
  15 H :    0.125371
  16 H :    0.125903
  17 H :    0.174896
  18 H :    0.178127

  Mayer bond orders larger than 0.1
B(  0-C ,  1-N ) :   0.9089 B(  0-C ,  9-H ) :   0.9382 B(  0-C , 10-H ) :   0.9374
B(  0-C , 11-H ) :   0.9258 B(  1-N ,  2-C ) :   0.9288 B(  1-N ,  4-C ) :   0.9353
B(  2-C ,  3-C ) :   0.9185 B(  2-C , 12-H ) :   0.9112 B(  2-C , 13-H ) :   0.9222
B(  3-C ,  4-C ) :   0.9529 B(  3-C ,  5-O ) :   0.8893 B(  3-C , 14-H ) :   0.9319
B(  4-C , 15-H ) :   0.9155 B(  4-C , 16-H ) :   0.9130 B(  5-O ,  6-C ) :   1.0629
B(  6-C ,  7-N ) :   1.1624 B(  6-C ,  8-O ) :   1.9235 B(  7-N , 17-H ) :   0.8637
B(  7-N , 18-H ) :   0.8663

MP2 TOTAL ENERGY:     -455.626679970 Eh
FINAL SINGLE POINT ENERGY      -455.626679969554

DIPOLE MOMENT
-------------
                                X             Y             Z
Electronic contribution:     -0.32494      -8.07949       3.91050
Nuclear contribution   :     -0.59339       8.34974      -3.32056
                        -----------------------------------------
Total Dipole Moment    :     -0.91833       0.27025       0.58994
                        -----------------------------------------
Magnitude (a.u.)       :      1.12445
Magnitude (Debye)      :      2.85813

                             ****ORCA TERMINATED NORMALLY****
TOTAL RUN TIME: 0 days 0 hours 14 minutes 58 seconds 401 msec
