                         Program Version 3.0.3 - RELEASE   -
|  1> ! RI-MP2 RIJK def2-TZVP def2-TZVP/C def2-TZVP/JK TIGHTSCF
|  2> % maxcore 2000
|  3> % mp2 density relaxed end
|  4> *xyz 0 1
|  5>  C       -0.0276696062     1.5559363505     0.0097723104
|  6>  C        0.0085176911     0.0445875767    -0.0399489425
|  7>  C        1.0721296367    -0.6784674745    -0.9320131577
|  8>  C        1.1528470135    -1.6796676663     0.2116745667
|  9>  C       -0.1574051087    -2.4767717730     0.5973370820
| 10>  C       -0.0890369906    -1.6201851296     1.9042818576
| 11>  N        0.7201633945    -0.5947268167     1.1932865932
| 12>  C       -1.3519547377    -1.9365403585    -0.1409606070
| 13>  C       -1.3059327097    -0.6226137070    -0.3714217340
| 14>  H        0.9636278794     1.9563062320     0.2356690354
| 15>  H       -0.3629516270     1.9670342379    -0.9495760469
| 16>  H       -0.7191965852     1.9034494847     0.7854133239
| 17>  H        0.7629876796    -1.0000554486    -1.9274454505
| 18>  H        2.0025657587    -0.1054492915    -0.9809382448
| 19>  H        2.0882045344    -2.2061027313     0.4215455034
| 20>  H       -0.1102989568    -3.5653745485     0.6584017915
| 21>  H       -1.0352895412    -1.2930615480     2.3438446871
| 22>  H        0.5495732366    -2.0656335380     2.6747112514
| 23>  H       -2.2096762428    -2.5642361264    -0.3567780984
| 24>  H       -2.1104378288    -0.0495275038    -0.8211224309
| 25> *
| 26>
| 27>                          ****END OF INPUT****

CARTESIAN COORDINATES (ANGSTROEM)
---------------------------------
  C     -0.027670    1.555936    0.009772
  C      0.008518    0.044588   -0.039949
  C      1.072130   -0.678467   -0.932013
  C      1.152847   -1.679668    0.211675
  C     -0.157405   -2.476772    0.597337
  C     -0.089037   -1.620185    1.904282
  N      0.720163   -0.594727    1.193287
  C     -1.351955   -1.936540   -0.140961
  C     -1.305933   -0.622614   -0.371422
  H      0.963628    1.956306    0.235669
  H     -0.362952    1.967034   -0.949576
  H     -0.719197    1.903449    0.785413
  H      0.762988   -1.000055   -1.927445
  H      2.002566   -0.105449   -0.980938
  H      2.088205   -2.206103    0.421546
  H     -0.110299   -3.565375    0.658402
  H     -1.035290   -1.293062    2.343845
  H      0.549573   -2.065634    2.674711
  H     -2.209676   -2.564236   -0.356778
  H     -2.110438   -0.049528   -0.821122

 Total Charge           Charge          ....    0
 Multiplicity           Mult            ....    1
 Number of Electrons    NEL             ....   66
 Basis Dimension        Dim             ....  345

ORBITAL ENERGIES
----------------

  NO   OCC          E(Eh)            E(eV)
   0   2.0000     -15.542253      -422.9262
   1   2.0000     -11.265572      -306.5518
   2   2.0000     -11.258138      -306.3495
   3   2.0000     -11.246870      -306.0429
   4   2.0000     -11.235510      -305.7338
   5   2.0000     -11.227395      -305.5130
   6   2.0000     -11.221991      -305.3659
   7   2.0000     -11.221144      -305.3428
   8   2.0000     -11.210944      -305.0653
   9   2.0000      -1.271051       -34.5871
  10   2.0000      -1.067110       -29.0375
  11   2.0000      -1.053690       -28.6724
  12   2.0000      -0.979951       -26.6658
  13   2.0000      -0.927966       -25.2512
  14   2.0000      -0.844876       -22.9902
  15   2.0000      -0.797845       -21.7105
  16   2.0000      -0.791392       -21.5349
  17   2.0000      -0.684546       -18.6275
  18   2.0000      -0.666573       -18.1384
  19   2.0000      -0.617477       -16.8024
  20   2.0000      -0.612346       -16.6628
  21   2.0000      -0.593138       -16.1401
  22   2.0000      -0.585155       -15.9229
  23   2.0000      -0.559439       -15.2231
  24   2.0000      -0.552188       -15.0258
  25   2.0000      -0.515613       -14.0305
  26   2.0000      -0.500906       -13.6304
  27   2.0000      -0.485351       -13.2071
  28   2.0000      -0.461068       -12.5463
  29   2.0000      -0.432440       -11.7673
  30   2.0000      -0.415990       -11.3197
  31   2.0000      -0.356081        -9.6895
  32   2.0000      -0.340137        -9.2556
  33   0.0000       0.138332         3.7642
  34   0.0000       0.145988         3.9725
  35   0.0000       0.156954         4.2709
  36   0.0000       0.173261         4.7147
  37   0.0000       0.176332         4.7982

MULLIKEN ATOMIC CHARGES
-----------------------
   0 C :   -0.416917
   1 C :    0.240458
   2 C :   -0.223153
   3 C :   -0.121257
   4 C :    0.048913
   5 C :   -0.184955
   6 N :   -0.192610
   7 C :   -0.245991
   8 C :   -0.256008
   9 H :    0.139668
  10 H :    0.126212
  11 H :    0.131282
  12 H :    0.122301
  13 H :    0.112812
  14 H :    0.114124
  15 H :    0.119470
  16 H :    0.117382
  17 H :    0.124443
  18 H :    0.125100
  19 H :    0.118724
Sum of atomic charges:    0.0000000

LOEWDIN ATOMIC CHARGES
----------------------
   0 C :   -0.272408
   1 C :   -0.263553
   2 C :   -0.183158
   3 C :   -0.188362
   4 C :   -0.191171
   5 C :   -0.236819
   6 N :    0.136275
   7 C :   -0.140980
   8 C :   -0.128497
   9 H :    0.129116
  10 H :    0.127857
  11 H :    0.129564
  12 H :    0.131100
  13 H :    0.144551
  14 H :    0.131611
  15 H :    0.136475
  16 H :    0.123196
  17 H :    0.133029
  18 H :    0.139405
  19 H :    0.142767

  Mayer bond orders larger than 0.1
B(  0-C ,  1-C ) :   0.8568 B(  0-C ,  9-H ) :   0.9482 B(  0-C , 10-H ) :   0.9332
B(  0-C , 11-H ) :   0.9387 B(  1-C ,  2-C ) :   0.9265 B(  1-C ,  6-N ) :   0.9318
B(  1-C ,  8-C ) :   0.9595 B(  2-C ,  3-C ) :   0.9947 B(  2-C , 12-H ) :   0.9118
B(  2-C , 13-H ) :   0.8997 B(  3-C ,  4-C ) :   0.9047 B(  3-C ,  6-N ) :   0.9551
B(  3-C , 14-H ) :   0.8921 B(  4-C ,  5-C ) :   0.8836 B(  4-C ,  7-C ) :   0.9549
B(  4-C , 15-H ) :   0.9133 B(  5-C ,  6-N ) :   0.9406 B(  5-C , 16-H ) :   0.9216
B(  5-C , 17-H ) :   0.9219 B(  7-C ,  8-C ) :   1.7858 B(  7-C , 18-H ) :   0.9439
B(  8-C , 19-H ) :   0.9416

MP2 TOTAL ENERGY:     -365.307461029 Eh
FINAL SINGLE POINT ENERGY      -365.307461028807

DIPOLE MOMENT
-------------
                                X             Y             Z
Electronic contribution:      0.03251      -2.65619       0.60860
Nuclear contribution   :     -0.29485       2.30840      -0.90936
                        -----------------------------------------
Total Dipole Moment    :     -0.26234      -0.34778      -0.30076
                        -----------------------------------------
Magnitude (a.u.)       :      0.52937
Magnitude (Debye)      :      1.34554

                             ****ORCA TERMINATED NORMALLY****
TOTAL RUN TIME: 0 days 0 hours 22 minutes 47 seconds 129 msec
