                         Program Version 3.0.3 - RELEASE   -
|  1> ! RI-MP2 RIJK def2-TZVP def2-TZVP/C def2-TZVP/JK TIGHTSCF
|  2> % maxcore 2000
|  3> % mp2 density relaxed end
|  4> *xyz 0 1
|  5>  C        0.2059392521     1.5734990570     0.1656707891
|  6>  C       -0.1450672730     0.1001414482    -0.0764758676
|  7>  C        0.6069101369    -0.5005708046    -1.2495246247
|  8>  O        0.3329553541     0.1274870526    -2.4819585402
|  9>  C        2.0045691510    -1.0541260243    -1.0705268947
| 10>  C        0.8399589873    -1.9773915260    -1.3910460244
| 11>  C        0.3503120448    -3.0114872540    -0.4019932655
| 12>  H        1.2766636125     1.6986409150     0.3612932033
| 13>  H       -0.0560911466     2.1904063120    -0.7006897503
| 14>  H       -0.3413856240     1.9729974801     1.0243728161
| 15>  H        0.0678162181    -0.4761510204     0.8293821531
| 16>  H       -1.2216219097     0.0069648531    -0.2666921927
| 17>  H        0.7698198456     0.9859101646    -2.4789340338
| 18>  H        2.7284896452    -0.8574868918    -1.8538270529
| 19>  H        2.4180919884    -1.0909514213    -0.0665994171
| 20>  H        0.8047128057    -2.2984846538    -2.4285054150
| 21>  H        0.4466804669    -2.6703732899     0.6328515041
| 22>  H       -0.7022580557    -3.2634807499    -0.5729886258
| 23>  H        0.9319231005    -3.9353826666    -0.4937772912
| 24> *
| 25>
| 26>                          ****END OF INPUT****

CARTESIAN COORDINATES (ANGSTROEM)
---------------------------------
  C      0.205939    1.573499    0.165671
  C     -0.145067    0.100141   -0.076476
  C      0.606910   -0.500571   -1.249525
  O      0.332955    0.127487   -2.481959
  C      2.004569   -1.054126   -1.070527
  C      0.839959   -1.977392   -1.391046
  C      0.350312   -3.011487   -0.401993
  H      1.276664    1.698641    0.361293
  H     -0.056091    2.190406   -0.700690
  H     -0.341386    1.972997    1.024373
  H      0.067816   -0.476151    0.829382
  H     -1.221622    0.006965   -0.266692
  H      0.769820    0.985910   -2.478934
  H      2.728490   -0.857487   -1.853827
  H      2.418092   -1.090951   -0.066599
  H      0.804713   -2.298485   -2.428505
  H      0.446680   -2.670373    0.632852
  H     -0.702258   -3.263481   -0.572989
  H      0.931923   -3.935383   -0.493777

 Total Charge           Charge          ....    0
 Multiplicity           Mult            ....    1
 Number of Electrons    NEL             ....   56
 Basis Dimension        Dim             ....  289

ORBITAL ENERGIES
----------------

  NO   OCC          E(Eh)            E(eV)
   0   2.0000     -20.554453      -559.3151
   1   2.0000     -11.279774      -306.9383
   2   2.0000     -11.225092      -305.4503
   3   2.0000     -11.223352      -305.4029
   4   2.0000     -11.217953      -305.2560
   5   2.0000     -11.217861      -305.2535
   6   2.0000     -11.216459      -305.2154
   7   2.0000      -1.365162       -37.1479
   8   2.0000      -1.133820       -30.8528
   9   2.0000      -1.030237       -28.0342
  10   2.0000      -0.958359       -26.0783
  11   2.0000      -0.874009       -23.7830
  12   2.0000      -0.805358       -21.9149
  13   2.0000      -0.743817       -20.2403
  14   2.0000      -0.685156       -18.6441
  15   2.0000      -0.642854       -17.4929
  16   2.0000      -0.625650       -17.0248
  17   2.0000      -0.604921       -16.4607
  18   2.0000      -0.570185       -15.5155
  19   2.0000      -0.551813       -15.0156
  20   2.0000      -0.544034       -14.8039
  21   2.0000      -0.526582       -14.3290
  22   2.0000      -0.509188       -13.8557
  23   2.0000      -0.496815       -13.5190
  24   2.0000      -0.493378       -13.4255
  25   2.0000      -0.473161       -12.8754
  26   2.0000      -0.392996       -10.6940
  27   2.0000      -0.385570       -10.4919
  28   0.0000       0.133134         3.6228
  29   0.0000       0.149941         4.0801
  30   0.0000       0.171397         4.6639
  31   0.0000       0.181558         4.9405
  32   0.0000       0.194925         5.3042

MULLIKEN ATOMIC CHARGES
-----------------------
   0 C :   -0.434722
   1 C :   -0.183000
   2 C :    0.211391
   3 O :   -0.473318
   4 C :   -0.356353
   5 C :   -0.056092
   6 C :   -0.395748
   7 H :    0.132471
   8 H :    0.120918
   9 H :    0.137765
  10 H :    0.096272
  11 H :    0.116509
  12 H :    0.319961
  13 H :    0.136420
  14 H :    0.117455
  15 H :    0.120774
  16 H :    0.118418
  17 H :    0.134120
  18 H :    0.136759
Sum of atomic charges:    0.0000000

LOEWDIN ATOMIC CHARGES
----------------------
   0 C :   -0.319427
   1 C :   -0.255544
   2 C :   -0.351349
   3 O :    0.019115
   4 C :   -0.203695
   5 C :   -0.215090
   6 C :   -0.294712
   7 H :    0.121806
   8 H :    0.117787
   9 H :    0.122662
  10 H :    0.141010
  11 H :    0.143594
  12 H :    0.176514
  13 H :    0.133147
  14 H :    0.133573
  15 H :    0.155385
  16 H :    0.122115
  17 H :    0.126515
  18 H :    0.126594

  Mayer bond orders larger than 0.1
B(  0-C ,  1-C ) :   0.9038 B(  0-C ,  7-H ) :   0.9374 B(  0-C ,  8-H ) :   0.9409
B(  0-C ,  9-H ) :   0.9405 B(  1-C ,  2-C ) :   0.9402 B(  1-C , 10-H ) :   0.9223
B(  1-C , 11-H ) :   0.9281 B(  2-C ,  3-O ) :   0.9451 B(  2-C ,  4-C ) :   0.8881
B(  2-C ,  5-C ) :   0.8525 B(  3-O , 12-H ) :   0.8420 B(  4-C ,  5-C ) :   0.9113
B(  4-C , 13-H ) :   0.9226 B(  4-C , 14-H ) :   0.9150 B(  5-C ,  6-C ) :   0.9038
B(  5-C , 15-H ) :   0.9249 B(  6-C , 16-H ) :   0.9357 B(  6-C , 17-H ) :   0.9404
B(  6-C , 18-H ) :   0.9392

MP2 TOTAL ENERGY:     -310.377440376 Eh
FINAL SINGLE POINT ENERGY      -310.377440375784

DIPOLE MOMENT
-------------
                                X             Y             Z
Electronic contribution:      0.20726       0.23007      -4.45886
Nuclear contribution   :      0.05825      -0.02568       4.91198
                        -----------------------------------------
Total Dipole Moment    :      0.26552       0.20439       0.45312
                        -----------------------------------------
Magnitude (a.u.)       :      0.56355
Magnitude (Debye)      :      1.43244

                             ****ORCA TERMINATED NORMALLY****
TOTAL RUN TIME: 0 days 0 hours 9 minutes 23 seconds 142 msec
