                         Program Version 3.0.3 - RELEASE   -
|  1> ! RI-MP2 RIJK def2-TZVP def2-TZVP/C def2-TZVP/JK TIGHTSCF
|  2> % maxcore 2000
|  3> % mp2 density relaxed end
|  4> *xyz 0 1
|  5>  O       -0.0617656900     0.0968903449    -0.7458669398
|  6>  C       -0.0828178809     1.1831763676    -0.2139496953
|  7>  N        1.0221181865     1.8464557882     0.2463945176
|  8>  C        2.3306361889     1.2631666922     0.2057405378
|  9>  C        3.4959163256     1.9090194539    -0.5499493896
| 10>  C        4.0187553438     3.1003767540     0.1328888873
| 11>  N        4.4244112030     1.7604911155     0.6617355112
| 12>  C        3.2689878607     1.3314928264     1.4384371834
| 13>  O        3.1744727165     1.1003092849     2.5998783510
| 14>  H       -1.0100828031     1.7631596622    -0.0471023046
| 15>  H        0.8868746754     2.7295739468     0.7122008345
| 16>  H        2.2020597164     0.2200540076    -0.0989830835
| 17>  H        3.8395731212     1.5991349366    -1.5289571924
| 18>  H        4.8462526729     3.6327520149    -0.3235379399
| 19>  H        3.3711175331     3.7242349444     0.7452466221
| 20> *
| 21>
| 22>                          ****END OF INPUT****

CARTESIAN COORDINATES (ANGSTROEM)
---------------------------------
  O     -0.061766    0.096890   -0.745867
  C     -0.082818    1.183176   -0.213950
  N      1.022118    1.846456    0.246395
  C      2.330636    1.263167    0.205741
  C      3.495916    1.909019   -0.549949
  C      4.018755    3.100377    0.132889
  N      4.424411    1.760491    0.661736
  C      3.268988    1.331493    1.438437
  O      3.174473    1.100309    2.599878
  H     -1.010083    1.763160   -0.047102
  H      0.886875    2.729574    0.712201
  H      2.202060    0.220054   -0.098983
  H      3.839573    1.599135   -1.528957
  H      4.846253    3.632752   -0.323538
  H      3.371118    3.724235    0.745247

 Total Charge           Charge          ....    0
 Multiplicity           Mult            ....    1
 Number of Electrons    NEL             ....   66
 Basis Dimension        Dim             ....  315

ORBITAL ENERGIES
----------------

  NO   OCC          E(Eh)            E(eV)
   0   2.0000     -20.572083      -559.7948
   1   2.0000     -20.544858      -559.0540
   2   2.0000     -15.616477      -424.9459
   3   2.0000     -15.601157      -424.5291
   4   2.0000     -11.374771      -309.5232
   5   2.0000     -11.370890      -309.4176
   6   2.0000     -11.312920      -307.8402
   7   2.0000     -11.304497      -307.6110
   8   2.0000     -11.300060      -307.4903
   9   2.0000      -1.429806       -38.9070
  10   2.0000      -1.406627       -38.2763
  11   2.0000      -1.328649       -36.1544
  12   2.0000      -1.257904       -34.2293
  13   2.0000      -1.027173       -27.9508
  14   2.0000      -0.964474       -26.2447
  15   2.0000      -0.870492       -23.6873
  16   2.0000      -0.826390       -22.4872
  17   2.0000      -0.800999       -21.7963
  18   2.0000      -0.717976       -19.5371
  19   2.0000      -0.709905       -19.3175
  20   2.0000      -0.693726       -18.8773
  21   2.0000      -0.685405       -18.6508
  22   2.0000      -0.637951       -17.3595
  23   2.0000      -0.605818       -16.4851
  24   2.0000      -0.596520       -16.2321
  25   2.0000      -0.579495       -15.7689
  26   2.0000      -0.563112       -15.3231
  27   2.0000      -0.534782       -14.5522
  28   2.0000      -0.475597       -12.9417
  29   2.0000      -0.460385       -12.5277
  30   2.0000      -0.454874       -12.3777
  31   2.0000      -0.427760       -11.6400
  32   2.0000      -0.405379       -11.0309
  33   0.0000       0.106294         2.8924
  34   0.0000       0.130140         3.5413
  35   0.0000       0.151081         4.1111
  36   0.0000       0.162207         4.4139
  37   0.0000       0.168106         4.5744

MULLIKEN ATOMIC CHARGES
-----------------------
   0 O :   -0.349166
   1 C :    0.202855
   2 N :   -0.324922
   3 C :   -0.036434
   4 C :   -0.050992
   5 C :   -0.170929
   6 N :   -0.187887
   7 C :    0.180450
   8 O :   -0.217964
   9 H :    0.092448
  10 H :    0.241450
  11 H :    0.177146
  12 H :    0.156178
  13 H :    0.153124
  14 H :    0.134644
Sum of atomic charges:    0.0000000

LOEWDIN ATOMIC CHARGES
----------------------
   0 O :    0.072510
   1 C :   -0.417267
   2 N :    0.105418
   3 C :   -0.225050
   4 C :   -0.181614
   5 C :   -0.218633
   6 N :    0.148315
   7 C :   -0.368217
   8 O :    0.188712
   9 H :    0.114049
  10 H :    0.188495
  11 H :    0.180973
  12 H :    0.141567
  13 H :    0.140995
  14 H :    0.129749

  Mayer bond orders larger than 0.1
B(  0-O ,  1-C ) :   1.8899 B(  1-C ,  2-N ) :   1.1277 B(  1-C ,  9-H ) :   0.9272
B(  2-N ,  3-C ) :   0.8366 B(  2-N , 10-H ) :   0.8679 B(  3-C ,  4-C ) :   0.9011
B(  3-C ,  7-C ) :   0.8936 B(  3-C , 11-H ) :   0.8866 B(  4-C ,  5-C ) :   0.9392
B(  4-C ,  6-N ) :   0.8687 B(  4-C , 12-H ) :   0.9053 B(  5-C ,  6-N ) :   0.8430
B(  5-C , 13-H ) :   0.9217 B(  5-C , 14-H ) :   0.9158 B(  6-N ,  7-C ) :   0.9724
B(  7-C ,  8-O ) :   2.1046

MP2 TOTAL ENERGY:     -453.200478272 Eh
FINAL SINGLE POINT ENERGY      -453.200478271989

DIPOLE MOMENT
-------------
                                X             Y             Z
Electronic contribution:     -0.13034      -2.68266       2.30708
Nuclear contribution   :     -0.00779       4.36478      -2.90317
                        -----------------------------------------
Total Dipole Moment    :     -0.13813       1.68212      -0.59609
                        -----------------------------------------
Magnitude (a.u.)       :      1.78995
Magnitude (Debye)      :      4.54969

                             ****ORCA TERMINATED NORMALLY****
TOTAL RUN TIME: 0 days 0 hours 13 minutes 42 seconds 774 msec
