                         Program Version 3.0.3 - RELEASE   -
|  1> ! RI-MP2 RIJK def2-TZVP def2-TZVP/C def2-TZVP/JK TIGHTSCF
|  2> % maxcore 2000
|  3> % mp2 density relaxed end
|  4> *xyz 0 1
|  5>  C       -0.0550947402     1.5295321194     0.1523213113
|  6>  C       -0.0989534518     0.0143032203     0.1587092603
|  7>  C       -1.4177235051    -0.5714628178    -0.3115223005
|  8>  N        1.1550730754    -0.6237802812    -0.3068458325
|  9>  C        0.7806541724    -0.7366953110     1.1025931791
| 10>  C        1.6092673762    -0.1881124065     2.2744321443
| 11>  C        0.9422856949    -1.2545105984     3.1880068871
| 12>  C        0.4909470656    -2.0188479098     1.9138179014
| 13>  O       -0.7592538731    -2.6635621553     1.8819185789
| 14>  H        0.9402260205     1.8951893920     0.4121698145
| 15>  H       -0.3030934301     1.9121372361    -0.8443208744
| 16>  H       -0.7792268496     1.9485417303     0.8607400685
| 17>  H       -1.6066887116    -0.2758305520    -1.3504838935
| 18>  H       -1.4248769352    -1.6609392621    -0.2475436885
| 19>  H       -2.2554559835    -0.1907881208     0.2859015242
| 20>  H        0.9403005294    -1.4979984918    -0.7853324697
| 21>  H        2.6790828292    -0.3612008770     2.1284475513
| 22>  H        1.4584241803     0.8580740476     2.5474375017
| 23>  H        1.5716033162    -1.7928919376     3.8988387891
| 24>  H        0.0774140027    -0.8461444263     3.7217920245
| 25>  H        1.2195512566    -2.7940331232     1.6489317280
| 26>  H       -1.4276247893    -2.0262007550     2.1551998547
| 27> *
| 28>
| 29>                          ****END OF INPUT****

CARTESIAN COORDINATES (ANGSTROEM)
---------------------------------
  C     -0.055095    1.529532    0.152321
  C     -0.098953    0.014303    0.158709
  C     -1.417724   -0.571463   -0.311522
  N      1.155073   -0.623780   -0.306846
  C      0.780654   -0.736695    1.102593
  C      1.609267   -0.188112    2.274432
  C      0.942286   -1.254511    3.188007
  C      0.490947   -2.018848    1.913818
  O     -0.759254   -2.663562    1.881919
  H      0.940226    1.895189    0.412170
  H     -0.303093    1.912137   -0.844321
  H     -0.779227    1.948542    0.860740
  H     -1.606689   -0.275831   -1.350484
  H     -1.424877   -1.660939   -0.247544
  H     -2.255456   -0.190788    0.285902
  H      0.940301   -1.497998   -0.785332
  H      2.679083   -0.361201    2.128448
  H      1.458424    0.858074    2.547438
  H      1.571603   -1.792892    3.898839
  H      0.077414   -0.846144    3.721792
  H      1.219551   -2.794033    1.648932
  H     -1.427625   -2.026201    2.155200

 Total Charge           Charge          ....    0
 Multiplicity           Mult            ....    1
 Number of Electrons    NEL             ....   70
 Basis Dimension        Dim             ....  357

ORBITAL ENERGIES
----------------

  NO   OCC          E(Eh)            E(eV)
   0   2.0000     -20.563410      -559.5588
   1   2.0000     -15.547935      -423.0808
   2   2.0000     -11.286034      -307.1086
   3   2.0000     -11.267265      -306.5979
   4   2.0000     -11.258856      -306.3690
   5   2.0000     -11.227580      -305.5180
   6   2.0000     -11.224890      -305.4448
   7   2.0000     -11.221820      -305.3612
   8   2.0000     -11.215606      -305.1921
   9   2.0000      -1.371337       -37.3160
  10   2.0000      -1.263543       -34.3827
  11   2.0000      -1.105661       -30.0866
  12   2.0000      -1.015850       -27.6427
  13   2.0000      -0.944400       -25.6984
  14   2.0000      -0.894379       -24.3373
  15   2.0000      -0.869103       -23.6495
  16   2.0000      -0.804708       -21.8972
  17   2.0000      -0.743985       -20.2449
  18   2.0000      -0.676523       -18.4091
  19   2.0000      -0.656248       -17.8574
  20   2.0000      -0.633290       -17.2327
  21   2.0000      -0.605841       -16.4858
  22   2.0000      -0.597727       -16.2650
  23   2.0000      -0.580435       -15.7945
  24   2.0000      -0.562249       -15.2996
  25   2.0000      -0.560195       -15.2437
  26   2.0000      -0.539736       -14.6870
  27   2.0000      -0.519768       -14.1436
  28   2.0000      -0.515875       -14.0377
  29   2.0000      -0.504965       -13.7408
  30   2.0000      -0.463085       -12.6012
  31   2.0000      -0.452807       -12.3215
  32   2.0000      -0.429485       -11.6869
  33   2.0000      -0.409603       -11.1459
  34   2.0000      -0.371785       -10.1168
  35   0.0000       0.123005         3.3471
  36   0.0000       0.152613         4.1528
  37   0.0000       0.154461         4.2031
  38   0.0000       0.159376         4.3369
  39   0.0000       0.192768         5.2455

MULLIKEN ATOMIC CHARGES
-----------------------
   0 C :   -0.408780
   1 C :    0.088624
   2 C :   -0.448331
   3 N :   -0.392353
   4 C :    0.011232
   5 C :   -0.208522
   6 C :   -0.218555
   7 C :    0.090439
   8 O :   -0.453799
   9 H :    0.145085
  10 H :    0.130210
  11 H :    0.121747
  12 H :    0.137245
  13 H :    0.166749
  14 H :    0.127044
  15 H :    0.215188
  16 H :    0.121961
  17 H :    0.123810
  18 H :    0.125986
  19 H :    0.103943
  20 H :    0.102882
  21 H :    0.318196
Sum of atomic charges:    0.0000000

LOEWDIN ATOMIC CHARGES
----------------------
   0 C :   -0.266182
   1 C :   -0.312786
   2 C :   -0.282854
   3 N :    0.041610
   4 C :   -0.245318
   5 C :   -0.197252
   6 C :   -0.221399
   7 C :   -0.300749
   8 O :   -0.008562
   9 H :    0.131834
  10 H :    0.129132
  11 H :    0.125407
  12 H :    0.129262
  13 H :    0.130008
  14 H :    0.126502
  15 H :    0.169189
  16 H :    0.139565
  17 H :    0.130027
  18 H :    0.126190
  19 H :    0.133634
  20 H :    0.147871
  21 H :    0.174872

  Mayer bond orders larger than 0.1
B(  0-C ,  1-C ) :   0.8829 B(  0-C ,  9-H ) :   0.9411 B(  0-C , 10-H ) :   0.9333
B(  0-C , 11-H ) :   0.9369 B(  1-C ,  2-C ) :   0.9043 B(  1-C ,  3-N ) :   0.9899
B(  1-C ,  4-C ) :   0.9349 B(  2-C , 12-H ) :   0.9298 B(  2-C , 13-H ) :   0.9298
B(  2-C , 14-H ) :   0.9299 B(  3-N ,  4-C ) :   0.8813 B(  3-N , 15-H ) :   0.8709
B(  4-C ,  5-C ) :   0.8831 B(  4-C ,  7-C ) :   0.8831 B(  5-C ,  6-C ) :   0.9424
B(  5-C , 16-H ) :   0.9145 B(  5-C , 17-H ) :   0.9227 B(  6-C ,  7-C ) :   0.9441
B(  6-C , 18-H ) :   0.9308 B(  6-C , 19-H ) :   0.9098 B(  7-C ,  8-O ) :   0.9725
B(  7-C , 20-H ) :   0.9223 B(  8-O , 21-H ) :   0.8389

MP2 TOTAL ENERGY:     -403.632105810 Eh
FINAL SINGLE POINT ENERGY      -403.632105810137

DIPOLE MOMENT
-------------
                                X             Y             Z
Electronic contribution:      1.61885      -4.24984       0.44677
Nuclear contribution   :     -2.07274       4.54565      -0.09212
                        -----------------------------------------
Total Dipole Moment    :     -0.45389       0.29581       0.35466
                        -----------------------------------------
Magnitude (a.u.)       :      0.64753
Magnitude (Debye)      :      1.64590

                             ****ORCA TERMINATED NORMALLY****
TOTAL RUN TIME: 0 days 0 hours 19 minutes 27 seconds 276 msec
