                         Program Version 3.0.3 - RELEASE   -
|  1> ! RI-MP2 RIJK def2-TZVP def2-TZVP/C def2-TZVP/JK TIGHTSCF
|  2> % maxcore 2000
|  3> % mp2 density relaxed end
|  4> *xyz 0 1
|  5>  N       -0.0195203991     1.1935676983     0.4498755639
|  6>  C       -0.0184193813     0.0152091739     0.0060087704
|  7>  C       -1.2352037684    -0.8564797334    -0.1969319635
|  8>  C       -0.6732707915    -2.1601941332    -0.7457746660
|  9>  O       -1.2715802838    -3.1573746439    -1.0598764646
| 10>  C        0.8060987652    -1.9682425639    -0.8259735023
| 11>  C        1.7611883343    -3.0982295287    -0.5424466059
| 12>  C        1.6167609494    -2.5704053549    -1.9438615696
| 13>  O        1.1179319932    -0.6670562662    -0.3680375917
| 14>  H        0.9309631401     1.5653297511     0.4919508149
| 15>  H       -1.7747608908    -1.0225517928     0.7397977980
| 16>  H       -1.9434867529    -0.4057721444    -0.8979030916
| 17>  H        2.6564596476    -2.8342640474     0.0084860142
| 18>  H        1.3162743440    -4.0572597992    -0.3012265405
| 19>  H        1.0723061019    -3.1656532177    -2.6685158204
| 20>  H        2.4147832421    -1.9510257676    -2.3366018052
| 21> *
| 22>
| 23>                          ****END OF INPUT****

CARTESIAN COORDINATES (ANGSTROEM)
---------------------------------
  N     -0.019520    1.193568    0.449876
  C     -0.018419    0.015209    0.006009
  C     -1.235204   -0.856480   -0.196932
  C     -0.673271   -2.160194   -0.745775
  O     -1.271580   -3.157375   -1.059876
  C      0.806099   -1.968243   -0.825974
  C      1.761188   -3.098230   -0.542447
  C      1.616761   -2.570405   -1.943862
  O      1.117932   -0.667056   -0.368038
  H      0.930963    1.565330    0.491951
  H     -1.774761   -1.022552    0.739798
  H     -1.943487   -0.405772   -0.897903
  H      2.656460   -2.834264    0.008486
  H      1.316274   -4.057260   -0.301227
  H      1.072306   -3.165653   -2.668516
  H      2.414783   -1.951026   -2.336602

 Total Charge           Charge          ....    0
 Multiplicity           Mult            ....    1
 Number of Electrons    NEL             ....   66
 Basis Dimension        Dim             ....  321

ORBITAL ENERGIES
----------------

  NO   OCC          E(Eh)            E(eV)
   0   2.0000     -20.615665      -560.9808
   1   2.0000     -20.567760      -559.6772
   2   2.0000     -15.546096      -423.0308
   3   2.0000     -11.356674      -309.0308
   4   2.0000     -11.356623      -309.0294
   5   2.0000     -11.320246      -308.0396
   6   2.0000     -11.266933      -306.5888
   7   2.0000     -11.258086      -306.3481
   8   2.0000     -11.257408      -306.3297
   9   2.0000      -1.456508       -39.6336
  10   2.0000      -1.410276       -38.3756
  11   2.0000      -1.218460       -33.1560
  12   2.0000      -1.159921       -31.5631
  13   2.0000      -1.071095       -29.1460
  14   2.0000      -0.908919       -24.7329
  15   2.0000      -0.857667       -23.3383
  16   2.0000      -0.823617       -22.4118
  17   2.0000      -0.773061       -21.0360
  18   2.0000      -0.703126       -19.1330
  19   2.0000      -0.692156       -18.8345
  20   2.0000      -0.673055       -18.3148
  21   2.0000      -0.668043       -18.1784
  22   2.0000      -0.626403       -17.0453
  23   2.0000      -0.609657       -16.5896
  24   2.0000      -0.601332       -16.3631
  25   2.0000      -0.558890       -15.2082
  26   2.0000      -0.555164       -15.1068
  27   2.0000      -0.535012       -14.5584
  28   2.0000      -0.486947       -13.2505
  29   2.0000      -0.459386       -12.5005
  30   2.0000      -0.452503       -12.3132
  31   2.0000      -0.419061       -11.4032
  32   2.0000      -0.394048       -10.7226
  33   0.0000       0.104579         2.8457
  34   0.0000       0.135126         3.6770
  35   0.0000       0.156937         4.2705
  36   0.0000       0.165239         4.4964
  37   0.0000       0.174173         4.7395

MULLIKEN ATOMIC CHARGES
-----------------------
   0 N :   -0.366040
   1 C :    0.096967
   2 C :   -0.137815
   3 C :    0.113240
   4 O :   -0.280760
   5 C :    0.217980
   6 C :   -0.284688
   7 C :   -0.284677
   8 O :   -0.245607
   9 H :    0.225985
  10 H :    0.166236
  11 H :    0.166246
  12 H :    0.152895
  13 H :    0.153570
  14 H :    0.153572
  15 H :    0.152897
Sum of atomic charges:    0.0000000

LOEWDIN ATOMIC CHARGES
----------------------
   0 N :   -0.051120
   1 C :   -0.388192
   2 C :   -0.172768
   3 C :   -0.288168
   4 O :    0.164664
   5 C :   -0.280004
   6 C :   -0.180579
   7 C :   -0.180576
   8 O :    0.284741
   9 H :    0.170697
  10 H :    0.171309
  11 H :    0.171310
  12 H :    0.144529
  13 H :    0.144813
  14 H :    0.144814
  15 H :    0.144530

  Mayer bond orders larger than 0.1
B(  0-N ,  1-C ) :   2.0631 B(  0-N ,  9-H ) :   0.8533 B(  1-C ,  2-C ) :   0.9014
B(  1-C ,  8-O ) :   1.0450 B(  2-C ,  3-C ) :   0.9529 B(  2-C , 10-H ) :   0.8884
B(  2-C , 11-H ) :   0.8884 B(  3-C ,  4-O ) :   2.0033 B(  3-C ,  5-C ) :   0.9177
B(  5-C ,  6-C ) :   0.8213 B(  5-C ,  7-C ) :   0.8213 B(  5-C ,  8-O ) :   0.9329
B(  6-C ,  7-C ) :   0.9417 B(  6-C , 12-H ) :   0.9239 B(  6-C , 13-H ) :   0.9123
B(  7-C , 14-H ) :   0.9123 B(  7-C , 15-H ) :   0.9239

MP2 TOTAL ENERGY:     -437.178232987 Eh
FINAL SINGLE POINT ENERGY      -437.178232987124

DIPOLE MOMENT
-------------
                                X             Y             Z
Electronic contribution:     -2.13380       1.17417       0.66222
Nuclear contribution   :      2.84641      -1.46732      -0.84597
                        -----------------------------------------
Total Dipole Moment    :      0.71261      -0.29316      -0.18375
                        -----------------------------------------
Magnitude (a.u.)       :      0.79216
Magnitude (Debye)      :      2.01351

                             ****ORCA TERMINATED NORMALLY****
TOTAL RUN TIME: 0 days 0 hours 15 minutes 52 seconds 732 msec
