                         Program Version 3.0.3 - RELEASE   -
|  1> ! RI-MP2 RIJK def2-TZVP def2-TZVP/C def2-TZVP/JK TIGHTSCF
|  2> % maxcore 2000
|  3> % mp2 density relaxed end
|  4> *xyz 0 1
|  5>  O       -0.0521967621    -0.1218446694    -0.0206824817
|  6>  C       -0.0273502631     1.0918232563    -0.0153069704
|  7>  N        1.1062626324     1.8326200314     0.0385594824
|  8>  C        2.4118735900     1.2292669423     0.0657651629
|  9>  C        3.4809418900     2.3087850645    -0.0389592725
| 10>  O        3.1941670192     3.4795523615    -0.0730668983
| 11>  C        4.9213019393     1.7893895618    -0.1021249988
| 12>  C        5.9386529688     2.8241168012    -0.0488768934
| 13>  C        6.7861646186     3.6725124927    -0.0036278438
| 14>  H       -0.9367904493     1.7223450988    -0.0531591600
| 15>  H        1.0855692445     2.8424527311     0.0138922646
| 16>  H        2.5757584774     0.6570699441     0.9910441019
| 17>  H        2.5311540391     0.5042964625    -0.7509308217
| 18>  H        5.0587599490     1.0612555379     0.7088831206
| 19>  H        5.0117840463     1.2037925171    -1.0285858064
| 20>  H        7.5315486399     4.4278463463     0.0370781545
| 21> *
| 22>
| 23>                          ****END OF INPUT****

CARTESIAN COORDINATES (ANGSTROEM)
---------------------------------
  O     -0.052197   -0.121845   -0.020682
  C     -0.027350    1.091823   -0.015307
  N      1.106263    1.832620    0.038559
  C      2.411874    1.229267    0.065765
  C      3.480942    2.308785   -0.038959
  O      3.194167    3.479552   -0.073067
  C      4.921302    1.789390   -0.102125
  C      5.938653    2.824117   -0.048877
  C      6.786165    3.672512   -0.003628
  H     -0.936790    1.722345   -0.053159
  H      1.085569    2.842453    0.013892
  H      2.575758    0.657070    0.991044
  H      2.531154    0.504296   -0.750931
  H      5.058760    1.061256    0.708883
  H      5.011784    1.203793   -1.028586
  H      7.531549    4.427846    0.037078

 Total Charge           Charge          ....    0
 Multiplicity           Mult            ....    1
 Number of Electrons    NEL             ....   66
 Basis Dimension        Dim             ....  321

ORBITAL ENERGIES
----------------

  NO   OCC          E(Eh)            E(eV)
   0   2.0000     -20.577295      -559.9367
   1   2.0000     -20.529630      -558.6396
   2   2.0000     -15.596793      -424.4103
   3   2.0000     -11.364985      -309.2570
   4   2.0000     -11.355192      -308.9905
   5   2.0000     -11.297263      -307.4142
   6   2.0000     -11.289845      -307.2123
   7   2.0000     -11.247575      -306.0621
   8   2.0000     -11.236230      -305.7534
   9   2.0000      -1.425624       -38.7932
  10   2.0000      -1.390142       -37.8277
  11   2.0000      -1.247826       -33.9551
  12   2.0000      -1.101448       -29.9719
  13   2.0000      -1.030333       -28.0368
  14   2.0000      -0.979629       -26.6571
  15   2.0000      -0.835276       -22.7290
  16   2.0000      -0.798626       -21.7317
  17   2.0000      -0.743186       -20.2231
  18   2.0000      -0.732751       -19.9392
  19   2.0000      -0.682648       -18.5758
  20   2.0000      -0.677527       -18.4364
  21   2.0000      -0.666915       -18.1477
  22   2.0000      -0.641807       -17.4644
  23   2.0000      -0.627672       -17.0798
  24   2.0000      -0.614623       -16.7247
  25   2.0000      -0.589382       -16.0379
  26   2.0000      -0.553099       -15.0506
  27   2.0000      -0.522688       -14.2231
  28   2.0000      -0.455247       -12.3879
  29   2.0000      -0.440226       -11.9792
  30   2.0000      -0.409843       -11.1524
  31   2.0000      -0.401309       -10.9202
  32   2.0000      -0.400672       -10.9029
  33   0.0000       0.112057         3.0492
  34   0.0000       0.118785         3.2323
  35   0.0000       0.151595         4.1251
  36   0.0000       0.160684         4.3724
  37   0.0000       0.161898         4.4055

MULLIKEN ATOMIC CHARGES
-----------------------
   0 O :   -0.367988
   1 C :    0.189841
   2 N :   -0.320669
   3 C :   -0.153325
   4 C :    0.263846
   5 O :   -0.283205
   6 C :   -0.444713
   7 C :   -0.005962
   8 C :   -0.093553
   9 H :    0.089931
  10 H :    0.263862
  11 H :    0.155584
  12 H :    0.158003
  13 H :    0.176985
  14 H :    0.173386
  15 H :    0.197975
Sum of atomic charges:    0.0000000

LOEWDIN ATOMIC CHARGES
----------------------
   0 O :    0.054895
   1 C :   -0.433500
   2 N :    0.084945
   3 C :   -0.251969
   4 C :   -0.306813
   5 O :    0.171325
   6 C :   -0.220842
   7 C :   -0.106354
   8 C :   -0.081337
   9 H :    0.112259
  10 H :    0.192469
  11 H :    0.153226
  12 H :    0.154332
  13 H :    0.172726
  14 H :    0.175633
  15 H :    0.129005

  Mayer bond orders larger than 0.1
B(  0-O ,  1-C ) :   1.8840 B(  1-C ,  2-N ) :   1.1492 B(  1-C ,  9-H ) :   0.9325
B(  2-N ,  3-C ) :   0.8762 B(  2-N , 10-H ) :   0.8481 B(  3-C ,  4-C ) :   0.9129
B(  3-C , 11-H ) :   0.9192 B(  3-C , 12-H ) :   0.9179 B(  4-C ,  5-O ) :   1.9551
B(  4-C ,  6-C ) :   0.9018 B(  6-C ,  7-C ) :   1.1239 B(  6-C ,  8-C ) :  -0.1183
B(  6-C , 13-H ) :   0.9254 B(  6-C , 14-H ) :   0.8787 B(  7-C ,  8-C ) :   2.6294
B(  8-C , 15-H ) :   0.8854

MP2 TOTAL ENERGY:     -437.155572996 Eh
FINAL SINGLE POINT ENERGY      -437.155572996215

DIPOLE MOMENT
-------------
                                X             Y             Z
Electronic contribution:     -1.10058       1.67455      -0.05375
Nuclear contribution   :      1.91073      -1.32407       0.06781
                        -----------------------------------------
Total Dipole Moment    :      0.81016       0.35048       0.01405
                        -----------------------------------------
Magnitude (a.u.)       :      0.88283
Magnitude (Debye)      :      2.24397

                             ****ORCA TERMINATED NORMALLY****
TOTAL RUN TIME: 0 days 0 hours 12 minutes 35 seconds 336 msec
