                         Program Version 3.0.3 - RELEASE   -
|  1> ! RI-MP2 RIJK def2-TZVP def2-TZVP/C def2-TZVP/JK TIGHTSCF
|  2> % maxcore 2000
|  3> % mp2 density relaxed end
|  4> *xyz 0 1
|  5>  C        0.9931190105     0.3206638169     1.1425458937
|  6>  C        0.0220918609     0.1369891833    -0.0305463696
|  7>  C        0.6904862521    -0.4989229837    -1.2459677981
|  8>  C        1.7697570249     0.2996874223    -1.7856924893
|  9>  C        2.6716011464     0.9780084126    -2.2005128974
| 10>  C        0.8529339820    -1.9707136127    -1.4345323769
| 11>  C       -0.3059222068    -2.7766760360    -0.8525282283
| 12>  C       -1.2244934953    -1.9155968933    -1.7559780904
| 13>  N       -0.0541786196    -1.1787176641    -2.3575201902
| 14>  H        1.3833539579    -0.6437147071     1.4844672075
| 15>  H        1.8443677722     0.9432572827     0.8549620573
| 16>  H        0.4893929402     0.7994905384     1.9874598824
| 17>  H       -0.8252636358    -0.4669852664     0.3000960174
| 18>  H       -0.3845642070     1.1087156752    -0.3339803896
| 19>  H        3.4632390730     1.5735968331    -2.5826722360
| 20>  H        1.7937083504    -2.3848789565    -1.7833366529
| 21>  H       -0.2815320768    -3.8249245386    -1.1550783115
| 22>  H       -0.4467111422    -2.7312044677     0.2311742558
| 23>  H       -1.7117475857    -2.4882869380    -2.5473086747
| 24>  H       -1.9729609412    -1.2777938404    -1.2785598891
| 25> *
| 26>
| 27>                          ****END OF INPUT****

CARTESIAN COORDINATES (ANGSTROEM)
---------------------------------
  C      0.993119    0.320664    1.142546
  C      0.022092    0.136989   -0.030546
  C      0.690486   -0.498923   -1.245968
  C      1.769757    0.299687   -1.785692
  C      2.671601    0.978008   -2.200513
  C      0.852934   -1.970714   -1.434532
  C     -0.305922   -2.776676   -0.852528
  C     -1.224493   -1.915597   -1.755978
  N     -0.054179   -1.178718   -2.357520
  H      1.383354   -0.643715    1.484467
  H      1.844368    0.943257    0.854962
  H      0.489393    0.799491    1.987460
  H     -0.825264   -0.466985    0.300096
  H     -0.384564    1.108716   -0.333980
  H      3.463239    1.573597   -2.582672
  H      1.793708   -2.384879   -1.783337
  H     -0.281532   -3.824925   -1.155078
  H     -0.446711   -2.731204    0.231174
  H     -1.711748   -2.488287   -2.547309
  H     -1.972961   -1.277794   -1.278560

 Total Charge           Charge          ....    0
 Multiplicity           Mult            ....    1
 Number of Electrons    NEL             ....   66
 Basis Dimension        Dim             ....  345

ORBITAL ENERGIES
----------------

  NO   OCC          E(Eh)            E(eV)
   0   2.0000     -15.565428      -423.5568
   1   2.0000     -11.289451      -307.2016
   2   2.0000     -11.269329      -306.6540
   3   2.0000     -11.259906      -306.3976
   4   2.0000     -11.238522      -305.8157
   5   2.0000     -11.235117      -305.7231
   6   2.0000     -11.230335      -305.5930
   7   2.0000     -11.219910      -305.3093
   8   2.0000     -11.218266      -305.2645
   9   2.0000      -1.295753       -35.2592
  10   2.0000      -1.077801       -29.3285
  11   2.0000      -1.023109       -27.8402
  12   2.0000      -0.994604       -27.0646
  13   2.0000      -0.938869       -25.5479
  14   2.0000      -0.886838       -24.1321
  15   2.0000      -0.809228       -22.0202
  16   2.0000      -0.756697       -20.5908
  17   2.0000      -0.715736       -19.4762
  18   2.0000      -0.688835       -18.7441
  19   2.0000      -0.658574       -17.9207
  20   2.0000      -0.610812       -16.6210
  21   2.0000      -0.604833       -16.4583
  22   2.0000      -0.579730       -15.7753
  23   2.0000      -0.558974       -15.2104
  24   2.0000      -0.535780       -14.5793
  25   2.0000      -0.514014       -13.9870
  26   2.0000      -0.497774       -13.5451
  27   2.0000      -0.483621       -13.1600
  28   2.0000      -0.471011       -12.8169
  29   2.0000      -0.431659       -11.7460
  30   2.0000      -0.399605       -10.8738
  31   2.0000      -0.381603       -10.3840
  32   2.0000      -0.355282        -9.6677
  33   0.0000       0.133641         3.6366
  34   0.0000       0.155134         4.2214
  35   0.0000       0.159845         4.3496
  36   0.0000       0.163503         4.4491
  37   0.0000       0.174322         4.7436

MULLIKEN ATOMIC CHARGES
-----------------------
   0 C :   -0.422229
   1 C :   -0.192269
   2 C :   -0.020625
   3 C :    0.016659
   4 C :   -0.108255
   5 C :   -0.092881
   6 C :   -0.257235
   7 C :   -0.156955
   8 N :   -0.255221
   9 H :    0.127606
  10 H :    0.147454
  11 H :    0.135926
  12 H :    0.114790
  13 H :    0.128391
  14 H :    0.189407
  15 H :    0.137066
  16 H :    0.130720
  17 H :    0.125554
  18 H :    0.131569
  19 H :    0.120527
Sum of atomic charges:    0.0000000

LOEWDIN ATOMIC CHARGES
----------------------
   0 C :   -0.303514
   1 C :   -0.233639
   2 C :   -0.262273
   3 C :   -0.058049
   4 C :   -0.086387
   5 C :   -0.167350
   6 C :   -0.235165
   7 C :   -0.245543
   8 N :    0.145421
   9 H :    0.123123
  10 H :    0.128531
  11 H :    0.122091
  12 H :    0.142645
  13 H :    0.148111
  14 H :    0.127094
  15 H :    0.138443
  16 H :    0.138042
  17 H :    0.128900
  18 H :    0.129840
  19 H :    0.119678

  Mayer bond orders larger than 0.1
B(  0-C ,  1-C ) :   0.9229 B(  0-C ,  9-H ) :   0.9379 B(  0-C , 10-H ) :   0.9362
B(  0-C , 11-H ) :   0.9378 B(  1-C ,  2-C ) :   0.9120 B(  1-C , 12-H ) :   0.9226
B(  1-C , 13-H ) :   0.9260 B(  2-C ,  3-C ) :   1.1684 B(  2-C ,  4-C ) :  -0.1516
B(  2-C ,  5-C ) :   0.9064 B(  2-C ,  8-N ) :   0.8520 B(  3-C ,  4-C ) :   2.5688
B(  4-C , 14-H ) :   0.8868 B(  5-C ,  6-C ) :   0.9091 B(  5-C ,  8-N ) :   0.8995
B(  5-C , 15-H ) :   0.9033 B(  6-C ,  7-C ) :   0.9660 B(  6-C , 16-H ) :   0.9256
B(  6-C , 17-H ) :   0.9193 B(  7-C ,  8-N ) :   0.9110 B(  7-C , 18-H ) :   0.9197
B(  7-C , 19-H ) :   0.9328

MP2 TOTAL ENERGY:     -365.260774745 Eh
FINAL SINGLE POINT ENERGY      -365.260774745292

DIPOLE MOMENT
-------------
                                X             Y             Z
Electronic contribution:      2.47421       0.68933      -6.31870
Nuclear contribution   :     -2.67695      -1.05149       7.04450
                        -----------------------------------------
Total Dipole Moment    :     -0.20274      -0.36216       0.72580
                        -----------------------------------------
Magnitude (a.u.)       :      0.83609
Magnitude (Debye)      :      2.12518

                             ****ORCA TERMINATED NORMALLY****
TOTAL RUN TIME: 0 days 0 hours 22 minutes 36 seconds 993 msec
