                         Program Version 3.0.3 - RELEASE   -
|  1> ! RI-MP2 RIJK def2-TZVP def2-TZVP/C def2-TZVP/JK TIGHTSCF
|  2> % maxcore 2000
|  3> % mp2 density relaxed end
|  4> *xyz 0 1
|  5>  O       -0.1278396654     1.4376020477     0.0380649515
|  6>  C        0.0175780617     0.0316105905     0.1323984505
|  7>  C       -1.3572286559    -0.5844484429    -0.1107438556
|  8>  C       -1.3669143503    -2.1100729176    -0.0084483373
|  9>  C       -1.1854693039    -2.7601365953     1.3804336831
| 10>  O       -2.4698378006    -3.4146661648     1.2951787867
| 11>  C       -2.7780561634    -2.7736714710     0.0502098567
| 12>  C       -0.5237961100    -2.7284244563    -1.1030893676
| 13>  O        0.3541270927    -3.5360989877    -0.9412307859
| 14>  H        0.7292555723     1.8429663436     0.1987911860
| 15>  H        0.7390245504    -0.3480352947    -0.6097196295
| 16>  H        0.3903749983    -0.2688859202     1.1249767549
| 17>  H       -2.0630476666    -0.1664110723     0.6152432925
| 18>  H       -1.7085739390    -0.2755220342    -1.1039351697
| 19>  H       -0.3603268459    -3.4747832810     1.4510983583
| 20>  H       -1.1431643172    -2.0520859830     2.2175661390
| 21>  H       -3.6031898250    -2.0541440109     0.1382368852
| 22>  H       -3.0151822204    -3.4941194759    -0.7433592411
| 23>  H       -0.7979261217    -2.3769615238    -2.1263239777
| 24> *
| 25>
| 26>                          ****END OF INPUT****

CARTESIAN COORDINATES (ANGSTROEM)
---------------------------------
  O     -0.127840    1.437602    0.038065
  C      0.017578    0.031611    0.132398
  C     -1.357229   -0.584448   -0.110744
  C     -1.366914   -2.110073   -0.008448
  C     -1.185469   -2.760137    1.380434
  O     -2.469838   -3.414666    1.295179
  C     -2.778056   -2.773671    0.050210
  C     -0.523796   -2.728424   -1.103089
  O      0.354127   -3.536099   -0.941231
  H      0.729256    1.842966    0.198791
  H      0.739025   -0.348035   -0.609720
  H      0.390375   -0.268886    1.124977
  H     -2.063048   -0.166411    0.615243
  H     -1.708574   -0.275522   -1.103935
  H     -0.360327   -3.474783    1.451098
  H     -1.143164   -2.052086    2.217566
  H     -3.603190   -2.054144    0.138237
  H     -3.015182   -3.494119   -0.743359
  H     -0.797926   -2.376962   -2.126324

 Total Charge           Charge          ....    0
 Multiplicity           Mult            ....    1
 Number of Electrons    NEL             ....   70
 Basis Dimension        Dim             ....  339

ORBITAL ENERGIES
----------------

  NO   OCC          E(Eh)            E(eV)
   0   2.0000     -20.570583      -559.7540
   1   2.0000     -20.568529      -559.6981
   2   2.0000     -20.559244      -559.4455
   3   2.0000     -11.341926      -308.6295
   4   2.0000     -11.297701      -307.4261
   5   2.0000     -11.294067      -307.3272
   6   2.0000     -11.286379      -307.1180
   7   2.0000     -11.262722      -306.4742
   8   2.0000     -11.246998      -306.0464
   9   2.0000      -1.409687       -38.3595
  10   2.0000      -1.389346       -37.8060
  11   2.0000      -1.375679       -37.4341
  12   2.0000      -1.105988       -30.0955
  13   2.0000      -0.990566       -26.9547
  14   2.0000      -0.949557       -25.8388
  15   2.0000      -0.869584       -23.6626
  16   2.0000      -0.855314       -23.2743
  17   2.0000      -0.751251       -20.4426
  18   2.0000      -0.722145       -19.6506
  19   2.0000      -0.703028       -19.1304
  20   2.0000      -0.674983       -18.3672
  21   2.0000      -0.660034       -17.9604
  22   2.0000      -0.656013       -17.8510
  23   2.0000      -0.621367       -16.9083
  24   2.0000      -0.585793       -15.9402
  25   2.0000      -0.579999       -15.7826
  26   2.0000      -0.573962       -15.6183
  27   2.0000      -0.550992       -14.9932
  28   2.0000      -0.537384       -14.6230
  29   2.0000      -0.517332       -14.0773
  30   2.0000      -0.474711       -12.9175
  31   2.0000      -0.460918       -12.5422
  32   2.0000      -0.458311       -12.4713
  33   2.0000      -0.433242       -11.7891
  34   2.0000      -0.419366       -11.4115
  35   0.0000       0.118844         3.2339
  36   0.0000       0.130156         3.5417
  37   0.0000       0.138575         3.7708
  38   0.0000       0.156693         4.2638
  39   0.0000       0.168878         4.5954

MULLIKEN ATOMIC CHARGES
-----------------------
   0 O :   -0.460226
   1 C :   -0.086950
   2 C :   -0.239613
   3 C :    0.135937
   4 C :   -0.071892
   5 O :   -0.320386
   6 C :   -0.042745
   7 C :    0.025666
   8 O :   -0.259089
   9 H :    0.319777
  10 H :    0.110100
  11 H :    0.104997
  12 H :    0.133873
  13 H :    0.129097
  14 H :    0.129326
  15 H :    0.095377
  16 H :    0.100725
  17 H :    0.105077
  18 H :    0.090950
Sum of atomic charges:    0.0000000

LOEWDIN ATOMIC CHARGES
----------------------
   0 O :   -0.043786
   1 C :   -0.345003
   2 C :   -0.228562
   3 C :   -0.267810
   4 C :   -0.222648
   5 O :    0.122398
   6 C :   -0.222880
   7 C :   -0.261105
   8 O :    0.145183
   9 H :    0.174955
  10 H :    0.119571
  11 H :    0.118817
  12 H :    0.150690
  13 H :    0.148783
  14 H :    0.127204
  15 H :    0.120715
  16 H :    0.122222
  17 H :    0.121786
  18 H :    0.119469

  Mayer bond orders larger than 0.1
B(  0-O ,  1-C ) :   1.0202 B(  0-O ,  9-H ) :   0.8462 B(  1-C ,  2-C ) :   0.9227
B(  1-C , 10-H ) :   0.9285 B(  1-C , 11-H ) :   0.9291 B(  2-C ,  3-C ) :   0.8921
B(  2-C , 12-H ) :   0.9183 B(  2-C , 13-H ) :   0.9207 B(  3-C ,  4-C ) :   0.9390
B(  3-C ,  6-C ) :   0.9247 B(  3-C ,  7-C ) :   0.8237 B(  4-C ,  5-O ) :   0.9593
B(  4-C , 14-H ) :   0.8972 B(  4-C , 15-H ) :   0.9064 B(  5-O ,  6-C ) :   0.9806
B(  6-C , 16-H ) :   0.8985 B(  6-C , 17-H ) :   0.9022 B(  7-C ,  8-O ) :   1.9957
B(  7-C , 18-H ) :   0.9374

MP2 TOTAL ENERGY:     -459.403248935 Eh
FINAL SINGLE POINT ENERGY      -459.403248935411

DIPOLE MOMENT
-------------
                                X             Y             Z
Electronic contribution:      0.73259      -3.92546      -0.47460
Nuclear contribution   :     -0.54724       4.85142       0.26092
                        -----------------------------------------
Total Dipole Moment    :      0.18535       0.92596      -0.21368
                        -----------------------------------------
Magnitude (a.u.)       :      0.96820
Magnitude (Debye)      :      2.46098

                             ****ORCA TERMINATED NORMALLY****
TOTAL RUN TIME: 0 days 0 hours 16 minutes 18 seconds 114 msec
