                         Program Version 3.0.3 - RELEASE   -
|  1> ! RI-MP2 RIJK def2-TZVP def2-TZVP/C def2-TZVP/JK TIGHTSCF
|  2> % maxcore 2000
|  3> % mp2 density relaxed end
|  4> *xyz 0 1
|  5>  O       -0.3326620214     0.8702408133     1.0598884299
|  6>  C        0.0686905838     1.1165590471    -0.0454261344
|  7>  C        1.4499460658     1.6875893065    -0.3523466730
|  8>  C        1.3749886195     2.8536535005    -1.2866629083
|  9>  N        1.4594556910     2.7053460946    -2.6132849995
| 10>  N        1.3097203814     3.9415267875    -3.0682726590
| 11>  N        1.1361019875     4.8933737439    -2.1635879314
| 12>  C        1.1690355773     4.2201297194    -1.0137976089
| 13>  H       -0.5550070685     0.9359662910    -0.9492988038
| 14>  H        1.9320982090     1.9505810695     0.5920843441
| 15>  H        2.0306919835     0.8890790562    -0.8307035291
| 16>  H        1.3405431612     4.1486247470    -4.0537096668
| 17>  H        1.0537588799     4.7269476736    -0.0688802799
| 18> *
| 19>
| 20>                          ****END OF INPUT****

CARTESIAN COORDINATES (ANGSTROEM)
---------------------------------
  O     -0.332662    0.870241    1.059888
  C      0.068691    1.116559   -0.045426
  C      1.449946    1.687589   -0.352347
  C      1.374989    2.853654   -1.286663
  N      1.459456    2.705346   -2.613285
  N      1.309720    3.941527   -3.068273
  N      1.136102    4.893374   -2.163588
  C      1.169036    4.220130   -1.013798
  H     -0.555007    0.935966   -0.949299
  H      1.932098    1.950581    0.592084
  H      2.030692    0.889079   -0.830704
  H      1.340543    4.148625   -4.053710
  H      1.053759    4.726948   -0.068880

 Total Charge           Charge          ....    0
 Multiplicity           Mult            ....    1
 Number of Electrons    NEL             ....   58
 Basis Dimension        Dim             ....  278

ORBITAL ENERGIES
----------------

  NO   OCC          E(Eh)            E(eV)
   0   2.0000     -20.566166      -559.6338
   1   2.0000     -15.691752      -426.9943
   2   2.0000     -15.630314      -425.3225
   3   2.0000     -15.628165      -425.2640
   4   2.0000     -11.341952      -308.6302
   5   2.0000     -11.287134      -307.1385
   6   2.0000     -11.275250      -306.8152
   7   2.0000     -11.262321      -306.4633
   8   2.0000      -1.461043       -39.7570
   9   2.0000      -1.406031       -38.2601
  10   2.0000      -1.209858       -32.9219
  11   2.0000      -1.133962       -30.8567
  12   2.0000      -1.031770       -28.0759
  13   2.0000      -0.870798       -23.6956
  14   2.0000      -0.843063       -22.9409
  15   2.0000      -0.797651       -21.7052
  16   2.0000      -0.761762       -20.7286
  17   2.0000      -0.673988       -18.3401
  18   2.0000      -0.668741       -18.1974
  19   2.0000      -0.635954       -17.3052
  20   2.0000      -0.632306       -17.2059
  21   2.0000      -0.624279       -16.9875
  22   2.0000      -0.571532       -15.5522
  23   2.0000      -0.531742       -14.4694
  24   2.0000      -0.502550       -13.6751
  25   2.0000      -0.488108       -13.2821
  26   2.0000      -0.441579       -12.0160
  27   2.0000      -0.411239       -11.1904
  28   2.0000      -0.379942       -10.3388
  29   0.0000       0.105831         2.8798
  30   0.0000       0.130530         3.5519
  31   0.0000       0.142589         3.8800
  32   0.0000       0.149744         4.0747
  33   0.0000       0.175547         4.7769

MULLIKEN ATOMIC CHARGES
-----------------------
   0 O :   -0.256565
   1 C :    0.092621
   2 C :   -0.204013
   3 C :    0.053644
   4 N :   -0.204883
   5 N :    0.007199
   6 N :   -0.178039
   7 C :   -0.118795
   8 H :    0.091072
   9 H :    0.140788
  10 H :    0.154422
  11 H :    0.272735
  12 H :    0.149815
Sum of atomic charges:   -0.0000000

LOEWDIN ATOMIC CHARGES
----------------------
   0 O :    0.138690
   1 C :   -0.284166
   2 C :   -0.225272
   3 C :   -0.294215
   4 N :    0.047640
   5 N :    0.069296
   6 N :    0.027469
   7 C :   -0.248036
   8 H :    0.114516
   9 H :    0.155760
  10 H :    0.166336
  11 H :    0.190350
  12 H :    0.141632

  Mayer bond orders larger than 0.1
B(  0-O ,  1-C ) :   1.9946 B(  1-C ,  2-C ) :   0.8779 B(  1-C ,  8-H ) :   0.9310
B(  2-C ,  3-C ) :   0.8475 B(  2-C ,  9-H ) :   0.9166 B(  2-C , 10-H ) :   0.9196
B(  3-C ,  4-N ) :   1.4537 B(  3-C ,  7-C ) :   1.3572 B(  4-N ,  5-N ) :   1.1376
B(  5-N ,  6-N ) :   1.1510 B(  5-N , 11-H ) :   0.8724 B(  6-N ,  7-C ) :   1.4822
B(  7-C , 12-H ) :   0.9308

MP2 TOTAL ENERGY:     -394.143118929 Eh
FINAL SINGLE POINT ENERGY      -394.143118928565

DIPOLE MOMENT
-------------
                                X             Y             Z
Electronic contribution:     -0.57062       1.31426      -1.36521
Nuclear contribution   :      1.03869      -1.10122       0.54498
                        -----------------------------------------
Total Dipole Moment    :      0.46807       0.21303      -0.82023
                        -----------------------------------------
Magnitude (a.u.)       :      0.96812
Magnitude (Debye)      :      2.46076

                             ****ORCA TERMINATED NORMALLY****
TOTAL RUN TIME: 0 days 0 hours 9 minutes 5 seconds 407 msec
