                         Program Version 3.0.3 - RELEASE   -
|  1> ! RI-MP2 RIJK def2-TZVP def2-TZVP/C def2-TZVP/JK TIGHTSCF
|  2> % maxcore 2000
|  3> % mp2 density relaxed end
|  4> *xyz 0 1
|  5>  C        0.0485436890     1.4732918178     0.1086945581
|  6>  C       -0.0340179886    -0.0255396830    -0.1564629751
|  7>  N       -1.4010168065    -0.5019310806     0.0472723031
|  8>  C       -1.6977787121    -1.8341416473     0.0318342286
|  9>  C       -2.8788950763    -2.5253414204    -0.0856170038
| 10>  C       -2.4684459595    -3.8714637588     0.0511193923
| 11>  N       -1.1779864487    -4.0119337557     0.2283243379
| 12>  O       -0.6783335725    -2.6848489102     0.2115175078
| 13>  H        1.0729638547     1.8268640984    -0.0349232988
| 14>  H       -0.5940466272     2.0353201456    -0.5792099648
| 15>  H       -0.2602517169     1.7068166980     1.1315794307
| 16>  H        0.3229897942    -0.2534661992    -1.1722918150
| 17>  H        0.6138097342    -0.5707975303     0.5345693366
| 18>  H       -2.1234507905     0.0836739863    -0.3440012994
| 19>  H       -3.8691445086    -2.1316616287    -0.2364111976
| 20>  H       -3.0829686847    -4.7615095519     0.0253589994
| 21> *
| 22>
| 23>                          ****END OF INPUT****

CARTESIAN COORDINATES (ANGSTROEM)
---------------------------------
  C      0.048544    1.473292    0.108695
  C     -0.034018   -0.025540   -0.156463
  N     -1.401017   -0.501931    0.047272
  C     -1.697779   -1.834142    0.031834
  C     -2.878895   -2.525341   -0.085617
  C     -2.468446   -3.871464    0.051119
  N     -1.177986   -4.011934    0.228324
  O     -0.678334   -2.684849    0.211518
  H      1.072964    1.826864   -0.034923
  H     -0.594047    2.035320   -0.579210
  H     -0.260252    1.706817    1.131579
  H      0.322990   -0.253466   -1.172292
  H      0.613810   -0.570798    0.534569
  H     -2.123451    0.083674   -0.344001
  H     -3.869145   -2.131662   -0.236411
  H     -3.082969   -4.761510    0.025359

 Total Charge           Charge          ....    0
 Multiplicity           Mult            ....    1
 Number of Electrons    NEL             ....   60
 Basis Dimension        Dim             ....  296

ORBITAL ENERGIES
----------------

  NO   OCC          E(Eh)            E(eV)
   0   2.0000     -20.628315      -561.3250
   1   2.0000     -15.598977      -424.4697
   2   2.0000     -15.591363      -424.2626
   3   2.0000     -11.351249      -308.8832
   4   2.0000     -11.273843      -306.7769
   5   2.0000     -11.272678      -306.7452
   6   2.0000     -11.233105      -305.6683
   7   2.0000     -11.215043      -305.1768
   8   2.0000      -1.479765       -40.2664
   9   2.0000      -1.260040       -34.2874
  10   2.0000      -1.149057       -31.2674
  11   2.0000      -1.062189       -28.9036
  12   2.0000      -1.005175       -27.3522
  13   2.0000      -0.868333       -23.6286
  14   2.0000      -0.825273       -22.4568
  15   2.0000      -0.791873       -21.5480
  16   2.0000      -0.737926       -20.0800
  17   2.0000      -0.675762       -18.3884
  18   2.0000      -0.650172       -17.6921
  19   2.0000      -0.625858       -17.0305
  20   2.0000      -0.623063       -16.9544
  21   2.0000      -0.589745       -16.0478
  22   2.0000      -0.558397       -15.1947
  23   2.0000      -0.542806       -14.7705
  24   2.0000      -0.536336       -14.5944
  25   2.0000      -0.518651       -14.1132
  26   2.0000      -0.467079       -12.7099
  27   2.0000      -0.458346       -12.4722
  28   2.0000      -0.423578       -11.5261
  29   2.0000      -0.315009        -8.5718
  30   0.0000       0.123492         3.3604
  31   0.0000       0.146453         3.9852
  32   0.0000       0.156620         4.2618
  33   0.0000       0.174504         4.7485
  34   0.0000       0.184501         5.0205

MULLIKEN ATOMIC CHARGES
-----------------------
   0 C :   -0.391437
   1 C :   -0.101159
   2 N :   -0.340233
   3 C :    0.292037
   4 C :   -0.286232
   5 C :   -0.063769
   6 N :   -0.154447
   7 O :   -0.134957
   8 H :    0.138442
   9 H :    0.122546
  10 H :    0.139918
  11 H :    0.116649
  12 H :    0.142140
  13 H :    0.235274
  14 H :    0.144094
  15 H :    0.141135
Sum of atomic charges:    0.0000000

LOEWDIN ATOMIC CHARGES
----------------------
   0 C :   -0.317734
   1 C :   -0.305240
   2 N :    0.080274
   3 C :   -0.361530
   4 C :   -0.216211
   5 C :   -0.285527
   6 N :    0.017632
   7 O :    0.273810
   8 H :    0.128195
   9 H :    0.120150
  10 H :    0.125329
  11 H :    0.126235
  12 H :    0.139772
  13 H :    0.192246
  14 H :    0.141994
  15 H :    0.140606

  Mayer bond orders larger than 0.1
B(  0-C ,  1-C ) :   0.9266 B(  0-C ,  8-H ) :   0.9366 B(  0-C ,  9-H ) :   0.9357
B(  0-C , 10-H ) :   0.9337 B(  1-C ,  2-N ) :   0.8720 B(  1-C , 11-H ) :   0.9291
B(  1-C , 12-H ) :   0.9272 B(  2-N ,  3-C ) :   1.1445 B(  2-N , 13-H ) :   0.8726
B(  3-C ,  4-C ) :   1.4347 B(  3-C ,  7-O ) :   1.1234 B(  4-C ,  5-C ) :   1.2497
B(  4-C , 14-H ) :   0.9151 B(  5-C ,  6-N ) :   1.6125 B(  5-C , 15-H ) :   0.9277
B(  6-N ,  7-O ) :   0.8436

MP2 TOTAL ENERGY:     -379.269635285 Eh
FINAL SINGLE POINT ENERGY      -379.269635284953

DIPOLE MOMENT
-------------
                                X             Y             Z
Electronic contribution:     -2.48420      -9.32354       0.62348
Nuclear contribution   :      1.90827      10.74164      -1.02909
                        -----------------------------------------
Total Dipole Moment    :     -0.57593       1.41811      -0.40561
                        -----------------------------------------
Magnitude (a.u.)       :      1.58343
Magnitude (Debye)      :      4.02476

                             ****ORCA TERMINATED NORMALLY****
TOTAL RUN TIME: 0 days 0 hours 10 minutes 33 seconds 591 msec
