                         Program Version 3.0.3 - RELEASE   -
|  1> ! RI-MP2 RIJK def2-TZVP def2-TZVP/C def2-TZVP/JK TIGHTSCF
|  2> % maxcore 2000
|  3> % mp2 density relaxed end
|  4> *xyz 0 1
|  5>  C       -0.0339719745     1.6045153113    -0.0305000410
|  6>  C        0.0738568337     0.1103053443    -0.0307529065
|  7>  C        0.6939045276    -0.8846393550    -0.9898964882
|  8>  N        1.2673499029    -1.6296610046     0.1250211489
|  9>  C        0.6623953077    -0.7776663318     1.0759473584
| 10>  O        0.6584721533    -0.7763082190     2.2692544006
| 11>  C       -0.8171216587    -0.8047008410    -0.9028652193
| 12>  C       -1.6011137681    -1.8911487043    -0.3785059705
| 13>  N       -2.2148521604    -2.7810217073     0.0328632631
| 14>  H        0.9225448615     2.0607211560     0.2418077042
| 15>  H       -0.3274101799     1.9859260866    -1.0129928912
| 16>  H       -0.7817806485     1.9329667582     0.6978663793
| 17>  H        1.2487444417    -0.7112400762    -1.9024255571
| 18>  H        1.2374053470    -2.6410584602     0.1982098315
| 19>  H       -1.2978927153    -0.2656357469    -1.7159901621
| 20> *
| 21>
| 22>                          ****END OF INPUT****

CARTESIAN COORDINATES (ANGSTROEM)
---------------------------------
  C     -0.033972    1.604515   -0.030500
  C      0.073857    0.110305   -0.030753
  C      0.693905   -0.884639   -0.989896
  N      1.267350   -1.629661    0.125021
  C      0.662395   -0.777666    1.075947
  O      0.658472   -0.776308    2.269254
  C     -0.817122   -0.804701   -0.902865
  C     -1.601114   -1.891149   -0.378506
  N     -2.214852   -2.781022    0.032863
  H      0.922545    2.060721    0.241808
  H     -0.327410    1.985926   -1.012993
  H     -0.781781    1.932967    0.697866
  H      1.248744   -0.711240   -1.902426
  H      1.237405   -2.641058    0.198210
  H     -1.297893   -0.265636   -1.715990

 Total Charge           Charge          ....    0
 Multiplicity           Mult            ....    1
 Number of Electrons    NEL             ....   64
 Basis Dimension        Dim             ....  315

ORBITAL ENERGIES
----------------

  NO   OCC          E(Eh)            E(eV)
   0   2.0000     -20.559712      -559.4582
   1   2.0000     -15.604392      -424.6171
   2   2.0000     -15.583839      -424.0578
   3   2.0000     -11.378795      -309.6328
   4   2.0000     -11.322392      -308.0979
   5   2.0000     -11.315901      -307.9213
   6   2.0000     -11.299487      -307.4747
   7   2.0000     -11.287439      -307.1468
   8   2.0000     -11.257573      -306.3341
   9   2.0000      -1.420789       -38.6616
  10   2.0000      -1.320386       -35.9295
  11   2.0000      -1.229596       -33.4590
  12   2.0000      -1.140910       -31.0457
  13   2.0000      -1.020964       -27.7818
  14   2.0000      -0.932173       -25.3657
  15   2.0000      -0.896378       -24.3917
  16   2.0000      -0.772405       -21.0182
  17   2.0000      -0.735120       -20.0036
  18   2.0000      -0.711420       -19.3587
  19   2.0000      -0.687492       -18.7076
  20   2.0000      -0.637961       -17.3598
  21   2.0000      -0.612076       -16.6554
  22   2.0000      -0.605725       -16.4826
  23   2.0000      -0.581497       -15.8233
  24   2.0000      -0.570045       -15.5117
  25   2.0000      -0.561269       -15.2729
  26   2.0000      -0.546072       -14.8594
  27   2.0000      -0.492943       -13.4137
  28   2.0000      -0.471737       -12.8366
  29   2.0000      -0.451781       -12.2936
  30   2.0000      -0.436950       -11.8900
  31   2.0000      -0.406299       -11.0560
  32   0.0000       0.115608         3.1459
  33   0.0000       0.121193         3.2978
  34   0.0000       0.139593         3.7985
  35   0.0000       0.154017         4.1910
  36   0.0000       0.155903         4.2423

MULLIKEN ATOMIC CHARGES
-----------------------
   0 C :   -0.407520
   1 C :    0.007155
   2 C :    0.036188
   3 N :   -0.322638
   4 C :    0.218856
   5 O :   -0.256883
   6 C :   -0.076189
   7 C :   -0.182321
   8 N :   -0.044954
   9 H :    0.153431
  10 H :    0.138280
  11 H :    0.162406
  12 H :    0.162131
  13 H :    0.251508
  14 H :    0.160550
Sum of atomic charges:   -0.0000000

LOEWDIN ATOMIC CHARGES
----------------------
   0 C :   -0.258319
   1 C :   -0.152817
   2 C :   -0.162393
   3 N :    0.121631
   4 C :   -0.373151
   5 O :    0.159267
   6 C :   -0.151094
   7 C :   -0.176013
   8 N :    0.075297
   9 H :    0.138831
  10 H :    0.133558
  11 H :    0.142152
  12 H :    0.144497
  13 H :    0.179837
  14 H :    0.178718

  Mayer bond orders larger than 0.1
B(  0-C ,  1-C ) :   0.8849 B(  0-C ,  9-H ) :   0.9337 B(  0-C , 10-H ) :   0.9342
B(  0-C , 11-H ) :   0.9318 B(  1-C ,  2-C ) :   0.8226 B(  1-C ,  4-C ) :   0.8521
B(  1-C ,  6-C ) :   0.8107 B(  2-C ,  3-N ) :   0.9889 B(  2-C ,  6-C ) :   0.8308
B(  2-C , 12-H ) :   0.9119 B(  3-N ,  4-C ) :   1.1150 B(  3-N , 13-H ) :   0.8513
B(  4-C ,  5-O ) :   2.0539 B(  6-C ,  7-C ) :   0.9945 B(  6-C , 14-H ) :   0.9011
B(  7-C ,  8-N ) :   2.8274

MP2 TOTAL ENERGY:     -416.105620614 Eh
FINAL SINGLE POINT ENERGY      -416.105620613694

DIPOLE MOMENT
-------------
                                X             Y             Z
Electronic contribution:     -0.97130      -5.85681       2.48331
Nuclear contribution   :      1.59259       6.97548      -4.16469
                        -----------------------------------------
Total Dipole Moment    :      0.62129       1.11866      -1.68137
                        -----------------------------------------
Magnitude (a.u.)       :      2.11292
Magnitude (Debye)      :      5.37061

                             ****ORCA TERMINATED NORMALLY****
TOTAL RUN TIME: 0 days 0 hours 16 minutes 7 seconds 381 msec
