                         Program Version 3.0.3 - RELEASE   -
|  1> ! RI-MP2 RIJK def2-TZVP def2-TZVP/C def2-TZVP/JK TIGHTSCF
|  2> % maxcore 2000
|  3> % mp2 density relaxed end
|  4> *xyz 0 1
|  5>  O        0.0300192277     0.0466528399     0.0255815376
|  6>  C        0.0115147981     1.2461811762     0.0211084454
|  7>  C       -1.2018771580     2.2112395187     0.0585388811
|  8>  C       -0.3872620940     3.5184900306    -0.0128181824
|  9>  N        0.6565673147     3.2444151116    -1.0548422059
| 10>  C        1.1722610732     2.2438964083    -0.0633421378
| 11>  C        0.7413611123     3.2727412321     1.0460406105
| 12>  C        1.6626710417     4.3642753974     1.2694540094
| 13>  C        2.4240180306     5.2633987587     1.5067501870
| 14>  H       -1.8584897540     2.0764823947    -0.8063016199
| 15>  H       -1.7980968790     2.0720617859     0.9657453972
| 16>  H       -0.9146672313     4.4694788681    -0.0673889158
| 17>  H        0.2847367128     2.8179896393    -1.9052031873
| 18>  H        2.1869001947     1.8658324279    -0.1629675671
| 19>  H        0.4125432411     2.8376589025     1.9945032506
| 20>  H        3.0991965094     6.0596461781     1.6998342075
| 21> *
| 22>
| 23>                          ****END OF INPUT****

CARTESIAN COORDINATES (ANGSTROEM)
---------------------------------
  O      0.030019    0.046653    0.025582
  C      0.011515    1.246181    0.021108
  C     -1.201877    2.211240    0.058539
  C     -0.387262    3.518490   -0.012818
  N      0.656567    3.244415   -1.054842
  C      1.172261    2.243896   -0.063342
  C      0.741361    3.272741    1.046041
  C      1.662671    4.364275    1.269454
  C      2.424018    5.263399    1.506750
  H     -1.858490    2.076482   -0.806302
  H     -1.798097    2.072062    0.965745
  H     -0.914667    4.469479   -0.067389
  H      0.284737    2.817990   -1.905203
  H      2.186900    1.865832   -0.162968
  H      0.412543    2.837659    1.994503
  H      3.099197    6.059646    1.699834

 Total Charge           Charge          ....    0
 Multiplicity           Mult            ....    1
 Number of Electrons    NEL             ....   64
 Basis Dimension        Dim             ....  321

ORBITAL ENERGIES
----------------

  NO   OCC          E(Eh)            E(eV)
   0   2.0000     -20.561994      -559.5203
   1   2.0000     -15.576404      -423.8555
   2   2.0000     -11.343398      -308.6696
   3   2.0000     -11.294810      -307.3474
   4   2.0000     -11.291283      -307.2514
   5   2.0000     -11.283416      -307.0374
   6   2.0000     -11.254738      -306.2570
   7   2.0000     -11.241012      -305.8835
   8   2.0000     -11.229120      -305.5599
   9   2.0000      -1.406026       -38.2599
  10   2.0000      -1.293490       -35.1976
  11   2.0000      -1.066381       -29.0177
  12   2.0000      -1.039694       -28.2915
  13   2.0000      -0.981008       -26.6946
  14   2.0000      -0.947621       -25.7861
  15   2.0000      -0.819219       -22.2921
  16   2.0000      -0.753289       -20.4980
  17   2.0000      -0.731511       -19.9054
  18   2.0000      -0.718600       -19.5541
  19   2.0000      -0.690857       -18.7992
  20   2.0000      -0.647027       -17.6065
  21   2.0000      -0.608558       -16.5597
  22   2.0000      -0.597210       -16.2509
  23   2.0000      -0.576160       -15.6781
  24   2.0000      -0.555045       -15.1035
  25   2.0000      -0.521833       -14.1998
  26   2.0000      -0.510623       -13.8948
  27   2.0000      -0.500020       -13.6062
  28   2.0000      -0.457285       -12.4434
  29   2.0000      -0.396017       -10.7762
  30   2.0000      -0.390528       -10.6268
  31   2.0000      -0.377674       -10.2770
  32   0.0000       0.123887         3.3711
  33   0.0000       0.131754         3.5852
  34   0.0000       0.154329         4.1995
  35   0.0000       0.158293         4.3074
  36   0.0000       0.160843         4.3768

MULLIKEN ATOMIC CHARGES
-----------------------
   0 O :   -0.243800
   1 C :    0.057781
   2 C :   -0.203739
   3 C :   -0.029521
   4 N :   -0.324660
   5 C :    0.057452
   6 C :   -0.301733
   7 C :   -0.019741
   8 C :   -0.115448
   9 H :    0.143846
  10 H :    0.136550
  11 H :    0.143935
  12 H :    0.206471
  13 H :    0.155719
  14 H :    0.143441
  15 H :    0.193448
Sum of atomic charges:   -0.0000000

LOEWDIN ATOMIC CHARGES
----------------------
   0 O :    0.161868
   1 C :   -0.307187
   2 C :   -0.212504
   3 C :   -0.204501
   4 N :    0.049835
   5 C :   -0.181662
   6 C :   -0.167018
   7 C :   -0.084933
   8 C :   -0.085077
   9 H :    0.147560
  10 H :    0.147380
  11 H :    0.137332
  12 H :    0.161293
  13 H :    0.143134
  14 H :    0.166732
  15 H :    0.127747

  Mayer bond orders larger than 0.1
B(  0-O ,  1-C ) :   2.0859 B(  1-C ,  2-C ) :   0.9214 B(  1-C ,  5-C ) :   0.8717
B(  2-C ,  3-C ) :   0.9199 B(  2-C ,  5-C ) :  -0.1416 B(  2-C ,  9-H ) :   0.8976
B(  2-C , 10-H ) :   0.8981 B(  3-C ,  4-N ) :   0.9483 B(  3-C ,  6-C ) :   0.8542
B(  3-C , 11-H ) :   0.9080 B(  4-N ,  5-C ) :   0.9641 B(  4-N ,  6-C ) :  -0.1282
B(  4-N , 12-H ) :   0.8780 B(  5-C ,  6-C ) :   0.8429 B(  5-C , 13-H ) :   0.8878
B(  6-C ,  7-C ) :   1.1579 B(  6-C ,  8-C ) :  -0.1596 B(  6-C , 14-H ) :   0.9219
B(  7-C ,  8-C ) :   2.6115 B(  8-C , 15-H ) :   0.8776

MP2 TOTAL ENERGY:     -400.001932217 Eh
FINAL SINGLE POINT ENERGY      -400.001932216812

DIPOLE MOMENT
-------------
                                X             Y             Z
Electronic contribution:      1.69661      -2.03064       0.22821
Nuclear contribution   :     -2.16346       2.66858      -0.20521
                        -----------------------------------------
Total Dipole Moment    :     -0.46685       0.63794       0.02301
                        -----------------------------------------
Magnitude (a.u.)       :      0.79085
Magnitude (Debye)      :      2.01019

                             ****ORCA TERMINATED NORMALLY****
TOTAL RUN TIME: 0 days 0 hours 22 minutes 10 seconds 76 msec
