                         Program Version 3.0.3 - RELEASE   -
|  1> ! RI-MP2 RIJK def2-TZVP def2-TZVP/C def2-TZVP/JK TIGHTSCF
|  2> % maxcore 2000
|  3> % mp2 density relaxed end
|  4> *xyz 0 1
|  5>  C       -0.1192483832     1.4024011317     0.1122564707
|  6>  O        0.0408041255     0.0203147021     0.3930584769
|  7>  C       -1.1587207661    -0.6843572012     0.4072323974
|  8>  C       -1.7377374509    -1.1847023114    -0.8928976552
|  9>  C       -1.0798450198    -2.1400674735     0.0851992940
| 10>  C        1.2469673210     2.0518468377     0.1089577004
| 11>  C        2.2353287862     1.7090567637    -1.0406776429
| 12>  C        2.6500971981     3.2049127828    -1.0793843625
| 13>  C        1.3478313265     3.5472549424    -0.3046031053
| 14>  H       -0.6100779663     1.5369681440    -0.8658422427
| 15>  H       -0.7694469386     1.8728345124     0.8702412904
| 16>  H       -1.8583062081    -0.3632891956     1.1811161312
| 17>  H       -2.8153924139    -1.2136625467    -1.0115192573
| 18>  H       -1.1847863682    -0.9517089360    -1.7961163094
| 19>  H       -0.0999819324    -2.5196081193    -0.1808665616
| 20>  H       -1.7002148967    -2.8306340874     0.6451580300
| 21>  H        1.7226541908     1.8862501991     1.0813615534
| 22>  H        3.0097173904     0.9659032397    -0.8402371579
| 23>  H        1.6973287945     1.4127840763    -1.9473157826
| 24>  H        3.5413278497     3.3949441165    -0.4744197081
| 25>  H        2.7932729715     3.6687819627    -2.0581084722
| 26>  H        0.5365099537     3.8284045981    -0.9849199553
| 27>  H        1.4040031062     4.2933786319     0.4917872685
| 28> *
| 29>
| 30>                          ****END OF INPUT****

CARTESIAN COORDINATES (ANGSTROEM)
---------------------------------
  C     -0.119248    1.402401    0.112256
  O      0.040804    0.020315    0.393058
  C     -1.158721   -0.684357    0.407232
  C     -1.737737   -1.184702   -0.892898
  C     -1.079845   -2.140067    0.085199
  C      1.246967    2.051847    0.108958
  C      2.235329    1.709057   -1.040678
  C      2.650097    3.204913   -1.079384
  C      1.347831    3.547255   -0.304603
  H     -0.610078    1.536968   -0.865842
  H     -0.769447    1.872835    0.870241
  H     -1.858306   -0.363289    1.181116
  H     -2.815392   -1.213663   -1.011519
  H     -1.184786   -0.951709   -1.796116
  H     -0.099982   -2.519608   -0.180867
  H     -1.700215   -2.830634    0.645158
  H      1.722654    1.886250    1.081362
  H      3.009717    0.965903   -0.840237
  H      1.697329    1.412784   -1.947316
  H      3.541328    3.394944   -0.474420
  H      2.793273    3.668782   -2.058108
  H      0.536510    3.828405   -0.984920
  H      1.404003    4.293379    0.491787

 Total Charge           Charge          ....    0
 Multiplicity           Mult            ....    1
 Number of Electrons    NEL             ....   70
 Basis Dimension        Dim             ....  363

ORBITAL ENERGIES
----------------

  NO   OCC          E(Eh)            E(eV)
   0   2.0000     -20.554698      -559.3218
   1   2.0000     -11.277650      -306.8805
   2   2.0000     -11.268754      -306.6384
   3   2.0000     -11.222447      -305.3783
   4   2.0000     -11.221468      -305.3517
   5   2.0000     -11.221114      -305.3420
   6   2.0000     -11.218535      -305.2719
   7   2.0000     -11.216978      -305.2295
   8   2.0000     -11.213847      -305.1443
   9   2.0000      -1.379243       -37.5311
  10   2.0000      -1.134359       -30.8675
  11   2.0000      -1.117380       -30.4054
  12   2.0000      -0.967797       -26.3351
  13   2.0000      -0.893423       -24.3113
  14   2.0000      -0.844432       -22.9782
  15   2.0000      -0.821874       -22.3643
  16   2.0000      -0.798626       -21.7317
  17   2.0000      -0.745638       -20.2898
  18   2.0000      -0.694047       -18.8860
  19   2.0000      -0.661421       -17.9982
  20   2.0000      -0.648778       -17.6542
  21   2.0000      -0.634304       -17.2603
  22   2.0000      -0.601985       -16.3808
  23   2.0000      -0.582550       -15.8520
  24   2.0000      -0.554246       -15.0818
  25   2.0000      -0.535438       -14.5700
  26   2.0000      -0.514025       -13.9873
  27   2.0000      -0.500208       -13.6113
  28   2.0000      -0.482690       -13.1347
  29   2.0000      -0.465213       -12.6591
  30   2.0000      -0.449062       -12.2196
  31   2.0000      -0.436402       -11.8751
  32   2.0000      -0.424136       -11.5413
  33   2.0000      -0.412870       -11.2348
  34   2.0000      -0.389654       -10.6030
  35   0.0000       0.141205         3.8424
  36   0.0000       0.154101         4.1933
  37   0.0000       0.159873         4.3504
  38   0.0000       0.165754         4.5104
  39   0.0000       0.173545         4.7224

MULLIKEN ATOMIC CHARGES
-----------------------
   0 C :   -0.116026
   1 O :   -0.284459
   2 C :    0.023036
   3 C :   -0.266479
   4 C :   -0.250877
   5 C :    0.028495
   6 C :   -0.255431
   7 C :   -0.191804
   8 C :   -0.263012
   9 H :    0.094436
  10 H :    0.096611
  11 H :    0.095777
  12 H :    0.125932
  13 H :    0.132212
  14 H :    0.135753
  15 H :    0.128667
  16 H :    0.095981
  17 H :    0.119226
  18 H :    0.104386
  19 H :    0.111474
  20 H :    0.111826
  21 H :    0.107582
  22 H :    0.116695
Sum of atomic charges:    0.0000000

LOEWDIN ATOMIC CHARGES
----------------------
   0 C :   -0.303505
   1 O :    0.196195
   2 C :   -0.327877
   3 C :   -0.239273
   4 C :   -0.227696
   5 C :   -0.237842
   6 C :   -0.220936
   7 C :   -0.245185
   8 C :   -0.221857
   9 H :    0.121819
  10 H :    0.122443
  11 H :    0.130585
  12 H :    0.128419
  13 H :    0.134957
  14 H :    0.138449
  15 H :    0.130795
  16 H :    0.152448
  17 H :    0.124226
  18 H :    0.134418
  19 H :    0.132313
  20 H :    0.120550
  21 H :    0.134155
  22 H :    0.122400

  Mayer bond orders larger than 0.1
B(  0-C ,  1-O ) :   0.9068 B(  0-C ,  5-C ) :   0.9365 B(  0-C ,  9-H ) :   0.9183
B(  0-C , 10-H ) :   0.9265 B(  1-O ,  2-C ) :   0.9988 B(  2-C ,  3-C ) :   0.8843
B(  2-C ,  4-C ) :   0.8985 B(  2-C , 11-H ) :   0.9341 B(  3-C ,  4-C ) :   0.9136
B(  3-C , 12-H ) :   0.9203 B(  3-C , 13-H ) :   0.9234 B(  4-C , 14-H ) :   0.9224
B(  4-C , 15-H ) :   0.9261 B(  5-C ,  6-C ) :   0.9231 B(  5-C ,  8-C ) :   0.9225
B(  5-C , 16-H ) :   0.9199 B(  6-C ,  7-C ) :   0.9361 B(  6-C , 17-H ) :   0.9323
B(  6-C , 18-H ) :   0.9228 B(  7-C ,  8-C ) :   0.9375 B(  7-C , 19-H ) :   0.9280
B(  7-C , 20-H ) :   0.9267 B(  8-C , 21-H ) :   0.9192 B(  8-C , 22-H ) :   0.9303

MP2 TOTAL ENERGY:     -387.569221573 Eh
FINAL SINGLE POINT ENERGY      -387.569221573393

DIPOLE MOMENT
-------------
                                X             Y             Z
Electronic contribution:     -0.73711      -2.32892       2.22508
Nuclear contribution   :      0.41785       2.55347      -2.29764
                        -----------------------------------------
Total Dipole Moment    :     -0.31926       0.22455      -0.07256
                        -----------------------------------------
Magnitude (a.u.)       :      0.39701
Magnitude (Debye)      :      1.00913

                             ****ORCA TERMINATED NORMALLY****
TOTAL RUN TIME: 0 days 0 hours 16 minutes 33 seconds 165 msec
