                         Program Version 3.0.3 - RELEASE   -
|  1> ! RI-MP2 RIJK def2-TZVP def2-TZVP/C def2-TZVP/JK TIGHTSCF
|  2> % maxcore 2000
|  3> % mp2 density relaxed end
|  4> *xyz 0 1
|  5>  O       -0.0007943973    -0.0605513478     0.2021684769
|  6>  C       -0.0049518347     1.1242929050     0.1279366398
|  7>  C       -1.0667018126     2.2573590981     0.0163419354
|  8>  C       -0.6834930733     3.0391574264     1.2803054438
|  9>  O        0.7735732235     3.0335830017     1.1765492894
| 10>  C        1.0105774441     2.2888338130    -0.0138294509
| 11>  C       -0.0493989136     2.9080539794    -1.0037984535
| 12>  C       -0.0700464892     2.3599753573    -2.3449043184
| 13>  N       -0.0763710385     1.9263293870    -3.4165698084
| 14>  H       -2.1148053607     2.0891373076    -0.2130329454
| 15>  H       -1.0409205395     4.0737665457     1.2896332843
| 16>  H       -0.9969445481     2.5372864541     2.2013413173
| 17>  H        2.0707383847     2.2022536247    -0.2315694809
| 18>  H       -0.0379761948     3.9999713277    -1.0171603494
| 19> *
| 20>
| 21>                          ****END OF INPUT****

CARTESIAN COORDINATES (ANGSTROEM)
---------------------------------
  O     -0.000794   -0.060551    0.202168
  C     -0.004952    1.124293    0.127937
  C     -1.066702    2.257359    0.016342
  C     -0.683493    3.039157    1.280305
  O      0.773573    3.033583    1.176549
  C      1.010577    2.288834   -0.013829
  C     -0.049399    2.908054   -1.003798
  C     -0.070046    2.359975   -2.344904
  N     -0.076371    1.926329   -3.416570
  H     -2.114805    2.089137   -0.213033
  H     -1.040921    4.073767    1.289633
  H     -0.996945    2.537286    2.201341
  H      2.070738    2.202254   -0.231569
  H     -0.037976    3.999971   -1.017160

 Total Charge           Charge          ....    0
 Multiplicity           Mult            ....    1
 Number of Electrons    NEL             ....   64
 Basis Dimension        Dim             ....  309

ORBITAL ENERGIES
----------------

  NO   OCC          E(Eh)            E(eV)
   0   2.0000     -20.603290      -560.6440
   1   2.0000     -20.589340      -560.2644
   2   2.0000     -15.589758      -424.2189
   3   2.0000     -11.368557      -309.3542
   4   2.0000     -11.342033      -308.6324
   5   2.0000     -11.325734      -308.1889
   6   2.0000     -11.317445      -307.9633
   7   2.0000     -11.298435      -307.4460
   8   2.0000     -11.291065      -307.2455
   9   2.0000      -1.445693       -39.3393
  10   2.0000      -1.421316       -38.6760
  11   2.0000      -1.239098       -33.7176
  12   2.0000      -1.170572       -31.8529
  13   2.0000      -1.036128       -28.1945
  14   2.0000      -0.958786       -26.0899
  15   2.0000      -0.851142       -23.1608
  16   2.0000      -0.801526       -21.8106
  17   2.0000      -0.766409       -20.8551
  18   2.0000      -0.708964       -19.2919
  19   2.0000      -0.692054       -18.8317
  20   2.0000      -0.657153       -17.8820
  21   2.0000      -0.634120       -17.2553
  22   2.0000      -0.605812       -16.4850
  23   2.0000      -0.583759       -15.8849
  24   2.0000      -0.570544       -15.5253
  25   2.0000      -0.565445       -15.3865
  26   2.0000      -0.550713       -14.9857
  27   2.0000      -0.537302       -14.6207
  28   2.0000      -0.511256       -13.9120
  29   2.0000      -0.475147       -12.9294
  30   2.0000      -0.453721       -12.3464
  31   2.0000      -0.405296       -11.0287
  32   0.0000       0.107946         2.9374
  33   0.0000       0.121248         3.2993
  34   0.0000       0.142302         3.8722
  35   0.0000       0.150941         4.1073
  36   0.0000       0.153886         4.1875

MULLIKEN ATOMIC CHARGES
-----------------------
   0 O :   -0.204385
   1 C :    0.066608
   2 C :   -0.058193
   3 C :   -0.077650
   4 O :   -0.307883
   5 C :    0.119615
   6 C :   -0.055627
   7 C :   -0.228205
   8 N :   -0.035411
   9 H :    0.173679
  10 H :    0.132746
  11 H :    0.139377
  12 H :    0.168293
  13 H :    0.167036
Sum of atomic charges:    0.0000000

LOEWDIN ATOMIC CHARGES
----------------------
   0 O :    0.205954
   1 C :   -0.267901
   2 C :   -0.145149
   3 C :   -0.234494
   4 O :    0.169127
   5 C :   -0.206065
   6 C :   -0.170576
   7 C :   -0.169315
   8 N :    0.080903
   9 H :    0.151894
  10 H :    0.129264
  11 H :    0.133978
  12 H :    0.145365
  13 H :    0.177014

  Mayer bond orders larger than 0.1
B(  0-O ,  1-C ) :   2.0631 B(  1-C ,  2-C ) :   0.8282 B(  1-C ,  5-C ) :   0.8403
B(  2-C ,  3-C ) :   0.9321 B(  2-C ,  6-C ) :   0.8534 B(  2-C ,  9-H ) :   0.8895
B(  3-C ,  4-O ) :   0.8817 B(  3-C , 10-H ) :   0.9293 B(  3-C , 11-H ) :   0.9219
B(  4-O ,  5-C ) :   0.9410 B(  5-C ,  6-C ) :   0.8618 B(  5-C , 12-H ) :   0.8905
B(  6-C ,  7-C ) :   0.9382 B(  6-C , 13-H ) :   0.8923 B(  7-C ,  8-N ) :   2.8543

MP2 TOTAL ENERGY:     -435.951098101 Eh
FINAL SINGLE POINT ENERGY      -435.951098101122

DIPOLE MOMENT
-------------
                                X             Y             Z
Electronic contribution:      1.44399      -2.95464      -2.64761
Nuclear contribution   :     -1.93098       4.15252       3.71068
                        -----------------------------------------
Total Dipole Moment    :     -0.48699       1.19788       1.06306
                        -----------------------------------------
Magnitude (a.u.)       :      1.67397
Magnitude (Debye)      :      4.25490

                             ****ORCA TERMINATED NORMALLY****
TOTAL RUN TIME: 0 days 0 hours 14 minutes 43 seconds 62 msec
