                         Program Version 3.0.3 - RELEASE   -
|  1> ! RI-MP2 RIJK def2-TZVP def2-TZVP/C def2-TZVP/JK TIGHTSCF
|  2> % maxcore 2000
|  3> % mp2 density relaxed end
|  4> *xyz 0 1
|  5>  C        0.2496243947     1.3874511253    -0.0257362526
|  6>  N        0.0452514182    -0.0439452440     0.0606458294
|  7>  C       -1.0805641673    -0.6026659687     0.1332016348
|  8>  C       -1.2735960180    -2.1141094738     0.2238200408
|  9>  N       -2.7135985156    -2.3611665300     0.2911308001
| 10>  C       -3.2802394469    -1.2268435912     0.2495034202
| 11>  N       -2.4246786797    -0.1021272157     0.1553120085
| 12>  C       -2.9381978465     1.1913730356     0.1021845161
| 13>  O       -4.1216485300     1.4254071940     0.1330978763
| 14>  H        1.3227927980     1.5871043593    -0.0759617621
| 15>  H       -0.2097532611     1.8231453148    -0.9241836721
| 16>  H       -0.1449512723     1.9211151119     0.8503814373
| 17>  H       -0.8386484219    -2.6177727055    -0.6458501239
| 18>  H       -0.7732368526    -2.5208768957     1.1088929017
| 19>  H       -4.3466277919    -1.0457348987     0.2790994682
| 20>  H       -2.1674876572     1.9674068525     0.0301608673
| 21> *
| 22>
| 23>                          ****END OF INPUT****

CARTESIAN COORDINATES (ANGSTROEM)
---------------------------------
  C      0.249624    1.387451   -0.025736
  N      0.045251   -0.043945    0.060646
  C     -1.080564   -0.602666    0.133202
  C     -1.273596   -2.114109    0.223820
  N     -2.713599   -2.361167    0.291131
  C     -3.280239   -1.226844    0.249503
  N     -2.424679   -0.102127    0.155312
  C     -2.938198    1.191373    0.102185
  O     -4.121649    1.425407    0.133098
  H      1.322793    1.587104   -0.075962
  H     -0.209753    1.823145   -0.924184
  H     -0.144951    1.921115    0.850381
  H     -0.838648   -2.617773   -0.645850
  H     -0.773237   -2.520877    1.108893
  H     -4.346628   -1.045735    0.279099
  H     -2.167488    1.967407    0.030161

 Total Charge           Charge          ....    0
 Multiplicity           Mult            ....    1
 Number of Electrons    NEL             ....   66
 Basis Dimension        Dim             ....  321

ORBITAL ENERGIES
----------------

  NO   OCC          E(Eh)            E(eV)
   0   2.0000     -20.567856      -559.6798
   1   2.0000     -15.642519      -425.6546
   2   2.0000     -15.574118      -423.7933
   3   2.0000     -15.565271      -423.5526
   4   2.0000     -11.389039      -309.9115
   5   2.0000     -11.347292      -308.7755
   6   2.0000     -11.332659      -308.3773
   7   2.0000     -11.279148      -306.9212
   8   2.0000     -11.270448      -306.6845
   9   2.0000      -1.430882       -38.9363
  10   2.0000      -1.351478       -36.7756
  11   2.0000      -1.245657       -33.8961
  12   2.0000      -1.201913       -32.7057
  13   2.0000      -1.026052       -27.9203
  14   2.0000      -0.949339       -25.8328
  15   2.0000      -0.917202       -24.9583
  16   2.0000      -0.848720       -23.0949
  17   2.0000      -0.770747       -20.9731
  18   2.0000      -0.718377       -19.5480
  19   2.0000      -0.683532       -18.5998
  20   2.0000      -0.674355       -18.3501
  21   2.0000      -0.647160       -17.6101
  22   2.0000      -0.642259       -17.4768
  23   2.0000      -0.606806       -16.5120
  24   2.0000      -0.600328       -16.3358
  25   2.0000      -0.590724       -16.0744
  26   2.0000      -0.573591       -15.6082
  27   2.0000      -0.509741       -13.8708
  28   2.0000      -0.482330       -13.1249
  29   2.0000      -0.460943       -12.5429
  30   2.0000      -0.460300       -12.5254
  31   2.0000      -0.410325       -11.1655
  32   2.0000      -0.369255       -10.0479
  33   0.0000       0.106477         2.8974
  34   0.0000       0.120628         3.2825
  35   0.0000       0.129315         3.5188
  36   0.0000       0.148449         4.0395
  37   0.0000       0.168176         4.5763

MULLIKEN ATOMIC CHARGES
-----------------------
   0 C :   -0.340853
   1 N :   -0.224503
   2 C :    0.037135
   3 C :   -0.055839
   4 N :   -0.224877
   5 C :    0.002098
   6 N :   -0.086951
   7 C :    0.162947
   8 O :   -0.309006
   9 H :    0.160226
  10 H :    0.142143
  11 H :    0.142138
  12 H :    0.148338
  13 H :    0.148342
  14 H :    0.179672
  15 H :    0.118990
Sum of atomic charges:    0.0000000

LOEWDIN ATOMIC CHARGES
----------------------
   0 C :   -0.339859
   1 N :    0.093199
   2 C :   -0.278256
   3 C :   -0.229503
   4 N :    0.094806
   5 C :   -0.232236
   6 N :    0.218254
   7 C :   -0.359714
   8 O :    0.108156
   9 H :    0.120356
  10 H :    0.115238
  11 H :    0.115235
  12 H :    0.151700
  13 H :    0.151700
  14 H :    0.146730
  15 H :    0.124193

  Mayer bond orders larger than 0.1
B(  0-C ,  1-N ) :   0.8727 B(  0-C ,  9-H ) :   0.9447 B(  0-C , 10-H ) :   0.9227
B(  0-C , 11-H ) :   0.9227 B(  1-N ,  2-C ) :   1.9621 B(  2-C ,  3-C ) :   0.9402
B(  2-C ,  6-N ) :   0.9700 B(  3-C ,  4-N ) :   0.9550 B(  3-C , 12-H ) :   0.9078
B(  3-C , 13-H ) :   0.9078 B(  4-N ,  5-C ) :   1.8494 B(  5-C ,  6-N ) :   0.9637
B(  5-C , 14-H ) :   0.9095 B(  6-N ,  7-C ) :   1.0097 B(  7-C ,  8-O ) :   1.9311
B(  7-C , 15-H ) :   0.9244

MP2 TOTAL ENERGY:     -433.364492294 Eh
FINAL SINGLE POINT ENERGY      -433.364492293732

DIPOLE MOMENT
-------------
                                X             Y             Z
Electronic contribution:     -5.35764      -2.01298       0.30931
Nuclear contribution   :      6.08689       2.50731      -0.36370
                        -----------------------------------------
Total Dipole Moment    :      0.72925       0.49433      -0.05439
                        -----------------------------------------
Magnitude (a.u.)       :      0.88268
Magnitude (Debye)      :      2.24358

                             ****ORCA TERMINATED NORMALLY****
TOTAL RUN TIME: 0 days 0 hours 15 minutes 20 seconds 395 msec
