                         Program Version 3.0.3 - RELEASE   -
|  1> ! RI-MP2 RIJK def2-TZVP def2-TZVP/C def2-TZVP/JK TIGHTSCF
|  2> % maxcore 2000
|  3> % mp2 density relaxed end
|  4> *xyz 0 1
|  5>  O        0.0516140561     1.4256445449     0.0923880612
|  6>  C        0.0800259231     0.0214076972    -0.0263097777
|  7>  C       -1.3342830832    -0.5629522866    -0.0254309306
|  8>  C       -1.3745386596    -2.0894810191    -0.1619355603
|  9>  C       -2.8271701876    -2.6045349553    -0.1056971673
| 10>  C       -3.6216632526    -2.0061757487     1.0499569331
| 11>  O       -4.3630244195    -2.6600370735     1.7452006757
| 12>  C       -3.4171287207    -0.5025028287     1.2604748991
| 13>  N       -2.0076751926    -0.0955864521     1.1980570996
| 14>  H       -0.6618301598     1.6085561031     0.7204972382
| 15>  H        0.5893783927    -0.2249198539    -0.9642094710
| 16>  H        0.6618866389    -0.4438246391     0.7916541649
| 17>  H       -1.8786448759    -0.1110202143    -0.8675140140
| 18>  H       -0.8999561444    -2.4091275812    -1.0972301425
| 19>  H       -0.7928636794    -2.5370222140     0.6554820869
| 20>  H       -3.3451580973    -2.3056813088    -1.0292432314
| 21>  H       -2.8826727972    -3.6937804461    -0.0400599414
| 22>  H       -3.9655870413     0.0352060180     0.4738230863
| 23>  H       -3.8522009109    -0.2185549172     2.2215996065
| 24>  H       -1.5207184489    -0.4854658445     2.0035228045
| 25> *
| 26>
| 27>                          ****END OF INPUT****

CARTESIAN COORDINATES (ANGSTROEM)
---------------------------------
  O      0.051614    1.425645    0.092388
  C      0.080026    0.021408   -0.026310
  C     -1.334283   -0.562952   -0.025431
  C     -1.374539   -2.089481   -0.161936
  C     -2.827170   -2.604535   -0.105697
  C     -3.621663   -2.006176    1.049957
  O     -4.363024   -2.660037    1.745201
  C     -3.417129   -0.502503    1.260475
  N     -2.007675   -0.095586    1.198057
  H     -0.661830    1.608556    0.720497
  H      0.589378   -0.224920   -0.964209
  H      0.661887   -0.443825    0.791654
  H     -1.878645   -0.111020   -0.867514
  H     -0.899956   -2.409128   -1.097230
  H     -0.792864   -2.537022    0.655482
  H     -3.345158   -2.305681   -1.029243
  H     -2.882673   -3.693780   -0.040060
  H     -3.965587    0.035206    0.473823
  H     -3.852201   -0.218555    2.221600
  H     -1.520718   -0.485466    2.003523

 Total Charge           Charge          ....    0
 Multiplicity           Mult            ....    1
 Number of Electrons    NEL             ....   70
 Basis Dimension        Dim             ....  345

ORBITAL ENERGIES
----------------

  NO   OCC          E(Eh)            E(eV)
   0   2.0000     -20.554232      -559.3091
   1   2.0000     -20.550889      -559.2181
   2   2.0000     -15.573800      -423.7847
   3   2.0000     -11.334329      -308.4228
   4   2.0000     -11.281649      -306.9893
   5   2.0000     -11.274277      -306.7887
   6   2.0000     -11.273572      -306.7695
   7   2.0000     -11.249183      -306.1058
   8   2.0000     -11.248588      -306.0896
   9   2.0000      -1.396559       -38.0023
  10   2.0000      -1.362246       -37.0686
  11   2.0000      -1.240356       -33.7518
  12   2.0000      -1.077810       -29.3287
  13   2.0000      -1.032029       -28.0829
  14   2.0000      -0.933022       -25.3888
  15   2.0000      -0.889131       -24.1945
  16   2.0000      -0.828736       -22.5511
  17   2.0000      -0.759954       -20.6794
  18   2.0000      -0.703719       -19.1492
  19   2.0000      -0.671626       -18.2759
  20   2.0000      -0.663820       -18.0635
  21   2.0000      -0.642413       -17.4809
  22   2.0000      -0.631042       -17.1715
  23   2.0000      -0.609667       -16.5899
  24   2.0000      -0.606627       -16.5071
  25   2.0000      -0.590063       -16.0564
  26   2.0000      -0.553447       -15.0601
  27   2.0000      -0.547408       -14.8957
  28   2.0000      -0.521230       -14.1834
  29   2.0000      -0.519305       -14.1310
  30   2.0000      -0.494926       -13.4676
  31   2.0000      -0.479699       -13.0533
  32   2.0000      -0.455895       -12.4055
  33   2.0000      -0.438031       -11.9194
  34   2.0000      -0.378762       -10.3066
  35   0.0000       0.110231         2.9995
  36   0.0000       0.133529         3.6335
  37   0.0000       0.148782         4.0486
  38   0.0000       0.151998         4.1361
  39   0.0000       0.168034         4.5724

MULLIKEN ATOMIC CHARGES
-----------------------
   0 O :   -0.478995
   1 C :    0.035631
   2 C :   -0.110250
   3 C :   -0.249352
   4 C :   -0.176981
   5 C :    0.130353
   6 O :   -0.265414
   7 C :   -0.167767
   8 N :   -0.362211
   9 H :    0.329654
  10 H :    0.109124
  11 H :    0.084793
  12 H :    0.105973
  13 H :    0.127241
  14 H :    0.120447
  15 H :    0.129437
  16 H :    0.143730
  17 H :    0.129852
  18 H :    0.153461
  19 H :    0.211275
Sum of atomic charges:   -0.0000000

LOEWDIN ATOMIC CHARGES
----------------------
   0 O :   -0.046536
   1 C :   -0.335352
   2 C :   -0.322439
   3 C :   -0.243517
   4 C :   -0.228151
   5 C :   -0.331363
   6 O :    0.152828
   7 C :   -0.270426
   8 N :   -0.002124
   9 H :    0.173426
  10 H :    0.130338
  11 H :    0.116790
  12 H :    0.153133
  13 H :    0.142775
  14 H :    0.141270
  15 H :    0.156099
  16 H :    0.147496
  17 H :    0.146580
  18 H :    0.143067
  19 H :    0.176105

  Mayer bond orders larger than 0.1
B(  0-O ,  1-C ) :   0.9535 B(  0-O ,  9-H ) :   0.8171 B(  1-C ,  2-C ) :   0.9651
B(  1-C , 10-H ) :   0.9293 B(  1-C , 11-H ) :   0.9069 B(  2-C ,  3-C ) :   0.9246
B(  2-C ,  8-N ) :   0.9089 B(  2-C , 12-H ) :   0.9248 B(  3-C ,  4-C ) :   0.8834
B(  3-C , 13-H ) :   0.9222 B(  3-C , 14-H ) :   0.9151 B(  4-C ,  5-C ) :   0.9157
B(  4-C , 15-H ) :   0.9081 B(  4-C , 16-H ) :   0.9228 B(  5-C ,  6-O ) :   2.0426
B(  5-C ,  7-C ) :   0.8954 B(  7-C ,  8-N ) :   0.9340 B(  7-C , 17-H ) :   0.9134
B(  7-C , 18-H ) :   0.9247 B(  8-N , 19-H ) :   0.8699

MP2 TOTAL ENERGY:     -439.589739808 Eh
FINAL SINGLE POINT ENERGY      -439.589739807901

DIPOLE MOMENT
-------------
                                X             Y             Z
Electronic contribution:     -3.64101      -0.24168       2.77350
Nuclear contribution   :      3.83914      -0.11795      -3.12677
                        -----------------------------------------
Total Dipole Moment    :      0.19813      -0.35964      -0.35327
                        -----------------------------------------
Magnitude (a.u.)       :      0.54166
Magnitude (Debye)      :      1.37679

                             ****ORCA TERMINATED NORMALLY****
TOTAL RUN TIME: 0 days 0 hours 31 minutes 38 seconds 341 msec
