                         Program Version 3.0.3 - RELEASE   -
|  1> ! RI-MP2 RIJK def2-TZVP def2-TZVP/C def2-TZVP/JK TIGHTSCF
|  2> % maxcore 2000
|  3> % mp2 density relaxed end
|  4> *xyz 0 1
|  5>  C       -0.1141871556     1.5586401992     0.0183723375
|  6>  C       -0.0144672715     0.0464633830     0.0031445479
|  7>  C       -1.2293305417    -0.6455229191     0.5946098975
|  8>  C        0.6841119719    -0.6763875986    -1.1386210677
|  9>  C        1.3795938127     0.0650149998    -2.2798458789
| 10>  C        2.9142078797     0.1031547789    -2.1217812570
| 11>  C        3.3355328693     0.4448981585    -0.7119832265
| 12>  C        2.6052983593     0.1116807893     0.3543959937
| 13>  C        1.3304689910    -0.6370834525     0.2319184861
| 14>  H        0.8196844093     2.0425584612    -0.2743680849
| 15>  H       -0.9066689439     1.9084899817    -0.6545950683
| 16>  H       -0.3631962541     1.9118791924     1.0260305828
| 17>  H       -2.1399918986    -0.3828272390     0.0424291606
| 18>  H       -1.1254971194    -1.7348730279     0.5650728455
| 19>  H       -1.3816816611    -0.3526487736     1.6405021480
| 20>  H        0.2328622698    -1.6231518819    -1.4215874862
| 21>  H        1.1198195791    -0.4070360990    -3.2330409849
| 22>  H        1.0127235206     1.0947078484    -2.3445264438
| 23>  H        3.3424629191    -0.8714609120    -2.3993926160
| 24>  H        3.3407528983     0.8242429485    -2.8283871071
| 25>  H        4.2808324780     0.9657522911    -0.5814704532
| 26>  H        2.9477192744     0.3684389999     1.3545876520
| 27>  H        1.2821216834    -1.5453990084     0.8297177830
| 28> *
| 29>
| 30>                          ****END OF INPUT****

CARTESIAN COORDINATES (ANGSTROEM)
---------------------------------
  C     -0.114187    1.558640    0.018372
  C     -0.014467    0.046463    0.003145
  C     -1.229331   -0.645523    0.594610
  C      0.684112   -0.676388   -1.138621
  C      1.379594    0.065015   -2.279846
  C      2.914208    0.103155   -2.121781
  C      3.335533    0.444898   -0.711983
  C      2.605298    0.111681    0.354396
  C      1.330469   -0.637083    0.231918
  H      0.819684    2.042558   -0.274368
  H     -0.906669    1.908490   -0.654595
  H     -0.363196    1.911879    1.026031
  H     -2.139992   -0.382827    0.042429
  H     -1.125497   -1.734873    0.565073
  H     -1.381682   -0.352649    1.640502
  H      0.232862   -1.623152   -1.421587
  H      1.119820   -0.407036   -3.233041
  H      1.012724    1.094708   -2.344526
  H      3.342463   -0.871461   -2.399393
  H      3.340753    0.824243   -2.828387
  H      4.280832    0.965752   -0.581470
  H      2.947719    0.368439    1.354588
  H      1.282122   -1.545399    0.829718

 Total Charge           Charge          ....    0
 Multiplicity           Mult            ....    1
 Number of Electrons    NEL             ....   68
 Basis Dimension        Dim             ....  363

ORBITAL ENERGIES
----------------

  NO   OCC          E(Eh)            E(eV)
   0   2.0000     -11.233307      -305.6738
   1   2.0000     -11.221002      -305.3390
   2   2.0000     -11.220845      -305.3347
   3   2.0000     -11.219922      -305.3096
   4   2.0000     -11.219704      -305.3037
   5   2.0000     -11.218821      -305.2796
   6   2.0000     -11.217962      -305.2563
   7   2.0000     -11.212392      -305.1047
   8   2.0000     -11.208746      -305.0055
   9   2.0000      -1.166811       -31.7506
  10   2.0000      -1.068661       -29.0797
  11   2.0000      -1.001068       -27.2405
  12   2.0000      -0.974303       -26.5121
  13   2.0000      -0.931800       -25.3556
  14   2.0000      -0.854424       -23.2501
  15   2.0000      -0.816932       -22.2298
  16   2.0000      -0.724490       -19.7144
  17   2.0000      -0.678149       -18.4534
  18   2.0000      -0.672386       -18.2965
  19   2.0000      -0.626719       -17.0539
  20   2.0000      -0.599874       -16.3234
  21   2.0000      -0.593600       -16.1527
  22   2.0000      -0.570198       -15.5159
  23   2.0000      -0.552679       -15.0392
  24   2.0000      -0.544462       -14.8156
  25   2.0000      -0.530862       -14.4455
  26   2.0000      -0.521668       -14.1953
  27   2.0000      -0.506099       -13.7717
  28   2.0000      -0.490371       -13.3437
  29   2.0000      -0.465760       -12.6740
  30   2.0000      -0.453138       -12.3305
  31   2.0000      -0.405620       -11.0375
  32   2.0000      -0.379982       -10.3398
  33   2.0000      -0.327909        -8.9228
  34   0.0000       0.133645         3.6367
  35   0.0000       0.147549         4.0150
  36   0.0000       0.165402         4.5008
  37   0.0000       0.167993         4.5713
  38   0.0000       0.181726         4.9450

MULLIKEN ATOMIC CHARGES
-----------------------
   0 C :   -0.412643
   1 C :    0.076444
   2 C :   -0.414934
   3 C :   -0.087468
   4 C :   -0.289483
   5 C :   -0.169611
   6 C :   -0.148740
   7 C :   -0.248352
   8 C :   -0.068292
   9 H :    0.150053
  10 H :    0.131519
  11 H :    0.129681
  12 H :    0.129488
  13 H :    0.125988
  14 H :    0.129200
  15 H :    0.117838
  16 H :    0.122359
  17 H :    0.129860
  18 H :    0.119141
  19 H :    0.118976
  20 H :    0.120282
  21 H :    0.115783
  22 H :    0.122911
Sum of atomic charges:    0.0000000

LOEWDIN ATOMIC CHARGES
----------------------
   0 C :   -0.268850
   1 C :   -0.250869
   2 C :   -0.267856
   3 C :   -0.159049
   4 C :   -0.232085
   5 C :   -0.247977
   6 C :   -0.166859
   7 C :   -0.156658
   8 C :   -0.162574
   9 H :    0.129611
  10 H :    0.126700
  11 H :    0.128722
  12 H :    0.126197
  13 H :    0.126622
  14 H :    0.125323
  15 H :    0.147460
  16 H :    0.138532
  17 H :    0.142732
  18 H :    0.145395
  19 H :    0.139110
  20 H :    0.139345
  21 H :    0.143305
  22 H :    0.153722

  Mayer bond orders larger than 0.1
B(  0-C ,  1-C ) :   0.9064 B(  0-C ,  9-H ) :   0.9349 B(  0-C , 10-H ) :   0.9390
B(  0-C , 11-H ) :   0.9332 B(  1-C ,  2-C ) :   0.8945 B(  1-C ,  3-C ) :   0.8765
B(  1-C ,  8-C ) :   0.8480 B(  2-C , 12-H ) :   0.9404 B(  2-C , 13-H ) :   0.9305
B(  2-C , 14-H ) :   0.9425 B(  3-C ,  4-C ) :   0.8879 B(  3-C ,  8-C ) :   0.8679
B(  3-C , 15-H ) :   0.9295 B(  4-C ,  5-C ) :   0.9336 B(  4-C , 16-H ) :   0.9384
B(  4-C , 17-H ) :   0.9378 B(  5-C ,  6-C ) :   0.9294 B(  5-C , 18-H ) :   0.9119
B(  5-C , 19-H ) :   0.9363 B(  6-C ,  7-C ) :   1.7953 B(  6-C , 20-H ) :   0.9297
B(  7-C ,  8-C ) :   0.9349 B(  7-C , 21-H ) :   0.9372 B(  8-C , 22-H ) :   0.9233

MP2 TOTAL ENERGY:     -350.512192082 Eh
FINAL SINGLE POINT ENERGY      -350.512192081894

DIPOLE MOMENT
-------------
                                X             Y             Z
Electronic contribution:      3.64797      -1.36137       0.25150
Nuclear contribution   :     -3.71767       1.34582      -0.35169
                        -----------------------------------------
Total Dipole Moment    :     -0.06970      -0.01555      -0.10019
                        -----------------------------------------
Magnitude (a.u.)       :      0.12304
Magnitude (Debye)      :      0.31274

                             ****ORCA TERMINATED NORMALLY****
TOTAL RUN TIME: 0 days 0 hours 23 minutes 59 seconds 196 msec
