                         Program Version 3.0.3 - RELEASE   -
|  1> ! RI-MP2 RIJK def2-TZVP def2-TZVP/C def2-TZVP/JK TIGHTSCF
|  2> % maxcore 2000
|  3> % mp2 density relaxed end
|  4> *xyz 0 1
|  5>  C       -0.0215592225     1.4705544840     0.0564727159
|  6>  C        1.5299467961     1.4715411415    -0.0024888977
|  7>  C        1.9622230946     1.2364066191     1.4198145522
|  8>  C        1.3634672490     0.2311532467     2.0664429055
|  9>  C        0.4790772029    -0.6866049038     1.2245355051
| 10>  C        1.4832276548    -1.6858360134     0.6575595247
| 11>  C        2.0097698077    -1.1772968070    -0.4598245850
| 12>  C        1.2887328045     0.0834057511    -0.7847736430
| 13>  N       -0.0168281494    -0.0235256789    -0.0295629242
| 14>  H       -0.4905627279     1.9025882830     0.9427730251
| 15>  H       -0.4940002512     1.8626240085    -0.8500858995
| 16>  H        2.0629611659     2.2772907032    -0.5111557633
| 17>  H        2.6935602375     1.8879003390     1.8869776149
| 18>  H        1.5638155302    -0.0212999534     3.1029884799
| 19>  H       -0.3480626236    -1.1269003065     1.7875397479
| 20>  H        1.7884418968    -2.5847387571     1.1783381759
| 21>  H        2.8266294922    -1.5868596961    -1.0400417003
| 22>  H        1.1290290824     0.2666579002    -1.8520631341
| 23> *
| 24>
| 25>                          ****END OF INPUT****

CARTESIAN COORDINATES (ANGSTROEM)
---------------------------------
  C     -0.021559    1.470554    0.056473
  C      1.529947    1.471541   -0.002489
  C      1.962223    1.236407    1.419815
  C      1.363467    0.231153    2.066443
  C      0.479077   -0.686605    1.224536
  C      1.483228   -1.685836    0.657560
  C      2.009770   -1.177297   -0.459825
  C      1.288733    0.083406   -0.784774
  N     -0.016828   -0.023526   -0.029563
  H     -0.490563    1.902588    0.942773
  H     -0.494000    1.862624   -0.850086
  H      2.062961    2.277291   -0.511156
  H      2.693560    1.887900    1.886978
  H      1.563816   -0.021300    3.102988
  H     -0.348063   -1.126900    1.787540
  H      1.788442   -2.584739    1.178338
  H      2.826629   -1.586860   -1.040042
  H      1.129029    0.266658   -1.852063

 Total Charge           Charge          ....    0
 Multiplicity           Mult            ....    1
 Number of Electrons    NEL             ....   64
 Basis Dimension        Dim             ....  333

ORBITAL ENERGIES
----------------

  NO   OCC          E(Eh)            E(eV)
   0   2.0000     -15.546666      -423.0463
   1   2.0000     -11.262869      -306.4783
   2   2.0000     -11.261215      -306.4332
   3   2.0000     -11.248187      -306.0787
   4   2.0000     -11.238388      -305.8121
   5   2.0000     -11.231902      -305.6356
   6   2.0000     -11.226308      -305.4834
   7   2.0000     -11.224593      -305.4367
   8   2.0000     -11.221886      -305.3630
   9   2.0000      -1.271020       -34.5862
  10   2.0000      -1.078573       -29.3495
  11   2.0000      -1.058516       -28.8037
  12   2.0000      -1.005842       -27.3703
  13   2.0000      -0.896143       -24.3853
  14   2.0000      -0.845116       -22.9968
  15   2.0000      -0.812193       -22.1009
  16   2.0000      -0.747470       -20.3397
  17   2.0000      -0.708361       -19.2755
  18   2.0000      -0.686209       -18.6727
  19   2.0000      -0.652060       -17.7435
  20   2.0000      -0.590613       -16.0714
  21   2.0000      -0.583314       -15.8728
  22   2.0000      -0.564461       -15.3598
  23   2.0000      -0.544393       -14.8137
  24   2.0000      -0.532265       -14.4837
  25   2.0000      -0.527766       -14.3613
  26   2.0000      -0.487881       -13.2759
  27   2.0000      -0.471274       -12.8240
  28   2.0000      -0.451552       -12.2874
  29   2.0000      -0.377756       -10.2793
  30   2.0000      -0.340160        -9.2562
  31   2.0000      -0.327392        -8.9088
  32   0.0000       0.124955         3.4002
  33   0.0000       0.147447         4.0122
  34   0.0000       0.158017         4.2999
  35   0.0000       0.167578         4.5600
  36   0.0000       0.176346         4.7986

MULLIKEN ATOMIC CHARGES
-----------------------
   0 C :   -0.199250
   1 C :    0.077932
   2 C :   -0.272468
   3 C :   -0.195968
   4 C :    0.095602
   5 C :   -0.190750
   6 C :   -0.201548
   7 C :   -0.079075
   8 N :   -0.158240
   9 H :    0.125458
  10 H :    0.122124
  11 H :    0.119027
  12 H :    0.122403
  13 H :    0.122121
  14 H :    0.131024
  15 H :    0.132384
  16 H :    0.130182
  17 H :    0.119039
Sum of atomic charges:    0.0000000

LOEWDIN ATOMIC CHARGES
----------------------
   0 C :   -0.229899
   1 C :   -0.184518
   2 C :   -0.144217
   3 C :   -0.139812
   4 C :   -0.229550
   5 C :   -0.112278
   6 C :   -0.139191
   7 C :   -0.192758
   8 N :    0.134198
   9 H :    0.125829
  10 H :    0.131836
  11 H :    0.135364
  12 H :    0.139154
  13 H :    0.139595
  14 H :    0.143709
  15 H :    0.138227
  16 H :    0.138297
  17 H :    0.146014

  Mayer bond orders larger than 0.1
B(  0-C ,  1-C ) :   0.8895 B(  0-C ,  8-N ) :   0.9032 B(  0-C ,  9-H ) :   0.9250
B(  0-C , 10-H ) :   0.9243 B(  1-C ,  2-C ) :   0.9337 B(  1-C ,  7-C ) :   0.8539
B(  1-C , 11-H ) :   0.9154 B(  2-C ,  3-C ) :   1.7927 B(  2-C , 12-H ) :   0.9369
B(  3-C ,  4-C ) :   0.8976 B(  3-C , 13-H ) :   0.9289 B(  4-C ,  5-C ) :   0.9052
B(  4-C ,  8-N ) :   0.9952 B(  4-C , 14-H ) :   0.9117 B(  5-C ,  6-C ) :   1.7813
B(  5-C , 15-H ) :   0.9209 B(  6-C ,  7-C ) :   1.0125 B(  6-C , 16-H ) :   0.9251
B(  7-C ,  8-N ) :   0.9429 B(  7-C , 17-H ) :   0.9008

MP2 TOTAL ENERGY:     -364.112951353 Eh
FINAL SINGLE POINT ENERGY      -364.112951352670

DIPOLE MOMENT
-------------
                                X             Y             Z
Electronic contribution:     -0.21521      -1.46269      -0.31394
Nuclear contribution   :      0.72121       1.71365       0.49755
                        -----------------------------------------
Total Dipole Moment    :      0.50599       0.25096       0.18361
                        -----------------------------------------
Magnitude (a.u.)       :      0.59391
Magnitude (Debye)      :      1.50959

                             ****ORCA TERMINATED NORMALLY****
TOTAL RUN TIME: 0 days 0 hours 21 minutes 0 seconds 86 msec
