                         Program Version 3.0.3 - RELEASE   -
|  1> ! RI-MP2 RIJK def2-TZVP def2-TZVP/C def2-TZVP/JK TIGHTSCF
|  2> % maxcore 2000
|  3> % mp2 density relaxed end
|  4> *xyz 0 1
|  5>  O        0.2261248485     0.0320061198    -0.0202335305
|  6>  C        0.1283061012     1.2263206345    -0.0617356658
|  7>  C       -1.0938093173     2.1850034335    -0.0044624061
|  8>  C       -0.1014890944     3.3509777155     0.1199514805
|  9>  C        1.1101317984     2.3474004636     0.0010712643
| 10>  C        0.7718164461     3.3945772535    -1.0606377237
| 11>  C        0.5350916027     3.2741572703    -2.5664568496
| 12>  C        1.5999181813     4.3883303300    -2.6521146152
| 13>  O        1.7030722415     4.4569477086    -1.2061573220
| 14>  H       -1.7756171474     2.1913627486    -0.8603195288
| 15>  H       -1.6682605941     2.0042438996     0.9084400226
| 16>  H       -0.1838370233     4.1852690724     0.8042276603
| 17>  H        2.0957377761     2.3610934442     0.4494542617
| 18>  H        0.8071701691     2.3179431486    -3.0144437551
| 19>  H       -0.4640029957     3.5638567926    -2.8970495390
| 20>  H        2.5523112250     4.0976643122    -3.1076328207
| 21>  H        1.2687473523     5.3424494326    -3.0736596530
| 22> *
| 23>
| 24>                          ****END OF INPUT****

CARTESIAN COORDINATES (ANGSTROEM)
---------------------------------
  O      0.226125    0.032006   -0.020234
  C      0.128306    1.226321   -0.061736
  C     -1.093809    2.185003   -0.004462
  C     -0.101489    3.350978    0.119951
  C      1.110132    2.347400    0.001071
  C      0.771816    3.394577   -1.060638
  C      0.535092    3.274157   -2.566457
  C      1.599918    4.388330   -2.652115
  O      1.703072    4.456948   -1.206157
  H     -1.775617    2.191363   -0.860320
  H     -1.668261    2.004244    0.908440
  H     -0.183837    4.185269    0.804228
  H      2.095738    2.361093    0.449454
  H      0.807170    2.317943   -3.014444
  H     -0.464003    3.563857   -2.897050
  H      2.552311    4.097664   -3.107633
  H      1.268747    5.342449   -3.073660

 Total Charge           Charge          ....    0
 Multiplicity           Mult            ....    1
 Number of Electrons    NEL             ....   66
 Basis Dimension        Dim             ....  327

ORBITAL ENERGIES
----------------

  NO   OCC          E(Eh)            E(eV)
   0   2.0000     -20.570330      -559.7471
   1   2.0000     -20.546902      -559.1096
   2   2.0000     -11.337030      -308.4963
   3   2.0000     -11.320009      -308.0331
   4   2.0000     -11.296273      -307.3872
   5   2.0000     -11.262042      -306.4557
   6   2.0000     -11.252311      -306.1910
   7   2.0000     -11.249684      -306.1195
   8   2.0000     -11.249384      -306.1113
   9   2.0000      -1.407155       -38.2906
  10   2.0000      -1.391055       -37.8525
  11   2.0000      -1.202470       -32.7209
  12   2.0000      -1.028446       -27.9854
  13   2.0000      -0.984897       -26.8004
  14   2.0000      -0.902860       -24.5681
  15   2.0000      -0.862417       -23.4676
  16   2.0000      -0.749972       -20.4078
  17   2.0000      -0.733723       -19.9656
  18   2.0000      -0.702712       -19.1218
  19   2.0000      -0.679510       -18.4904
  20   2.0000      -0.674829       -18.3630
  21   2.0000      -0.640415       -17.4266
  22   2.0000      -0.604565       -16.4511
  23   2.0000      -0.584961       -15.9176
  24   2.0000      -0.561732       -15.2855
  25   2.0000      -0.539869       -14.6906
  26   2.0000      -0.536572       -14.6009
  27   2.0000      -0.529522       -14.4090
  28   2.0000      -0.500459       -13.6182
  29   2.0000      -0.486189       -13.2299
  30   2.0000      -0.414542       -11.2803
  31   2.0000      -0.402728       -10.9588
  32   2.0000      -0.384251       -10.4560
  33   0.0000       0.130180         3.5424
  34   0.0000       0.135125         3.6769
  35   0.0000       0.151429         4.1206
  36   0.0000       0.164405         4.4737
  37   0.0000       0.180779         4.9192

MULLIKEN ATOMIC CHARGES
-----------------------
   0 O :   -0.263950
   1 C :    0.111877
   2 C :   -0.220371
   3 C :   -0.144463
   4 C :   -0.159498
   5 C :    0.198187
   6 C :   -0.272305
   7 C :   -0.006474
   8 O :   -0.320137
   9 H :    0.130411
  10 H :    0.142040
  11 H :    0.155668
  12 H :    0.156623
  13 H :    0.146308
  14 H :    0.131092
  15 H :    0.106559
  16 H :    0.108431
Sum of atomic charges:   -0.0000000

LOEWDIN ATOMIC CHARGES
----------------------
   0 O :    0.153139
   1 C :   -0.315467
   2 C :   -0.178773
   3 C :   -0.124539
   4 C :   -0.097186
   5 C :   -0.274727
   6 C :   -0.198276
   7 C :   -0.247041
   8 O :    0.180939
   9 H :    0.136702
  10 H :    0.151004
  11 H :    0.146865
  12 H :    0.149156
  13 H :    0.140126
  14 H :    0.138324
  15 H :    0.120222
  16 H :    0.119532

  Mayer bond orders larger than 0.1
B(  0-O ,  1-C ) :   2.0275 B(  1-C ,  2-C ) :   0.9275 B(  1-C ,  4-C ) :   0.8774
B(  2-C ,  3-C ) :   0.9094 B(  2-C ,  4-C ) :  -0.1094 B(  2-C ,  9-H ) :   0.9062
B(  2-C , 10-H ) :   0.8952 B(  3-C ,  4-C ) :   0.8203 B(  3-C ,  5-C ) :   0.8852
B(  3-C , 11-H ) :   0.9059 B(  4-C ,  5-C ) :   0.7937 B(  4-C , 12-H ) :   0.9084
B(  5-C ,  6-C ) :   0.9009 B(  5-C ,  8-O ) :   0.9823 B(  6-C ,  7-C ) :   0.9886
B(  6-C , 13-H ) :   0.9183 B(  6-C , 14-H ) :   0.9165 B(  7-C ,  8-O ) :   0.9175
B(  7-C , 15-H ) :   0.9157 B(  7-C , 16-H ) :   0.9157

MP2 TOTAL ENERGY:     -421.074054988 Eh
FINAL SINGLE POINT ENERGY      -421.074054987562

DIPOLE MOMENT
-------------
                                X             Y             Z
Electronic contribution:      1.31314      -2.89771       3.15354
Nuclear contribution   :     -1.68712       3.86251      -3.75295
                        -----------------------------------------
Total Dipole Moment    :     -0.37398       0.96481      -0.59941
                        -----------------------------------------
Magnitude (a.u.)       :      1.19583
Magnitude (Debye)      :      3.03955

                             ****ORCA TERMINATED NORMALLY****
TOTAL RUN TIME: 0 days 0 hours 17 minutes 43 seconds 795 msec
