                         Program Version 3.0.3 - RELEASE   -
|  1> ! RI-MP2 RIJK def2-TZVP def2-TZVP/C def2-TZVP/JK TIGHTSCF
|  2> % maxcore 2000
|  3> % mp2 density relaxed end
|  4> *xyz 0 1
|  5>  C        0.6027210472     1.4214639509    -0.1457204956
|  6>  C        0.0279632325     0.0396773155     0.0943680921
|  7>  O        0.5940017273    -0.9702436926    -0.7896575465
|  8>  C        1.2504261322    -1.6590688369     0.2957377703
|  9>  C        2.7001155883    -1.5247370437     0.2806326355
| 10>  C        3.8917891735    -1.3611477469     0.3274765436
| 11>  C        0.5361005989    -0.7382640093     1.3426670043
| 12>  O        1.3023963824    -0.0897485165     2.3073904279
| 13>  H        1.6922076320     1.4231705156    -0.0529029524
| 14>  H        0.3470330631     1.7615998252    -1.1535159128
| 15>  H        0.1916471169     2.1332773202     0.5770669586
| 16>  H       -1.0641097043     0.0550662138    -0.0070334990
| 17>  H        0.9662042012    -2.7172545053     0.3281017342
| 18>  H        4.9486138684    -1.2504066543     0.3375617137
| 19>  H       -0.2668806772    -1.2597564243     1.8677904635
| 20>  H        2.1888163275     0.0476076085     1.9480289727
| 21> *
| 22>
| 23>                          ****END OF INPUT****

CARTESIAN COORDINATES (ANGSTROEM)
---------------------------------
  C      0.602721    1.421464   -0.145720
  C      0.027963    0.039677    0.094368
  O      0.594002   -0.970244   -0.789658
  C      1.250426   -1.659069    0.295738
  C      2.700116   -1.524737    0.280633
  C      3.891789   -1.361148    0.327477
  C      0.536101   -0.738264    1.342667
  O      1.302396   -0.089749    2.307390
  H      1.692208    1.423171   -0.052903
  H      0.347033    1.761600   -1.153516
  H      0.191647    2.133277    0.577067
  H     -1.064110    0.055066   -0.007033
  H      0.966204   -2.717255    0.328102
  H      4.948614   -1.250407    0.337562
  H     -0.266881   -1.259756    1.867790
  H      2.188816    0.047608    1.948029

 Total Charge           Charge          ....    0
 Multiplicity           Mult            ....    1
 Number of Electrons    NEL             ....   60
 Basis Dimension        Dim             ....  296

ORBITAL ENERGIES
----------------

  NO   OCC          E(Eh)            E(eV)
   0   2.0000     -20.569563      -559.7263
   1   2.0000     -20.561749      -559.5136
   2   2.0000     -11.317172      -307.9559
   3   2.0000     -11.299988      -307.4883
   4   2.0000     -11.289057      -307.1909
   5   2.0000     -11.250426      -306.1396
   6   2.0000     -11.245466      -306.0047
   7   2.0000     -11.221536      -305.3535
   8   2.0000      -1.402916       -38.1753
   9   2.0000      -1.369815       -37.2746
  10   2.0000      -1.067415       -29.0458
  11   2.0000      -1.028584       -27.9892
  12   2.0000      -0.986357       -26.8401
  13   2.0000      -0.907246       -24.6874
  14   2.0000      -0.791317       -21.5328
  15   2.0000      -0.743544       -20.2329
  16   2.0000      -0.726941       -19.7811
  17   2.0000      -0.694646       -18.9023
  18   2.0000      -0.654364       -17.8061
  19   2.0000      -0.608122       -16.5478
  20   2.0000      -0.604911       -16.4605
  21   2.0000      -0.585184       -15.9237
  22   2.0000      -0.564301       -15.3554
  23   2.0000      -0.543469       -14.7885
  24   2.0000      -0.526004       -14.3133
  25   2.0000      -0.473914       -12.8959
  26   2.0000      -0.445148       -12.1131
  27   2.0000      -0.434906       -11.8344
  28   2.0000      -0.410521       -11.1709
  29   2.0000      -0.398514       -10.8441
  30   0.0000       0.137225         3.7341
  31   0.0000       0.142351         3.8736
  32   0.0000       0.144511         3.9323
  33   0.0000       0.159857         4.3499
  34   0.0000       0.172372         4.6905

MULLIKEN ATOMIC CHARGES
-----------------------
   0 C :   -0.399211
   1 C :    0.109217
   2 O :   -0.322840
   3 C :    0.026328
   4 C :   -0.101961
   5 C :   -0.137356
   6 C :    0.009312
   7 O :   -0.446995
   8 H :    0.117712
   9 H :    0.140906
  10 H :    0.136967
  11 H :    0.096020
  12 H :    0.126639
  13 H :    0.197445
  14 H :    0.119095
  15 H :    0.328720
Sum of atomic charges:    0.0000000

LOEWDIN ATOMIC CHARGES
----------------------
   0 C :   -0.295321
   1 C :   -0.283463
   2 O :    0.163984
   3 C :   -0.263065
   4 C :   -0.095107
   5 C :   -0.081344
   6 C :   -0.289778
   7 O :    0.013574
   8 H :    0.124283
   9 H :    0.130449
  10 H :    0.132141
  11 H :    0.134567
  12 H :    0.153103
  13 H :    0.130781
  14 H :    0.141764
  15 H :    0.183432

  Mayer bond orders larger than 0.1
B(  0-C ,  1-C ) :   0.9157 B(  0-C ,  8-H ) :   0.9316 B(  0-C ,  9-H ) :   0.9339
B(  0-C , 10-H ) :   0.9248 B(  1-C ,  2-O ) :   0.9174 B(  1-C ,  6-C ) :   0.9069
B(  1-C , 11-H ) :   0.9128 B(  2-O ,  3-C ) :   0.9813 B(  3-C ,  4-C ) :   1.0789
B(  3-C ,  6-C ) :   0.9430 B(  3-C , 12-H ) :   0.9154 B(  4-C ,  5-C ) :   2.5638
B(  5-C , 13-H ) :   0.9045 B(  6-C ,  7-O ) :   1.0584 B(  6-C , 14-H ) :   0.9350
B(  7-O , 15-H ) :   0.8196

MP2 TOTAL ENERGY:     -383.044345921 Eh
FINAL SINGLE POINT ENERGY      -383.044345921488

DIPOLE MOMENT
-------------
                                X             Y             Z
Electronic contribution:      1.66781      -4.30356       0.17100
Nuclear contribution   :     -1.44540       4.37716      -0.03419
                        -----------------------------------------
Total Dipole Moment    :      0.22240       0.07359       0.13681
                        -----------------------------------------
Magnitude (a.u.)       :      0.27128
Magnitude (Debye)      :      0.68955

                             ****ORCA TERMINATED NORMALLY****
TOTAL RUN TIME: 0 days 0 hours 12 minutes 8 seconds 68 msec
