                         Program Version 3.0.3 - RELEASE   -
|  1> ! RI-MP2 RIJK def2-TZVP def2-TZVP/C def2-TZVP/JK TIGHTSCF
|  2> % maxcore 2000
|  3> % mp2 density relaxed end
|  4> *xyz 0 1
|  5>  C       -0.1321989016     1.5210241937     0.0197396507
|  6>  C        0.0579137590     0.0049947503     0.0297794978
|  7>  O       -1.2217750719    -0.6305135401     0.0082348223
|  8>  C        1.0097039839    -0.5461072105    -1.1011465180
|  9>  C        2.0220555804    -1.3171111113    -0.2346157816
| 10>  C        1.0956972628    -2.0137730278     0.8069092853
| 11>  C        0.8190838343    -0.5443503747     1.2511866356
| 12>  C        2.3121838709    -0.2555116331     0.8725533059
| 13>  O        3.2884081558    -0.5568673283     1.8383162011
| 14>  H        0.8135531953     2.0608980468     0.1145066109
| 15>  H       -0.5969000381     1.8418324802    -0.9211878535
| 16>  H       -0.7888212923     1.8218549228     0.8416616877
| 17>  H       -1.6984905826    -0.3047999195    -0.7627807531
| 18>  H        0.4541688609    -1.1950461731    -1.7840558487
| 19>  H        1.4806971669     0.2524224105    -1.6838024602
| 20>  H        2.8310526965    -1.8436979048    -0.7426834425
| 21>  H        0.2466449548    -2.5920897742     0.4423230242
| 22>  H        1.6387144617    -2.6024201406     1.5511434422
| 23>  H        0.4167692381    -0.2894534550     2.2322443706
| 24>  H        2.5600407820     0.7524071360     0.5289524776
| 25>  H        3.1133187031    -1.4299555574     2.2032492856
| 26> *
| 27>
| 28>                          ****END OF INPUT****

CARTESIAN COORDINATES (ANGSTROEM)
---------------------------------
  C     -0.132199    1.521024    0.019740
  C      0.057914    0.004995    0.029779
  O     -1.221775   -0.630514    0.008235
  C      1.009704   -0.546107   -1.101147
  C      2.022056   -1.317111   -0.234616
  C      1.095697   -2.013773    0.806909
  C      0.819084   -0.544350    1.251187
  C      2.312184   -0.255512    0.872553
  O      3.288408   -0.556867    1.838316
  H      0.813553    2.060898    0.114507
  H     -0.596900    1.841832   -0.921188
  H     -0.788821    1.821855    0.841662
  H     -1.698491   -0.304800   -0.762781
  H      0.454169   -1.195046   -1.784056
  H      1.480697    0.252422   -1.683802
  H      2.831053   -1.843698   -0.742683
  H      0.246645   -2.592090    0.442323
  H      1.638714   -2.602420    1.551143
  H      0.416769   -0.289453    2.232244
  H      2.560041    0.752407    0.528952
  H      3.113319   -1.429956    2.203249

 Total Charge           Charge          ....    0
 Multiplicity           Mult            ....    1
 Number of Electrons    NEL             ....   70
 Basis Dimension        Dim             ....  351

ORBITAL ENERGIES
----------------

  NO   OCC          E(Eh)            E(eV)
   0   2.0000     -20.556106      -559.3601
   1   2.0000     -20.553539      -559.2902
   2   2.0000     -11.290321      -307.2252
   3   2.0000     -11.280765      -306.9652
   4   2.0000     -11.232179      -305.6431
   5   2.0000     -11.229348      -305.5661
   6   2.0000     -11.225208      -305.4534
   7   2.0000     -11.225035      -305.4487
   8   2.0000     -11.220465      -305.3244
   9   2.0000      -1.367726       -37.2177
  10   2.0000      -1.361851       -37.0578
  11   2.0000      -1.172836       -31.9145
  12   2.0000      -1.012010       -27.5382
  13   2.0000      -0.958467       -26.0812
  14   2.0000      -0.897757       -24.4292
  15   2.0000      -0.892109       -24.2755
  16   2.0000      -0.768697       -20.9173
  17   2.0000      -0.753111       -20.4932
  18   2.0000      -0.702551       -19.1174
  19   2.0000      -0.667429       -18.1617
  20   2.0000      -0.649738       -17.6803
  21   2.0000      -0.635961       -17.3054
  22   2.0000      -0.587109       -15.9761
  23   2.0000      -0.582601       -15.8534
  24   2.0000      -0.575209       -15.6522
  25   2.0000      -0.558218       -15.1899
  26   2.0000      -0.546294       -14.8654
  27   2.0000      -0.520263       -14.1571
  28   2.0000      -0.511042       -13.9062
  29   2.0000      -0.495551       -13.4846
  30   2.0000      -0.472798       -12.8655
  31   2.0000      -0.439988       -11.9727
  32   2.0000      -0.438206       -11.9242
  33   2.0000      -0.421145       -11.4599
  34   2.0000      -0.399315       -10.8659
  35   0.0000       0.129445         3.5224
  36   0.0000       0.144668         3.9366
  37   0.0000       0.163631         4.4526
  38   0.0000       0.169235         4.6051
  39   0.0000       0.185199         5.0395

MULLIKEN ATOMIC CHARGES
-----------------------
   0 C :   -0.437207
   1 C :    0.138641
   2 O :   -0.461900
   3 C :   -0.299793
   4 C :    0.005819
   5 C :   -0.332655
   6 C :    0.023430
   7 C :   -0.043442
   8 O :   -0.449264
   9 H :    0.127880
  10 H :    0.125922
  11 H :    0.145879
  12 H :    0.311157
  13 H :    0.115108
  14 H :    0.121795
  15 H :    0.122496
  16 H :    0.133309
  17 H :    0.110959
  18 H :    0.122669
  19 H :    0.103843
  20 H :    0.315351
Sum of atomic charges:    0.0000000

LOEWDIN ATOMIC CHARGES
----------------------
   0 C :   -0.280666
   1 C :   -0.361644
   2 O :    0.005120
   3 C :   -0.190523
   4 C :   -0.198523
   5 C :   -0.199517
   6 C :   -0.160938
   7 C :   -0.276807
   8 O :   -0.004849
   9 H :    0.126418
  10 H :    0.123672
  11 H :    0.129823
  12 H :    0.172620
  13 H :    0.137081
  14 H :    0.137305
  15 H :    0.132860
  16 H :    0.134784
  17 H :    0.126035
  18 H :    0.138703
  19 H :    0.135383
  20 H :    0.173664

  Mayer bond orders larger than 0.1
B(  0-C ,  1-C ) :   0.9338 B(  0-C ,  9-H ) :   0.9263 B(  0-C , 10-H ) :   0.9270
B(  0-C , 11-H ) :   0.9461 B(  1-C ,  2-O ) :   0.9895 B(  1-C ,  3-C ) :   0.9159
B(  1-C ,  6-C ) :   0.8468 B(  2-O , 12-H ) :   0.8417 B(  3-C ,  4-C ) :   0.8860
B(  3-C , 13-H ) :   0.9064 B(  3-C , 14-H ) :   0.9204 B(  4-C ,  5-C ) :   0.8870
B(  4-C ,  7-C ) :   0.8578 B(  4-C , 15-H ) :   0.9167 B(  5-C ,  6-C ) :   0.8867
B(  5-C , 16-H ) :   0.9079 B(  5-C , 17-H ) :   0.9366 B(  6-C ,  7-C ) :   0.8686
B(  6-C , 18-H ) :   0.9143 B(  7-C ,  8-O ) :   0.9763 B(  7-C , 19-H ) :   0.9494
B(  8-O , 20-H ) :   0.8354

MP2 TOTAL ENERGY:     -423.522283082 Eh
FINAL SINGLE POINT ENERGY      -423.522283082270

DIPOLE MOMENT
-------------
                                X             Y             Z
Electronic contribution:      1.27746      -1.99120       2.03157
Nuclear contribution   :     -1.58695       1.99159      -2.59845
                        -----------------------------------------
Total Dipole Moment    :     -0.30949       0.00040      -0.56688
                        -----------------------------------------
Magnitude (a.u.)       :      0.64586
Magnitude (Debye)      :      1.64165

                             ****ORCA TERMINATED NORMALLY****
TOTAL RUN TIME: 0 days 0 hours 19 minutes 22 seconds 320 msec
