                         Program Version 3.0.3 - RELEASE   -
|  1> ! RI-MP2 RIJK def2-TZVP def2-TZVP/C def2-TZVP/JK TIGHTSCF
|  2> % maxcore 2000
|  3> % mp2 density relaxed end
|  4> *xyz 0 1
|  5>  O       -0.0392581201     1.3894224873    -0.0658978712
|  6>  C        0.0245974776    -0.0254015589    -0.0035294760
|  7>  C        0.6510918266    -0.5728415431     1.3062141265
|  8>  C        0.0348660561    -1.9925779201     1.4535120951
|  9>  C       -1.0556603154    -2.0963245741     0.3435974210
| 10>  C       -1.3886553745    -0.6207080993     0.0558337724
| 11>  C       -0.5033612138    -2.7507883537    -0.9401339742
| 12>  C        0.5012440049    -1.8577799398    -1.6266049096
| 13>  C        0.7427130272    -0.6171718362    -1.2058705083
| 14>  H        0.8617568201     1.7296788624    -0.0570140616
| 15>  H        1.7447104200    -0.5860577909     1.2721348610
| 16>  H        0.3493987856     0.0842697991     2.1290425706
| 17>  H        0.7844536125    -2.7820912426     1.3473568219
| 18>  H       -0.4130790597    -2.1141978122     2.4437822524
| 19>  H       -1.9246474835    -2.6617936348     0.6906827136
| 20>  H       -1.9468692786    -0.1627029514     0.8793278157
| 21>  H       -1.9461044025    -0.4661090555    -0.8716869126
| 22>  H       -0.0418970395    -3.7183277537    -0.6986871848
| 23>  H       -1.3243232152    -2.9827728599    -1.6349749783
| 24>  H        1.0238588274    -2.2587020901    -2.4919016342
| 25>  H        1.4737874351     0.0166929974    -1.7036764093
| 26> *
| 27>
| 28>                          ****END OF INPUT****

CARTESIAN COORDINATES (ANGSTROEM)
---------------------------------
  O     -0.039258    1.389422   -0.065898
  C      0.024597   -0.025402   -0.003529
  C      0.651092   -0.572842    1.306214
  C      0.034866   -1.992578    1.453512
  C     -1.055660   -2.096325    0.343597
  C     -1.388655   -0.620708    0.055834
  C     -0.503361   -2.750788   -0.940134
  C      0.501244   -1.857780   -1.626605
  C      0.742713   -0.617172   -1.205871
  H      0.861757    1.729679   -0.057014
  H      1.744710   -0.586058    1.272135
  H      0.349399    0.084270    2.129043
  H      0.784454   -2.782091    1.347357
  H     -0.413079   -2.114198    2.443782
  H     -1.924647   -2.661794    0.690683
  H     -1.946869   -0.162703    0.879328
  H     -1.946104   -0.466109   -0.871687
  H     -0.041897   -3.718328   -0.698687
  H     -1.324323   -2.982773   -1.634975
  H      1.023859   -2.258702   -2.491902
  H      1.473787    0.016693   -1.703676

 Total Charge           Charge          ....    0
 Multiplicity           Mult            ....    1
 Number of Electrons    NEL             ....   68
 Basis Dimension        Dim             ....  351

ORBITAL ENERGIES
----------------

  NO   OCC          E(Eh)            E(eV)
   0   2.0000     -20.552617      -559.2651
   1   2.0000     -11.281227      -306.9778
   2   2.0000     -11.226715      -305.4944
   3   2.0000     -11.226261      -305.4821
   4   2.0000     -11.224877      -305.4444
   5   2.0000     -11.221456      -305.3513
   6   2.0000     -11.218911      -305.2821
   7   2.0000     -11.216967      -305.2292
   8   2.0000     -11.211645      -305.0844
   9   2.0000      -1.361551       -37.0497
  10   2.0000      -1.148265       -31.2459
  11   2.0000      -1.041354       -28.3367
  12   2.0000      -1.002643       -27.2833
  13   2.0000      -0.958540       -26.0832
  14   2.0000      -0.875882       -23.8340
  15   2.0000      -0.810737       -22.0613
  16   2.0000      -0.771860       -21.0034
  17   2.0000      -0.707899       -19.2629
  18   2.0000      -0.695415       -18.9232
  19   2.0000      -0.647968       -17.6321
  20   2.0000      -0.619304       -16.8521
  21   2.0000      -0.611114       -16.6293
  22   2.0000      -0.588283       -16.0080
  23   2.0000      -0.562634       -15.3101
  24   2.0000      -0.556442       -15.1415
  25   2.0000      -0.543586       -14.7917
  26   2.0000      -0.509817       -13.8728
  27   2.0000      -0.494846       -13.4655
  28   2.0000      -0.477277       -12.9874
  29   2.0000      -0.459639       -12.5074
  30   2.0000      -0.452106       -12.3024
  31   2.0000      -0.438778       -11.9398
  32   2.0000      -0.421751       -11.4764
  33   2.0000      -0.345486        -9.4012
  34   0.0000       0.131899         3.5891
  35   0.0000       0.143230         3.8975
  36   0.0000       0.157406         4.2832
  37   0.0000       0.166933         4.5425
  38   0.0000       0.176417         4.8006

MULLIKEN ATOMIC CHARGES
-----------------------
   0 O :   -0.455721
   1 C :    0.361244
   2 C :   -0.240176
   3 C :   -0.294297
   4 C :    0.018146
   5 C :   -0.270989
   6 C :   -0.239288
   7 C :   -0.151600
   8 C :   -0.317486
   9 H :    0.312781
  10 H :    0.102040
  11 H :    0.118803
  12 H :    0.113097
  13 H :    0.123019
  14 H :    0.109994
  15 H :    0.121333
  16 H :    0.121830
  17 H :    0.123574
  18 H :    0.120966
  19 H :    0.119449
  20 H :    0.103280
Sum of atomic charges:   -0.0000000

LOEWDIN ATOMIC CHARGES
----------------------
   0 O :    0.011755
   1 C :   -0.364944
   2 C :   -0.216268
   3 C :   -0.218333
   4 C :   -0.226850
   5 C :   -0.180770
   6 C :   -0.231978
   7 C :   -0.160261
   8 C :   -0.133105
   9 H :    0.174794
  10 H :    0.133236
  11 H :    0.137918
  12 H :    0.135750
  13 H :    0.135443
  14 H :    0.145559
  15 H :    0.144445
  16 H :    0.143544
  17 H :    0.143536
  18 H :    0.144623
  19 H :    0.140667
  20 H :    0.141238

  Mayer bond orders larger than 0.1
B(  0-O ,  1-C ) :   1.0029 B(  0-O ,  9-H ) :   0.8434 B(  1-C ,  2-C ) :   0.8934
B(  1-C ,  5-C ) :   0.8834 B(  1-C ,  8-C ) :   0.9238 B(  2-C ,  3-C ) :   0.9436
B(  2-C , 10-H ) :   0.9025 B(  2-C , 11-H ) :   0.9279 B(  3-C ,  4-C ) :   0.9048
B(  3-C , 12-H ) :   0.9197 B(  3-C , 13-H ) :   0.9259 B(  4-C ,  5-C ) :   0.9154
B(  4-C ,  6-C ) :   0.9222 B(  4-C , 14-H ) :   0.9290 B(  5-C , 15-H ) :   0.9242
B(  5-C , 16-H ) :   0.9229 B(  6-C ,  7-C ) :   0.9399 B(  6-C , 17-H ) :   0.9200
B(  6-C , 18-H ) :   0.9120 B(  7-C ,  8-C ) :   1.7870 B(  7-C , 19-H ) :   0.9262
B(  8-C , 20-H ) :   0.9265

MP2 TOTAL ENERGY:     -386.447784955 Eh
FINAL SINGLE POINT ENERGY      -386.447784955457

DIPOLE MOMENT
-------------
                                X             Y             Z
Electronic contribution:      0.41867       3.54182      -1.77649
Nuclear contribution   :     -0.01129      -3.97630       1.87183
                        -----------------------------------------
Total Dipole Moment    :      0.40738      -0.43448       0.09533
                        -----------------------------------------
Magnitude (a.u.)       :      0.60317
Magnitude (Debye)      :      1.53315

                             ****ORCA TERMINATED NORMALLY****
TOTAL RUN TIME: 0 days 0 hours 20 minutes 48 seconds 922 msec
