                         Program Version 3.0.3 - RELEASE   -
|  1> ! RI-MP2 RIJK def2-TZVP def2-TZVP/C def2-TZVP/JK TIGHTSCF
|  2> % maxcore 2000
|  3> % mp2 density relaxed end
|  4> *xyz 0 1
|  5>  C       -0.0407440263     1.5542814048    -0.1467154244
|  6>  C       -0.0465264673     0.0610062256     0.0406703869
|  7>  O        1.0006055216    -0.5942392122    -0.7228665897
|  8>  C        1.4898408648    -1.3224123015     0.4170787888
|  9>  C        0.3812270860    -0.7697970620     1.3320193291
| 10>  O        0.7125531523    -0.2872694167     2.5953061658
| 11>  C       -0.9147554024    -1.5444156993     1.2476595624
| 12>  C       -2.0825156770    -0.6000130097     1.2944558255
| 13>  C       -1.3351495801    -0.7477896386    -0.0010540485
| 14>  H        0.9185498695     1.9853964068     0.1577410357
| 15>  H       -0.1949847744     1.7991412378    -1.2037003343
| 16>  H       -0.8368109681     2.0285238391     0.4339785900
| 17>  H        1.5104499622    -2.4071931834     0.2571587120
| 18>  H        2.4991530631    -0.9886783057     0.7044727936
| 19>  H        1.5490414239     0.1871297867     2.5357764549
| 20>  H       -1.0181010247    -2.6060395801     1.4398722764
| 21>  H       -3.0576803753    -1.0747572398     1.3205227461
| 22>  H       -2.0197121541     0.3145939528     1.8770766663
| 23>  H       -1.7929854035    -1.1282288049    -0.9058159966
| 24> *
| 25>
| 26>                          ****END OF INPUT****

CARTESIAN COORDINATES (ANGSTROEM)
---------------------------------
  C     -0.040744    1.554281   -0.146715
  C     -0.046526    0.061006    0.040670
  O      1.000606   -0.594239   -0.722867
  C      1.489841   -1.322412    0.417079
  C      0.381227   -0.769797    1.332019
  O      0.712553   -0.287269    2.595306
  C     -0.914755   -1.544416    1.247660
  C     -2.082516   -0.600013    1.294456
  C     -1.335150   -0.747790   -0.001054
  H      0.918550    1.985396    0.157741
  H     -0.194985    1.799141   -1.203700
  H     -0.836811    2.028524    0.433979
  H      1.510450   -2.407193    0.257159
  H      2.499153   -0.988678    0.704473
  H      1.549041    0.187130    2.535776
  H     -1.018101   -2.606040    1.439872
  H     -3.057680   -1.074757    1.320523
  H     -2.019712    0.314594    1.877077
  H     -1.792985   -1.128229   -0.905816

 Total Charge           Charge          ....    0
 Multiplicity           Mult            ....    1
 Number of Electrons    NEL             ....   68
 Basis Dimension        Dim             ....  339

ORBITAL ENERGIES
----------------

  NO   OCC          E(Eh)            E(eV)
   0   2.0000     -20.571035      -559.7663
   1   2.0000     -20.548792      -559.1611
   2   2.0000     -11.294855      -307.3486
   3   2.0000     -11.289002      -307.1894
   4   2.0000     -11.280256      -306.9514
   5   2.0000     -11.236740      -305.7672
   6   2.0000     -11.236071      -305.7490
   7   2.0000     -11.233655      -305.6833
   8   2.0000     -11.219802      -305.3063
   9   2.0000      -1.397104       -38.0171
  10   2.0000      -1.366481       -37.1838
  11   2.0000      -1.182075       -32.1659
  12   2.0000      -1.011315       -27.5193
  13   2.0000      -0.982393       -26.7323
  14   2.0000      -0.896001       -24.3814
  15   2.0000      -0.845244       -23.0003
  16   2.0000      -0.798926       -21.7399
  17   2.0000      -0.737027       -20.0555
  18   2.0000      -0.699835       -19.0435
  19   2.0000      -0.675535       -18.3822
  20   2.0000      -0.663695       -18.0600
  21   2.0000      -0.611001       -16.6262
  22   2.0000      -0.601872       -16.3778
  23   2.0000      -0.585042       -15.9198
  24   2.0000      -0.570538       -15.5251
  25   2.0000      -0.552228       -15.0269
  26   2.0000      -0.538066       -14.6415
  27   2.0000      -0.535708       -14.5774
  28   2.0000      -0.514345       -13.9960
  29   2.0000      -0.466886       -12.7046
  30   2.0000      -0.441683       -12.0188
  31   2.0000      -0.413095       -11.2409
  32   2.0000      -0.395427       -10.7601
  33   2.0000      -0.384434       -10.4610
  34   0.0000       0.127404         3.4669
  35   0.0000       0.155156         4.2220
  36   0.0000       0.162032         4.4091
  37   0.0000       0.177111         4.8194
  38   0.0000       0.190046         5.1714

MULLIKEN ATOMIC CHARGES
-----------------------
   0 C :   -0.393767
   1 C :    0.174938
   2 O :   -0.337347
   3 C :   -0.050286
   4 C :    0.140671
   5 O :   -0.442145
   6 C :   -0.132496
   7 C :   -0.289575
   8 C :   -0.127244
   9 H :    0.120563
  10 H :    0.144067
  11 H :    0.134763
  12 H :    0.104367
  13 H :    0.086717
  14 H :    0.319858
  15 H :    0.134961
  16 H :    0.134774
  17 H :    0.143650
  18 H :    0.133530
Sum of atomic charges:   -0.0000000

LOEWDIN ATOMIC CHARGES
----------------------
   0 C :   -0.270165
   1 C :   -0.272997
   2 O :    0.161580
   3 C :   -0.237804
   4 C :   -0.316938
   5 O :    0.032098
   6 C :   -0.139415
   7 C :   -0.192051
   8 C :   -0.136054
   9 H :    0.127152
  10 H :    0.136135
  11 H :    0.132113
  12 H :    0.121891
  13 H :    0.117515
  14 H :    0.179930
  15 H :    0.138451
  16 H :    0.142341
  17 H :    0.136271
  18 H :    0.139946

  Mayer bond orders larger than 0.1
B(  0-C ,  1-C ) :   0.8848 B(  0-C ,  9-H ) :   0.9310 B(  0-C , 10-H ) :   0.9376
B(  0-C , 11-H ) :   0.9335 B(  1-C ,  2-O ) :   0.9190 B(  1-C ,  4-C ) :   0.8790
B(  1-C ,  8-C ) :   0.9183 B(  2-O ,  3-C ) :   0.9695 B(  3-C ,  4-C ) :   1.0014
B(  3-C , 12-H ) :   0.9113 B(  3-C , 13-H ) :   0.8973 B(  4-C ,  5-O ) :   1.1082
B(  4-C ,  6-C ) :   0.9248 B(  5-O , 14-H ) :   0.8355 B(  6-C ,  7-C ) :   0.8902
B(  6-C ,  8-C ) :   0.8316 B(  6-C , 15-H ) :   0.9243 B(  7-C ,  8-C ) :   0.8596
B(  7-C , 16-H ) :   0.9317 B(  7-C , 17-H ) :   0.9156 B(  8-C , 18-H ) :   0.9137

MP2 TOTAL ENERGY:     -422.279590150 Eh
FINAL SINGLE POINT ENERGY      -422.279590150367

DIPOLE MOMENT
-------------
                                X             Y             Z
Electronic contribution:      1.88415      -2.33144       0.42258
Nuclear contribution   :     -1.84406       2.42684      -0.24588
                        -----------------------------------------
Total Dipole Moment    :      0.04009       0.09539       0.17669
                        -----------------------------------------
Magnitude (a.u.)       :      0.20476
Magnitude (Debye)      :      0.52047

                             ****ORCA TERMINATED NORMALLY****
TOTAL RUN TIME: 0 days 0 hours 17 minutes 29 seconds 31 msec
