                         Program Version 3.0.3 - RELEASE   -
|  1> ! RI-MP2 RIJK def2-TZVP def2-TZVP/C def2-TZVP/JK TIGHTSCF
|  2> % maxcore 2000
|  3> % mp2 density relaxed end
|  4> *xyz 0 1
|  5>  O       -0.3749333775     0.1548997766     0.2116665273
|  6>  C       -0.0093487674     1.3012600327     0.1724288175
|  7>  C        1.3993746483     1.7510936133    -0.1672439072
|  8>  C        1.4015270006     2.7531447876    -1.2919327060
|  9>  C        1.2208961550     2.4427490305    -2.7904751608
| 10>  C        2.1875948423     3.6289808007    -3.1207912928
| 11>  C        2.3238130015     3.8982383061    -1.6160101598
| 12>  N        1.0212861136     4.1345739979    -1.0000484084
| 13>  H       -0.7093752319     2.1398436829     0.3879203797
| 14>  H        1.8138556842     2.2358340463     0.7263364435
| 15>  H        2.0028076426     0.8707783115    -0.4069917463
| 16>  H        1.6395057363     1.4765392875    -3.0822005699
| 17>  H        0.1950125393     2.5045827908    -3.1687413471
| 18>  H        3.1151500447     3.2889020387    -3.5867707825
| 19>  H        1.7826228791     4.4568439311    -3.7122994162
| 20>  H        3.2036089544     4.2588492855    -1.0944920422
| 21>  H        0.3386637947     4.5100840702    -1.6566916089
| 22> *
| 23>
| 24>                          ****END OF INPUT****

CARTESIAN COORDINATES (ANGSTROEM)
---------------------------------
  O     -0.374933    0.154900    0.211667
  C     -0.009349    1.301260    0.172429
  C      1.399375    1.751094   -0.167244
  C      1.401527    2.753145   -1.291933
  C      1.220896    2.442749   -2.790475
  C      2.187595    3.628981   -3.120791
  C      2.323813    3.898238   -1.616010
  N      1.021286    4.134574   -1.000048
  H     -0.709375    2.139844    0.387920
  H      1.813856    2.235834    0.726336
  H      2.002808    0.870778   -0.406992
  H      1.639506    1.476539   -3.082201
  H      0.195013    2.504583   -3.168741
  H      3.115150    3.288902   -3.586771
  H      1.782623    4.456844   -3.712299
  H      3.203609    4.258849   -1.094492
  H      0.338664    4.510084   -1.656692

 Total Charge           Charge          ....    0
 Multiplicity           Mult            ....    1
 Number of Electrons    NEL             ....   60
 Basis Dimension        Dim             ....  302

ORBITAL ENERGIES
----------------

  NO   OCC          E(Eh)            E(eV)
   0   2.0000     -20.555736      -559.3500
   1   2.0000     -15.568660      -423.6448
   2   2.0000     -11.329877      -308.3016
   3   2.0000     -11.280327      -306.9533
   4   2.0000     -11.270076      -306.6744
   5   2.0000     -11.244461      -305.9773
   6   2.0000     -11.242872      -305.9341
   7   2.0000     -11.242287      -305.9182
   8   2.0000      -1.394334       -37.9418
   9   2.0000      -1.297920       -35.3182
  10   2.0000      -1.055920       -28.7331
  11   2.0000      -1.040593       -28.3160
  12   2.0000      -0.902531       -24.5591
  13   2.0000      -0.864217       -23.5165
  14   2.0000      -0.794933       -21.6312
  15   2.0000      -0.744857       -20.2686
  16   2.0000      -0.696414       -18.9504
  17   2.0000      -0.662049       -18.0153
  18   2.0000      -0.651149       -17.7187
  19   2.0000      -0.634177       -17.2568
  20   2.0000      -0.620892       -16.8953
  21   2.0000      -0.579666       -15.7735
  22   2.0000      -0.536685       -14.6039
  23   2.0000      -0.522874       -14.2281
  24   2.0000      -0.503119       -13.6906
  25   2.0000      -0.473313       -12.8795
  26   2.0000      -0.462737       -12.5917
  27   2.0000      -0.442901       -12.0519
  28   2.0000      -0.428924       -11.6716
  29   2.0000      -0.386088       -10.5060
  30   0.0000       0.124566         3.3896
  31   0.0000       0.138231         3.7615
  32   0.0000       0.152356         4.1458
  33   0.0000       0.161354         4.3907
  34   0.0000       0.172774         4.7014

MULLIKEN ATOMIC CHARGES
-----------------------
   0 O :   -0.265056
   1 C :    0.085191
   2 C :   -0.144487
   3 C :    0.067862
   4 C :   -0.243799
   5 C :   -0.197010
   6 C :   -0.125167
   7 N :   -0.362729
   8 H :    0.088837
   9 H :    0.137742
  10 H :    0.116221
  11 H :    0.127078
  12 H :    0.124717
  13 H :    0.119573
  14 H :    0.121214
  15 H :    0.133859
  16 H :    0.215953
Sum of atomic charges:   -0.0000000

LOEWDIN ATOMIC CHARGES
----------------------
   0 O :    0.130184
   1 C :   -0.285352
   2 C :   -0.226358
   3 C :   -0.272666
   4 C :   -0.200632
   5 C :   -0.225909
   6 C :   -0.219758
   7 N :    0.043905
   8 H :    0.113914
   9 H :    0.163585
  10 H :    0.149887
  11 H :    0.139347
  12 H :    0.128519
  13 H :    0.136367
  14 H :    0.126752
  15 H :    0.132141
  16 H :    0.166075

  Mayer bond orders larger than 0.1
B(  0-O ,  1-C ) :   1.9926 B(  1-C ,  2-C ) :   0.8816 B(  1-C ,  8-H ) :   0.9360
B(  2-C ,  3-C ) :   0.8798 B(  2-C ,  9-H ) :   0.9120 B(  2-C , 10-H ) :   0.9078
B(  3-C ,  4-C ) :   0.9360 B(  3-C ,  6-C ) :   0.8252 B(  3-C ,  7-N ) :   0.8719
B(  4-C ,  5-C ) :   0.9474 B(  4-C , 11-H ) :   0.9211 B(  4-C , 12-H ) :   0.9200
B(  5-C ,  6-C ) :   0.9178 B(  5-C , 13-H ) :   0.9136 B(  5-C , 14-H ) :   0.9261
B(  6-C ,  7-N ) :   0.9622 B(  6-C , 15-H ) :   0.9181 B(  7-N , 16-H ) :   0.8635

MP2 TOTAL ENERGY:     -363.205607487 Eh
FINAL SINGLE POINT ENERGY      -363.205607487111

DIPOLE MOMENT
-------------
                                X             Y             Z
Electronic contribution:     -2.48831      -2.46158       3.83631
Nuclear contribution   :      3.09835       3.17159      -4.56449
                        -----------------------------------------
Total Dipole Moment    :      0.61004       0.71001      -0.72819
                        -----------------------------------------
Magnitude (a.u.)       :      1.18597
Magnitude (Debye)      :      3.01449

                             ****ORCA TERMINATED NORMALLY****
TOTAL RUN TIME: 0 days 0 hours 13 minutes 0 seconds 861 msec
