                         Program Version 3.0.3 - RELEASE   -
|  1> ! RI-MP2 RIJK def2-TZVP def2-TZVP/C def2-TZVP/JK TIGHTSCF
|  2> % maxcore 2000
|  3> % mp2 density relaxed end
|  4> *xyz 0 1
|  5>  O       -0.2792351536     0.0697509195     0.0001640329
|  6>  C       -0.0833751975     1.2518003387     0.0643519100
|  7>  C        1.2891133102     1.9090527235    -0.0454758002
|  8>  O        2.3402503211     0.9664619888    -0.1041494497
|  9>  C        2.6739674938     0.5270846372    -1.4247998391
| 10>  C        2.5033595540     1.6737493672    -2.4127782725
| 11>  C        2.7947358538     3.0253699968    -1.7240944492
| 12>  C        1.3331966952     2.8391934839    -1.2702682285
| 13>  O        1.0790847810     2.0080360347    -2.4365309529
| 14>  H       -0.9157061490     1.9786439934     0.2231118182
| 15>  H        1.4447325885     2.4999397090     0.8705385932
| 16>  H        3.7142771397     0.1883528699    -1.3761972028
| 17>  H        2.0335062661    -0.3110524505    -1.7260001189
| 18>  H        2.9019791561     1.4572039027    -3.4066292089
| 19>  H        3.5769076020     3.0664193223    -0.9653721269
| 20>  H        2.8928214146     3.8392068195    -2.4426711080
| 21>  H        0.6546688938     3.6928351635    -1.1972467366
| 22> *
| 23>
| 24>                          ****END OF INPUT****

CARTESIAN COORDINATES (ANGSTROEM)
---------------------------------
  O     -0.279235    0.069751    0.000164
  C     -0.083375    1.251800    0.064352
  C      1.289113    1.909053   -0.045476
  O      2.340250    0.966462   -0.104149
  C      2.673967    0.527085   -1.424800
  C      2.503360    1.673749   -2.412778
  C      2.794736    3.025370   -1.724094
  C      1.333197    2.839193   -1.270268
  O      1.079085    2.008036   -2.436531
  H     -0.915706    1.978644    0.223112
  H      1.444733    2.499940    0.870539
  H      3.714277    0.188353   -1.376197
  H      2.033506   -0.311052   -1.726000
  H      2.901979    1.457204   -3.406629
  H      3.576908    3.066419   -0.965372
  H      2.892821    3.839207   -2.442671
  H      0.654669    3.692835   -1.197247

 Total Charge           Charge          ....    0
 Multiplicity           Mult            ....    1
 Number of Electrons    NEL             ....   68
 Basis Dimension        Dim             ....  327

ORBITAL ENERGIES
----------------

  NO   OCC          E(Eh)            E(eV)
   0   2.0000     -20.568263      -559.6909
   1   2.0000     -20.563056      -559.5492
   2   2.0000     -20.558527      -559.4260
   3   2.0000     -11.332502      -308.3730
   4   2.0000     -11.309072      -307.7355
   5   2.0000     -11.304414      -307.6087
   6   2.0000     -11.300323      -307.4974
   7   2.0000     -11.283445      -307.0381
   8   2.0000     -11.247125      -306.0498
   9   2.0000      -1.422530       -38.7090
  10   2.0000      -1.395764       -37.9807
  11   2.0000      -1.366610       -37.1873
  12   2.0000      -1.061058       -28.8729
  13   2.0000      -1.041120       -28.3303
  14   2.0000      -0.941974       -25.6324
  15   2.0000      -0.885216       -24.0879
  16   2.0000      -0.813169       -22.1275
  17   2.0000      -0.738385       -20.0925
  18   2.0000      -0.730577       -19.8800
  19   2.0000      -0.701664       -19.0932
  20   2.0000      -0.663889       -18.0653
  21   2.0000      -0.650629       -17.7045
  22   2.0000      -0.644771       -17.5451
  23   2.0000      -0.619621       -16.8607
  24   2.0000      -0.580321       -15.7913
  25   2.0000      -0.567517       -15.4429
  26   2.0000      -0.546785       -14.8788
  27   2.0000      -0.541470       -14.7342
  28   2.0000      -0.517452       -14.0806
  29   2.0000      -0.485425       -13.2091
  30   2.0000      -0.479009       -13.0345
  31   2.0000      -0.460168       -12.5218
  32   2.0000      -0.422419       -11.4946
  33   2.0000      -0.399904       -10.8820
  34   0.0000       0.129762         3.5310
  35   0.0000       0.135800         3.6953
  36   0.0000       0.151914         4.1338
  37   0.0000       0.164857         4.4860
  38   0.0000       0.171917         4.6781

MULLIKEN ATOMIC CHARGES
-----------------------
   0 O :   -0.249468
   1 C :    0.077970
   2 C :    0.097867
   3 O :   -0.320848
   4 C :   -0.055247
   5 C :    0.026018
   6 C :   -0.260662
   7 C :    0.037534
   8 O :   -0.331000
   9 H :    0.070413
  10 H :    0.124010
  11 H :    0.120485
  12 H :    0.124105
  13 H :    0.128291
  14 H :    0.141734
  15 H :    0.133501
  16 H :    0.135297
Sum of atomic charges:   -0.0000000

LOEWDIN ATOMIC CHARGES
----------------------
   0 O :    0.154910
   1 C :   -0.275333
   2 C :   -0.315082
   3 O :    0.189229
   4 C :   -0.278769
   5 C :   -0.270761
   6 C :   -0.196490
   7 C :   -0.258425
   8 O :    0.156651
   9 H :    0.112560
  10 H :    0.159743
  11 H :    0.133819
  12 H :    0.135341
  13 H :    0.137015
  14 H :    0.136992
  15 H :    0.140439
  16 H :    0.138164

  Mayer bond orders larger than 0.1
B(  0-O ,  1-C ) :   2.0193 B(  1-C ,  2-C ) :   0.8436 B(  1-C ,  9-H ) :   0.9234
B(  2-C ,  3-O ) :   0.9536 B(  2-C ,  7-C ) :   0.9141 B(  2-C , 10-H ) :   0.8932
B(  3-O ,  4-C ) :   0.9094 B(  4-C ,  5-C ) :   0.9561 B(  4-C , 11-H ) :   0.9190
B(  4-C , 12-H ) :   0.9151 B(  5-C ,  6-C ) :   0.9492 B(  5-C ,  8-O ) :   0.9092
B(  5-C , 13-H ) :   0.9106 B(  6-C ,  7-C ) :   0.9379 B(  6-C , 14-H ) :   0.9181
B(  6-C , 15-H ) :   0.9268 B(  7-C ,  8-O ) :   0.9220 B(  7-C , 16-H ) :   0.9008

MP2 TOTAL ENERGY:     -458.206309069 Eh
FINAL SINGLE POINT ENERGY      -458.206309068743

DIPOLE MOMENT
-------------
                                X             Y             Z
Electronic contribution:     -3.21835      -2.43953       1.47772
Nuclear contribution   :      3.97407       3.65203      -1.62648
                        -----------------------------------------
Total Dipole Moment    :      0.75572       1.21250      -0.14877
                        -----------------------------------------
Magnitude (a.u.)       :      1.43646
Magnitude (Debye)      :      3.65118

                             ****ORCA TERMINATED NORMALLY****
TOTAL RUN TIME: 0 days 0 hours 16 minutes 57 seconds 883 msec
