                         Program Version 3.0.3 - RELEASE   -
|  1> ! RI-MP2 RIJK def2-TZVP def2-TZVP/C def2-TZVP/JK TIGHTSCF
|  2> % maxcore 2000
|  3> % mp2 density relaxed end
|  4> *xyz 0 1
|  5>  C       -0.0337589773     1.5543164350     0.1007707392
|  6>  C        1.5099860549     1.4558107926    -0.0132970586
|  7>  O        2.0576946108     1.3473696032     1.2928171373
|  8>  C        1.8848704367     0.0377696729     1.8150839519
|  9>  C        2.9226532915    -0.9042051312     1.1505892138
| 10>  C        1.8440172461    -1.1808828105     0.0920445164
| 11>  C        1.3523702464     0.0493412572    -0.7333316050
| 12>  C       -0.0398213229     0.0227400712    -0.0207171283
| 13>  C        0.7183374814    -0.7631932845     1.0945923522
| 14>  H       -0.4114975433     2.0336932873     1.0075625977
| 15>  H       -0.4894634789     2.0149391188    -0.7818235367
| 16>  H        2.0559384776     2.2439905371    -0.5351960441
| 17>  H        1.8596628763     0.1177105886     2.9034973493
| 18>  H        3.8677989917    -0.4376858003     0.8610738953
| 19>  H        3.1172064339    -1.8001774994     1.7490833684
| 20>  H        1.8248753707    -2.1211291637    -0.4631041907
| 21>  H        1.4757372310     0.0739438011    -1.8168918027
| 22>  H       -0.9034970508    -0.5087208284    -0.4259740690
| 23>  H        0.1861487742    -1.4693292373     1.7333996837
| 24> *
| 25>
| 26>                          ****END OF INPUT****

CARTESIAN COORDINATES (ANGSTROEM)
---------------------------------
  C     -0.033759    1.554316    0.100771
  C      1.509986    1.455811   -0.013297
  O      2.057695    1.347370    1.292817
  C      1.884870    0.037770    1.815084
  C      2.922653   -0.904205    1.150589
  C      1.844017   -1.180883    0.092045
  C      1.352370    0.049341   -0.733332
  C     -0.039821    0.022740   -0.020717
  C      0.718337   -0.763193    1.094592
  H     -0.411498    2.033693    1.007563
  H     -0.489463    2.014939   -0.781824
  H      2.055938    2.243991   -0.535196
  H      1.859663    0.117711    2.903497
  H      3.867799   -0.437686    0.861074
  H      3.117206   -1.800177    1.749083
  H      1.824875   -2.121129   -0.463104
  H      1.475737    0.073944   -1.816892
  H     -0.903497   -0.508721   -0.425974
  H      0.186149   -1.469329    1.733400

 Total Charge           Charge          ....    0
 Multiplicity           Mult            ....    1
 Number of Electrons    NEL             ....   66
 Basis Dimension        Dim             ....  339

ORBITAL ENERGIES
----------------

  NO   OCC          E(Eh)            E(eV)
   0   2.0000     -20.546742      -559.1053
   1   2.0000     -11.279837      -306.9400
   2   2.0000     -11.279820      -306.9395
   3   2.0000     -11.231226      -305.6172
   4   2.0000     -11.230715      -305.6033
   5   2.0000     -11.230678      -305.6023
   6   2.0000     -11.230170      -305.5885
   7   2.0000     -11.215234      -305.1820
   8   2.0000     -11.215234      -305.1820
   9   2.0000      -1.378084       -37.4996
  10   2.0000      -1.172777       -31.9129
  11   2.0000      -1.088737       -29.6261
  12   2.0000      -0.930868       -25.3302
  13   2.0000      -0.930670       -25.3248
  14   2.0000      -0.843166       -22.9437
  15   2.0000      -0.825152       -22.4535
  16   2.0000      -0.784059       -21.3353
  17   2.0000      -0.712578       -19.3902
  18   2.0000      -0.657432       -17.8896
  19   2.0000      -0.653347       -17.7785
  20   2.0000      -0.611124       -16.6295
  21   2.0000      -0.607726       -16.5371
  22   2.0000      -0.597440       -16.2572
  23   2.0000      -0.550866       -14.9898
  24   2.0000      -0.536449       -14.5975
  25   2.0000      -0.533687       -14.5224
  26   2.0000      -0.507936       -13.8217
  27   2.0000      -0.493352       -13.4248
  28   2.0000      -0.430432       -11.7127
  29   2.0000      -0.420374       -11.4390
  30   2.0000      -0.398368       -10.8402
  31   2.0000      -0.392959       -10.6929
  32   2.0000      -0.375363       -10.2141
  33   0.0000       0.140174         3.8143
  34   0.0000       0.154018         4.1911
  35   0.0000       0.166194         4.5224
  36   0.0000       0.170883         4.6500
  37   0.0000       0.194209         5.2847

MULLIKEN ATOMIC CHARGES
-----------------------
   0 C :   -0.243629
   1 C :    0.085398
   2 O :   -0.319594
   3 C :    0.085398
   4 C :   -0.243629
   5 C :   -0.123690
   6 C :   -0.129712
   7 C :   -0.123689
   8 C :   -0.129712
   9 H :    0.112896
  10 H :    0.108328
  11 H :    0.114407
  12 H :    0.114407
  13 H :    0.112896
  14 H :    0.108328
  15 H :    0.112169
  16 H :    0.123629
  17 H :    0.112170
  18 H :    0.123629
Sum of atomic charges:    0.0000000

LOEWDIN ATOMIC CHARGES
----------------------
   0 C :   -0.211769
   1 C :   -0.245915
   2 O :    0.195544
   3 C :   -0.245913
   4 C :   -0.211769
   5 C :   -0.172977
   6 C :   -0.132011
   7 C :   -0.172977
   8 C :   -0.132011
   9 H :    0.128055
  10 H :    0.137935
  11 H :    0.129870
  12 H :    0.129870
  13 H :    0.128055
  14 H :    0.137935
  15 H :    0.134242
  16 H :    0.134796
  17 H :    0.134242
  18 H :    0.134796

  Mayer bond orders larger than 0.1
B(  0-C ,  1-C ) :   0.9080 B(  0-C ,  7-C ) :   0.9482 B(  0-C ,  9-H ) :   0.9115
B(  0-C , 10-H ) :   0.9117 B(  1-C ,  2-O ) :   0.9202 B(  1-C ,  6-C ) :   0.9082
B(  1-C , 11-H ) :   0.9285 B(  2-O ,  3-C ) :   0.9202 B(  3-C ,  4-C ) :   0.9080
B(  3-C ,  8-C ) :   0.9082 B(  3-C , 12-H ) :   0.9285 B(  4-C ,  5-C ) :   0.9482
B(  4-C , 13-H ) :   0.9115 B(  4-C , 14-H ) :   0.9117 B(  5-C ,  6-C ) :   0.9078
B(  5-C ,  8-C ) :   0.9271 B(  5-C , 15-H ) :   0.9226 B(  6-C ,  7-C ) :   0.9271
B(  6-C , 16-H ) :   0.9090 B(  7-C ,  8-C ) :   0.9078 B(  7-C , 17-H ) :   0.9226
B(  8-C , 18-H ) :   0.9090

MP2 TOTAL ENERGY:     -385.158442597 Eh
FINAL SINGLE POINT ENERGY      -385.158442597455

DIPOLE MOMENT
-------------
                                X             Y             Z
Electronic contribution:      0.79161       1.31966       0.86117
Nuclear contribution   :     -1.05720      -1.76240      -1.15010
                        -----------------------------------------
Total Dipole Moment    :     -0.26558      -0.44274      -0.28892
                        -----------------------------------------
Magnitude (a.u.)       :      0.59163
Magnitude (Debye)      :      1.50381

                             ****ORCA TERMINATED NORMALLY****
TOTAL RUN TIME: 0 days 0 hours 19 minutes 47 seconds 945 msec
