                         Program Version 3.0.3 - RELEASE   -
|  1> ! RI-MP2 RIJK def2-TZVP def2-TZVP/C def2-TZVP/JK TIGHTSCF
|  2> % maxcore 2000
|  3> % mp2 density relaxed end
|  4> *xyz 0 1
|  5>  N        0.0299376183     1.2972624202    -0.0663831262
|  6>  C       -0.0869502738    -0.0462483301     0.1104000572
|  7>  N       -1.1213919592    -0.6909558736    -0.2798123945
|  8>  C       -1.0853211311    -2.0700849928    -0.2025255722
|  9>  N        0.0248113339    -2.7961356807    -0.2772503017
| 10>  N       -0.4667921121    -4.0732839212    -0.1497366552
| 11>  C       -1.8131442918    -4.0375327692    -0.0418844867
| 12>  N       -2.6061715782    -5.1702962468     0.0102423939
| 13>  N       -2.2440641852    -2.7935643191    -0.0598530432
| 14>  H        0.6836567063     1.8099166120     0.4997442504
| 15>  H       -0.7947692367     1.7905276013    -0.3733149188
| 16>  H        0.7824150492    -0.5235414154     0.5743755504
| 17>  H        0.1368136660    -4.8596704655    -0.3185893156
| 18>  H       -2.2531917605    -5.9063828614     0.6068908727
| 19>  H       -3.5582605951    -4.9291390976     0.2509434095
| 20> *
| 21>
| 22>                          ****END OF INPUT****

CARTESIAN COORDINATES (ANGSTROEM)
---------------------------------
  N      0.029938    1.297262   -0.066383
  C     -0.086950   -0.046248    0.110400
  N     -1.121392   -0.690956   -0.279812
  C     -1.085321   -2.070085   -0.202526
  N      0.024811   -2.796136   -0.277250
  N     -0.466792   -4.073284   -0.149737
  C     -1.813144   -4.037533   -0.041884
  N     -2.606172   -5.170296    0.010242
  N     -2.244064   -2.793564   -0.059853
  H      0.683657    1.809917    0.499744
  H     -0.794769    1.790528   -0.373315
  H      0.782415   -0.523541    0.574376
  H      0.136814   -4.859670   -0.318589
  H     -2.253192   -5.906383    0.606891
  H     -3.558261   -4.929139    0.250943

 Total Charge           Charge          ....    0
 Multiplicity           Mult            ....    1
 Number of Electrons    NEL             ....   66
 Basis Dimension        Dim             ....  315

ORBITAL ENERGIES
----------------

  NO   OCC          E(Eh)            E(eV)
   0   2.0000     -15.619191      -425.0198
   1   2.0000     -15.586394      -424.1273
   2   2.0000     -15.583844      -424.0580
   3   2.0000     -15.557709      -423.3468
   4   2.0000     -15.531673      -422.6383
   5   2.0000     -15.527578      -422.5269
   6   2.0000     -11.343300      -308.6669
   7   2.0000     -11.323301      -308.1227
   8   2.0000     -11.304779      -307.6187
   9   2.0000      -1.392430       -37.8900
  10   2.0000      -1.276992       -34.7487
  11   2.0000      -1.235711       -33.6254
  12   2.0000      -1.193853       -32.4864
  13   2.0000      -1.153321       -31.3835
  14   2.0000      -1.056113       -28.7383
  15   2.0000      -0.879399       -23.9297
  16   2.0000      -0.828345       -22.5404
  17   2.0000      -0.791724       -21.5439
  18   2.0000      -0.761106       -20.7107
  19   2.0000      -0.712114       -19.3776
  20   2.0000      -0.678764       -18.4701
  21   2.0000      -0.663908       -18.0659
  22   2.0000      -0.633809       -17.2468
  23   2.0000      -0.621534       -16.9128
  24   2.0000      -0.611002       -16.6262
  25   2.0000      -0.536104       -14.5881
  26   2.0000      -0.492541       -13.4027
  27   2.0000      -0.489445       -13.3185
  28   2.0000      -0.444728       -12.1017
  29   2.0000      -0.428048       -11.6478
  30   2.0000      -0.407309       -11.0834
  31   2.0000      -0.370004       -10.0683
  32   2.0000      -0.310092        -8.4380
  33   0.0000       0.121054         3.2940
  34   0.0000       0.133264         3.6263
  35   0.0000       0.143295         3.8993
  36   0.0000       0.159719         4.3462
  37   0.0000       0.178019         4.8441

MULLIKEN ATOMIC CHARGES
-----------------------
   0 N :   -0.460437
   1 C :    0.149172
   2 N :   -0.274296
   3 C :    0.156127
   4 N :   -0.265522
   5 N :   -0.181565
   6 C :    0.301867
   7 N :   -0.524829
   8 N :   -0.310491
   9 H :    0.258338
  10 H :    0.262079
  11 H :    0.107448
  12 H :    0.256810
  13 H :    0.251988
  14 H :    0.273311
Sum of atomic charges:   -0.0000000

LOEWDIN ATOMIC CHARGES
----------------------
   0 N :   -0.043150
   1 C :   -0.317046
   2 N :    0.100104
   3 C :   -0.444823
   4 N :    0.007647
   5 N :    0.113338
   6 C :   -0.446859
   7 N :   -0.074038
   8 N :    0.100662
   9 H :    0.168288
  10 H :    0.173866
  11 H :    0.124939
  12 H :    0.184954
  13 H :    0.169618
  14 H :    0.182500

  Mayer bond orders larger than 0.1
B(  0-N ,  1-C ) :   1.1456 B(  0-N ,  9-H ) :   0.8747 B(  0-N , 10-H ) :   0.8607
B(  1-C ,  2-N ) :   1.6738 B(  1-C , 11-H ) :   0.9096 B(  2-N ,  3-C ) :   1.1846
B(  3-C ,  4-N ) :   1.5511 B(  3-C ,  8-N ) :   1.3236 B(  4-N ,  5-N ) :   0.9892
B(  5-N ,  6-C ) :   1.2184 B(  5-N , 12-H ) :   0.8628 B(  6-C ,  7-N ) :   1.0530
B(  6-C ,  8-N ) :   1.5234 B(  7-N , 13-H ) :   0.8741 B(  7-N , 14-H ) :   0.8680

MP2 TOTAL ENERGY:     -445.605902968 Eh
FINAL SINGLE POINT ENERGY      -445.605902968095

DIPOLE MOMENT
-------------
                                X             Y             Z
Electronic contribution:     -0.42455      -1.38863      -0.75245
Nuclear contribution   :      1.12123       0.91899       1.69239
                        -----------------------------------------
Total Dipole Moment    :      0.69668      -0.46964       0.93994
                        -----------------------------------------
Magnitude (a.u.)       :      1.26072
Magnitude (Debye)      :      3.20449

                             ****ORCA TERMINATED NORMALLY****
TOTAL RUN TIME: 0 days 0 hours 14 minutes 33 seconds 298 msec
