                         Program Version 3.0.3 - RELEASE   -
|  1> ! RI-MP2 RIJK def2-TZVP def2-TZVP/C def2-TZVP/JK TIGHTSCF
|  2> % maxcore 2000
|  3> % mp2 density relaxed end
|  4> *xyz 0 1
|  5>  C       -0.2237121097     1.5063615026    -0.1639188931
|  6>  C       -0.0065313694     0.0202231469     0.0168326797
|  7>  C        1.3244428237    -0.6074783355    -0.2315676210
|  8>  N        0.7768459310    -0.5456627948     1.1195374104
|  9>  C        1.4129535771     0.3168315663     2.0738634937
| 10>  C        0.7375624358     0.4878659715     3.4142100406
| 11>  C        2.0279576043    -0.2987378813     3.3164884872
| 12>  C        1.9656547139    -1.8015814816     3.5033315518
| 13>  C        3.2880781358     0.3522440692     3.8543019111
| 14>  H        0.6953886069     2.0820074628    -0.0302273642
| 15>  H       -0.5963003441     1.7072778662    -1.1740372708
| 16>  H       -0.9669668587     1.8854547965     0.5458488671
| 17>  H       -0.8885260858    -0.5786459019    -0.2090210020
| 18>  H        1.4107049805    -1.5978208625    -0.6721528264
| 19>  H        2.1455084897     0.0672410963    -0.4750307318
| 20>  H        1.9381174666     1.1900640829     1.6803516995
| 21>  H        0.7520078087     1.4680915883     3.8797982662
| 22>  H       -0.1790176816    -0.0723716555     3.5648208401
| 23>  H        1.0821385418    -2.2210398540     3.0194266994
| 24>  H        2.8477559705    -2.2865352941     3.0678828634
| 25>  H        1.9401970940    -2.0583598700     4.5689527456
| 26>  H        3.3804354397     0.1949775766     4.9357026782
| 27>  H        4.1833128598    -0.0691305543     3.3812699552
| 28>  H        3.2926925195     1.4326333092     3.6764041503
| 29> *
| 30>
| 31>                          ****END OF INPUT****

CARTESIAN COORDINATES (ANGSTROEM)
---------------------------------
  C     -0.223712    1.506362   -0.163919
  C     -0.006531    0.020223    0.016833
  C      1.324443   -0.607478   -0.231568
  N      0.776846   -0.545663    1.119537
  C      1.412954    0.316832    2.073863
  C      0.737562    0.487866    3.414210
  C      2.027958   -0.298738    3.316488
  C      1.965655   -1.801581    3.503332
  C      3.288078    0.352244    3.854302
  H      0.695389    2.082007   -0.030227
  H     -0.596300    1.707278   -1.174037
  H     -0.966967    1.885455    0.545849
  H     -0.888526   -0.578646   -0.209021
  H      1.410705   -1.597821   -0.672153
  H      2.145508    0.067241   -0.475031
  H      1.938117    1.190064    1.680352
  H      0.752008    1.468092    3.879798
  H     -0.179018   -0.072372    3.564821
  H      1.082139   -2.221040    3.019427
  H      2.847756   -2.286535    3.067883
  H      1.940197   -2.058360    4.568953
  H      3.380435    0.194978    4.935703
  H      4.183313   -0.069131    3.381270
  H      3.292693    1.432633    3.676404

 Total Charge           Charge          ....    0
 Multiplicity           Mult            ....    1
 Number of Electrons    NEL             ....   70
 Basis Dimension        Dim             ....  369

ORBITAL ENERGIES
----------------

  NO   OCC          E(Eh)            E(eV)
   0   2.0000     -15.551652      -423.1820
   1   2.0000     -11.256207      -306.2970
   2   2.0000     -11.248529      -306.0880
   3   2.0000     -11.246947      -306.0450
   4   2.0000     -11.228493      -305.5428
   5   2.0000     -11.220935      -305.3372
   6   2.0000     -11.211419      -305.0782
   7   2.0000     -11.211332      -305.0759
   8   2.0000     -11.201791      -304.8162
   9   2.0000      -1.271257       -34.5927
  10   2.0000      -1.143813       -31.1247
  11   2.0000      -0.995583       -27.0912
  12   2.0000      -0.971895       -26.4466
  13   2.0000      -0.927966       -25.2512
  14   2.0000      -0.892756       -24.2931
  15   2.0000      -0.816967       -22.2308
  16   2.0000      -0.766003       -20.8440
  17   2.0000      -0.721397       -19.6302
  18   2.0000      -0.675792       -18.3892
  19   2.0000      -0.648903       -17.6576
  20   2.0000      -0.614021       -16.7084
  21   2.0000      -0.584003       -15.8915
  22   2.0000      -0.576917       -15.6987
  23   2.0000      -0.567713       -15.4483
  24   2.0000      -0.548843       -14.9348
  25   2.0000      -0.544000       -14.8030
  26   2.0000      -0.529078       -14.3970
  27   2.0000      -0.514556       -14.0018
  28   2.0000      -0.508212       -13.8292
  29   2.0000      -0.489255       -13.3133
  30   2.0000      -0.474747       -12.9185
  31   2.0000      -0.449214       -12.2237
  32   2.0000      -0.403615       -10.9829
  33   2.0000      -0.376134       -10.2351
  34   2.0000      -0.352064        -9.5801
  35   0.0000       0.138331         3.7642
  36   0.0000       0.153109         4.1663
  37   0.0000       0.163677         4.4539
  38   0.0000       0.174538         4.7494
  39   0.0000       0.191320         5.2061

MULLIKEN ATOMIC CHARGES
-----------------------
   0 C :   -0.389077
   1 C :   -0.036901
   2 C :   -0.185585
   3 N :   -0.201148
   4 C :   -0.141479
   5 C :   -0.291639
   6 C :    0.179908
   7 C :   -0.406109
   8 C :   -0.400925
   9 H :    0.123559
  10 H :    0.139409
  11 H :    0.135362
  12 H :    0.113921
  13 H :    0.128905
  14 H :    0.112090
  15 H :    0.091536
  16 H :    0.125419
  17 H :    0.128925
  18 H :    0.149849
  19 H :    0.118660
  20 H :    0.125313
  21 H :    0.129617
  22 H :    0.127617
  23 H :    0.122773
Sum of atomic charges:   -0.0000000

LOEWDIN ATOMIC CHARGES
----------------------
   0 C :   -0.299923
   1 C :   -0.275889
   2 C :   -0.243814
   3 N :    0.138054
   4 C :   -0.244148
   5 C :   -0.190766
   6 C :   -0.278489
   7 C :   -0.268832
   8 C :   -0.269265
   9 H :    0.123898
  10 H :    0.129505
  11 H :    0.127671
  12 H :    0.139653
  13 H :    0.122367
  14 H :    0.123667
  15 H :    0.136315
  16 H :    0.131630
  17 H :    0.139740
  18 H :    0.131542
  19 H :    0.125281
  20 H :    0.124678
  21 H :    0.126225
  22 H :    0.125673
  23 H :    0.125224

  Mayer bond orders larger than 0.1
B(  0-C ,  1-C ) :   0.9074 B(  0-C ,  9-H ) :   0.9345 B(  0-C , 10-H ) :   0.9310
B(  0-C , 11-H ) :   0.9388 B(  1-C ,  2-C ) :   0.9472 B(  1-C ,  3-N ) :   0.8984
B(  1-C , 12-H ) :   0.9262 B(  2-C ,  3-N ) :   0.8675 B(  2-C , 13-H ) :   0.9204
B(  2-C , 14-H ) :   0.9187 B(  3-N ,  4-C ) :   0.9652 B(  4-C ,  5-C ) :   0.8966
B(  4-C ,  6-C ) :   0.8457 B(  4-C , 15-H ) :   0.9163 B(  5-C ,  6-C ) :   0.8970
B(  5-C , 16-H ) :   0.9223 B(  5-C , 17-H ) :   0.9192 B(  6-C ,  7-C ) :   0.9169
B(  6-C ,  8-C ) :   0.8958 B(  7-C , 18-H ) :   0.9268 B(  7-C , 19-H ) :   0.9368
B(  7-C , 20-H ) :   0.9384 B(  8-C , 21-H ) :   0.9403 B(  8-C , 22-H ) :   0.9408
B(  8-C , 23-H ) :   0.9297

MP2 TOTAL ENERGY:     -367.709745909 Eh
FINAL SINGLE POINT ENERGY      -367.709745908909

DIPOLE MOMENT
-------------
                                X             Y             Z
Electronic contribution:     -1.84594      -1.45084      -1.75882
Nuclear contribution   :      1.91846       1.83259       1.47607
                        -----------------------------------------
Total Dipole Moment    :      0.07251       0.38175      -0.28275
                        -----------------------------------------
Magnitude (a.u.)       :      0.48056
Magnitude (Debye)      :      1.22149

                             ****ORCA TERMINATED NORMALLY****
TOTAL RUN TIME: 0 days 0 hours 19 minutes 59 seconds 856 msec
