                         Program Version 3.0.3 - RELEASE   -
|  1> ! RI-MP2 RIJK def2-TZVP def2-TZVP/C def2-TZVP/JK TIGHTSCF
|  2> % maxcore 2000
|  3> % mp2 density relaxed end
|  4> *xyz 0 1
|  5>  C        0.0072548942     1.5841507665    -0.0175372089
|  6>  C       -0.0340036109     0.0828189959     0.0005159459
|  7>  C        0.4471903733    -0.7784864109    -1.2045081405
|  8>  C       -0.5019101937    -1.8565153000    -0.6900565199
|  9>  N       -0.5049533051    -1.8657033982     0.8068596838
| 10>  C        0.4480879046    -0.7695057368     1.1903814745
| 11>  C       -1.3237293266    -0.8600552669     0.0542551178
| 12>  C       -2.7141622766    -0.6320640330     0.1916086475
| 13>  N       -3.8437113941    -0.3944807863     0.2855928067
| 14>  H        1.0447860392     1.9369368460    -0.0450043587
| 15>  H       -0.5059467088     1.9882335722    -0.8959240726
| 16>  H       -0.4672635069     2.0057370215     0.8744389595
| 17>  H        0.0961438210    -0.3775922545    -2.1585584906
| 18>  H        1.5168067394    -1.0043088265    -1.2629759171
| 19>  H       -0.8394566950    -2.7641563275    -1.1719800281
| 20>  H        1.5025266278    -1.0658845985     1.2179644163
| 21>  H        0.1414264679    -0.3749870829     2.1619645644
| 22> *
| 23>
| 24>                          ****END OF INPUT****

CARTESIAN COORDINATES (ANGSTROEM)
---------------------------------
  C      0.007255    1.584151   -0.017537
  C     -0.034004    0.082819    0.000516
  C      0.447190   -0.778486   -1.204508
  C     -0.501910   -1.856515   -0.690057
  N     -0.504953   -1.865703    0.806860
  C      0.448088   -0.769506    1.190381
  C     -1.323729   -0.860055    0.054255
  C     -2.714162   -0.632064    0.191609
  N     -3.843711   -0.394481    0.285593
  H      1.044786    1.936937   -0.045004
  H     -0.505947    1.988234   -0.895924
  H     -0.467264    2.005737    0.874439
  H      0.096144   -0.377592   -2.158558
  H      1.516807   -1.004309   -1.262976
  H     -0.839457   -2.764156   -1.171980
  H      1.502527   -1.065885    1.217964
  H      0.141426   -0.374987    2.161965

 Total Charge           Charge          ....    0
 Multiplicity           Mult            ....    1
 Number of Electrons    NEL             ....   64
 Basis Dimension        Dim             ....  327

ORBITAL ENERGIES
----------------

  NO   OCC          E(Eh)            E(eV)
   0   2.0000     -15.596256      -424.3957
   1   2.0000     -15.575909      -423.8420
   2   2.0000     -11.309466      -307.7462
   3   2.0000     -11.295783      -307.3739
   4   2.0000     -11.282017      -306.9993
   5   2.0000     -11.279774      -306.9383
   6   2.0000     -11.276107      -306.8385
   7   2.0000     -11.256880      -306.3153
   8   2.0000     -11.241382      -305.8935
   9   2.0000      -1.348084       -36.6832
  10   2.0000      -1.218631       -33.1606
  11   2.0000      -1.078560       -29.3491
  12   2.0000      -1.028778       -27.9945
  13   2.0000      -0.976240       -26.5649
  14   2.0000      -0.927913       -25.2498
  15   2.0000      -0.814335       -22.1592
  16   2.0000      -0.795373       -21.6432
  17   2.0000      -0.685132       -18.6434
  18   2.0000      -0.669990       -18.2314
  19   2.0000      -0.640905       -17.4399
  20   2.0000      -0.638216       -17.3667
  21   2.0000      -0.586188       -15.9510
  22   2.0000      -0.572200       -15.5704
  23   2.0000      -0.564413       -15.3585
  24   2.0000      -0.542921       -14.7736
  25   2.0000      -0.512453       -13.9446
  26   2.0000      -0.509146       -13.8546
  27   2.0000      -0.492856       -13.4113
  28   2.0000      -0.480637       -13.0788
  29   2.0000      -0.438242       -11.9252
  30   2.0000      -0.427005       -11.6194
  31   2.0000      -0.386059       -10.5052
  32   0.0000       0.116807         3.1785
  33   0.0000       0.142198         3.8694
  34   0.0000       0.145034         3.9466
  35   0.0000       0.160042         4.3550
  36   0.0000       0.170360         4.6357

MULLIKEN ATOMIC CHARGES
-----------------------
   0 C :   -0.397737
   1 C :   -0.002523
   2 C :   -0.205558
   3 C :   -0.111988
   4 N :   -0.223102
   5 C :   -0.124402
   6 C :    0.219367
   7 C :   -0.223368
   8 N :   -0.027446
   9 H :    0.143682
  10 H :    0.145004
  11 H :    0.147965
  12 H :    0.136144
  13 H :    0.123206
  14 H :    0.148926
  15 H :    0.117802
  16 H :    0.134029
Sum of atomic charges:    0.0000000

LOEWDIN ATOMIC CHARGES
----------------------
   0 C :   -0.269379
   1 C :   -0.201018
   2 C :   -0.176976
   3 C :   -0.163196
   4 N :    0.165064
   5 C :   -0.198063
   6 C :   -0.172537
   7 C :   -0.157480
   8 N :    0.079912
   9 H :    0.135962
  10 H :    0.134229
  11 H :    0.134785
  12 H :    0.148846
  13 H :    0.131061
  14 H :    0.143274
  15 H :    0.125719
  16 H :    0.139797

  Mayer bond orders larger than 0.1
B(  0-C ,  1-C ) :   0.8957 B(  0-C ,  9-H ) :   0.9280 B(  0-C , 10-H ) :   0.9351
B(  0-C , 11-H ) :   0.9371 B(  1-C ,  2-C ) :   0.9466 B(  1-C ,  5-C ) :   0.9721
B(  1-C ,  6-C ) :   0.8156 B(  2-C ,  3-C ) :   0.9262 B(  2-C , 12-H ) :   0.9106
B(  2-C , 13-H ) :   0.9191 B(  3-C ,  4-N ) :   0.9206 B(  3-C ,  6-C ) :   0.7890
B(  3-C , 14-H ) :   0.9379 B(  4-N ,  5-C ) :   0.9197 B(  4-N ,  6-C ) :   0.8051
B(  5-C , 15-H ) :   0.9194 B(  5-C , 16-H ) :   0.9242 B(  6-C ,  7-C ) :   0.8607
B(  7-C ,  8-N ) :   2.8714

MP2 TOTAL ENERGY:     -380.146775466 Eh
FINAL SINGLE POINT ENERGY      -380.146775466370

DIPOLE MOMENT
-------------
                                X             Y             Z
Electronic contribution:     -6.92354      -4.25354       1.14421
Nuclear contribution   :      8.72310       4.69564      -1.71428
                        -----------------------------------------
Total Dipole Moment    :      1.79955       0.44210      -0.57007
                        -----------------------------------------
Magnitude (a.u.)       :      1.93877
Magnitude (Debye)      :      4.92796

                             ****ORCA TERMINATED NORMALLY****
TOTAL RUN TIME: 0 days 0 hours 19 minutes 51 seconds 188 msec
