                         Program Version 3.0.3 - RELEASE   -
|  1> ! RI-MP2 RIJK def2-TZVP def2-TZVP/C def2-TZVP/JK TIGHTSCF
|  2> % maxcore 2000
|  3> % mp2 density relaxed end
|  4> *xyz 0 1
|  5>  C        0.6290607447     1.4320054339     0.1153220656
|  6>  C       -0.0216096095     0.0900027033    -0.0888292049
|  7>  C       -0.0804567025    -0.4920590668    -1.2874056114
|  8>  C       -0.7087856834    -1.8324833881    -1.5930759523
|  9>  C       -0.3586087658    -2.9997072873    -0.6953798297
| 10>  C        0.0155922111    -3.0117038149     0.5843335409
| 11>  C        0.1497270464    -1.8600230092     1.5468199284
| 12>  C       -0.5957426404    -0.5766506259     1.1442664736
| 13>  H        1.4490507640     1.3674091242     0.8431984782
| 14>  H        1.0340719860     1.8357650893    -0.8164952527
| 15>  H       -0.0854662726     2.1598901888     0.5221493006
| 16>  H        0.3433494090     0.0338284553    -2.1406198130
| 17>  H       -1.8075914005    -1.7292225777    -1.6278468356
| 18>  H       -0.4349309501    -2.1144165992    -2.6162576108
| 19>  H       -0.4332810388    -3.9656215502    -1.1927733735
| 20>  H        0.2442939643    -3.9839965363     1.0189947003
| 21>  H       -0.2217051520    -2.1927950917     2.5256801928
| 22>  H        1.2142897407    -1.6317776552     1.7052915169
| 23>  H       -0.5741323347     0.1235474249     1.9863961488
| 24>  H       -1.6516963361    -0.8274652874     0.9776064278
| 25> *
| 26>
| 27>                          ****END OF INPUT****

CARTESIAN COORDINATES (ANGSTROEM)
---------------------------------
  C      0.629061    1.432005    0.115322
  C     -0.021610    0.090003   -0.088829
  C     -0.080457   -0.492059   -1.287406
  C     -0.708786   -1.832483   -1.593076
  C     -0.358609   -2.999707   -0.695380
  C      0.015592   -3.011704    0.584334
  C      0.149727   -1.860023    1.546820
  C     -0.595743   -0.576651    1.144266
  H      1.449051    1.367409    0.843198
  H      1.034072    1.835765   -0.816495
  H     -0.085466    2.159890    0.522149
  H      0.343349    0.033828   -2.140620
  H     -1.807591   -1.729223   -1.627847
  H     -0.434931   -2.114417   -2.616258
  H     -0.433281   -3.965622   -1.192773
  H      0.244294   -3.983997    1.018995
  H     -0.221705   -2.192795    2.525680
  H      1.214290   -1.631778    1.705292
  H     -0.574132    0.123547    1.986396
  H     -1.651696   -0.827465    0.977606

 Total Charge           Charge          ....    0
 Multiplicity           Mult            ....    1
 Number of Electrons    NEL             ....   60
 Basis Dimension        Dim             ....  320

ORBITAL ENERGIES
----------------

  NO   OCC          E(Eh)            E(eV)
   0   2.0000     -11.226641      -305.4924
   1   2.0000     -11.225876      -305.4716
   2   2.0000     -11.225334      -305.4569
   3   2.0000     -11.221737      -305.3590
   4   2.0000     -11.221472      -305.3518
   5   2.0000     -11.219125      -305.2879
   6   2.0000     -11.217550      -305.2450
   7   2.0000     -11.211729      -305.0866
   8   2.0000      -1.119623       -30.4665
   9   2.0000      -1.050645       -28.5895
  10   2.0000      -1.025419       -27.9031
  11   2.0000      -0.949138       -25.8274
  12   2.0000      -0.880104       -23.9488
  13   2.0000      -0.861537       -23.4436
  14   2.0000      -0.714337       -19.4381
  15   2.0000      -0.692143       -18.8342
  16   2.0000      -0.658947       -17.9309
  17   2.0000      -0.627718       -17.0811
  18   2.0000      -0.584710       -15.9108
  19   2.0000      -0.575264       -15.6537
  20   2.0000      -0.566318       -15.4103
  21   2.0000      -0.556801       -15.1513
  22   2.0000      -0.541661       -14.7393
  23   2.0000      -0.523195       -14.2369
  24   2.0000      -0.501524       -13.6472
  25   2.0000      -0.492712       -13.4074
  26   2.0000      -0.459653       -12.5078
  27   2.0000      -0.451509       -12.2862
  28   2.0000      -0.341212        -9.2849
  29   2.0000      -0.330321        -8.9885
  30   0.0000       0.131111         3.5677
  31   0.0000       0.153404         4.1743
  32   0.0000       0.157320         4.2809
  33   0.0000       0.168323         4.5803
  34   0.0000       0.171089         4.6556

MULLIKEN ATOMIC CHARGES
-----------------------
   0 C :   -0.418042
   1 C :    0.033959
   2 C :   -0.204604
   3 C :   -0.152183
   4 C :   -0.170745
   5 C :   -0.211710
   6 C :   -0.136110
   7 C :   -0.223238
   8 H :    0.133973
   9 H :    0.128001
  10 H :    0.137305
  11 H :    0.113199
  12 H :    0.127898
  13 H :    0.125946
  14 H :    0.115991
  15 H :    0.112306
  16 H :    0.120258
  17 H :    0.115404
  18 H :    0.129099
  19 H :    0.123293
Sum of atomic charges:    0.0000000

LOEWDIN ATOMIC CHARGES
----------------------
   0 C :   -0.275367
   1 C :   -0.198888
   2 C :   -0.154582
   3 C :   -0.246594
   4 C :   -0.177421
   5 C :   -0.180924
   6 C :   -0.250373
   7 C :   -0.216688
   8 H :    0.128561
   9 H :    0.126624
  10 H :    0.128444
  11 H :    0.142441
  12 H :    0.154836
  13 H :    0.148779
  14 H :    0.144244
  15 H :    0.144088
  16 H :    0.142980
  17 H :    0.146773
  18 H :    0.142995
  19 H :    0.150071

  Mayer bond orders larger than 0.1
B(  0-C ,  1-C ) :   0.8997 B(  0-C ,  8-H ) :   0.9292 B(  0-C ,  9-H ) :   0.9445
B(  0-C , 10-H ) :   0.9310 B(  1-C ,  2-C ) :   1.7863 B(  1-C ,  7-C ) :   0.9022
B(  2-C ,  3-C ) :   0.9380 B(  2-C , 11-H ) :   0.9206 B(  3-C ,  4-C ) :   0.9340
B(  3-C , 12-H ) :   0.8966 B(  3-C , 13-H ) :   0.9344 B(  4-C ,  5-C ) :   1.8247
B(  4-C , 14-H ) :   0.9257 B(  5-C ,  6-C ) :   0.9426 B(  5-C , 15-H ) :   0.9296
B(  6-C ,  7-C ) :   0.9100 B(  6-C , 16-H ) :   0.9273 B(  6-C , 17-H ) :   0.9109
B(  7-C , 18-H ) :   0.9388 B(  7-C , 19-H ) :   0.9264

MP2 TOTAL ENERGY:     -311.293431879 Eh
FINAL SINGLE POINT ENERGY      -311.293431878921

DIPOLE MOMENT
-------------
                                X             Y             Z
Electronic contribution:     -0.47881      -2.36591      -1.23093
Nuclear contribution   :      0.44371       2.45907       1.33012
                        -----------------------------------------
Total Dipole Moment    :     -0.03510       0.09316       0.09919
                        -----------------------------------------
Magnitude (a.u.)       :      0.14053
Magnitude (Debye)      :      0.35721

                             ****ORCA TERMINATED NORMALLY****
TOTAL RUN TIME: 0 days 0 hours 14 minutes 52 seconds 339 msec
