                         Program Version 3.0.3 - RELEASE   -
|  1> ! RI-MP2 RIJK def2-TZVP def2-TZVP/C def2-TZVP/JK TIGHTSCF
|  2> % maxcore 2000
|  3> % mp2 density relaxed end
|  4> *xyz 0 1
|  5>  O        0.1473632958     1.4192191527    -0.1190506217
|  6>  C        0.1089495660     0.0460802119    -0.0486798340
|  7>  C       -0.0070564736    -0.6471576528     1.3479270961
|  8>  N       -1.4182329281    -0.0726562925     1.4021564601
|  9>  C       -1.2970483467    -0.6736639063     0.0131028659
| 10>  C       -2.3734244164    -0.6701294887    -0.9396970580
| 11>  N       -3.2231854424    -0.7031766849    -1.7240064099
| 12>  C       -0.5597751247    -1.9076675535     0.6515231871
| 13>  O        0.3415616111    -2.6674571593    -0.0863547329
| 14>  H       -0.5042481694     1.7410517684     0.5216636447
| 15>  H        0.8242029099    -0.3783026189    -0.7479321671
| 16>  H        0.6678816194    -0.5817153023     2.1996248401
| 17>  H       -2.0240951290    -0.6541019552     1.9897926409
| 18>  H       -1.2253220239    -2.5133718264     1.2810293054
| 19>  H       -0.1391977178    -3.3553611122    -0.5587582267
| 20> *
| 21>
| 22>                          ****END OF INPUT****

CARTESIAN COORDINATES (ANGSTROEM)
---------------------------------
  O      0.147363    1.419219   -0.119051
  C      0.108950    0.046080   -0.048680
  C     -0.007056   -0.647158    1.347927
  N     -1.418233   -0.072656    1.402156
  C     -1.297048   -0.673664    0.013103
  C     -2.373424   -0.670129   -0.939697
  N     -3.223185   -0.703177   -1.724006
  C     -0.559775   -1.907668    0.651523
  O      0.341562   -2.667457   -0.086355
  H     -0.504248    1.741052    0.521664
  H      0.824203   -0.378303   -0.747932
  H      0.667882   -0.581715    2.199625
  H     -2.024095   -0.654102    1.989793
  H     -1.225322   -2.513372    1.281029
  H     -0.139198   -3.355361   -0.558758

 Total Charge           Charge          ....    0
 Multiplicity           Mult            ....    1
 Number of Electrons    NEL             ....   66
 Basis Dimension        Dim             ....  315

ORBITAL ENERGIES
----------------

  NO   OCC          E(Eh)            E(eV)
   0   2.0000     -20.598649      -560.5177
   1   2.0000     -20.575877      -559.8981
   2   2.0000     -15.600595      -424.5138
   3   2.0000     -15.588248      -424.1778
   4   2.0000     -11.335582      -308.4569
   5   2.0000     -11.330721      -308.3246
   6   2.0000     -11.322976      -308.1138
   7   2.0000     -11.303976      -307.5968
   8   2.0000     -11.285904      -307.1051
   9   2.0000      -1.418747       -38.6061
  10   2.0000      -1.398734       -38.0615
  11   2.0000      -1.306893       -35.5624
  12   2.0000      -1.229204       -33.4483
  13   2.0000      -1.037183       -28.2232
  14   2.0000      -0.968464       -26.3533
  15   2.0000      -0.927285       -25.2327
  16   2.0000      -0.815047       -22.1786
  17   2.0000      -0.786616       -21.4049
  18   2.0000      -0.748097       -20.3567
  19   2.0000      -0.702553       -19.1175
  20   2.0000      -0.657984       -17.9046
  21   2.0000      -0.624410       -16.9911
  22   2.0000      -0.606268       -16.4974
  23   2.0000      -0.591609       -16.0985
  24   2.0000      -0.583445       -15.8764
  25   2.0000      -0.554364       -15.0850
  26   2.0000      -0.548242       -14.9184
  27   2.0000      -0.509343       -13.8599
  28   2.0000      -0.501346       -13.6423
  29   2.0000      -0.475796       -12.9471
  30   2.0000      -0.464613       -12.6428
  31   2.0000      -0.436185       -11.8692
  32   2.0000      -0.421155       -11.4602
  33   0.0000       0.110994         3.0203
  34   0.0000       0.119077         3.2403
  35   0.0000       0.148571         4.0428
  36   0.0000       0.159638         4.3440
  37   0.0000       0.169075         4.6008

MULLIKEN ATOMIC CHARGES
-----------------------
   0 O :   -0.450867
   1 C :    0.133174
   2 C :   -0.039551
   3 N :   -0.354025
   4 C :    0.100306
   5 C :   -0.254495
   6 N :   -0.017694
   7 C :    0.024009
   8 O :   -0.447903
   9 H :    0.341824
  10 H :    0.148027
  11 H :    0.155296
  12 H :    0.210704
  13 H :    0.115491
  14 H :    0.335704
Sum of atomic charges:   -0.0000000

LOEWDIN ATOMIC CHARGES
----------------------
   0 O :    0.027343
   1 C :   -0.263615
   2 C :   -0.180446
   3 N :    0.036831
   4 C :   -0.245010
   5 C :   -0.155930
   6 N :    0.086272
   7 C :   -0.282547
   8 O :    0.015663
   9 H :    0.192025
  10 H :    0.149457
  11 H :    0.130460
  12 H :    0.165511
  13 H :    0.135509
  14 H :    0.188477

  Mayer bond orders larger than 0.1
B(  0-O ,  1-C ) :   1.0177 B(  0-O ,  9-H ) :   0.8082 B(  1-C ,  2-C ) :   0.8926
B(  1-C ,  4-C ) :   0.8277 B(  1-C , 10-H ) :   0.9166 B(  2-C ,  3-N ) :   0.8924
B(  2-C ,  7-C ) :   0.9140 B(  2-C , 11-H ) :   0.8911 B(  3-N ,  4-C ) :   0.8870
B(  3-N , 12-H ) :   0.8777 B(  4-C ,  5-C ) :   0.8646 B(  4-C ,  7-C ) :   0.8384
B(  5-C ,  6-N ) :   2.8791 B(  7-C ,  8-O ) :   1.1667 B(  7-C , 13-H ) :   0.9835
B(  8-O , 14-H ) :   0.8314

MP2 TOTAL ENERGY:     -453.157345829 Eh
FINAL SINGLE POINT ENERGY      -453.157345829105

DIPOLE MOMENT
-------------
                                X             Y             Z
Electronic contribution:     -2.24260       0.62663      -2.72791
Nuclear contribution   :      2.63834      -1.68277       3.97600
                        -----------------------------------------
Total Dipole Moment    :      0.39574      -1.05614       1.24809
                        -----------------------------------------
Magnitude (a.u.)       :      1.68219
Magnitude (Debye)      :      4.27579

                             ****ORCA TERMINATED NORMALLY****
TOTAL RUN TIME: 0 days 0 hours 14 minutes 52 seconds 812 msec
