                         Program Version 3.0.3 - RELEASE   -
|  1> ! RI-MP2 RIJK def2-TZVP def2-TZVP/C def2-TZVP/JK TIGHTSCF
|  2> % maxcore 2000
|  3> % mp2 density relaxed end
|  4> *xyz 0 1
|  5>  C       -0.0631809173     1.5643278166    -0.0699897677
|  6>  C       -0.0775698621     0.0347309670    -0.0171014089
|  7>  N       -1.4277645975    -0.5269439673     0.0528951644
|  8>  C       -2.1266109681    -0.7615338093    -1.2020740581
|  9>  C       -1.9588496670    -0.7222280349     1.2834302072
| 10>  O       -1.4051308328    -0.4837798913     2.3347142548
| 11>  O       -3.2370761890    -1.2460624673     1.1976692061
| 12>  C       -3.8931294370    -1.4888021385     2.3722430240
| 13>  N       -5.0580046738    -1.9621287050     2.3094840381
| 14>  H        0.9650328651     1.9289578616    -0.1569634189
| 15>  H       -0.6282098672     1.9442931958    -0.9269947739
| 16>  H       -0.4973171079     1.9779967892     0.8440086935
| 17>  H        0.4032781167    -0.3861983856    -0.9069063977
| 18>  H        0.4712886808    -0.3131181447     0.8594850757
| 19>  H       -1.5812944256    -1.4956891169    -1.8071936090
| 20>  H       -3.1278789960    -1.1364660149    -1.0095066729
| 21>  H       -2.2030508314     0.1673712246    -1.7794228633
| 22>  H       -3.2968999795    -1.2306462468     3.2474849215
| 23>  H       -5.4236616405    -2.0917737923     3.2515290651
| 24> *
| 25>
| 26>                          ****END OF INPUT****

CARTESIAN COORDINATES (ANGSTROEM)
---------------------------------
  C     -0.063181    1.564328   -0.069990
  C     -0.077570    0.034731   -0.017101
  N     -1.427765   -0.526944    0.052895
  C     -2.126611   -0.761534   -1.202074
  C     -1.958850   -0.722228    1.283430
  O     -1.405131   -0.483780    2.334714
  O     -3.237076   -1.246062    1.197669
  C     -3.893129   -1.488802    2.372243
  N     -5.058005   -1.962129    2.309484
  H      0.965033    1.928958   -0.156963
  H     -0.628210    1.944293   -0.926995
  H     -0.497317    1.977997    0.844009
  H      0.403278   -0.386198   -0.906906
  H      0.471289   -0.313118    0.859485
  H     -1.581294   -1.495689   -1.807194
  H     -3.127879   -1.136466   -1.009507
  H     -2.203051    0.167371   -1.779423
  H     -3.296900   -1.230646    3.247485
  H     -5.423662   -2.091774    3.251529

 Total Charge           Charge          ....    0
 Multiplicity           Mult            ....    1
 Number of Electrons    NEL             ....   70
 Basis Dimension        Dim             ....  339

ORBITAL ENERGIES
----------------

  NO   OCC          E(Eh)            E(eV)
   0   2.0000     -20.624017      -561.2080
   1   2.0000     -20.535646      -558.8033
   2   2.0000     -15.599812      -424.4925
   3   2.0000     -15.552587      -423.2074
   4   2.0000     -11.415836      -310.6407
   5   2.0000     -11.344391      -308.6966
   6   2.0000     -11.270973      -306.6988
   7   2.0000     -11.269817      -306.6673
   8   2.0000     -11.224640      -305.4380
   9   2.0000      -1.487439       -40.4753
  10   2.0000      -1.379845       -37.5475
  11   2.0000      -1.266834       -34.4723
  12   2.0000      -1.208381       -32.8817
  13   2.0000      -1.034307       -28.1449
  14   2.0000      -0.971528       -26.4366
  15   2.0000      -0.910972       -24.7888
  16   2.0000      -0.837413       -22.7872
  17   2.0000      -0.790295       -21.5050
  18   2.0000      -0.733955       -19.9719
  19   2.0000      -0.692527       -18.8446
  20   2.0000      -0.682924       -18.5833
  21   2.0000      -0.672237       -18.2925
  22   2.0000      -0.632074       -17.1996
  23   2.0000      -0.613435       -16.6924
  24   2.0000      -0.605821       -16.4852
  25   2.0000      -0.589063       -16.0292
  26   2.0000      -0.563908       -15.3447
  27   2.0000      -0.551941       -15.0191
  28   2.0000      -0.529193       -14.4001
  29   2.0000      -0.523886       -14.2557
  30   2.0000      -0.502946       -13.6858
  31   2.0000      -0.474927       -12.9234
  32   2.0000      -0.442751       -12.0479
  33   2.0000      -0.426616       -11.6088
  34   2.0000      -0.388619       -10.5749
  35   0.0000       0.131771         3.5857
  36   0.0000       0.154078         4.1927
  37   0.0000       0.154750         4.2110
  38   0.0000       0.165366         4.4998
  39   0.0000       0.176903         4.8138

MULLIKEN ATOMIC CHARGES
-----------------------
   0 C :   -0.409493
   1 C :   -0.124890
   2 N :   -0.116971
   3 C :   -0.338659
   4 C :    0.397733
   5 O :   -0.403060
   6 O :   -0.237691
   7 C :    0.048157
   8 N :   -0.336698
   9 H :    0.133496
  10 H :    0.123058
  11 H :    0.152043
  12 H :    0.122594
  13 H :    0.150909
  14 H :    0.140915
  15 H :    0.187690
  16 H :    0.135186
  17 H :    0.143933
  18 H :    0.231747
Sum of atomic charges:    0.0000000

LOEWDIN ATOMIC CHARGES
----------------------
   0 C :   -0.313295
   1 C :   -0.271060
   2 N :    0.170809
   3 C :   -0.285997
   4 C :   -0.543083
   5 O :    0.070691
   6 O :    0.277134
   7 C :   -0.358046
   8 N :   -0.068525
   9 H :    0.125710
  10 H :    0.119437
  11 H :    0.128904
  12 H :    0.134401
  13 H :    0.145622
  14 H :    0.119135
  15 H :    0.133861
  16 H :    0.118115
  17 H :    0.124286
  18 H :    0.171902

  Mayer bond orders larger than 0.1
B(  0-C ,  1-C ) :   0.9260 B(  0-C ,  9-H ) :   0.9359 B(  0-C , 10-H ) :   0.9347
B(  0-C , 11-H ) :   0.9373 B(  1-C ,  2-N ) :   0.8470 B(  1-C , 12-H ) :   0.9302
B(  1-C , 13-H ) :   0.9199 B(  2-N ,  3-C ) :   0.8838 B(  2-N ,  4-C ) :   1.2385
B(  3-C , 14-H ) :   0.9345 B(  3-C , 15-H ) :   0.9230 B(  3-C , 16-H ) :   0.9277
B(  4-C ,  5-O ) :   1.8153 B(  4-C ,  6-O ) :   0.9804 B(  6-O ,  7-C ) :   0.9678
B(  7-C ,  8-N ) :   1.9641 B(  7-C , 17-H ) :   0.9270 B(  8-N , 18-H ) :   0.8528

MP2 TOTAL ENERGY:     -455.645612564 Eh
FINAL SINGLE POINT ENERGY      -455.645612564413

DIPOLE MOMENT
-------------
                                X             Y             Z
Electronic contribution:     -5.40594      -4.82400       6.49848
Nuclear contribution   :      6.00240       5.13320      -7.08201
                        -----------------------------------------
Total Dipole Moment    :      0.59646       0.30920      -0.58353
                        -----------------------------------------
Magnitude (a.u.)       :      0.88987
Magnitude (Debye)      :      2.26188

                             ****ORCA TERMINATED NORMALLY****
TOTAL RUN TIME: 0 days 0 hours 14 minutes 29 seconds 908 msec
