                         Program Version 3.0.3 - RELEASE   -
|  1> ! RI-MP2 RIJK def2-TZVP def2-TZVP/C def2-TZVP/JK TIGHTSCF
|  2> % maxcore 2000
|  3> % mp2 density relaxed end
|  4> *xyz 0 1
|  5>  C        0.0242007533     1.4397586313     0.0576018246
|  6>  C       -0.0108557230    -0.0440515631    -0.0521004156
|  7>  N       -0.0787914733    -0.7349999365    -1.1228209496
|  8>  C       -0.0336117001    -2.1201982735    -0.7200202913
|  9>  C        1.2302360201    -2.5649640886    -0.0082063818
| 10>  C        0.0529349929    -2.0958358549     0.7955512568
| 11>  O        0.0324896487    -0.7204031649     1.1390099969
| 12>  H        0.9830343716     1.7723800724     0.4683021786
| 13>  H       -0.1166663878     1.8803981575    -0.9288561028
| 14>  H       -0.7599031494     1.7888980244     0.7364349934
| 15>  H       -0.6111746090    -2.8230223133    -1.3077998027
| 16>  H        1.4268603159    -3.6312635194     0.0173795902
| 17>  H        2.1085066350    -1.9314599320    -0.0764202947
| 18>  H       -0.4727419151    -2.7200853393     1.5060683679
| 19> *
| 20>
| 21>                          ****END OF INPUT****

CARTESIAN COORDINATES (ANGSTROEM)
---------------------------------
  C      0.024201    1.439759    0.057602
  C     -0.010856   -0.044052   -0.052100
  N     -0.078791   -0.735000   -1.122821
  C     -0.033612   -2.120198   -0.720020
  C      1.230236   -2.564964   -0.008206
  C      0.052935   -2.095836    0.795551
  O      0.032490   -0.720403    1.139010
  H      0.983034    1.772380    0.468302
  H     -0.116666    1.880398   -0.928856
  H     -0.759903    1.788898    0.736435
  H     -0.611175   -2.823022   -1.307800
  H      1.426860   -3.631264    0.017380
  H      2.108507   -1.931460   -0.076420
  H     -0.472742   -2.720085    1.506068

 Total Charge           Charge          ....    0
 Multiplicity           Mult            ....    1
 Number of Electrons    NEL             ....   52
 Basis Dimension        Dim             ....  259

ORBITAL ENERGIES
----------------

  NO   OCC          E(Eh)            E(eV)
   0   2.0000     -20.598147      -560.5041
   1   2.0000     -15.544521      -422.9879
   2   2.0000     -11.334398      -308.4247
   3   2.0000     -11.293839      -307.3210
   4   2.0000     -11.265036      -306.5372
   5   2.0000     -11.237522      -305.7885
   6   2.0000     -11.235135      -305.7236
   7   2.0000      -1.445767       -39.3413
   8   2.0000      -1.220586       -33.2138
   9   2.0000      -1.125850       -30.6359
  10   2.0000      -1.001413       -27.2498
  11   2.0000      -0.853058       -23.2129
  12   2.0000      -0.833796       -22.6887
  13   2.0000      -0.760330       -20.6896
  14   2.0000      -0.716909       -19.5081
  15   2.0000      -0.648910       -17.6577
  16   2.0000      -0.626930       -17.0596
  17   2.0000      -0.600226       -16.3330
  18   2.0000      -0.589197       -16.0329
  19   2.0000      -0.559809       -15.2332
  20   2.0000      -0.554514       -15.0891
  21   2.0000      -0.529687       -14.4135
  22   2.0000      -0.491985       -13.3876
  23   2.0000      -0.460459       -12.5297
  24   2.0000      -0.395418       -10.7599
  25   2.0000      -0.361410        -9.8345
  26   0.0000       0.146854         3.9961
  27   0.0000       0.158876         4.3232
  28   0.0000       0.168865         4.5950
  29   0.0000       0.186072         5.0633
  30   0.0000       0.191668         5.2156

MULLIKEN ATOMIC CHARGES
-----------------------
   0 C :   -0.412812
   1 C :    0.219775
   2 N :   -0.275718
   3 C :   -0.020659
   4 C :   -0.277809
   5 C :    0.019753
   6 O :   -0.265826
   7 H :    0.147293
   8 H :    0.160746
   9 H :    0.150011
  10 H :    0.133931
  11 H :    0.136096
  12 H :    0.147509
  13 H :    0.137710
Sum of atomic charges:   -0.0000000

LOEWDIN ATOMIC CHARGES
----------------------
   0 C :   -0.263370
   1 C :   -0.379642
   2 N :    0.111910
   3 C :   -0.244276
   4 C :   -0.211383
   5 C :   -0.253005
   6 O :    0.266887
   7 H :    0.138358
   8 H :    0.141261
   9 H :    0.138359
  10 H :    0.138151
  11 H :    0.140518
  12 H :    0.140279
  13 H :    0.135953

  Mayer bond orders larger than 0.1
B(  0-C ,  1-C ) :   0.8853 B(  0-C ,  7-H ) :   0.9217 B(  0-C ,  8-H ) :   0.9484
B(  0-C ,  9-H ) :   0.9292 B(  1-C ,  2-N ) :   1.8355 B(  1-C ,  6-O ) :   1.0609
B(  2-N ,  3-C ) :   0.9521 B(  3-C ,  4-C ) :   0.8535 B(  3-C ,  5-C ) :   0.8902
B(  3-C , 10-H ) :   0.9334 B(  4-C ,  5-C ) :   0.8765 B(  4-C , 11-H ) :   0.9229
B(  4-C , 12-H ) :   0.9168 B(  5-C ,  6-O ) :   0.9114 B(  5-C , 13-H ) :   0.9304

MP2 TOTAL ENERGY:     -324.026008258 Eh
FINAL SINGLE POINT ENERGY      -324.026008257657

DIPOLE MOMENT
-------------
                                X             Y             Z
Electronic contribution:     -1.15668      -1.17175       0.27229
Nuclear contribution   :      1.23562       0.92622       0.14311
                        -----------------------------------------
Total Dipole Moment    :      0.07894      -0.24553       0.41540
                        -----------------------------------------
Magnitude (a.u.)       :      0.48895
Magnitude (Debye)      :      1.24282

                             ****ORCA TERMINATED NORMALLY****
TOTAL RUN TIME: 0 days 0 hours 8 minutes 11 seconds 402 msec
