                         Program Version 3.0.3 - RELEASE   -
|  1> ! RI-MP2 RIJK def2-TZVP def2-TZVP/C def2-TZVP/JK TIGHTSCF
|  2> % maxcore 2000
|  3> % mp2 density relaxed end
|  4> *xyz 0 1
|  5>  C        0.1184341228     1.5159559025     0.0176773108
|  6>  C       -0.0164680821     0.0292977075     0.0247663709
|  7>  C       -1.1369649406    -0.7371491717    -0.0296903479
|  8>  C       -0.7256912338    -2.2008138863     0.0677966362
|  9>  C        0.7996570903    -2.1354173159    -0.1807120931
| 10>  N        1.1270864507    -0.7424158452     0.1556352327
| 11>  C       -2.5147674034    -0.2445437972    -0.0739930823
| 12>  N       -3.4861451591    -1.2304596912    -0.0270503496
| 13>  O       -2.8408251009     0.9324420740    -0.1892439135
| 14>  H        0.6387448280     1.8516689607     0.9222544350
| 15>  H        0.7197785513     1.8423866813    -0.8405022999
| 16>  H       -0.8668677685     1.9745834741    -0.0386236950
| 17>  H       -0.9353534905    -2.6130513599     1.0666310284
| 18>  H       -1.2251879263    -2.8483184637    -0.6596402453
| 19>  H        1.3684601925    -2.8360746965     0.4361043844
| 20>  H        1.0266270375    -2.3465081838    -1.2358250096
| 21>  H        1.9864399484    -0.3610453797    -0.2135358347
| 22>  H       -3.2745599023    -2.1292436823     0.3736079270
| 23>  H       -4.4239615643    -0.8882269967     0.1144013755
| 24> *
| 25>
| 26>                          ****END OF INPUT****

CARTESIAN COORDINATES (ANGSTROEM)
---------------------------------
  C      0.118434    1.515956    0.017677
  C     -0.016468    0.029298    0.024766
  C     -1.136965   -0.737149   -0.029690
  C     -0.725691   -2.200814    0.067797
  C      0.799657   -2.135417   -0.180712
  N      1.127086   -0.742416    0.155635
  C     -2.514767   -0.244544   -0.073993
  N     -3.486145   -1.230460   -0.027050
  O     -2.840825    0.932442   -0.189244
  H      0.638745    1.851669    0.922254
  H      0.719779    1.842387   -0.840502
  H     -0.866868    1.974583   -0.038624
  H     -0.935353   -2.613051    1.066631
  H     -1.225188   -2.848318   -0.659640
  H      1.368460   -2.836075    0.436104
  H      1.026627   -2.346508   -1.235825
  H      1.986440   -0.361045   -0.213536
  H     -3.274560   -2.129244    0.373608
  H     -4.423962   -0.888227    0.114401

 Total Charge           Charge          ....    0
 Multiplicity           Mult            ....    1
 Number of Electrons    NEL             ....   68
 Basis Dimension        Dim             ....  339

ORBITAL ENERGIES
----------------

  NO   OCC          E(Eh)            E(eV)
   0   2.0000     -20.494344      -557.6795
   1   2.0000     -15.574274      -423.7975
   2   2.0000     -15.565044      -423.5464
   3   2.0000     -11.337684      -308.5141
   4   2.0000     -11.291983      -307.2705
   5   2.0000     -11.268659      -306.6358
   6   2.0000     -11.237941      -305.7999
   7   2.0000     -11.222490      -305.3795
   8   2.0000     -11.209515      -305.0264
   9   2.0000      -1.358327       -36.9620
  10   2.0000      -1.266765       -34.4704
  11   2.0000      -1.189959       -32.3804
  12   2.0000      -1.051945       -28.6249
  13   2.0000      -1.035681       -28.1823
  14   2.0000      -0.935764       -25.4634
  15   2.0000      -0.846728       -23.0406
  16   2.0000      -0.826708       -22.4959
  17   2.0000      -0.740968       -20.1628
  18   2.0000      -0.687704       -18.7134
  19   2.0000      -0.685508       -18.6536
  20   2.0000      -0.658965       -17.9314
  21   2.0000      -0.621953       -16.9242
  22   2.0000      -0.592054       -16.1106
  23   2.0000      -0.577299       -15.7091
  24   2.0000      -0.575890       -15.6708
  25   2.0000      -0.558139       -15.1877
  26   2.0000      -0.533045       -14.5049
  27   2.0000      -0.529684       -14.4134
  28   2.0000      -0.520777       -14.1711
  29   2.0000      -0.501194       -13.6382
  30   2.0000      -0.453747       -12.3471
  31   2.0000      -0.412972       -11.2375
  32   2.0000      -0.400433       -10.8963
  33   2.0000      -0.306719        -8.3462
  34   0.0000       0.123052         3.3484
  35   0.0000       0.129843         3.5332
  36   0.0000       0.138923         3.7803
  37   0.0000       0.159174         4.3314
  38   0.0000       0.177803         4.8383

MULLIKEN ATOMIC CHARGES
-----------------------
   0 C :   -0.450950
   1 C :    0.106945
   2 C :   -0.047593
   3 C :   -0.282662
   4 C :   -0.108023
   5 N :   -0.313799
   6 C :    0.291721
   7 N :   -0.489858
   8 O :   -0.398052
   9 H :    0.143752
  10 H :    0.132418
  11 H :    0.196781
  12 H :    0.114482
  13 H :    0.139042
  14 H :    0.125689
  15 H :    0.109395
  16 H :    0.228720
  17 H :    0.250806
  18 H :    0.251187
Sum of atomic charges:    0.0000000

LOEWDIN ATOMIC CHARGES
----------------------
   0 C :   -0.263114
   1 C :   -0.206165
   2 C :   -0.158219
   3 C :   -0.221930
   4 C :   -0.252835
   5 N :    0.084257
   6 C :   -0.451402
   7 N :   -0.038767
   8 O :    0.054781
   9 H :    0.135283
  10 H :    0.132615
  11 H :    0.147101
  12 H :    0.136053
  13 H :    0.137858
  14 H :    0.126578
  15 H :    0.125497
  16 H :    0.177435
  17 H :    0.164966
  18 H :    0.170009

  Mayer bond orders larger than 0.1
B(  0-C ,  1-C ) :   0.8538 B(  0-C ,  9-H ) :   0.9295 B(  0-C , 10-H ) :   0.9267
B(  0-C , 11-H ) :   0.9298 B(  1-C ,  2-C ) :   1.5687 B(  1-C ,  5-N ) :   1.1705
B(  2-C ,  3-C ) :   0.8917 B(  2-C ,  6-C ) :   0.9905 B(  3-C ,  4-C ) :   0.9839
B(  3-C , 12-H ) :   0.9042 B(  3-C , 13-H ) :   0.9356 B(  4-C ,  5-N ) :   0.9076
B(  4-C , 14-H ) :   0.9322 B(  4-C , 15-H ) :   0.9278 B(  5-N , 16-H ) :   0.8723
B(  6-C ,  7-N ) :   1.1440 B(  6-C ,  8-O ) :   1.9036 B(  7-N , 17-H ) :   0.8708
B(  7-N , 18-H ) :   0.8676

MP2 TOTAL ENERGY:     -418.554121118 Eh
FINAL SINGLE POINT ENERGY      -418.554121117851

DIPOLE MOMENT
-------------
                                X             Y             Z
Electronic contribution:     -3.69543       1.66641      -0.05144
Nuclear contribution   :      4.60843      -2.87931       0.18052
                        -----------------------------------------
Total Dipole Moment    :      0.91300      -1.21290       0.12909
                        -----------------------------------------
Magnitude (a.u.)       :      1.52360
Magnitude (Debye)      :      3.87269

                             ****ORCA TERMINATED NORMALLY****
TOTAL RUN TIME: 0 days 0 hours 20 minutes 16 seconds 223 msec
