                         Program Version 3.0.3 - RELEASE   -
|  1> ! RI-MP2 RIJK def2-TZVP def2-TZVP/C def2-TZVP/JK TIGHTSCF
|  2> % maxcore 2000
|  3> % mp2 density relaxed end
|  4> *xyz 0 1
|  5>  N       -0.1592541146     1.3450732505     0.0084580372
|  6>  C        0.0151563490     0.0902799839     0.0013497073
|  7>  N       -1.1237331945    -0.7443345954     0.0029490975
|  8>  N       -1.1324357248    -2.0637410666    -0.0035316296
|  9>  N       -0.0138179276    -2.6810744928    -0.0122206771
| 10>  C        1.1419052784    -1.8975634800    -0.0141036353
| 11>  C        2.4082976161    -2.7301043301    -0.0248166267
| 12>  O        3.5101448532    -2.2560970602    -0.0283215068
| 13>  N        1.2205545814    -0.6106439815    -0.0081973860
| 14>  H        0.7453663652     1.8140823375     0.0062162005
| 15>  H       -2.0378724669    -0.3092734279     0.0097195301
| 16>  H        2.2114641952    -3.8198728973    -0.0293986811
| 17> *
| 18>
| 19>                          ****END OF INPUT****

CARTESIAN COORDINATES (ANGSTROEM)
---------------------------------
  N     -0.159254    1.345073    0.008458
  C      0.015156    0.090280    0.001350
  N     -1.123733   -0.744335    0.002949
  N     -1.132436   -2.063741   -0.003532
  N     -0.013818   -2.681074   -0.012221
  C      1.141905   -1.897563   -0.014104
  C      2.408298   -2.730104   -0.024817
  O      3.510145   -2.256097   -0.028322
  N      1.220555   -0.610644   -0.008197
  H      0.745366    1.814082    0.006216
  H     -2.037872   -0.309273    0.009720
  H      2.211464   -3.819873   -0.029399

 Total Charge           Charge          ....    0
 Multiplicity           Mult            ....    1
 Number of Electrons    NEL             ....   64
 Basis Dimension        Dim             ....  297

ORBITAL ENERGIES
----------------

  NO   OCC          E(Eh)            E(eV)
   0   2.0000     -20.596737      -560.4657
   1   2.0000     -15.745214      -428.4490
   2   2.0000     -15.690786      -426.9680
   3   2.0000     -15.645886      -425.7462
   4   2.0000     -15.619225      -425.0207
   5   2.0000     -15.555012      -423.2734
   6   2.0000     -11.385977      -309.8282
   7   2.0000     -11.372170      -309.4525
   8   2.0000     -11.365163      -309.2618
   9   2.0000      -1.489156       -40.5220
  10   2.0000      -1.432578       -38.9824
  11   2.0000      -1.315401       -35.7939
  12   2.0000      -1.288515       -35.0623
  13   2.0000      -1.189938       -32.3798
  14   2.0000      -1.039812       -28.2947
  15   2.0000      -0.967457       -26.3258
  16   2.0000      -0.854103       -23.2413
  17   2.0000      -0.829391       -22.5689
  18   2.0000      -0.796091       -21.6627
  19   2.0000      -0.721960       -19.6455
  20   2.0000      -0.693500       -18.8711
  21   2.0000      -0.686346       -18.6764
  22   2.0000      -0.672703       -18.3052
  23   2.0000      -0.595630       -16.2079
  24   2.0000      -0.578846       -15.7512
  25   2.0000      -0.548706       -14.9310
  26   2.0000      -0.539196       -14.6723
  27   2.0000      -0.504280       -13.7222
  28   2.0000      -0.483446       -13.1552
  29   2.0000      -0.471077       -12.8186
  30   2.0000      -0.439881       -11.9698
  31   2.0000      -0.377081       -10.2609
  32   0.0000       0.005458         0.1485
  33   0.0000       0.090421         2.4605
  34   0.0000       0.128674         3.5014
  35   0.0000       0.161993         4.4080
  36   0.0000       0.167369         4.5543

MULLIKEN ATOMIC CHARGES
-----------------------
   0 N :   -0.375098
   1 C :    0.184619
   2 N :   -0.080239
   3 N :   -0.056469
   4 N :   -0.141723
   5 C :    0.153401
   6 C :    0.057223
   7 O :   -0.213754
   8 N :   -0.183619
   9 H :    0.243834
  10 H :    0.287051
  11 H :    0.124773
Sum of atomic charges:   -0.0000000

LOEWDIN ATOMIC CHARGES
----------------------
   0 N :   -0.060739
   1 C :   -0.446225
   2 N :    0.134582
   3 N :    0.009887
   4 N :    0.031708
   5 C :   -0.313314
   6 C :   -0.253194
   7 O :    0.182022
   8 N :    0.204450
   9 H :    0.177525
  10 H :    0.208597
  11 H :    0.124700

  Mayer bond orders larger than 0.1
B(  0-N ,  1-C ) :   1.9805 B(  0-N ,  9-H ) :   0.8511 B(  1-C ,  2-N ) :   0.9764
B(  1-C ,  8-N ) :   1.0735 B(  2-N ,  3-N ) :   1.1131 B(  2-N , 10-H ) :   0.8482
B(  3-N ,  4-N ) :   1.3854 B(  4-N ,  5-C ) :   1.1823 B(  5-C ,  6-C ) :   0.8006
B(  5-C ,  8-N ) :   1.6567 B(  6-C ,  7-O ) :   2.0279 B(  6-C , 11-H ) :   0.9581

MP2 TOTAL ENERGY:     -464.192809909 Eh
FINAL SINGLE POINT ENERGY      -464.192809909425

DIPOLE MOMENT
-------------
                                X             Y             Z
Electronic contribution:      0.25142      -1.51124      -0.00848
Nuclear contribution   :     -0.98768       1.41182       0.01186
                        -----------------------------------------
Total Dipole Moment    :     -0.73626      -0.09942       0.00338
                        -----------------------------------------
Magnitude (a.u.)       :      0.74295
Magnitude (Debye)      :      1.88842

                             ****ORCA TERMINATED NORMALLY****
TOTAL RUN TIME: 0 days 0 hours 14 minutes 3 seconds 833 msec
