                         Program Version 3.0.3 - RELEASE   -
|  1> ! RI-MP2 RIJK def2-TZVP def2-TZVP/C def2-TZVP/JK TIGHTSCF
|  2> % maxcore 2000
|  3> % mp2 density relaxed end
|  4> *xyz 0 1
|  5>  N       -0.1679392573     1.3034443578    -0.0995839488
|  6>  C        0.0649105817    -0.0416030923    -0.0321367716
|  7>  O        1.1541641579    -0.5645747496    -0.0132805064
|  8>  O       -1.1144761800    -0.7128398467    -0.0245721627
|  9>  C       -0.9978540649    -2.1422308728    -0.0114695087
| 10>  C       -2.4071278411    -2.7128540899    -0.0032936203
| 11>  C       -2.3903596895    -4.2542555948     0.0098449271
| 12>  C       -3.7285910128    -4.8314847946     0.0203450957
| 13>  C       -4.8417687785    -5.2841914457     0.0289934536
| 14>  H        0.6164825684     1.8994617138     0.1004487843
| 15>  H       -1.0892707584     1.6476725016     0.1105588666
| 16>  H       -0.4337503382    -2.4682462619    -0.8923243751
| 17>  H       -0.4295164053    -2.4525614650     0.8723501849
| 18>  H       -2.9474600867    -2.3442965909     0.8745002898
| 19>  H       -2.9514625974    -2.3590076566    -0.8845522244
| 20>  H       -1.8408591592    -4.6238118319    -0.8659938515
| 21>  H       -1.8336009889    -4.6089659882     0.8872741032
| 22>  H       -5.8201377798    -5.6962168322     0.0363904743
| 23> *
| 24>
| 25>                          ****END OF INPUT****

CARTESIAN COORDINATES (ANGSTROEM)
---------------------------------
  N     -0.167939    1.303444   -0.099584
  C      0.064911   -0.041603   -0.032137
  O      1.154164   -0.564575   -0.013281
  O     -1.114476   -0.712840   -0.024572
  C     -0.997854   -2.142231   -0.011470
  C     -2.407128   -2.712854   -0.003294
  C     -2.390360   -4.254256    0.009845
  C     -3.728591   -4.831485    0.020345
  C     -4.841769   -5.284191    0.028993
  H      0.616483    1.899462    0.100449
  H     -1.089271    1.647673    0.110559
  H     -0.433750   -2.468246   -0.892324
  H     -0.429516   -2.452561    0.872350
  H     -2.947460   -2.344297    0.874500
  H     -2.951463   -2.359008   -0.884552
  H     -1.840859   -4.623812   -0.865994
  H     -1.833601   -4.608966    0.887274
  H     -5.820138   -5.696217    0.036390

 Total Charge           Charge          ....    0
 Multiplicity           Mult            ....    1
 Number of Electrons    NEL             ....   68
 Basis Dimension        Dim             ....  333

ORBITAL ENERGIES
----------------

  NO   OCC          E(Eh)            E(eV)
   0   2.0000     -20.602492      -560.6223
   1   2.0000     -20.527896      -558.5925
   2   2.0000     -15.587609      -424.1604
   3   2.0000     -11.403924      -310.3166
   4   2.0000     -11.292016      -307.2714
   5   2.0000     -11.261111      -306.4304
   6   2.0000     -11.240099      -305.8587
   7   2.0000     -11.236534      -305.7616
   8   2.0000     -11.222745      -305.3864
   9   2.0000      -1.464850       -39.8606
  10   2.0000      -1.358497       -36.9666
  11   2.0000      -1.219914       -33.1955
  12   2.0000      -1.100616       -29.9493
  13   2.0000      -1.027045       -27.9473
  14   2.0000      -0.954394       -25.9704
  15   2.0000      -0.851691       -23.1757
  16   2.0000      -0.805990       -21.9321
  17   2.0000      -0.750811       -20.4306
  18   2.0000      -0.721352       -19.6290
  19   2.0000      -0.706694       -19.2301
  20   2.0000      -0.695053       -18.9134
  21   2.0000      -0.652616       -17.7586
  22   2.0000      -0.637958       -17.3597
  23   2.0000      -0.635541       -17.2939
  24   2.0000      -0.576508       -15.6876
  25   2.0000      -0.570266       -15.5177
  26   2.0000      -0.549934       -14.9645
  27   2.0000      -0.510245       -13.8845
  28   2.0000      -0.509513       -13.8645
  29   2.0000      -0.466494       -12.6940
  30   2.0000      -0.460851       -12.5404
  31   2.0000      -0.432464       -11.7679
  32   2.0000      -0.388973       -10.5845
  33   2.0000      -0.388668       -10.5762
  34   0.0000       0.128492         3.4964
  35   0.0000       0.134543         3.6611
  36   0.0000       0.166675         4.5355
  37   0.0000       0.172293         4.6883
  38   0.0000       0.174704         4.7539

MULLIKEN ATOMIC CHARGES
-----------------------
   0 N :   -0.511067
   1 C :    0.415929
   2 O :   -0.376210
   3 O :   -0.282473
   4 C :   -0.086059
   5 C :   -0.131346
   6 C :   -0.423360
   7 C :   -0.012662
   8 C :   -0.109202
   9 H :    0.269709
  10 H :    0.268005
  11 H :    0.122761
  12 H :    0.122104
  13 H :    0.124278
  14 H :    0.126293
  15 H :    0.146354
  16 H :    0.145858
  17 H :    0.191087
Sum of atomic charges:    0.0000000

LOEWDIN ATOMIC CHARGES
----------------------
   0 N :   -0.035892
   1 C :   -0.613583
   2 O :    0.075628
   3 O :    0.226077
   4 C :   -0.281718
   5 C :   -0.250576
   6 C :   -0.246593
   7 C :   -0.112694
   8 C :   -0.105929
   9 H :    0.177741
  10 H :    0.174693
  11 H :    0.131097
  12 H :    0.130597
  13 H :    0.144191
  14 H :    0.144752
  15 H :    0.158042
  16 H :    0.157883
  17 H :    0.126286

  Mayer bond orders larger than 0.1
B(  0-N ,  1-C ) :   1.1602 B(  0-N ,  9-H ) :   0.8669 B(  0-N , 10-H ) :   0.8645
B(  1-C ,  2-O ) :   1.9290 B(  1-C ,  3-O ) :   1.0769 B(  3-O ,  4-C ) :   0.8581
B(  4-C ,  5-C ) :   0.9199 B(  4-C , 11-H ) :   0.9362 B(  4-C , 12-H ) :   0.9376
B(  5-C ,  6-C ) :   0.9328 B(  5-C , 13-H ) :   0.9188 B(  5-C , 14-H ) :   0.9186
B(  6-C ,  7-C ) :   1.1283 B(  6-C ,  8-C ) :  -0.1298 B(  6-C , 15-H ) :   0.9192
B(  6-C , 16-H ) :   0.9193 B(  7-C ,  8-C ) :   2.6151 B(  8-C , 17-H ) :   0.8931

MP2 TOTAL ENERGY:     -438.373315274 Eh
FINAL SINGLE POINT ENERGY      -438.373315273715

DIPOLE MOMENT
-------------
                                X             Y             Z
Electronic contribution:      2.38652       3.27200      -0.09536
Nuclear contribution   :     -3.00209      -2.72971       0.33031
                        -----------------------------------------
Total Dipole Moment    :     -0.61557       0.54230       0.23495
                        -----------------------------------------
Magnitude (a.u.)       :      0.85336
Magnitude (Debye)      :      2.16906

                             ****ORCA TERMINATED NORMALLY****
TOTAL RUN TIME: 0 days 0 hours 13 minutes 8 seconds 673 msec
