                         Program Version 3.0.3 - RELEASE   -
|  1> ! RI-MP2 RIJK def2-TZVP def2-TZVP/C def2-TZVP/JK TIGHTSCF
|  2> % maxcore 2000
|  3> % mp2 density relaxed end
|  4> *xyz 0 1
|  5>  C        0.2495107195     1.6618788003     0.1578077758
|  6>  C       -0.1346256390     0.1939490316    -0.0727105671
|  7>  C        0.6055723503    -0.4558424185    -1.2343972950
|  8>  C        0.3429403975     0.1592166991    -2.5967087874
|  9>  C        1.9392726233    -1.0828526759    -0.9722162455
| 10>  N        0.7826396257    -1.9173078709    -1.2870148345
| 11>  C        0.2631609771    -2.7791440730    -0.2636938913
| 12>  C       -0.9780361738    -3.5636127795    -0.5944686308
| 13>  C        0.3602603897    -4.2602423775    -0.5209651492
| 14>  H        1.3252567499     1.7633222494     0.3367907168
| 15>  H       -0.0057095100     2.2895836788    -0.7009891228
| 16>  H       -0.2753133690     2.0666835756     1.0286984240
| 17>  H        0.0559401715    -0.3663766547     0.8470157143
| 18>  H       -1.2150025246     0.1242199819    -0.2575650898
| 19>  H        0.7174000264     1.1865008660    -2.6553102390
| 20>  H        0.8316353651    -0.4316119440    -3.3747371416
| 21>  H       -0.7317302979     0.1803061120    -2.8136188817
| 22>  H        2.7294251344    -1.0539764497    -1.7195306995
| 23>  H        2.2958904195    -1.0822329038     0.0580037640
| 24>  H        0.3831351274    -2.4672486950     0.7749324236
| 25>  H       -1.7021370830    -3.7389469477     0.1933451789
| 26>  H       -1.4024510783    -3.4071083672    -1.5792901564
| 27>  H        0.8175410761    -4.5579609802    -1.4571093271
| 28>  H        0.5599019120    -4.9166721568     0.3187341714
| 29> *
| 30>
| 31>                          ****END OF INPUT****

CARTESIAN COORDINATES (ANGSTROEM)
---------------------------------
  C      0.249511    1.661879    0.157808
  C     -0.134626    0.193949   -0.072711
  C      0.605572   -0.455842   -1.234397
  C      0.342940    0.159217   -2.596709
  C      1.939273   -1.082853   -0.972216
  N      0.782640   -1.917308   -1.287015
  C      0.263161   -2.779144   -0.263694
  C     -0.978036   -3.563613   -0.594469
  C      0.360260   -4.260242   -0.520965
  H      1.325257    1.763322    0.336791
  H     -0.005710    2.289584   -0.700989
  H     -0.275313    2.066684    1.028698
  H      0.055940   -0.366377    0.847016
  H     -1.215003    0.124220   -0.257565
  H      0.717400    1.186501   -2.655310
  H      0.831635   -0.431612   -3.374737
  H     -0.731730    0.180306   -2.813619
  H      2.729425   -1.053976   -1.719531
  H      2.295890   -1.082233    0.058004
  H      0.383135   -2.467249    0.774932
  H     -1.702137   -3.738947    0.193345
  H     -1.402451   -3.407108   -1.579290
  H      0.817541   -4.557961   -1.457109
  H      0.559902   -4.916672    0.318734

 Total Charge           Charge          ....    0
 Multiplicity           Mult            ....    1
 Number of Electrons    NEL             ....   70
 Basis Dimension        Dim             ....  369

ORBITAL ENERGIES
----------------

  NO   OCC          E(Eh)            E(eV)
   0   2.0000     -15.550269      -423.1443
   1   2.0000     -11.259513      -306.3869
   2   2.0000     -11.251814      -306.1774
   3   2.0000     -11.244214      -305.9706
   4   2.0000     -11.224350      -305.4301
   5   2.0000     -11.216922      -305.2280
   6   2.0000     -11.216364      -305.2128
   7   2.0000     -11.215553      -305.1907
   8   2.0000     -11.210107      -305.0425
   9   2.0000      -1.271332       -34.5947
  10   2.0000      -1.130490       -30.7622
  11   2.0000      -1.043494       -28.3949
  12   2.0000      -0.970477       -26.4080
  13   2.0000      -0.896362       -24.3912
  14   2.0000      -0.867809       -23.6143
  15   2.0000      -0.816993       -22.2315
  16   2.0000      -0.791110       -21.5272
  17   2.0000      -0.729097       -19.8397
  18   2.0000      -0.673842       -18.3362
  19   2.0000      -0.656783       -17.8720
  20   2.0000      -0.625205       -17.0127
  21   2.0000      -0.592520       -16.1233
  22   2.0000      -0.584949       -15.9173
  23   2.0000      -0.572853       -15.5881
  24   2.0000      -0.543140       -14.7796
  25   2.0000      -0.535880       -14.5820
  26   2.0000      -0.528679       -14.3861
  27   2.0000      -0.509752       -13.8711
  28   2.0000      -0.497053       -13.5255
  29   2.0000      -0.480097       -13.0641
  30   2.0000      -0.477460       -12.9924
  31   2.0000      -0.437790       -11.9129
  32   2.0000      -0.423802       -11.5322
  33   2.0000      -0.382603       -10.4112
  34   2.0000      -0.355494        -9.6735
  35   0.0000       0.135714         3.6930
  36   0.0000       0.156913         4.2698
  37   0.0000       0.162549         4.4232
  38   0.0000       0.174215         4.7406
  39   0.0000       0.182144         4.9564

MULLIKEN ATOMIC CHARGES
-----------------------
   0 C :   -0.414712
   1 C :   -0.168452
   2 C :    0.151229
   3 C :   -0.434582
   4 C :   -0.207466
   5 N :   -0.229378
   6 C :   -0.064629
   7 C :   -0.239791
   8 C :   -0.238757
   9 H :    0.128693
  10 H :    0.133177
  11 H :    0.136017
  12 H :    0.101732
  13 H :    0.114505
  14 H :    0.130207
  15 H :    0.142127
  16 H :    0.124915
  17 H :    0.124741
  18 H :    0.108733
  19 H :    0.095116
  20 H :    0.125044
  21 H :    0.128133
  22 H :    0.128808
  23 H :    0.124589
Sum of atomic charges:    0.0000000

LOEWDIN ATOMIC CHARGES
----------------------
   0 C :   -0.310805
   1 C :   -0.252357
   2 C :   -0.302741
   3 C :   -0.267418
   4 C :   -0.222093
   5 N :    0.156135
   6 C :   -0.283634
   7 C :   -0.229629
   8 C :   -0.227853
   9 H :    0.122469
  10 H :    0.120673
  11 H :    0.121335
  12 H :    0.139752
  13 H :    0.142205
  14 H :    0.124314
  15 H :    0.131676
  16 H :    0.127086
  17 H :    0.124226
  18 H :    0.125682
  19 H :    0.131860
  20 H :    0.128937
  21 H :    0.135867
  22 H :    0.135862
  23 H :    0.128450

  Mayer bond orders larger than 0.1
B(  0-C ,  1-C ) :   0.9088 B(  0-C ,  9-H ) :   0.9376 B(  0-C , 10-H ) :   0.9420
B(  0-C , 11-H ) :   0.9406 B(  1-C ,  2-C ) :   0.9199 B(  1-C , 12-H ) :   0.9276
B(  1-C , 13-H ) :   0.9324 B(  2-C ,  3-C ) :   0.8840 B(  2-C ,  4-C ) :   0.9461
B(  2-C ,  5-N ) :   0.8097 B(  3-C , 14-H ) :   0.9391 B(  3-C , 15-H ) :   0.9388
B(  3-C , 16-H ) :   0.9373 B(  4-C ,  5-N ) :   0.8956 B(  4-C , 17-H ) :   0.9068
B(  4-C , 18-H ) :   0.9123 B(  5-N ,  6-C ) :   0.9937 B(  6-C ,  7-C ) :   0.8808
B(  6-C ,  8-C ) :   0.8842 B(  6-C , 19-H ) :   0.9138 B(  7-C ,  8-C ) :   0.9344
B(  7-C , 20-H ) :   0.9269 B(  7-C , 21-H ) :   0.9257 B(  8-C , 22-H ) :   0.9240
B(  8-C , 23-H ) :   0.9259

MP2 TOTAL ENERGY:     -367.708556025 Eh
FINAL SINGLE POINT ENERGY      -367.708556025120

DIPOLE MOMENT
-------------
                                X             Y             Z
Electronic contribution:      1.17770      -4.48967      -0.78145
Nuclear contribution   :     -1.18826       4.79683       1.17991
                        -----------------------------------------
Total Dipole Moment    :     -0.01056       0.30716       0.39846
                        -----------------------------------------
Magnitude (a.u.)       :      0.50322
Magnitude (Debye)      :      1.27908

                             ****ORCA TERMINATED NORMALLY****
TOTAL RUN TIME: 0 days 0 hours 20 minutes 18 seconds 703 msec
