                         Program Version 3.0.3 - RELEASE   -
|  1> ! RI-MP2 RIJK def2-TZVP def2-TZVP/C def2-TZVP/JK TIGHTSCF
|  2> % maxcore 2000
|  3> % mp2 density relaxed end
|  4> *xyz 0 1
|  5>  C       -0.1314600930     1.3440555942     0.0640666265
|  6>  O       -0.0842293684    -0.0585594356    -0.0181195005
|  7>  C        0.6876151724    -0.5195926388    -1.1073038094
|  8>  C        0.6936172427    -2.0430187430    -1.0747360058
|  9>  C        1.3962537372    -2.6968876726    -2.2757691961
| 10>  C        2.8948742016    -2.3712888269    -2.3508569013
| 11>  C        1.1735970416    -4.2098806054    -2.2349639016
| 12>  O        1.6945289282    -4.7888312187    -3.4124697919
| 13>  C        1.5617310862    -6.1881789050    -3.4420333107
| 14>  H        0.8713669132     1.7816791187     0.1964909860
| 15>  H       -0.5818604526     1.7935398321    -0.8358499866
| 16>  H       -0.7451980768     1.6024267468     0.9307396836
| 17>  H        0.2601958883    -0.1585601137    -2.0600516875
| 18>  H        1.7111430502    -0.1154361450    -1.0415569987
| 19>  H        1.1652708177    -2.3709032089    -0.1393438829
| 20>  H       -0.3507812899    -2.3752677064    -1.0305452682
| 21>  H        0.9176664066    -2.3366343835    -3.1973443800
| 22>  H        3.3614640648    -2.9338214660    -3.1624342436
| 23>  H        3.0731224909    -1.3068645708    -2.5281645689
| 24>  H        3.3991891346    -2.6435900188    -1.4153010407
| 25>  H        1.6668949037    -4.6425396637    -1.3454283516
| 26>  H        0.0964619745    -4.4335729262    -2.1472797598
| 27>  H        0.5062031947    -6.5007579318    -3.3917484191
| 28>  H        1.9880993807    -6.5394121712    -4.3850733093
| 29>  H        2.0986394609    -6.6688461498    -2.6083869520
| 30> *
| 31>
| 32>                          ****END OF INPUT****

CARTESIAN COORDINATES (ANGSTROEM)
---------------------------------
  C     -0.131460    1.344056    0.064067
  O     -0.084229   -0.058559   -0.018120
  C      0.687615   -0.519593   -1.107304
  C      0.693617   -2.043019   -1.074736
  C      1.396254   -2.696888   -2.275769
  C      2.894874   -2.371289   -2.350857
  C      1.173597   -4.209881   -2.234964
  O      1.694529   -4.788831   -3.412470
  C      1.561731   -6.188179   -3.442033
  H      0.871367    1.781679    0.196491
  H     -0.581860    1.793540   -0.835850
  H     -0.745198    1.602427    0.930740
  H      0.260196   -0.158560   -2.060052
  H      1.711143   -0.115436   -1.041557
  H      1.165271   -2.370903   -0.139344
  H     -0.350781   -2.375268   -1.030545
  H      0.917666   -2.336634   -3.197344
  H      3.361464   -2.933821   -3.162434
  H      3.073122   -1.306865   -2.528165
  H      3.399189   -2.643590   -1.415301
  H      1.666895   -4.642540   -1.345428
  H      0.096462   -4.433573   -2.147280
  H      0.506203   -6.500758   -3.391748
  H      1.988099   -6.539412   -4.385073
  H      2.098639   -6.668846   -2.608387

 Total Charge           Charge          ....    0
 Multiplicity           Mult            ....    1
 Number of Electrons    NEL             ....   74
 Basis Dimension        Dim             ....  375

ORBITAL ENERGIES
----------------

  NO   OCC          E(Eh)            E(eV)
   0   2.0000     -20.552442      -559.2604
   1   2.0000     -20.551730      -559.2410
   2   2.0000     -11.270881      -306.6963
   3   2.0000     -11.270100      -306.6750
   4   2.0000     -11.269163      -306.6495
   5   2.0000     -11.268155      -306.6221
   6   2.0000     -11.225765      -305.4686
   7   2.0000     -11.216943      -305.2285
   8   2.0000     -11.206607      -304.9473
   9   2.0000      -1.374425       -37.4000
  10   2.0000      -1.373000       -37.3612
  11   2.0000      -1.089758       -29.6538
  12   2.0000      -0.999014       -27.1846
  13   2.0000      -0.945349       -25.7243
  14   2.0000      -0.914046       -24.8725
  15   2.0000      -0.882200       -24.0059
  16   2.0000      -0.829476       -22.5712
  17   2.0000      -0.772622       -21.0241
  18   2.0000      -0.675079       -18.3698
  19   2.0000      -0.665040       -18.0967
  20   2.0000      -0.658417       -17.9164
  21   2.0000      -0.651548       -17.7295
  22   2.0000      -0.623995       -16.9798
  23   2.0000      -0.618243       -16.8232
  24   2.0000      -0.605185       -16.4679
  25   2.0000      -0.569178       -15.4881
  26   2.0000      -0.552205       -15.0262
  27   2.0000      -0.544705       -14.8222
  28   2.0000      -0.515571       -14.0294
  29   2.0000      -0.507389       -13.8067
  30   2.0000      -0.492484       -13.4012
  31   2.0000      -0.477762       -13.0006
  32   2.0000      -0.466928       -12.7058
  33   2.0000      -0.463617       -12.6157
  34   2.0000      -0.449991       -12.2449
  35   2.0000      -0.422017       -11.4837
  36   2.0000      -0.418153       -11.3785
  37   0.0000       0.138268         3.7625
  38   0.0000       0.148343         4.0366
  39   0.0000       0.165560         4.5051
  40   0.0000       0.171051         4.6545
  41   0.0000       0.176147         4.7932

MULLIKEN ATOMIC CHARGES
-----------------------
   0 C :   -0.214528
   1 O :   -0.300552
   2 C :   -0.078024
   3 C :   -0.184472
   4 C :   -0.018812
   5 C :   -0.433572
   6 C :   -0.055990
   7 O :   -0.306489
   8 C :   -0.215556
   9 H :    0.109489
  10 H :    0.109496
  11 H :    0.137931
  12 H :    0.089661
  13 H :    0.097406
  14 H :    0.112152
  15 H :    0.117435
  16 H :    0.086124
  17 H :    0.155550
  18 H :    0.130825
  19 H :    0.116195
  20 H :    0.089735
  21 H :    0.097593
  22 H :    0.110314
  23 H :    0.138000
  24 H :    0.110089
Sum of atomic charges:    0.0000000

LOEWDIN ATOMIC CHARGES
----------------------
   0 C :   -0.364890
   1 O :    0.133221
   2 C :   -0.328360
   3 C :   -0.245333
   4 C :   -0.284870
   5 C :   -0.293964
   6 C :   -0.309822
   7 O :    0.136778
   8 C :   -0.363700
   9 H :    0.100313
  10 H :    0.100453
  11 H :    0.112891
  12 H :    0.118888
  13 H :    0.118304
  14 H :    0.141807
  15 H :    0.143819
  16 H :    0.154747
  17 H :    0.128791
  18 H :    0.119840
  19 H :    0.123329
  20 H :    0.121247
  21 H :    0.121546
  22 H :    0.101252
  23 H :    0.112909
  24 H :    0.100803

  Mayer bond orders larger than 0.1
B(  0-C ,  1-O ) :   0.9238 B(  0-C ,  9-H ) :   0.9374 B(  0-C , 10-H ) :   0.9368
B(  0-C , 11-H ) :   0.9397 B(  1-O ,  2-C ) :   0.9653 B(  2-C ,  3-C ) :   0.9461
B(  2-C , 12-H ) :   0.9223 B(  2-C , 13-H ) :   0.9321 B(  3-C ,  4-C ) :   0.9128
B(  3-C , 14-H ) :   0.9156 B(  3-C , 15-H ) :   0.9265 B(  4-C ,  5-C ) :   0.9056
B(  4-C ,  6-C ) :   0.9452 B(  4-C , 16-H ) :   0.9195 B(  5-C , 17-H ) :   0.9344
B(  5-C , 18-H ) :   0.9406 B(  5-C , 19-H ) :   0.9288 B(  6-C ,  7-O ) :   0.9502
B(  6-C , 20-H ) :   0.9179 B(  6-C , 21-H ) :   0.9269 B(  7-O ,  8-C ) :   0.9216
B(  8-C , 22-H ) :   0.9371 B(  8-C , 23-H ) :   0.9399 B(  8-C , 24-H ) :   0.9363

MP2 TOTAL ENERGY:     -425.899430687 Eh
FINAL SINGLE POINT ENERGY      -425.899430687247

DIPOLE MOMENT
-------------
                                X             Y             Z
Electronic contribution:     -1.76931      -0.37853       0.00900
Nuclear contribution   :      1.79073       0.38224      -0.02364
                        -----------------------------------------
Total Dipole Moment    :      0.02142       0.00371      -0.01465
                        -----------------------------------------
Magnitude (a.u.)       :      0.02621
Magnitude (Debye)      :      0.06663

                             ****ORCA TERMINATED NORMALLY****
TOTAL RUN TIME: 0 days 0 hours 16 minutes 52 seconds 809 msec
