                         Program Version 3.0.3 - RELEASE   -
|  1> ! RI-MP2 RIJK def2-TZVP def2-TZVP/C def2-TZVP/JK TIGHTSCF
|  2> % maxcore 2000
|  3> % mp2 density relaxed end
|  4> *xyz 0 1
|  5>  C        1.0931324005     0.8680282526    -0.1459477971
|  6>  N        0.0332911111     0.1895823259    -0.8936936797
|  7>  C       -0.2562729440     0.6688357433     0.4673138388
|  8>  C       -0.5029266149    -0.3546859255     1.5176564419
|  9>  N       -1.0209830642     0.0852923699     2.6698864910
| 10>  C       -1.2188855303    -0.8278050704     3.6219873557
| 11>  C       -0.9073493703    -2.1704884100     3.4346501773
| 12>  N       -0.4034544037    -2.6210125430     2.2824700629
| 13>  C       -0.2073463945    -1.7114954957     1.3293174155
| 14>  H        1.9159043241     0.2287297401     0.1620215599
| 15>  H        1.3773085698     1.8800017437    -0.4222385268
| 16>  H       -0.3809436572     0.8128088923    -1.5804871499
| 17>  H       -0.8621416340     1.5621869721     0.5933370979
| 18>  H       -1.6423520866    -0.4777824754     4.5602424339
| 19>  H       -1.0726313352    -2.8995761116     4.2234473219
| 20>  H        0.1817743592    -2.0550523783     0.3761486366
| 21> *
| 22>
| 23>                          ****END OF INPUT****

CARTESIAN COORDINATES (ANGSTROEM)
---------------------------------
  C      1.093132    0.868028   -0.145948
  N      0.033291    0.189582   -0.893694
  C     -0.256273    0.668836    0.467314
  C     -0.502927   -0.354686    1.517656
  N     -1.020983    0.085292    2.669886
  C     -1.218886   -0.827805    3.621987
  C     -0.907349   -2.170488    3.434650
  N     -0.403454   -2.621013    2.282470
  C     -0.207346   -1.711495    1.329317
  H      1.915904    0.228730    0.162022
  H      1.377309    1.880002   -0.422239
  H     -0.380944    0.812809   -1.580487
  H     -0.862142    1.562187    0.593337
  H     -1.642352   -0.477782    4.560242
  H     -1.072631   -2.899576    4.223447
  H      0.181774   -2.055052    0.376149

 Total Charge           Charge          ....    0
 Multiplicity           Mult            ....    1
 Number of Electrons    NEL             ....   64
 Basis Dimension        Dim             ....  321

ORBITAL ENERGIES
----------------

  NO   OCC          E(Eh)            E(eV)
   0   2.0000     -15.586125      -424.1200
   1   2.0000     -15.585003      -424.0895
   2   2.0000     -15.573584      -423.7788
   3   2.0000     -11.286030      -307.1085
   4   2.0000     -11.278057      -306.8915
   5   2.0000     -11.276187      -306.8406
   6   2.0000     -11.273930      -306.7792
   7   2.0000     -11.272516      -306.7407
   8   2.0000     -11.270139      -306.6761
   9   2.0000      -1.306283       -35.5458
  10   2.0000      -1.274844       -34.6903
  11   2.0000      -1.214112       -33.0377
  12   2.0000      -1.056485       -28.7484
  13   2.0000      -0.934464       -25.4281
  14   2.0000      -0.895075       -24.3562
  15   2.0000      -0.887142       -24.1403
  16   2.0000      -0.821193       -22.3458
  17   2.0000      -0.728678       -19.8283
  18   2.0000      -0.711583       -19.3631
  19   2.0000      -0.685411       -18.6510
  20   2.0000      -0.665701       -18.1147
  21   2.0000      -0.622061       -16.9271
  22   2.0000      -0.578367       -15.7382
  23   2.0000      -0.565808       -15.3964
  24   2.0000      -0.539589       -14.6830
  25   2.0000      -0.502051       -13.6615
  26   2.0000      -0.499001       -13.5785
  27   2.0000      -0.487767       -13.2728
  28   2.0000      -0.436302       -11.8724
  29   2.0000      -0.415468       -11.3055
  30   2.0000      -0.399861       -10.8808
  31   2.0000      -0.339650        -9.2424
  32   0.0000       0.085618         2.3298
  33   0.0000       0.114044         3.1033
  34   0.0000       0.135994         3.7006
  35   0.0000       0.170892         4.6502
  36   0.0000       0.174356         4.7445

MULLIKEN ATOMIC CHARGES
-----------------------
   0 C :   -0.165364
   1 N :   -0.367449
   2 C :   -0.079629
   3 C :    0.153667
   4 N :   -0.255422
   5 C :   -0.029717
   6 C :   -0.012598
   7 N :   -0.236211
   8 C :   -0.071948
   9 H :    0.136194
  10 H :    0.134395
  11 H :    0.226842
  12 H :    0.131201
  13 H :    0.134121
  14 H :    0.136935
  15 H :    0.164984
Sum of atomic charges:   -0.0000000

LOEWDIN ATOMIC CHARGES
----------------------
   0 C :   -0.251169
   1 N :   -0.008177
   2 C :   -0.239092
   3 C :   -0.213982
   4 N :    0.170812
   5 C :   -0.215380
   6 C :   -0.216890
   7 N :    0.141077
   8 C :   -0.169659
   9 H :    0.128741
  10 H :    0.122925
  11 H :    0.169265
  12 H :    0.148650
  13 H :    0.141119
  14 H :    0.140958
  15 H :    0.150801

  Mayer bond orders larger than 0.1
B(  0-C ,  1-N ) :   0.9118 B(  0-C ,  2-C ) :   0.8942 B(  0-C ,  9-H ) :   0.9192
B(  0-C , 10-H ) :   0.9246 B(  1-N ,  2-C ) :   0.9461 B(  1-N , 11-H ) :   0.8684
B(  2-C ,  3-C ) :   0.9189 B(  2-C , 12-H ) :   0.9381 B(  3-C ,  4-N ) :   1.3483
B(  3-C ,  8-C ) :   1.2896 B(  4-N ,  5-C ) :   1.3937 B(  5-C ,  6-C ) :   1.3152
B(  5-C , 13-H ) :   0.9304 B(  6-C ,  7-N ) :   1.3658 B(  6-C , 14-H ) :   0.9298
B(  7-N ,  8-C ) :   1.4042 B(  8-C , 15-H ) :   0.9176

MP2 TOTAL ENERGY:     -396.245244157 Eh
FINAL SINGLE POINT ENERGY      -396.245244156696

DIPOLE MOMENT
-------------
                                X             Y             Z
Electronic contribution:     -1.86313      -2.45390       2.65938
Nuclear contribution   :      1.92987       3.23768      -2.75189
                        -----------------------------------------
Total Dipole Moment    :      0.06674       0.78377      -0.09251
                        -----------------------------------------
Magnitude (a.u.)       :      0.79203
Magnitude (Debye)      :      2.01318

                             ****ORCA TERMINATED NORMALLY****
TOTAL RUN TIME: 0 days 0 hours 16 minutes 11 seconds 240 msec
