                         Program Version 3.0.3 - RELEASE   -
|  1> ! RI-MP2 RIJK def2-TZVP def2-TZVP/C def2-TZVP/JK TIGHTSCF
|  2> % maxcore 2000
|  3> % mp2 density relaxed end
|  4> *xyz 0 1
|  5>  C        0.1970166190     1.3727613651    -0.2693313703
|  6>  C       -0.0620238771    -0.0820897182    -0.1157282573
|  7>  C       -1.1627454390    -0.8152676974     0.1974003203
|  8>  C       -0.7578582237    -2.1913765712     0.1969575603
|  9>  C        0.5636824010    -2.2032886271    -0.1241515350
| 10>  O        1.0021056017    -0.9209102005    -0.3160508892
| 11>  C        1.5492917917    -3.2784666303    -0.2813601967
| 12>  C        2.6714985813    -3.1554459917    -1.2546242998
| 13>  N        2.9417187735    -3.0987089445     0.1885749366
| 14>  H        0.5516533756     1.6165971970    -1.2774981244
| 15>  H       -0.7230377955     1.9323176618    -0.0869613689
| 16>  H        0.9569875983     1.7248340086     0.4379909455
| 17>  H       -2.1460308282    -0.4238495111     0.4077260041
| 18>  H       -1.3688805631    -3.0550549238     0.4079074117
| 19>  H        1.1415551598    -4.2649705738    -0.0799767703
| 20>  H        3.0444197921    -4.0431611997    -1.7581122409
| 21>  H        2.7290738642    -2.2375320503    -1.8321079553
| 22>  H        3.0632580383    -2.1268126427     0.4659353396
| 23> *
| 24>
| 25>                          ****END OF INPUT****

CARTESIAN COORDINATES (ANGSTROEM)
---------------------------------
  C      0.197017    1.372761   -0.269331
  C     -0.062024   -0.082090   -0.115728
  C     -1.162745   -0.815268    0.197400
  C     -0.757858   -2.191377    0.196958
  C      0.563682   -2.203289   -0.124152
  O      1.002106   -0.920910   -0.316051
  C      1.549292   -3.278467   -0.281360
  C      2.671499   -3.155446   -1.254624
  N      2.941719   -3.098709    0.188575
  H      0.551653    1.616597   -1.277498
  H     -0.723038    1.932318   -0.086961
  H      0.956988    1.724834    0.437991
  H     -2.146031   -0.423850    0.407726
  H     -1.368881   -3.055055    0.407907
  H      1.141555   -4.264971   -0.079977
  H      3.044420   -4.043161   -1.758112
  H      2.729074   -2.237532   -1.832108
  H      3.063258   -2.126813    0.465935

 Total Charge           Charge          ....    0
 Multiplicity           Mult            ....    1
 Number of Electrons    NEL             ....   66
 Basis Dimension        Dim             ....  333

ORBITAL ENERGIES
----------------

  NO   OCC          E(Eh)            E(eV)
   0   2.0000     -20.618114      -561.0474
   1   2.0000     -15.559761      -423.4026
   2   2.0000     -11.292358      -307.2807
   3   2.0000     -11.290896      -307.2409
   4   2.0000     -11.270435      -306.6841
   5   2.0000     -11.257167      -306.3231
   6   2.0000     -11.237729      -305.7942
   7   2.0000     -11.225635      -305.4650
   8   2.0000     -11.223647      -305.4110
   9   2.0000      -1.456881       -39.6437
  10   2.0000      -1.262212       -34.3465
  11   2.0000      -1.083839       -29.4928
  12   2.0000      -1.056218       -28.7412
  13   2.0000      -0.960379       -26.1332
  14   2.0000      -0.889610       -24.2075
  15   2.0000      -0.846364       -23.0307
  16   2.0000      -0.806678       -21.9508
  17   2.0000      -0.757036       -20.6000
  18   2.0000      -0.717035       -19.5115
  19   2.0000      -0.650676       -17.7058
  20   2.0000      -0.641411       -17.4537
  21   2.0000      -0.632421       -17.2090
  22   2.0000      -0.589844       -16.0505
  23   2.0000      -0.567427       -15.4405
  24   2.0000      -0.561193       -15.2708
  25   2.0000      -0.559641       -15.2286
  26   2.0000      -0.537682       -14.6311
  27   2.0000      -0.527794       -14.3620
  28   2.0000      -0.489469       -13.3191
  29   2.0000      -0.482508       -13.1297
  30   2.0000      -0.411595       -11.2001
  31   2.0000      -0.394383       -10.7317
  32   2.0000      -0.295763        -8.0481
  33   0.0000       0.138467         3.7679
  34   0.0000       0.140432         3.8213
  35   0.0000       0.164274         4.4701
  36   0.0000       0.173938         4.7331
  37   0.0000       0.180809         4.9201

MULLIKEN ATOMIC CHARGES
-----------------------
   0 C :   -0.445871
   1 C :    0.187577
   2 C :   -0.196891
   3 C :   -0.228019
   4 C :    0.213643
   5 O :   -0.256829
   6 C :   -0.107769
   7 C :   -0.149077
   8 N :   -0.357580
   9 H :    0.148444
  10 H :    0.147482
  11 H :    0.148324
  12 H :    0.135249
  13 H :    0.137789
  14 H :    0.135304
  15 H :    0.125716
  16 H :    0.136353
  17 H :    0.226156
Sum of atomic charges:    0.0000000

LOEWDIN ATOMIC CHARGES
----------------------
   0 C :   -0.275354
   1 C :   -0.269918
   2 C :   -0.167818
   3 C :   -0.157211
   4 C :   -0.242797
   5 O :    0.362906
   6 C :   -0.249064
   7 C :   -0.256679
   8 N :   -0.009920
   9 H :    0.134031
  10 H :    0.138679
  11 H :    0.134110
  12 H :    0.143889
  13 H :    0.145181
  14 H :    0.153888
  15 H :    0.124253
  16 H :    0.124774
  17 H :    0.167051

  Mayer bond orders larger than 0.1
B(  0-C ,  1-C ) :   0.8696 B(  0-C ,  9-H ) :   0.9340 B(  0-C , 10-H ) :   0.9524
B(  0-C , 11-H ) :   0.9329 B(  1-C ,  2-C ) :   1.5381 B(  1-C ,  5-O ) :   1.0320
B(  2-C ,  3-C ) :   1.1695 B(  2-C , 12-H ) :   0.9281 B(  3-C ,  4-C ) :   1.4963
B(  3-C , 13-H ) :   0.9290 B(  4-C ,  5-O ) :   0.9813 B(  4-C ,  6-C ) :   0.9714
B(  6-C ,  7-C ) :   0.9332 B(  6-C ,  8-N ) :   0.9273 B(  6-C , 14-H ) :   0.9219
B(  7-C ,  8-N ) :   0.9037 B(  7-C , 15-H ) :   0.9263 B(  7-C , 16-H ) :   0.9146
B(  8-N , 17-H ) :   0.8768

MP2 TOTAL ENERGY:     -401.257146208 Eh
FINAL SINGLE POINT ENERGY      -401.257146207532

DIPOLE MOMENT
-------------
                                X             Y             Z
Electronic contribution:     -0.41979      -2.47727       1.03627
Nuclear contribution   :     -0.07942       3.05939      -1.35544
                        -----------------------------------------
Total Dipole Moment    :     -0.49921       0.58211      -0.31917
                        -----------------------------------------
Magnitude (a.u.)       :      0.83062
Magnitude (Debye)      :      2.11128

                             ****ORCA TERMINATED NORMALLY****
TOTAL RUN TIME: 0 days 0 hours 15 minutes 55 seconds 438 msec
