                         Program Version 3.0.3 - RELEASE   -
|  1> ! RI-MP2 RIJK def2-TZVP def2-TZVP/C def2-TZVP/JK TIGHTSCF
|  2> % maxcore 2000
|  3> % mp2 density relaxed end
|  4> *xyz 0 1
|  5>  C        3.1039697642    -1.2010700381     1.1719173685
|  6>  N        1.8266085074    -1.1702361118     0.4722144647
|  7>  C        0.6866212273    -1.7960350532     1.1362749862
|  8>  C        0.7594684445    -0.3149191126     0.9943192944
|  9>  C        0.9582240768     0.6235830565     2.1669808251
| 10>  O       -0.2160404602     1.4694469404     2.3698689867
| 11>  C       -0.2069603705     1.1664804022     3.7669135722
| 12>  C       -0.4769902256    -0.2828445512     4.0000419539
| 13>  C        0.9225689165     0.1741334646     3.6317838293
| 14>  H        3.0274649957    -1.1518691895     2.2700419376
| 15>  H        3.6217216368    -2.1301776231     0.9138440423
| 16>  H        3.7254953001    -0.3659602791     0.8325984422
| 17>  H        0.0290916172    -2.3846763102     0.5015438686
| 18>  H        0.8422675244    -2.2021559543     2.1346615660
| 19>  H        0.1671143228     0.1605544358     0.2133869089
| 20>  H        1.8238273615     1.2748939094     1.9834541337
| 21>  H       -0.3983598346     1.9743923237     4.4629669914
| 22>  H       -0.5883127885    -0.5772720022     5.0391288724
| 23>  H       -1.0885640565    -0.8331978679     3.2915943593
| 24>  H        1.7875355408     0.0036760407     4.2578416465
| 25> *
| 26>
| 27>                          ****END OF INPUT****

CARTESIAN COORDINATES (ANGSTROEM)
---------------------------------
  C      3.103970   -1.201070    1.171917
  N      1.826609   -1.170236    0.472214
  C      0.686621   -1.796035    1.136275
  C      0.759468   -0.314919    0.994319
  C      0.958224    0.623583    2.166981
  O     -0.216040    1.469447    2.369869
  C     -0.206960    1.166480    3.766914
  C     -0.476990   -0.282845    4.000042
  C      0.922569    0.174133    3.631784
  H      3.027465   -1.151869    2.270042
  H      3.621722   -2.130178    0.913844
  H      3.725495   -0.365960    0.832598
  H      0.029092   -2.384676    0.501544
  H      0.842268   -2.202156    2.134662
  H      0.167114    0.160554    0.213387
  H      1.823827    1.274894    1.983454
  H     -0.398360    1.974392    4.462967
  H     -0.588313   -0.577272    5.039129
  H     -1.088564   -0.833198    3.291594
  H      1.787536    0.003676    4.257842

 Total Charge           Charge          ....    0
 Multiplicity           Mult            ....    1
 Number of Electrons    NEL             ....   68
 Basis Dimension        Dim             ....  345

ORBITAL ENERGIES
----------------

  NO   OCC          E(Eh)            E(eV)
   0   2.0000     -20.557246      -559.3911
   1   2.0000     -15.557975      -423.3540
   2   2.0000     -11.296857      -307.4031
   3   2.0000     -11.292357      -307.2806
   4   2.0000     -11.256798      -306.3131
   5   2.0000     -11.251519      -306.1694
   6   2.0000     -11.248706      -306.0929
   7   2.0000     -11.244121      -305.9681
   8   2.0000     -11.238092      -305.8040
   9   2.0000      -1.396365       -37.9970
  10   2.0000      -1.271461       -34.5982
  11   2.0000      -1.121155       -30.5082
  12   2.0000      -1.006177       -27.3795
  13   2.0000      -0.965927       -26.2842
  14   2.0000      -0.852094       -23.1867
  15   2.0000      -0.831859       -22.6360
  16   2.0000      -0.798101       -21.7174
  17   2.0000      -0.736634       -20.0448
  18   2.0000      -0.717531       -19.5250
  19   2.0000      -0.682103       -18.5610
  20   2.0000      -0.655248       -17.8302
  21   2.0000      -0.632911       -17.2224
  22   2.0000      -0.598791       -16.2939
  23   2.0000      -0.576848       -15.6968
  24   2.0000      -0.564983       -15.3740
  25   2.0000      -0.552044       -15.0219
  26   2.0000      -0.545347       -14.8397
  27   2.0000      -0.509012       -13.8509
  28   2.0000      -0.480294       -13.0695
  29   2.0000      -0.467187       -12.7128
  30   2.0000      -0.447556       -12.1786
  31   2.0000      -0.408561       -11.1175
  32   2.0000      -0.389359       -10.5950
  33   2.0000      -0.363761        -9.8984
  34   0.0000       0.139123         3.7857
  35   0.0000       0.159143         4.3305
  36   0.0000       0.165590         4.5059
  37   0.0000       0.176577         4.8049
  38   0.0000       0.191777         5.2185

MULLIKEN ATOMIC CHARGES
-----------------------
   0 C :   -0.304842
   1 N :   -0.205421
   2 C :   -0.178416
   3 C :   -0.118144
   4 C :    0.120988
   5 O :   -0.329575
   6 C :    0.046174
   7 C :   -0.262368
   8 C :   -0.209502
   9 H :    0.106345
  10 H :    0.144266
  11 H :    0.137628
  12 H :    0.128854
  13 H :    0.129921
  14 H :    0.130479
  15 H :    0.107901
  16 H :    0.130531
  17 H :    0.131079
  18 H :    0.149287
  19 H :    0.144813
Sum of atomic charges:    0.0000000

LOEWDIN ATOMIC CHARGES
----------------------
   0 C :   -0.331208
   1 N :    0.089172
   2 C :   -0.244745
   3 C :   -0.242060
   4 C :   -0.237018
   5 O :    0.169512
   6 C :   -0.246803
   7 C :   -0.209264
   8 C :   -0.191703
   9 H :    0.107126
  10 H :    0.120012
  11 H :    0.118416
  12 H :    0.124244
  13 H :    0.127955
  14 H :    0.151437
  15 H :    0.149027
  16 H :    0.130946
  17 H :    0.142606
  18 H :    0.136904
  19 H :    0.135446

  Mayer bond orders larger than 0.1
B(  0-C ,  1-N ) :   0.8830 B(  0-C ,  9-H ) :   0.9243 B(  0-C , 10-H ) :   0.9385
B(  0-C , 11-H ) :   0.9386 B(  1-N ,  2-C ) :   0.8992 B(  1-N ,  3-C ) :   0.9248
B(  2-C ,  3-C ) :   0.9341 B(  2-C , 12-H ) :   0.9198 B(  2-C , 13-H ) :   0.9141
B(  3-C ,  4-C ) :   0.9420 B(  3-C , 14-H ) :   0.9151 B(  4-C ,  5-O ) :   0.8908
B(  4-C ,  8-C ) :   0.8996 B(  4-C , 15-H ) :   0.9187 B(  5-O ,  6-C ) :   0.9666
B(  6-C ,  7-C ) :   0.8827 B(  6-C ,  8-C ) :   0.9154 B(  6-C , 16-H ) :   0.9247
B(  7-C ,  8-C ) :   0.8871 B(  7-C , 17-H ) :   0.9213 B(  7-C , 18-H ) :   0.9135
B(  8-C , 19-H ) :   0.9134

MP2 TOTAL ENERGY:     -402.363074818 Eh
FINAL SINGLE POINT ENERGY      -402.363074818041

DIPOLE MOMENT
-------------
                                X             Y             Z
Electronic contribution:     -3.20074       3.97068      -0.82655
Nuclear contribution   :      3.54709      -4.28236       1.76516
                        -----------------------------------------
Total Dipole Moment    :      0.34635      -0.31168       0.93861
                        -----------------------------------------
Magnitude (a.u.)       :      1.04790
Magnitude (Debye)      :      2.66355

                             ****ORCA TERMINATED NORMALLY****
TOTAL RUN TIME: 0 days 0 hours 17 minutes 0 seconds 194 msec
