                         Program Version 3.0.3 - RELEASE   -
|  1> ! RI-MP2 RIJK def2-TZVP def2-TZVP/C def2-TZVP/JK TIGHTSCF
|  2> % maxcore 2000
|  3> % mp2 density relaxed end
|  4> *xyz 0 1
|  5>  O        0.0958419545     0.2312781909    -1.0165621094
|  6>  C        0.1437089000     1.0844242749    -0.1634196297
|  7>  C        1.2841214891     2.0812762394    -0.0768771133
|  8>  C        1.1676939033     3.1419790045    -1.2099042748
|  9>  C        2.5088831906     3.8990700287    -1.4733112730
| 10>  C        2.6811118185     2.9461556875    -2.6816981385
| 11>  N        1.2448931474     2.6000379507    -2.5799659058
| 12>  C       -0.0131459161     3.9875805004    -0.9714010203
| 13>  N       -0.9316106553     4.6557780867    -0.7573364477
| 14>  H       -0.6714312056     1.1944974352     0.5811203997
| 15>  H        1.2974238740     2.5779687151     0.8980015051
| 16>  H        2.2252239377     1.5412084898    -0.2194058329
| 17>  H        2.3470624937     4.9372618128    -1.7624037719
| 18>  H        3.2466281186     3.8486596465    -0.6722896160
| 19>  H        2.9602162295     3.4039507405    -3.6345322228
| 20>  H        3.3694978454     2.1158140918    -2.4772349095
| 21>  H        0.9899501648     1.6201647745    -2.6594409992
| 22> *
| 23>
| 24>                          ****END OF INPUT****

CARTESIAN COORDINATES (ANGSTROEM)
---------------------------------
  O      0.095842    0.231278   -1.016562
  C      0.143709    1.084424   -0.163420
  C      1.284121    2.081276   -0.076877
  C      1.167694    3.141979   -1.209904
  C      2.508883    3.899070   -1.473311
  C      2.681112    2.946156   -2.681698
  N      1.244893    2.600038   -2.579966
  C     -0.013146    3.987581   -0.971401
  N     -0.931611    4.655778   -0.757336
  H     -0.671431    1.194497    0.581120
  H      1.297424    2.577969    0.898002
  H      2.225224    1.541208   -0.219406
  H      2.347062    4.937262   -1.762404
  H      3.246628    3.848660   -0.672290
  H      2.960216    3.403951   -3.634532
  H      3.369498    2.115814   -2.477235
  H      0.989950    1.620165   -2.659441

 Total Charge           Charge          ....    0
 Multiplicity           Mult            ....    1
 Number of Electrons    NEL             ....   66
 Basis Dimension        Dim             ....  327

ORBITAL ENERGIES
----------------

  NO   OCC          E(Eh)            E(eV)
   0   2.0000     -20.579944      -560.0088
   1   2.0000     -15.577305      -423.8800
   2   2.0000     -15.568535      -423.6414
   3   2.0000     -11.355048      -308.9866
   4   2.0000     -11.333875      -308.4104
   5   2.0000     -11.277576      -306.8784
   6   2.0000     -11.275195      -306.8137
   7   2.0000     -11.273646      -306.7715
   8   2.0000     -11.262099      -306.4573
   9   2.0000      -1.418734       -38.6057
  10   2.0000      -1.277870       -34.7726
  11   2.0000      -1.219325       -33.1795
  12   2.0000      -1.074505       -29.2388
  13   2.0000      -1.005381       -27.3578
  14   2.0000      -0.949829       -25.8462
  15   2.0000      -0.826608       -22.4931
  16   2.0000      -0.821415       -22.3518
  17   2.0000      -0.736574       -20.0432
  18   2.0000      -0.702577       -19.1181
  19   2.0000      -0.697294       -18.9743
  20   2.0000      -0.651149       -17.7187
  21   2.0000      -0.615500       -16.7486
  22   2.0000      -0.601800       -16.3758
  23   2.0000      -0.575016       -15.6470
  24   2.0000      -0.569705       -15.5024
  25   2.0000      -0.556449       -15.1418
  26   2.0000      -0.531037       -14.4503
  27   2.0000      -0.523759       -14.2522
  28   2.0000      -0.508323       -13.8322
  29   2.0000      -0.467038       -12.7088
  30   2.0000      -0.464470       -12.6389
  31   2.0000      -0.435600       -11.8533
  32   2.0000      -0.404590       -11.0094
  33   0.0000       0.097807         2.6615
  34   0.0000       0.126172         3.4333
  35   0.0000       0.141261         3.8439
  36   0.0000       0.144621         3.9353
  37   0.0000       0.158530         4.3138

MULLIKEN ATOMIC CHARGES
-----------------------
   0 O :   -0.276808
   1 C :    0.101220
   2 C :   -0.226931
   3 C :    0.249090
   4 C :   -0.239876
   5 C :   -0.151462
   6 N :   -0.332924
   7 C :   -0.226804
   8 N :   -0.042632
   9 H :    0.109923
  10 H :    0.143615
  11 H :    0.140838
  12 H :    0.145335
  13 H :    0.136266
  14 H :    0.121941
  15 H :    0.117130
  16 H :    0.232080
Sum of atomic charges:   -0.0000000

LOEWDIN ATOMIC CHARGES
----------------------
   0 O :    0.133847
   1 C :   -0.277076
   2 C :   -0.211378
   3 C :   -0.297746
   4 C :   -0.175960
   5 C :   -0.262669
   6 N :    0.048535
   7 C :   -0.147689
   8 N :    0.072240
   9 H :    0.118533
  10 H :    0.153069
  11 H :    0.158890
  12 H :    0.145163
  13 H :    0.133625
  14 H :    0.123256
  15 H :    0.119731
  16 H :    0.165629

  Mayer bond orders larger than 0.1
B(  0-O ,  1-C ) :   1.9292 B(  1-C ,  2-C ) :   0.8883 B(  1-C ,  9-H ) :   0.9329
B(  2-C ,  3-C ) :   0.9177 B(  2-C , 10-H ) :   0.9067 B(  2-C , 11-H ) :   0.8984
B(  3-C ,  4-C ) :   0.8629 B(  3-C ,  6-N ) :   1.0313 B(  3-C ,  7-C ) :   0.8932
B(  4-C ,  5-C ) :   0.9525 B(  4-C , 12-H ) :   0.9147 B(  4-C , 13-H ) :   0.9259
B(  5-C ,  6-N ) :   0.9666 B(  5-C , 14-H ) :   0.9169 B(  5-C , 15-H ) :   0.9246
B(  6-N , 16-H ) :   0.8660 B(  7-C ,  8-N ) :   2.8805

MP2 TOTAL ENERGY:     -417.293046604 Eh
FINAL SINGLE POINT ENERGY      -417.293046603836

DIPOLE MOMENT
-------------
                                X             Y             Z
Electronic contribution:     -6.11252      -0.17219       0.71178
Nuclear contribution   :      7.80646      -0.20858      -0.14187
                        -----------------------------------------
Total Dipole Moment    :      1.69394      -0.38077       0.56991
                        -----------------------------------------
Magnitude (a.u.)       :      1.82735
Magnitude (Debye)      :      4.64476

                             ****ORCA TERMINATED NORMALLY****
TOTAL RUN TIME: 0 days 0 hours 16 minutes 36 seconds 921 msec
