                         Program Version 3.0.3 - RELEASE   -
|  1> ! RI-MP2 RIJK def2-TZVP def2-TZVP/C def2-TZVP/JK TIGHTSCF
|  2> % maxcore 2000
|  3> % mp2 density relaxed end
|  4> *xyz 0 1
|  5>  C        0.3782603907     1.5362112392     0.1700427757
|  6>  C       -0.1514196752     0.1169844783    -0.0695248137
|  7>  C        0.4325215857    -0.5116656317    -1.3185946571
|  8>  C        1.7595185021    -1.2306390468    -1.2897097982
|  9>  C        0.4861714812    -2.0046954788    -1.5600244096
| 10>  C       -0.0410300669    -3.0257809081    -0.5669828211
| 11>  C        0.6541073057    -4.3618874881    -0.7318072101
| 12>  O        0.0944603674    -5.4174940120    -0.8802989697
| 13>  H        1.4669647507     1.5343008645     0.2865077361
| 14>  H        0.1370862938     2.1946306174    -0.6716390262
| 15>  H       -0.0582739949     1.9752265418     1.0723814578
| 16>  H        0.0736680718    -0.5013826160     0.8071344271
| 17>  H       -1.2460149027     0.1439172500    -0.1507862175
| 18>  H        0.2454246579     0.0731280863    -2.2170148869
| 19>  H        2.4654931417    -1.0818690668    -2.0991323735
| 20>  H        2.2260396776    -1.3655518642    -0.3176641181
| 21>  H        0.3337512826    -2.3018465150    -2.5947472825
| 22>  H        0.1523259332    -2.6869452447     0.4594652860
| 23>  H       -1.1192320696    -3.1837676582    -0.6706001863
| 24>  H        1.7670866772    -4.2994453871    -0.7134748622
| 25> *
| 26>
| 27>                          ****END OF INPUT****

CARTESIAN COORDINATES (ANGSTROEM)
---------------------------------
  C      0.378260    1.536211    0.170043
  C     -0.151420    0.116984   -0.069525
  C      0.432522   -0.511666   -1.318595
  C      1.759519   -1.230639   -1.289710
  C      0.486171   -2.004695   -1.560024
  C     -0.041030   -3.025781   -0.566983
  C      0.654107   -4.361887   -0.731807
  O      0.094460   -5.417494   -0.880299
  H      1.466965    1.534301    0.286508
  H      0.137086    2.194631   -0.671639
  H     -0.058274    1.975227    1.072381
  H      0.073668   -0.501383    0.807134
  H     -1.246015    0.143917   -0.150786
  H      0.245425    0.073128   -2.217015
  H      2.465493   -1.081869   -2.099132
  H      2.226040   -1.365552   -0.317664
  H      0.333751   -2.301847   -2.594747
  H      0.152326   -2.686945    0.459465
  H     -1.119232   -3.183768   -0.670600
  H      1.767087   -4.299445   -0.713475

 Total Charge           Charge          ....    0
 Multiplicity           Mult            ....    1
 Number of Electrons    NEL             ....   62
 Basis Dimension        Dim             ....  320

ORBITAL ENERGIES
----------------

  NO   OCC          E(Eh)            E(eV)
   0   2.0000     -20.553642      -559.2930
   1   2.0000     -11.328092      -308.2530
   2   2.0000     -11.245937      -306.0175
   3   2.0000     -11.242436      -305.9222
   4   2.0000     -11.240126      -305.8594
   5   2.0000     -11.233611      -305.6821
   6   2.0000     -11.231963      -305.6373
   7   2.0000     -11.219715      -305.3040
   8   2.0000      -1.392367       -37.8882
   9   2.0000      -1.164867       -31.6976
  10   2.0000      -1.042650       -28.3720
  11   2.0000      -1.008433       -27.4409
  12   2.0000      -0.877165       -23.8689
  13   2.0000      -0.828694       -22.5499
  14   2.0000      -0.790618       -21.5138
  15   2.0000      -0.762556       -20.7502
  16   2.0000      -0.692021       -18.8309
  17   2.0000      -0.658550       -17.9200
  18   2.0000      -0.629371       -17.1260
  19   2.0000      -0.623009       -16.9529
  20   2.0000      -0.606263       -16.4973
  21   2.0000      -0.568334       -15.4651
  22   2.0000      -0.554212       -15.0809
  23   2.0000      -0.534330       -14.5399
  24   2.0000      -0.529084       -14.3971
  25   2.0000      -0.501971       -13.6593
  26   2.0000      -0.500345       -13.6151
  27   2.0000      -0.475230       -12.9317
  28   2.0000      -0.436909       -11.8889
  29   2.0000      -0.416799       -11.3417
  30   2.0000      -0.395667       -10.7667
  31   0.0000       0.132226         3.5980
  32   0.0000       0.136001         3.7008
  33   0.0000       0.146089         3.9753
  34   0.0000       0.157781         4.2934
  35   0.0000       0.159075         4.3286

MULLIKEN ATOMIC CHARGES
-----------------------
   0 C :   -0.388782
   1 C :   -0.200047
   2 C :   -0.079227
   3 C :   -0.310839
   4 C :   -0.121711
   5 C :   -0.170342
   6 C :    0.096698
   7 O :   -0.265246
   8 H :    0.128355
   9 H :    0.123270
  10 H :    0.134796
  11 H :    0.096633
  12 H :    0.117720
  13 H :    0.118565
  14 H :    0.137459
  15 H :    0.126968
  16 H :    0.127612
  17 H :    0.122450
  18 H :    0.128072
  19 H :    0.077595
Sum of atomic charges:    0.0000000

LOEWDIN ATOMIC CHARGES
----------------------
   0 C :   -0.313137
   1 C :   -0.275254
   2 C :   -0.210834
   3 C :   -0.209975
   4 C :   -0.207823
   5 C :   -0.244497
   6 C :   -0.290722
   7 O :    0.128958
   8 H :    0.122096
   9 H :    0.121225
  10 H :    0.120681
  11 H :    0.136043
  12 H :    0.139821
  13 H :    0.151307
  14 H :    0.131412
  15 H :    0.135639
  16 H :    0.152180
  17 H :    0.153483
  18 H :    0.148227
  19 H :    0.111168

  Mayer bond orders larger than 0.1
B(  0-C ,  1-C ) :   0.9221 B(  0-C ,  8-H ) :   0.9390 B(  0-C ,  9-H ) :   0.9386
B(  0-C , 10-H ) :   0.9410 B(  1-C ,  2-C ) :   0.9269 B(  1-C , 11-H ) :   0.9316
B(  1-C , 12-H ) :   0.9338 B(  2-C ,  3-C ) :   0.8902 B(  2-C ,  4-C ) :   0.8561
B(  2-C , 13-H ) :   0.9254 B(  3-C ,  4-C ) :   0.8960 B(  3-C , 14-H ) :   0.9259
B(  3-C , 15-H ) :   0.9252 B(  4-C ,  5-C ) :   0.8884 B(  4-C , 16-H ) :   0.9251
B(  5-C ,  6-C ) :   0.8809 B(  5-C , 17-H ) :   0.9155 B(  5-C , 18-H ) :   0.9089
B(  6-C ,  7-O ) :   1.9998 B(  6-C , 19-H ) :   0.9383

MP2 TOTAL ENERGY:     -348.392153514 Eh
FINAL SINGLE POINT ENERGY      -348.392153514146

DIPOLE MOMENT
-------------
                                X             Y             Z
Electronic contribution:     -0.70657     -10.98342      -2.06598
Nuclear contribution   :      0.99600      12.12513       2.18144
                        -----------------------------------------
Total Dipole Moment    :      0.28943       1.14171       0.11546
                        -----------------------------------------
Magnitude (a.u.)       :      1.18347
Magnitude (Debye)      :      3.00814

                             ****ORCA TERMINATED NORMALLY****
TOTAL RUN TIME: 0 days 0 hours 12 minutes 57 seconds 527 msec
