                         Program Version 3.0.3 - RELEASE   -
|  1> ! RI-MP2 RIJK def2-TZVP def2-TZVP/C def2-TZVP/JK TIGHTSCF
|  2> % maxcore 2000
|  3> % mp2 density relaxed end
|  4> *xyz 0 1
|  5>  C       -0.0376881273     1.2941383012     0.4005370196
|  6>  C       -0.0848753810    -0.0522499298    -0.2676714769
|  7>  O        0.8315184440    -0.5172446404    -0.9119764827
|  8>  C       -1.3629557407    -0.8710211311    -0.1030931299
|  9>  N       -2.2989708183    -0.4045733204     0.6320554659
| 10>  N       -1.3044022649    -2.0364615039    -0.8194995914
| 11>  C       -2.3197054154    -3.0525063422    -0.7781807124
| 12>  C       -2.3425900403    -3.8371622190     0.4742989800
| 13>  N       -2.3563575008    -4.4487144754     1.4540238440
| 14>  H        0.9237528877     1.7659860329     0.1973505637
| 15>  H       -0.8597546100     1.9198884467     0.0414492170
| 16>  H       -0.1930318960     1.1809762485     1.4771272218
| 17>  H       -3.0964257216    -1.0360849005     0.7181315335
| 18>  H       -0.3973169122    -2.2426110710    -1.2149596978
| 19>  H       -3.3110976899    -2.6028047995    -0.9178450940
| 20>  H       -2.1683010132    -3.7409378761    -1.6142957504
| 21> *
| 22>
| 23>                          ****END OF INPUT****

CARTESIAN COORDINATES (ANGSTROEM)
---------------------------------
  C     -0.037688    1.294138    0.400537
  C     -0.084875   -0.052250   -0.267671
  O      0.831518   -0.517245   -0.911976
  C     -1.362956   -0.871021   -0.103093
  N     -2.298971   -0.404573    0.632055
  N     -1.304402   -2.036462   -0.819500
  C     -2.319705   -3.052506   -0.778181
  C     -2.342590   -3.837162    0.474299
  N     -2.356358   -4.448714    1.454024
  H      0.923753    1.765986    0.197351
  H     -0.859755    1.919888    0.041449
  H     -0.193032    1.180976    1.477127
  H     -3.096426   -1.036085    0.718132
  H     -0.397317   -2.242611   -1.214960
  H     -3.311098   -2.602805   -0.917845
  H     -2.168301   -3.740938   -1.614296

 Total Charge           Charge          ....    0
 Multiplicity           Mult            ....    1
 Number of Electrons    NEL             ....   66
 Basis Dimension        Dim             ....  321

ORBITAL ENERGIES
----------------

  NO   OCC          E(Eh)            E(eV)
   0   2.0000     -20.577887      -559.9528
   1   2.0000     -15.611187      -424.8020
   2   2.0000     -15.588018      -424.1715
   3   2.0000     -15.561840      -423.4592
   4   2.0000     -11.359085      -309.0964
   5   2.0000     -11.344732      -308.7059
   6   2.0000     -11.344035      -308.6869
   7   2.0000     -11.287520      -307.1490
   8   2.0000     -11.240327      -305.8648
   9   2.0000      -1.422980       -38.7212
  10   2.0000      -1.309294       -35.6277
  11   2.0000      -1.233843       -33.5746
  12   2.0000      -1.194877       -32.5143
  13   2.0000      -1.039299       -28.2808
  14   2.0000      -1.023523       -27.8515
  15   2.0000      -0.885242       -24.0887
  16   2.0000      -0.786888       -21.4123
  17   2.0000      -0.749584       -20.3972
  18   2.0000      -0.729814       -19.8592
  19   2.0000      -0.711110       -19.3503
  20   2.0000      -0.650500       -17.7010
  21   2.0000      -0.635278       -17.2868
  22   2.0000      -0.621068       -16.9001
  23   2.0000      -0.618683       -16.8352
  24   2.0000      -0.578016       -15.7286
  25   2.0000      -0.561504       -15.2793
  26   2.0000      -0.546219       -14.8634
  27   2.0000      -0.508209       -13.8291
  28   2.0000      -0.488076       -13.2812
  29   2.0000      -0.483625       -13.1601
  30   2.0000      -0.477593       -12.9960
  31   2.0000      -0.432143       -11.7592
  32   2.0000      -0.395747       -10.7688
  33   0.0000       0.079910         2.1744
  34   0.0000       0.109605         2.9825
  35   0.0000       0.141554         3.8519
  36   0.0000       0.147629         4.0172
  37   0.0000       0.158329         4.3083

MULLIKEN ATOMIC CHARGES
-----------------------
   0 C :   -0.364344
   1 C :    0.239390
   2 O :   -0.314410
   3 C :    0.125478
   4 N :   -0.389476
   5 N :   -0.288611
   6 C :   -0.153720
   7 C :   -0.125274
   8 N :   -0.053131
   9 H :    0.153773
  10 H :    0.155622
  11 H :    0.161194
  12 H :    0.210609
  13 H :    0.269026
  14 H :    0.188506
  15 H :    0.185368
Sum of atomic charges:    0.0000000

LOEWDIN ATOMIC CHARGES
----------------------
   0 C :   -0.267766
   1 C :   -0.298742
   2 O :    0.148720
   3 C :   -0.362158
   4 N :   -0.043883
   5 N :    0.111009
   6 C :   -0.277279
   7 C :   -0.193637
   8 N :    0.072100
   9 H :    0.133733
  10 H :    0.146280
  11 H :    0.148154
  12 H :    0.157434
  13 H :    0.199949
  14 H :    0.160752
  15 H :    0.165336

  Mayer bond orders larger than 0.1
B(  0-C ,  1-C ) :   0.9542 B(  0-C ,  9-H ) :   0.9358 B(  0-C , 10-H ) :   0.9054
B(  0-C , 11-H ) :   0.9033 B(  1-C ,  2-O ) :   1.8849 B(  1-C ,  3-C ) :   0.8877
B(  3-C ,  4-N ) :   1.9106 B(  3-C ,  5-N ) :   1.1337 B(  4-N , 12-H ) :   0.8629
B(  5-N ,  6-C ) :   0.9194 B(  5-N , 13-H ) :   0.8358 B(  6-C ,  7-C ) :   0.8598
B(  6-C , 14-H ) :   0.9350 B(  6-C , 15-H ) :   0.9114 B(  7-C ,  8-N ) :   2.8406

MP2 TOTAL ENERGY:     -433.372261874 Eh
FINAL SINGLE POINT ENERGY      -433.372261873691

DIPOLE MOMENT
-------------
                                X             Y             Z
Electronic contribution:      0.13322      -5.15079      -0.02541
Nuclear contribution   :     -0.48174       5.39985      -1.16109
                        -----------------------------------------
Total Dipole Moment    :     -0.34851       0.24907      -1.18651
                        -----------------------------------------
Magnitude (a.u.)       :      1.26146
Magnitude (Debye)      :      3.20639

                             ****ORCA TERMINATED NORMALLY****
TOTAL RUN TIME: 0 days 0 hours 15 minutes 10 seconds 102 msec
