                         Program Version 3.0.3 - RELEASE   -
|  1> ! RI-MP2 RIJK def2-TZVP def2-TZVP/C def2-TZVP/JK TIGHTSCF
|  2> % maxcore 2000
|  3> % mp2 density relaxed end
|  4> *xyz 0 1
|  5>  C       -0.3088626652     1.4590046986    -0.6501343548
|  6>  C        0.0458845322     0.2484102987     0.2228035720
|  7>  C       -1.1823889252    -0.5462762693     0.5978063537
|  8>  O       -1.7911635597    -1.3445231996    -0.4273825028
|  9>  C       -1.2557707541    -2.0107110437     0.7256745614
| 10>  C       -0.1071295999    -2.9669189492     0.4928868906
| 11>  C       -0.5986349067    -4.2709979901    -0.0940551510
| 12>  C        0.0102445359    -5.5613898643     0.2454871783
| 13>  O       -1.2405749663    -5.1715376060     0.8155949687
| 14>  H        0.5857583005     2.0290625925    -0.9170129145
| 15>  H       -0.7967116330     1.1340566418    -1.5737975696
| 16>  H       -0.9946996412     2.1358068461    -0.1290949291
| 17>  H        0.7603500264    -0.3886817117    -0.3063480284
| 18>  H        0.5376875989     0.5824651903     1.1458309980
| 19>  H       -1.9103741946     0.0235568043     1.1823115791
| 20>  H       -2.0232640531    -2.4109488693     1.3912705745
| 21>  H        0.6274663307    -2.5227355020    -0.1856901205
| 22>  H        0.3925417326    -3.1720696819     1.4473490869
| 23>  H       -1.1057865508    -4.1797173260    -1.0553066252
| 24>  H       -0.0344552679    -6.3876612959    -0.4625344169
| 25>  H        0.8505637106    -5.5909209132     0.9387260696
| 26> *
| 27>
| 28>                          ****END OF INPUT****

CARTESIAN COORDINATES (ANGSTROEM)
---------------------------------
  C     -0.308863    1.459005   -0.650134
  C      0.045885    0.248410    0.222804
  C     -1.182389   -0.546276    0.597806
  O     -1.791164   -1.344523   -0.427383
  C     -1.255771   -2.010711    0.725675
  C     -0.107130   -2.966919    0.492887
  C     -0.598635   -4.270998   -0.094055
  C      0.010245   -5.561390    0.245487
  O     -1.240575   -5.171538    0.815595
  H      0.585758    2.029063   -0.917013
  H     -0.796712    1.134057   -1.573798
  H     -0.994700    2.135807   -0.129095
  H      0.760350   -0.388682   -0.306348
  H      0.537688    0.582465    1.145831
  H     -1.910374    0.023557    1.182312
  H     -2.023264   -2.410949    1.391271
  H      0.627466   -2.522736   -0.185690
  H      0.392542   -3.172070    1.447349
  H     -1.105787   -4.179717   -1.055307
  H     -0.034455   -6.387661   -0.462534
  H      0.850564   -5.590921    0.938726

 Total Charge           Charge          ....    0
 Multiplicity           Mult            ....    1
 Number of Electrons    NEL             ....   70
 Basis Dimension        Dim             ....  351

ORBITAL ENERGIES
----------------

  NO   OCC          E(Eh)            E(eV)
   0   2.0000     -20.567457      -559.6690
   1   2.0000     -20.561467      -559.5060
   2   2.0000     -11.288623      -307.1790
   3   2.0000     -11.285276      -307.0880
   4   2.0000     -11.284398      -307.0641
   5   2.0000     -11.283718      -307.0456
   6   2.0000     -11.238870      -305.8252
   7   2.0000     -11.232189      -305.6434
   8   2.0000     -11.218360      -305.2671
   9   2.0000      -1.411385       -38.4057
  10   2.0000      -1.404931       -38.2301
  11   2.0000      -1.053645       -28.6711
  12   2.0000      -1.046727       -28.4829
  13   2.0000      -0.931548       -25.3487
  14   2.0000      -0.910368       -24.7724
  15   2.0000      -0.858045       -23.3486
  16   2.0000      -0.817627       -22.2488
  17   2.0000      -0.777680       -21.1617
  18   2.0000      -0.710494       -19.3335
  19   2.0000      -0.685437       -18.6517
  20   2.0000      -0.648586       -17.6489
  21   2.0000      -0.638027       -17.3616
  22   2.0000      -0.616802       -16.7840
  23   2.0000      -0.585045       -15.9199
  24   2.0000      -0.559613       -15.2278
  25   2.0000      -0.543031       -14.7766
  26   2.0000      -0.536673       -14.6036
  27   2.0000      -0.523749       -14.2519
  28   2.0000      -0.515232       -14.0202
  29   2.0000      -0.498184       -13.5563
  30   2.0000      -0.486416       -13.2361
  31   2.0000      -0.458890       -12.4870
  32   2.0000      -0.445898       -12.1335
  33   2.0000      -0.430044       -11.7021
  34   2.0000      -0.416541       -11.3347
  35   0.0000       0.141806         3.8587
  36   0.0000       0.155671         4.2360
  37   0.0000       0.163556         4.4506
  38   0.0000       0.171748         4.6735
  39   0.0000       0.185313         5.0426

MULLIKEN ATOMIC CHARGES
-----------------------
   0 C :   -0.396195
   1 C :   -0.194679
   2 C :    0.051145
   3 O :   -0.349684
   4 C :    0.018545
   5 C :   -0.234058
   6 C :    0.040729
   7 C :   -0.072500
   8 O :   -0.338835
   9 H :    0.133801
  10 H :    0.142841
  11 H :    0.123475
  12 H :    0.107791
  13 H :    0.110157
  14 H :    0.113636
  15 H :    0.130087
  16 H :    0.122103
  17 H :    0.123174
  18 H :    0.137295
  19 H :    0.118109
  20 H :    0.113063
Sum of atomic charges:   -0.0000000

LOEWDIN ATOMIC CHARGES
----------------------
   0 C :   -0.312101
   1 C :   -0.277975
   2 C :   -0.269349
   3 O :    0.154328
   4 C :   -0.261412
   5 C :   -0.235664
   6 C :   -0.286387
   7 C :   -0.268007
   8 O :    0.139558
   9 H :    0.120996
  10 H :    0.126932
  11 H :    0.121502
  12 H :    0.138056
  13 H :    0.142653
  14 H :    0.139510
  15 H :    0.144245
  16 H :    0.148677
  17 H :    0.153005
  18 H :    0.142702
  19 H :    0.119427
  20 H :    0.119303

  Mayer bond orders larger than 0.1
B(  0-C ,  1-C ) :   0.9242 B(  0-C ,  9-H ) :   0.9404 B(  0-C , 10-H ) :   0.9363
B(  0-C , 11-H ) :   0.9378 B(  1-C ,  2-C ) :   0.9069 B(  1-C , 12-H ) :   0.9393
B(  1-C , 13-H ) :   0.9236 B(  2-C ,  3-O ) :   0.8750 B(  2-C ,  4-C ) :   0.9816
B(  2-C , 14-H ) :   0.9124 B(  3-O ,  4-C ) :   0.8797 B(  4-C ,  5-C ) :   0.9067
B(  4-C , 15-H ) :   0.9189 B(  5-C ,  6-C ) :   0.9299 B(  5-C , 16-H ) :   0.9328
B(  5-C , 17-H ) :   0.9235 B(  6-C ,  7-C ) :   0.9803 B(  6-C ,  8-O ) :   0.8656
B(  6-C , 18-H ) :   0.9155 B(  7-C ,  8-O ) :   0.9187 B(  7-C , 19-H ) :   0.9230
B(  7-C , 20-H ) :   0.9073

MP2 TOTAL ENERGY:     -423.476249464 Eh
FINAL SINGLE POINT ENERGY      -423.476249463786

DIPOLE MOMENT
-------------
                                X             Y             Z
Electronic contribution:     -4.18694      -7.30761       1.07006
Nuclear contribution   :      5.17734       7.59774      -0.91725
                        -----------------------------------------
Total Dipole Moment    :      0.99039       0.29013       0.15280
                        -----------------------------------------
Magnitude (a.u.)       :      1.04327
Magnitude (Debye)      :      2.65178

                             ****ORCA TERMINATED NORMALLY****
TOTAL RUN TIME: 0 days 0 hours 24 minutes 13 seconds 112 msec
