                         Program Version 3.0.3 - RELEASE   -
|  1> ! RI-MP2 RIJK def2-TZVP def2-TZVP/C def2-TZVP/JK TIGHTSCF
|  2> % maxcore 2000
|  3> % mp2 density relaxed end
|  4> *xyz 0 1
|  5>  N       -0.1095642400     1.3346586244    -0.2015820214
|  6>  C       -0.0235772592    -0.0469085781    -0.0876955770
|  7>  O        0.9306313087    -0.6857989087    -0.4915149341
|  8>  N       -1.1141396063    -0.6202077642     0.5590420467
|  9>  C       -2.5562385115    -0.3630685845     0.1275038324
| 10>  C       -2.3453180870    -1.4702937516    -0.9566481329
| 11>  C       -1.4839302900    -2.0480468338     0.2183023921
| 12>  C       -2.5704993376    -2.2865460076     1.2759637855
| 13>  C       -3.2859720968    -1.1606215142     1.2174061284
| 14>  H        0.7792185523     1.7638090145    -0.4123254511
| 15>  H       -0.6459417548     1.8179174513     0.5032349699
| 16>  H       -2.8531519278     0.6583511203    -0.1015738420
| 17>  H       -3.2193657085    -2.0383570592    -1.2825348721
| 18>  H       -1.7368649863    -1.1377386352    -1.8017605774
| 19>  H       -0.6671104351    -2.7488551993     0.0759086095
| 20>  H       -2.6801717749    -3.1605030929     1.9003517792
| 21>  H       -4.1516526853    -0.8418079214     1.7786402742
| 22> *
| 23>
| 24>                          ****END OF INPUT****

CARTESIAN COORDINATES (ANGSTROEM)
---------------------------------
  N     -0.109564    1.334659   -0.201582
  C     -0.023577   -0.046909   -0.087696
  O      0.930631   -0.685799   -0.491515
  N     -1.114140   -0.620208    0.559042
  C     -2.556239   -0.363069    0.127504
  C     -2.345318   -1.470294   -0.956648
  C     -1.483930   -2.048047    0.218302
  C     -2.570499   -2.286546    1.275964
  C     -3.285972   -1.160622    1.217406
  H      0.779219    1.763809   -0.412325
  H     -0.645942    1.817917    0.503235
  H     -2.853152    0.658351   -0.101574
  H     -3.219366   -2.038357   -1.282535
  H     -1.736865   -1.137739   -1.801761
  H     -0.667110   -2.748855    0.075909
  H     -2.680172   -3.160503    1.900352
  H     -4.151653   -0.841808    1.778640

 Total Charge           Charge          ....    0
 Multiplicity           Mult            ....    1
 Number of Electrons    NEL             ....   66
 Basis Dimension        Dim             ....  327

ORBITAL ENERGIES
----------------

  NO   OCC          E(Eh)            E(eV)
   0   2.0000     -20.509716      -558.0977
   1   2.0000     -15.575527      -423.8316
   2   2.0000     -15.573222      -423.7689
   3   2.0000     -11.367622      -309.3287
   4   2.0000     -11.292383      -307.2814
   5   2.0000     -11.281713      -306.9910
   6   2.0000     -11.242802      -305.9322
   7   2.0000     -11.240617      -305.8727
   8   2.0000     -11.238852      -305.8247
   9   2.0000      -1.389003       -37.7967
  10   2.0000      -1.285211       -34.9724
  11   2.0000      -1.203438       -32.7472
  12   2.0000      -1.082344       -29.4521
  13   2.0000      -0.973588       -26.4927
  14   2.0000      -0.943165       -25.6648
  15   2.0000      -0.840789       -22.8790
  16   2.0000      -0.754853       -20.5406
  17   2.0000      -0.741314       -20.1722
  18   2.0000      -0.732133       -19.9224
  19   2.0000      -0.691959       -18.8292
  20   2.0000      -0.660805       -17.9814
  21   2.0000      -0.637092       -17.3362
  22   2.0000      -0.602485       -16.3945
  23   2.0000      -0.586615       -15.9626
  24   2.0000      -0.559994       -15.2382
  25   2.0000      -0.525224       -14.2921
  26   2.0000      -0.519226       -14.1288
  27   2.0000      -0.512596       -13.9484
  28   2.0000      -0.462858       -12.5950
  29   2.0000      -0.442046       -12.0287
  30   2.0000      -0.422501       -11.4968
  31   2.0000      -0.382568       -10.4102
  32   2.0000      -0.357947        -9.7402
  33   0.0000       0.128067         3.4849
  34   0.0000       0.131738         3.5848
  35   0.0000       0.163904         4.4600
  36   0.0000       0.172320         4.6891
  37   0.0000       0.177602         4.8328

MULLIKEN ATOMIC CHARGES
-----------------------
   0 N :   -0.520161
   1 C :    0.301099
   2 O :   -0.377406
   3 N :   -0.165927
   4 C :   -0.009720
   5 C :   -0.219227
   6 C :    0.008896
   7 C :   -0.191408
   8 C :   -0.199278
   9 H :    0.261883
  10 H :    0.257558
  11 H :    0.143673
  12 H :    0.118022
  13 H :    0.141380
  14 H :    0.164676
  15 H :    0.143725
  16 H :    0.142213
Sum of atomic charges:    0.0000000

LOEWDIN ATOMIC CHARGES
----------------------
   0 N :   -0.061330
   1 C :   -0.568793
   2 O :    0.064885
   3 N :    0.194719
   4 C :   -0.185513
   5 C :   -0.177354
   6 C :   -0.174353
   7 C :   -0.122067
   8 C :   -0.129451
   9 H :    0.174772
  10 H :    0.169501
  11 H :    0.133437
  12 H :    0.128251
  13 H :    0.139518
  14 H :    0.142755
  15 H :    0.136137
  16 H :    0.134886

  Mayer bond orders larger than 0.1
B(  0-N ,  1-C ) :   1.0821 B(  0-N ,  9-H ) :   0.8682 B(  0-N , 10-H ) :   0.8651
B(  1-C ,  2-O ) :   1.9561 B(  1-C ,  3-N ) :   1.0965 B(  3-N ,  4-C ) :   0.8248
B(  3-N ,  6-C ) :   0.8469 B(  4-C ,  5-C ) :   0.9363 B(  4-C ,  8-C ) :   0.9298
B(  4-C , 11-H ) :   0.9067 B(  5-C ,  6-C ) :   0.9354 B(  5-C , 12-H ) :   0.9121
B(  5-C , 13-H ) :   0.9201 B(  6-C ,  7-C ) :   0.9308 B(  6-C , 14-H ) :   0.8993
B(  7-C ,  8-C ) :   1.7708 B(  7-C , 15-H ) :   0.9291 B(  8-C , 16-H ) :   0.9295

MP2 TOTAL ENERGY:     -417.288339781 Eh
FINAL SINGLE POINT ENERGY      -417.288339781127

DIPOLE MOMENT
-------------
                                X             Y             Z
Electronic contribution:      3.07138       0.11594       0.84656
Nuclear contribution   :     -4.22796       0.43870      -0.56102
                        -----------------------------------------
Total Dipole Moment    :     -1.15658       0.55463       0.28554
                        -----------------------------------------
Magnitude (a.u.)       :      1.31409
Magnitude (Debye)      :      3.34014

                             ****ORCA TERMINATED NORMALLY****
TOTAL RUN TIME: 0 days 0 hours 17 minutes 55 seconds 506 msec
