                         Program Version 3.0.3 - RELEASE   -
|  1> ! RI-MP2 RIJK def2-TZVP def2-TZVP/C def2-TZVP/JK TIGHTSCF
|  2> % maxcore 2000
|  3> % mp2 density relaxed end
|  4> *xyz 0 1
|  5>  C       -0.2226152580     1.5270016343    -0.1002589442
|  6>  C       -0.0636909940     0.0441457798    -0.0545340049
|  7>  N       -0.0515485423    -0.7645693034    -1.1042729480
|  8>  C        0.1116811335    -1.9922750197    -0.5440841222
|  9>  N        0.1997113601    -2.0035050184     0.7739736656
| 10>  N        0.0818190353    -0.6828944119     1.0809715170
| 11>  C        0.1709519412    -0.2556953315     2.4630322421
| 12>  C        1.6093165194    -0.3287895912     2.9986918184
| 13>  O        1.6752050459     0.0990305433     4.3451793870
| 14>  H        0.6423739278     2.0459494829     0.3261780763
| 15>  H       -0.3273382632     1.8287685176    -1.1427177505
| 16>  H       -1.1116555447     1.8578695138     0.4475992508
| 17>  H        0.1631818798    -2.9029497181    -1.1223913071
| 18>  H       -0.2004099742     0.7686156338     2.5389918434
| 19>  H       -0.4822775973    -0.8997713788     3.0604445781
| 20>  H        1.9941520641    -1.3473344681     2.8592893150
| 21>  H        2.2500348704     0.3486368384     2.4244766727
| 22>  H        1.3193625662    -0.6016363629     4.9006835904
| 23> *
| 24>
| 25>                          ****END OF INPUT****

CARTESIAN COORDINATES (ANGSTROEM)
---------------------------------
  C     -0.222615    1.527002   -0.100259
  C     -0.063691    0.044146   -0.054534
  N     -0.051549   -0.764569   -1.104273
  C      0.111681   -1.992275   -0.544084
  N      0.199711   -2.003505    0.773974
  N      0.081819   -0.682894    1.080972
  C      0.170952   -0.255695    2.463032
  C      1.609317   -0.328790    2.998692
  O      1.675205    0.099031    4.345179
  H      0.642374    2.045949    0.326178
  H     -0.327338    1.828769   -1.142718
  H     -1.111656    1.857870    0.447599
  H      0.163182   -2.902950   -1.122391
  H     -0.200410    0.768616    2.538992
  H     -0.482278   -0.899771    3.060445
  H      1.994152   -1.347334    2.859289
  H      2.250035    0.348637    2.424477
  H      1.319363   -0.601636    4.900684

 Total Charge           Charge          ....    0
 Multiplicity           Mult            ....    1
 Number of Electrons    NEL             ....   68
 Basis Dimension        Dim             ....  333

ORBITAL ENERGIES
----------------

  NO   OCC          E(Eh)            E(eV)
   0   2.0000     -20.571836      -559.7881
   1   2.0000     -15.645135      -425.7258
   2   2.0000     -15.586234      -424.1230
   3   2.0000     -15.548145      -423.0865
   4   2.0000     -11.318883      -308.0025
   5   2.0000     -11.290941      -307.2421
   6   2.0000     -11.285681      -307.0990
   7   2.0000     -11.281827      -306.9941
   8   2.0000     -11.250373      -306.1382
   9   2.0000      -1.409435       -38.3527
  10   2.0000      -1.376834       -37.4656
  11   2.0000      -1.205026       -32.7904
  12   2.0000      -1.136715       -30.9316
  13   2.0000      -1.028548       -27.9882
  14   2.0000      -0.982422       -26.7331
  15   2.0000      -0.885589       -24.0981
  16   2.0000      -0.832947       -22.6656
  17   2.0000      -0.781222       -21.2581
  18   2.0000      -0.715642       -19.4736
  19   2.0000      -0.704662       -19.1748
  20   2.0000      -0.670830       -18.2542
  21   2.0000      -0.636802       -17.3283
  22   2.0000      -0.608651       -16.5622
  23   2.0000      -0.592433       -16.1209
  24   2.0000      -0.584492       -15.9048
  25   2.0000      -0.573402       -15.6031
  26   2.0000      -0.566048       -15.4030
  27   2.0000      -0.561307       -15.2739
  28   2.0000      -0.505040       -13.7428
  29   2.0000      -0.494752       -13.4629
  30   2.0000      -0.468633       -12.7522
  31   2.0000      -0.442046       -12.0287
  32   2.0000      -0.398395       -10.8409
  33   2.0000      -0.359169        -9.7735
  34   0.0000       0.121125         3.2960
  35   0.0000       0.133231         3.6254
  36   0.0000       0.147179         4.0049
  37   0.0000       0.167362         4.5542
  38   0.0000       0.185753         5.0546

MULLIKEN ATOMIC CHARGES
-----------------------
   0 C :   -0.459154
   1 C :    0.159319
   2 N :   -0.316091
   3 C :    0.038162
   4 N :   -0.281183
   5 N :    0.089451
   6 C :   -0.182742
   7 C :   -0.062156
   8 O :   -0.468067
   9 H :    0.151380
  10 H :    0.174202
  11 H :    0.152884
  12 H :    0.141086
  13 H :    0.146448
  14 H :    0.138387
  15 H :    0.137952
  16 H :    0.117655
  17 H :    0.322468
Sum of atomic charges:   -0.0000000

LOEWDIN ATOMIC CHARGES
----------------------
   0 C :   -0.273166
   1 C :   -0.335362
   2 N :    0.093688
   3 C :   -0.346816
   4 N :    0.036468
   5 N :    0.206505
   6 C :   -0.257818
   7 C :   -0.345376
   8 O :   -0.039655
   9 H :    0.133949
  10 H :    0.145965
  11 H :    0.134397
  12 H :    0.129980
  13 H :    0.144376
  14 H :    0.141111
  15 H :    0.123994
  16 H :    0.129923
  17 H :    0.177835

  Mayer bond orders larger than 0.1
B(  0-C ,  1-C ) :   0.8423 B(  0-C ,  9-H ) :   0.9337 B(  0-C , 10-H ) :   0.9430
B(  0-C , 11-H ) :   0.9377 B(  1-C ,  2-N ) :   1.5268 B(  1-C ,  5-N ) :   1.2555
B(  2-N ,  3-C ) :   1.2900 B(  3-C ,  4-N ) :   1.4832 B(  3-C , 12-H ) :   0.9362
B(  4-N ,  5-N ) :   1.0005 B(  5-N ,  6-C ) :   0.8520 B(  6-C ,  7-C ) :   0.9140
B(  6-C , 13-H ) :   0.9129 B(  6-C , 14-H ) :   0.9166 B(  7-C ,  8-O ) :   0.9594
B(  7-C , 15-H ) :   0.9464 B(  7-C , 16-H ) :   0.9186 B(  8-O , 17-H ) :   0.8444

MP2 TOTAL ENERGY:     -434.577075529 Eh
FINAL SINGLE POINT ENERGY      -434.577075529122

DIPOLE MOMENT
-------------
                                X             Y             Z
Electronic contribution:     -0.64457      -4.48830      -2.53167
Nuclear contribution   :      0.43889       4.86033       3.36943
                        -----------------------------------------
Total Dipole Moment    :     -0.20569       0.37202       0.83776
                        -----------------------------------------
Magnitude (a.u.)       :      0.93944
Magnitude (Debye)      :      2.38787

                             ****ORCA TERMINATED NORMALLY****
TOTAL RUN TIME: 0 days 0 hours 16 minutes 13 seconds 119 msec
