                         Program Version 3.0.3 - RELEASE   -
|  1> ! RI-MP2 RIJK def2-TZVP def2-TZVP/C def2-TZVP/JK TIGHTSCF
|  2> % maxcore 2000
|  3> % mp2 density relaxed end
|  4> *xyz 0 1
|  5>  C        0.3302720573     1.4390490312    -0.2891495582
|  6>  C        0.0572630103    -0.0366986565     0.0041834470
|  7>  O        0.5631245483    -0.8494484604    -1.0615253098
|  8>  C        1.4579758820    -1.8530305325    -0.5564226913
|  9>  C        2.7970892446    -1.6991820804    -1.2853716572
| 10>  O        2.6193202614    -1.7614029764    -2.6851317184
| 11>  C        1.5013053834    -1.6051573030     0.9219440462
| 12>  C        0.7234916885    -0.5769047154     1.2521651653
| 13>  C        0.4640301007    -0.0003376208     2.6066276075
| 14>  H        1.4063311563     1.6370879339    -0.3062553497
| 15>  H       -0.0885632744     1.7080802950    -1.2628135311
| 16>  H       -0.1337301299     2.0795672810     0.4679771259
| 17>  H       -1.0355492148    -0.1818224339     0.0647752812
| 18>  H        1.0462397327    -2.8445140778    -0.8056665189
| 19>  H        3.2620339986    -0.7493339482    -0.9743361560
| 20>  H        3.4744212190    -2.5149096491    -1.0080602045
| 21>  H        1.9028705272    -1.1446136295    -2.8801458286
| 22>  H        2.0955035436    -2.2022860110     1.6033321224
| 23>  H        0.9940511526    -0.5552144255     3.3846567986
| 24>  H        0.7794590687     1.0484288875     2.6634507600
| 25>  H       -0.6071039661    -0.0182497582     2.8447495796
| 26> *
| 27>
| 28>                          ****END OF INPUT****

CARTESIAN COORDINATES (ANGSTROEM)
---------------------------------
  C      0.330272    1.439049   -0.289150
  C      0.057263   -0.036699    0.004183
  O      0.563125   -0.849448   -1.061525
  C      1.457976   -1.853031   -0.556423
  C      2.797089   -1.699182   -1.285372
  O      2.619320   -1.761403   -2.685132
  C      1.501305   -1.605157    0.921944
  C      0.723492   -0.576905    1.252165
  C      0.464030   -0.000338    2.606628
  H      1.406331    1.637088   -0.306255
  H     -0.088563    1.708080   -1.262814
  H     -0.133730    2.079567    0.467977
  H     -1.035549   -0.181822    0.064775
  H      1.046240   -2.844514   -0.805667
  H      3.262034   -0.749334   -0.974336
  H      3.474421   -2.514910   -1.008060
  H      1.902871   -1.144614   -2.880146
  H      2.095504   -2.202286    1.603332
  H      0.994051   -0.555214    3.384657
  H      0.779459    1.048429    2.663451
  H     -0.607104   -0.018250    2.844750

 Total Charge           Charge          ....    0
 Multiplicity           Mult            ....    1
 Number of Electrons    NEL             ....   70
 Basis Dimension        Dim             ....  351

ORBITAL ENERGIES
----------------

  NO   OCC          E(Eh)            E(eV)
   0   2.0000     -20.555070      -559.3319
   1   2.0000     -20.544240      -559.0372
   2   2.0000     -11.288947      -307.1879
   3   2.0000     -11.281560      -306.9868
   4   2.0000     -11.268833      -306.6405
   5   2.0000     -11.244160      -305.9691
   6   2.0000     -11.236581      -305.7629
   7   2.0000     -11.228683      -305.5480
   8   2.0000     -11.221685      -305.3576
   9   2.0000      -1.385456       -37.7002
  10   2.0000      -1.347025       -36.6544
  11   2.0000      -1.100390       -29.9431
  12   2.0000      -1.048602       -28.5339
  13   2.0000      -0.979062       -26.6416
  14   2.0000      -0.942228       -25.6393
  15   2.0000      -0.864439       -23.5226
  16   2.0000      -0.793372       -21.5888
  17   2.0000      -0.747458       -20.3394
  18   2.0000      -0.696273       -18.9465
  19   2.0000      -0.682149       -18.5622
  20   2.0000      -0.636717       -17.3260
  21   2.0000      -0.615332       -16.7440
  22   2.0000      -0.605308       -16.4713
  23   2.0000      -0.580942       -15.8082
  24   2.0000      -0.575682       -15.6651
  25   2.0000      -0.567016       -15.4293
  26   2.0000      -0.559824       -15.2336
  27   2.0000      -0.539575       -14.6826
  28   2.0000      -0.528252       -14.3745
  29   2.0000      -0.510067       -13.8796
  30   2.0000      -0.482170       -13.1205
  31   2.0000      -0.471380       -12.8269
  32   2.0000      -0.451011       -12.2726
  33   2.0000      -0.425079       -11.5670
  34   2.0000      -0.348672        -9.4878
  35   0.0000       0.128382         3.4935
  36   0.0000       0.146506         3.9866
  37   0.0000       0.158481         4.3125
  38   0.0000       0.161802         4.4029
  39   0.0000       0.178401         4.8545

MULLIKEN ATOMIC CHARGES
-----------------------
   0 C :   -0.422908
   1 C :    0.143590
   2 O :   -0.365638
   3 C :    0.150271
   4 C :   -0.021505
   5 O :   -0.479380
   6 C :   -0.272824
   7 C :    0.023924
   8 C :   -0.435989
   9 H :    0.130660
  10 H :    0.143470
  11 H :    0.125301
  12 H :    0.091708
  13 H :    0.097319
  14 H :    0.091743
  15 H :    0.100377
  16 H :    0.326940
  17 H :    0.135006
  18 H :    0.143374
  19 H :    0.150408
  20 H :    0.144151
Sum of atomic charges:    0.0000000

LOEWDIN ATOMIC CHARGES
----------------------
   0 C :   -0.289442
   1 C :   -0.286669
   2 O :    0.181461
   3 C :   -0.300889
   4 C :   -0.331140
   5 O :   -0.045963
   6 C :   -0.122336
   7 C :   -0.171959
   8 C :   -0.267915
   9 H :    0.125214
  10 H :    0.127811
  11 H :    0.125105
  12 H :    0.144074
  13 H :    0.144136
  14 H :    0.116914
  15 H :    0.128353
  16 H :    0.177887
  17 H :    0.144409
  18 H :    0.133136
  19 H :    0.133475
  20 H :    0.134338

  Mayer bond orders larger than 0.1
B(  0-C ,  1-C ) :   0.8734 B(  0-C ,  9-H ) :   0.9374 B(  0-C , 10-H ) :   0.9351
B(  0-C , 11-H ) :   0.9306 B(  1-C ,  2-O ) :   0.9249 B(  1-C ,  7-C ) :   0.9575
B(  1-C , 12-H ) :   0.9137 B(  2-O ,  3-C ) :   0.8766 B(  3-C ,  4-C ) :   0.9183
B(  3-C ,  6-C ) :   0.9339 B(  3-C , 13-H ) :   0.9144 B(  4-C ,  5-O ) :   0.9334
B(  4-C , 14-H ) :   0.9141 B(  4-C , 15-H ) :   0.9273 B(  5-O , 16-H ) :   0.8296
B(  6-C ,  7-C ) :   1.7485 B(  6-C , 17-H ) :   0.9132 B(  7-C ,  8-C ) :   0.8776
B(  8-C , 18-H ) :   0.9442 B(  8-C , 19-H ) :   0.9317 B(  8-C , 20-H ) :   0.9301

MP2 TOTAL ENERGY:     -423.532111121 Eh
FINAL SINGLE POINT ENERGY      -423.532111120629

DIPOLE MOMENT
-------------
                                X             Y             Z
Electronic contribution:      0.72537      -4.59052      -4.45774
Nuclear contribution   :     -1.06823       5.04774       5.63693
                        -----------------------------------------
Total Dipole Moment    :     -0.34286       0.45722       1.17920
                        -----------------------------------------
Magnitude (a.u.)       :      1.31038
Magnitude (Debye)      :      3.33073

                             ****ORCA TERMINATED NORMALLY****
TOTAL RUN TIME: 0 days 0 hours 31 minutes 6 seconds 404 msec
