                         Program Version 3.0.3 - RELEASE   -
|  1> ! RI-MP2 RIJK def2-TZVP def2-TZVP/C def2-TZVP/JK TIGHTSCF
|  2> % maxcore 2000
|  3> % mp2 density relaxed end
|  4> *xyz 0 1
|  5>  C        0.1381499446     1.4300584086     0.2461830559
|  6>  C       -0.0701462632    -0.0682168683    -0.0013240878
|  7>  C       -1.5456353962    -0.5094317928    -0.1116517811
|  8>  C       -2.2965065518     0.1985839709    -1.2391073272
|  9>  C       -1.7081274243    -2.0703759423    -0.0470866235
| 10>  C       -2.2554674216    -1.9826921479     1.4091911331
| 11>  C       -2.2545220167    -0.4537959869     1.2610467584
| 12>  O       -2.6832433215     0.4467665829     1.9260237190
| 13>  H        1.1978524970     1.6464237380     0.4127033155
| 14>  H       -0.1894251000     2.0304719711    -0.6074681155
| 15>  H       -0.4209611811     1.7651323744     1.1246172275
| 16>  H        0.4417400290    -0.3728271082    -0.9242526429
| 17>  H        0.4062033238    -0.6359772512     0.8087934342
| 18>  H       -1.7872300564     0.0488714592    -2.1981039738
| 19>  H       -3.3165092241    -0.1867388308    -1.3368934851
| 20>  H       -2.3676579392     1.2734280423    -1.0528457566
| 21>  H       -2.4424605372    -2.4529299678    -0.7592388307
| 22>  H       -0.7806128866    -2.6341015316    -0.1647422276
| 23>  H       -3.2352547721    -2.4253900378     1.6069756690
| 24>  H       -1.5633508522    -2.3324880816     2.1816560591
| 25> *
| 26>
| 27>                          ****END OF INPUT****

CARTESIAN COORDINATES (ANGSTROEM)
---------------------------------
  C      0.138150    1.430058    0.246183
  C     -0.070146   -0.068217   -0.001324
  C     -1.545635   -0.509432   -0.111652
  C     -2.296507    0.198584   -1.239107
  C     -1.708127   -2.070376   -0.047087
  C     -2.255467   -1.982692    1.409191
  C     -2.254522   -0.453796    1.261047
  O     -2.683243    0.446767    1.926024
  H      1.197852    1.646424    0.412703
  H     -0.189425    2.030472   -0.607468
  H     -0.420961    1.765132    1.124617
  H      0.441740   -0.372827   -0.924253
  H      0.406203   -0.635977    0.808793
  H     -1.787230    0.048871   -2.198104
  H     -3.316509   -0.186739   -1.336893
  H     -2.367658    1.273428   -1.052846
  H     -2.442461   -2.452930   -0.759239
  H     -0.780613   -2.634102   -0.164742
  H     -3.235255   -2.425390    1.606976
  H     -1.563351   -2.332488    2.181656

 Total Charge           Charge          ....    0
 Multiplicity           Mult            ....    1
 Number of Electrons    NEL             ....   62
 Basis Dimension        Dim             ....  320

ORBITAL ENERGIES
----------------

  NO   OCC          E(Eh)            E(eV)
   0   2.0000     -20.548365      -559.1494
   1   2.0000     -11.323747      -308.1348
   2   2.0000     -11.246242      -306.0258
   3   2.0000     -11.237797      -305.7960
   4   2.0000     -11.234501      -305.7063
   5   2.0000     -11.234081      -305.6949
   6   2.0000     -11.223837      -305.4161
   7   2.0000     -11.213311      -305.1297
   8   2.0000      -1.390385       -37.8343
   9   2.0000      -1.147874       -31.2352
  10   2.0000      -1.040225       -28.3060
  11   2.0000      -0.979478       -26.6530
  12   2.0000      -0.888810       -24.1857
  13   2.0000      -0.861993       -23.4560
  14   2.0000      -0.821170       -22.3452
  15   2.0000      -0.690559       -18.7911
  16   2.0000      -0.658073       -17.9071
  17   2.0000      -0.651545       -17.7294
  18   2.0000      -0.634786       -17.2734
  19   2.0000      -0.597475       -16.2581
  20   2.0000      -0.588233       -16.0066
  21   2.0000      -0.555789       -15.1238
  22   2.0000      -0.550721       -14.9859
  23   2.0000      -0.538296       -14.6478
  24   2.0000      -0.521537       -14.1917
  25   2.0000      -0.504204       -13.7201
  26   2.0000      -0.494187       -13.4475
  27   2.0000      -0.491453       -13.3731
  28   2.0000      -0.461091       -12.5469
  29   2.0000      -0.444196       -12.0872
  30   2.0000      -0.382790       -10.4163
  31   0.0000       0.126702         3.4477
  32   0.0000       0.137069         3.7298
  33   0.0000       0.151511         4.1228
  34   0.0000       0.162147         4.4122
  35   0.0000       0.168299         4.5797

MULLIKEN ATOMIC CHARGES
-----------------------
   0 C :   -0.424615
   1 C :   -0.239498
   2 C :    0.220171
   3 C :   -0.449383
   4 C :   -0.295544
   5 C :   -0.206473
   6 C :    0.053671
   7 O :   -0.260632
   8 H :    0.134844
   9 H :    0.128989
  10 H :    0.153814
  11 H :    0.120186
  12 H :    0.114719
  13 H :    0.136503
  14 H :    0.132829
  15 H :    0.153850
  16 H :    0.126772
  17 H :    0.125869
  18 H :    0.136193
  19 H :    0.137733
Sum of atomic charges:    0.0000000

LOEWDIN ATOMIC CHARGES
----------------------
   0 C :   -0.311578
   1 C :   -0.245865
   2 C :   -0.252778
   3 C :   -0.264532
   4 C :   -0.192834
   5 C :   -0.209587
   6 C :   -0.281085
   7 O :    0.161404
   8 H :    0.122122
   9 H :    0.121044
  10 H :    0.129015
  11 H :    0.141262
  12 H :    0.142918
  13 H :    0.129153
  14 H :    0.128138
  15 H :    0.132308
  16 H :    0.133686
  17 H :    0.130757
  18 H :    0.140689
  19 H :    0.145762

  Mayer bond orders larger than 0.1
B(  0-C ,  1-C ) :   0.9207 B(  0-C ,  8-H ) :   0.9375 B(  0-C ,  9-H ) :   0.9398
B(  0-C , 10-H ) :   0.9330 B(  1-C ,  2-C ) :   0.8983 B(  1-C , 11-H ) :   0.9354
B(  1-C , 12-H ) :   0.9206 B(  2-C ,  3-C ) :   0.8796 B(  2-C ,  4-C ) :   0.8835
B(  2-C ,  5-C ) :  -0.1265 B(  2-C ,  6-C ) :   0.7866 B(  3-C , 13-H ) :   0.9371
B(  3-C , 14-H ) :   0.9297 B(  3-C , 15-H ) :   0.9375 B(  4-C ,  5-C ) :   0.9644
B(  4-C , 16-H ) :   0.9212 B(  4-C , 17-H ) :   0.9269 B(  5-C ,  6-C ) :   0.9261
B(  5-C , 18-H ) :   0.9030 B(  5-C , 19-H ) :   0.8989 B(  6-C ,  7-O ) :   2.0274

MP2 TOTAL ENERGY:     -348.412853796 Eh
FINAL SINGLE POINT ENERGY      -348.412853795758

DIPOLE MOMENT
-------------
                                X             Y             Z
Electronic contribution:     -4.13995      -0.56114       5.02960
Nuclear contribution   :      4.57134      -0.11885      -5.66024
                        -----------------------------------------
Total Dipole Moment    :      0.43138      -0.67999      -0.63064
                        -----------------------------------------
Magnitude (a.u.)       :      1.02283
Magnitude (Debye)      :      2.59982

                             ****ORCA TERMINATED NORMALLY****
TOTAL RUN TIME: 0 days 0 hours 15 minutes 2 seconds 119 msec
