                         Program Version 3.0.3 - RELEASE   -
|  1> ! RI-MP2 RIJK def2-TZVP def2-TZVP/C def2-TZVP/JK TIGHTSCF
|  2> % maxcore 2000
|  3> % mp2 density relaxed end
|  4> *xyz 0 1
|  5>  O        0.1905445301     1.4293944712    -0.2135941382
|  6>  C        0.0292172863     0.0280155079    -0.0530230605
|  7>  C        0.6135709063    -0.5472452669     1.2512305067
|  8>  C       -0.2847447246    -1.2964383478     1.9159343723
|  9>  C       -1.5439936357    -1.2804281205     1.1567463372
| 10>  C       -1.3789714609    -0.4942608913     0.0488825642
| 11>  N       -2.5690765676    -0.5532733340    -0.6227705243
| 12>  C       -3.3934439684    -1.3588741417     0.1315699511
| 13>  N       -2.8000363585    -1.8227716404     1.2159820751
| 14>  H       -0.1840835061     1.8472667408     0.5703531345
| 15>  H        0.5527535819    -0.4160293163    -0.9102998927
| 16>  H        1.6333958340    -0.3351749714     1.5436322342
| 17>  H       -0.1217807701    -1.8206709014     2.8486536335
| 18>  H       -2.8218498600    -0.0758323547    -1.4720405856
| 19>  H       -4.4136076965    -1.5560751436    -0.1623175974
| 20> *
| 21>
| 22>                          ****END OF INPUT****

CARTESIAN COORDINATES (ANGSTROEM)
---------------------------------
  O      0.190545    1.429394   -0.213594
  C      0.029217    0.028016   -0.053023
  C      0.613571   -0.547245    1.251231
  C     -0.284745   -1.296438    1.915934
  C     -1.543994   -1.280428    1.156746
  C     -1.378971   -0.494261    0.048883
  N     -2.569077   -0.553273   -0.622771
  C     -3.393444   -1.358874    0.131570
  N     -2.800036   -1.822772    1.215982
  H     -0.184084    1.847267    0.570353
  H      0.552754   -0.416029   -0.910300
  H      1.633396   -0.335175    1.543632
  H     -0.121781   -1.820671    2.848654
  H     -2.821850   -0.075832   -1.472041
  H     -4.413608   -1.556075   -0.162318

 Total Charge           Charge          ....    0
 Multiplicity           Mult            ....    1
 Number of Electrons    NEL             ....   64
 Basis Dimension        Dim             ....  315

ORBITAL ENERGIES
----------------

  NO   OCC          E(Eh)            E(eV)
   0   2.0000     -20.569600      -559.7273
   1   2.0000     -15.629963      -425.3129
   2   2.0000     -15.553394      -423.2294
   3   2.0000     -11.307799      -307.7008
   4   2.0000     -11.303025      -307.5709
   5   2.0000     -11.252786      -306.2039
   6   2.0000     -11.246533      -306.0337
   7   2.0000     -11.243786      -305.9590
   8   2.0000     -11.232225      -305.6444
   9   2.0000      -1.375529       -37.4300
  10   2.0000      -1.343650       -36.5626
  11   2.0000      -1.176302       -32.0088
  12   2.0000      -1.131498       -30.7896
  13   2.0000      -0.972847       -26.4725
  14   2.0000      -0.939453       -25.5638
  15   2.0000      -0.835707       -22.7407
  16   2.0000      -0.806175       -21.9371
  17   2.0000      -0.755151       -20.5487
  18   2.0000      -0.749238       -20.3878
  19   2.0000      -0.652153       -17.7460
  20   2.0000      -0.641411       -17.4537
  21   2.0000      -0.637977       -17.3602
  22   2.0000      -0.606812       -16.5122
  23   2.0000      -0.589854       -16.0507
  24   2.0000      -0.583857       -15.8876
  25   2.0000      -0.538491       -14.6531
  26   2.0000      -0.513414       -13.9707
  27   2.0000      -0.464634       -12.6433
  28   2.0000      -0.439386       -11.9563
  29   2.0000      -0.431124       -11.7315
  30   2.0000      -0.384151       -10.4533
  31   2.0000      -0.287639        -7.8270
  32   0.0000       0.102050         2.7769
  33   0.0000       0.129582         3.5261
  34   0.0000       0.157618         4.2890
  35   0.0000       0.166627         4.5342
  36   0.0000       0.174111         4.7378

MULLIKEN ATOMIC CHARGES
-----------------------
   0 O :   -0.465095
   1 C :    0.170092
   2 C :   -0.175804
   3 C :   -0.235633
   4 C :    0.129473
   5 C :   -0.053271
   6 N :   -0.283874
   7 C :    0.062677
   8 N :   -0.273200
   9 H :    0.321265
  10 H :    0.119157
  11 H :    0.140251
  12 H :    0.137911
  13 H :    0.257184
  14 H :    0.148869
Sum of atomic charges:    0.0000000

LOEWDIN ATOMIC CHARGES
----------------------
   0 O :   -0.017336
   1 C :   -0.283236
   2 C :   -0.137417
   3 C :   -0.102340
   4 C :   -0.227827
   5 C :   -0.193144
   6 N :    0.199336
   7 C :   -0.299282
   8 N :    0.108640
   9 H :    0.182403
  10 H :    0.161274
  11 H :    0.137927
  12 H :    0.144447
  13 H :    0.197102
  14 H :    0.129454

  Mayer bond orders larger than 0.1
B(  0-O ,  1-C ) :   0.9040 B(  0-O ,  9-H ) :   0.8392 B(  1-C ,  2-C ) :   0.9664
B(  1-C ,  5-C ) :   0.9688 B(  1-C , 10-H ) :   0.8914 B(  2-C ,  3-C ) :   1.6924
B(  2-C , 11-H ) :   0.9357 B(  3-C ,  4-C ) :   1.0075 B(  3-C , 12-H ) :   0.9289
B(  4-C ,  5-C ) :   1.3495 B(  4-C ,  8-N ) :   1.3600 B(  5-C ,  6-N ) :   1.1269
B(  6-N ,  7-C ) :   1.1489 B(  6-N , 13-H ) :   0.8596 B(  7-C ,  8-N ) :   1.5193
B(  7-C , 14-H ) :   0.9275

MP2 TOTAL ENERGY:     -416.125790485 Eh
FINAL SINGLE POINT ENERGY      -416.125790484575

DIPOLE MOMENT
-------------
                                X             Y             Z
Electronic contribution:     -2.00917      -0.60018      -0.17795
Nuclear contribution   :      1.85390       1.14184      -0.54636
                        -----------------------------------------
Total Dipole Moment    :     -0.15527       0.54166      -0.72431
                        -----------------------------------------
Magnitude (a.u.)       :      0.91767
Magnitude (Debye)      :      2.33254

                             ****ORCA TERMINATED NORMALLY****
TOTAL RUN TIME: 0 days 0 hours 15 minutes 22 seconds 199 msec
