                         Program Version 3.0.3 - RELEASE   -
|  1> ! RI-MP2 RIJK def2-TZVP def2-TZVP/C def2-TZVP/JK TIGHTSCF
|  2> % maxcore 2000
|  3> % mp2 density relaxed end
|  4> *xyz 0 1
|  5>  C       -1.5548869324    -0.0926240465     0.3143119472
|  6>  C       -0.1531845229     0.5287144593     0.2678450420
|  7>  C        0.7478250129    -0.0561389722     1.3377932126
|  8>  C        1.5973682955    -1.2796834940     1.0835793288
|  9>  C        1.6213498079    -1.8490813337    -0.2419707265
| 10>  N        1.6577211561    -2.3166963094    -1.3001781403
| 11>  N        2.1995672774     0.0326059606     1.3481986253
| 12>  C        2.9333790835     0.7264504666     0.2868142334
| 13>  C        3.1236054831     2.1939369562     0.6612093851
| 14>  H       -2.0145522348     0.0366638873     1.3001358049
| 15>  H       -2.2115960931     0.3752666228    -0.4242770244
| 16>  H       -1.5164151476    -1.1646847413     0.0982788508
| 17>  H        0.2764946345     0.3807347145    -0.7263280844
| 18>  H       -0.2241516191     1.6120497476     0.4261691826
| 19>  H        0.3205079373     0.0010757948     2.3396061953
| 20>  H        1.7383005367    -2.0164927244     1.8705958510
| 21>  H        3.9071827427     0.2313024005     0.2059630144
| 22>  H        2.4567397764     0.6431699342    -0.6995226955
| 23>  H        3.7311861869     2.7020896267    -0.0933433752
| 24>  H        2.1630928049     2.7147135527     0.7264825047
| 25>  H        3.6229575339     2.2823321177     1.6299158382
| 26> *
| 27>
| 28>                          ****END OF INPUT****

CARTESIAN COORDINATES (ANGSTROEM)
---------------------------------
  C     -1.554887   -0.092624    0.314312
  C     -0.153185    0.528714    0.267845
  C      0.747825   -0.056139    1.337793
  C      1.597368   -1.279683    1.083579
  C      1.621350   -1.849081   -0.241971
  N      1.657721   -2.316696   -1.300178
  N      2.199567    0.032606    1.348199
  C      2.933379    0.726450    0.286814
  C      3.123605    2.193937    0.661209
  H     -2.014552    0.036664    1.300136
  H     -2.211596    0.375267   -0.424277
  H     -1.516415   -1.164685    0.098279
  H      0.276495    0.380735   -0.726328
  H     -0.224152    1.612050    0.426169
  H      0.320508    0.001076    2.339606
  H      1.738301   -2.016493    1.870596
  H      3.907183    0.231302    0.205963
  H      2.456740    0.643170   -0.699523
  H      3.731186    2.702090   -0.093343
  H      2.163093    2.714714    0.726483
  H      3.622958    2.282332    1.629916

 Total Charge           Charge          ....    0
 Multiplicity           Mult            ....    1
 Number of Electrons    NEL             ....   68
 Basis Dimension        Dim             ....  351

ORBITAL ENERGIES
----------------

  NO   OCC          E(Eh)            E(eV)
   0   2.0000     -15.585600      -424.1057
   1   2.0000     -15.573868      -423.7865
   2   2.0000     -11.305425      -307.6362
   3   2.0000     -11.289658      -307.2072
   4   2.0000     -11.277545      -306.8776
   5   2.0000     -11.264670      -306.5273
   6   2.0000     -11.243499      -305.9512
   7   2.0000     -11.228298      -305.5375
   8   2.0000     -11.223263      -305.4005
   9   2.0000      -1.304892       -35.5079
  10   2.0000      -1.217343       -33.1256
  11   2.0000      -1.072125       -29.1740
  12   2.0000      -1.044503       -28.4224
  13   2.0000      -0.942845       -25.6561
  14   2.0000      -0.913210       -24.8497
  15   2.0000      -0.866038       -23.5661
  16   2.0000      -0.778145       -21.1744
  17   2.0000      -0.715423       -19.4676
  18   2.0000      -0.699441       -19.0328
  19   2.0000      -0.636062       -17.3081
  20   2.0000      -0.624839       -17.0027
  21   2.0000      -0.599801       -16.3214
  22   2.0000      -0.575692       -15.6654
  23   2.0000      -0.559456       -15.2236
  24   2.0000      -0.551280       -15.0011
  25   2.0000      -0.541421       -14.7328
  26   2.0000      -0.526708       -14.3324
  27   2.0000      -0.513633       -13.9767
  28   2.0000      -0.510962       -13.9040
  29   2.0000      -0.498418       -13.5626
  30   2.0000      -0.483951       -13.1690
  31   2.0000      -0.455594       -12.3973
  32   2.0000      -0.443146       -12.0586
  33   2.0000      -0.382389       -10.4053
  34   0.0000       0.127653         3.4736
  35   0.0000       0.143224         3.8973
  36   0.0000       0.152256         4.1431
  37   0.0000       0.157303         4.2804
  38   0.0000       0.168426         4.5831

MULLIKEN ATOMIC CHARGES
-----------------------
   0 C :   -0.407083
   1 C :   -0.189917
   2 C :   -0.049997
   3 C :    0.005916
   4 C :   -0.205856
   5 N :   -0.050129
   6 N :   -0.191153
   7 C :   -0.109119
   8 C :   -0.391120
   9 H :    0.126574
  10 H :    0.141199
  11 H :    0.145196
  12 H :    0.127871
  13 H :    0.122245
  14 H :    0.129356
  15 H :    0.155289
  16 H :    0.131045
  17 H :    0.114343
  18 H :    0.134969
  19 H :    0.124722
  20 H :    0.135648
Sum of atomic charges:   -0.0000000

LOEWDIN ATOMIC CHARGES
----------------------
   0 C :   -0.305687
   1 C :   -0.271982
   2 C :   -0.217869
   3 C :   -0.226381
   4 C :   -0.185923
   5 N :    0.065395
   6 N :    0.151138
   7 C :   -0.306618
   8 C :   -0.312041
   9 H :    0.122344
  10 H :    0.124751
  11 H :    0.127003
  12 H :    0.145541
  13 H :    0.142230
  14 H :    0.149728
  15 H :    0.162618
  16 H :    0.137924
  17 H :    0.126778
  18 H :    0.125539
  19 H :    0.119978
  20 H :    0.125536

  Mayer bond orders larger than 0.1
B(  0-C ,  1-C ) :   0.9204 B(  0-C ,  9-H ) :   0.9382 B(  0-C , 10-H ) :   0.9381
B(  0-C , 11-H ) :   0.9362 B(  1-C ,  2-C ) :   0.9082 B(  1-C , 12-H ) :   0.9229
B(  1-C , 13-H ) :   0.9301 B(  2-C ,  3-C ) :   0.8880 B(  2-C ,  6-N ) :   0.9095
B(  2-C , 14-H ) :   0.9216 B(  3-C ,  4-C ) :   0.9532 B(  3-C ,  6-N ) :   0.9273
B(  3-C , 15-H ) :   0.8955 B(  4-C ,  5-N ) :   2.8311 B(  6-N ,  7-C ) :   0.8670
B(  7-C ,  8-C ) :   0.9217 B(  7-C , 16-H ) :   0.9265 B(  7-C , 17-H ) :   0.9262
B(  8-C , 18-H ) :   0.9375 B(  8-C , 19-H ) :   0.9387 B(  8-C , 20-H ) :   0.9348

MP2 TOTAL ENERGY:     -382.582183413 Eh
FINAL SINGLE POINT ENERGY      -382.582183413141

DIPOLE MOMENT
-------------
                                X             Y             Z
Electronic contribution:      3.21415      -8.44662      -0.75533
Nuclear contribution   :     -3.57274       9.30640       1.52981
                        -----------------------------------------
Total Dipole Moment    :     -0.35859       0.85978       0.77448
                        -----------------------------------------
Magnitude (a.u.)       :      1.21146
Magnitude (Debye)      :      3.07928

                             ****ORCA TERMINATED NORMALLY****
TOTAL RUN TIME: 0 days 0 hours 20 minutes 9 seconds 774 msec
