                         Program Version 3.0.3 - RELEASE   -
|  1> ! RI-MP2 RIJK def2-TZVP def2-TZVP/C def2-TZVP/JK TIGHTSCF
|  2> % maxcore 2000
|  3> % mp2 density relaxed end
|  4> *xyz 0 1
|  5>  O       -0.5945908391     1.1268161684    -0.1401942094
|  6>  C       -0.1106827414    -0.1268820277    -0.0310962892
|  7>  N        1.0300809476    -0.4852638971    -0.6027579272
|  8>  N        1.1579219121    -1.7931689675    -0.2584075936
|  9>  C        0.1390224852    -2.2518024968     0.5080272589
| 10>  C       -0.7233000214    -1.1791833973     0.6804534749
| 11>  C        0.0853636500    -3.6539645224     0.9573188304
| 12>  C       -0.7260266843    -4.0423475189     2.1429313534
| 13>  N       -1.1583298563    -4.4431414618     0.7993281153
| 14>  H        0.0331931006     1.6258867885    -0.6778098245
| 15>  H        1.9532619655    -2.3099977679    -0.5914416775
| 16>  H       -1.6426632707    -1.1444283030     1.2404927140
| 17>  H        0.9844188951    -4.2280089248     0.7422671947
| 18>  H       -0.3896189044    -4.8565169160     2.7787143977
| 19>  H       -1.2639571370    -3.2530404163     2.6604279018
| 20>  H       -1.8967248413    -3.8231548594     0.4730544903
| 21> *
| 22>
| 23>                          ****END OF INPUT****

CARTESIAN COORDINATES (ANGSTROEM)
---------------------------------
  O     -0.594591    1.126816   -0.140194
  C     -0.110683   -0.126882   -0.031096
  N      1.030081   -0.485264   -0.602758
  N      1.157922   -1.793169   -0.258408
  C      0.139022   -2.251802    0.508027
  C     -0.723300   -1.179183    0.680453
  C      0.085364   -3.653965    0.957319
  C     -0.726027   -4.042348    2.142931
  N     -1.158330   -4.443141    0.799328
  H      0.033193    1.625887   -0.677810
  H      1.953262   -2.309998   -0.591442
  H     -1.642663   -1.144428    1.240493
  H      0.984419   -4.228009    0.742267
  H     -0.389619   -4.856517    2.778714
  H     -1.263957   -3.253040    2.660428
  H     -1.896725   -3.823155    0.473054

 Total Charge           Charge          ....    0
 Multiplicity           Mult            ....    1
 Number of Electrons    NEL             ....   66
 Basis Dimension        Dim             ....  321

ORBITAL ENERGIES
----------------

  NO   OCC          E(Eh)            E(eV)
   0   2.0000     -20.591330      -560.3186
   1   2.0000     -15.636222      -425.4832
   2   2.0000     -15.577096      -423.8743
   3   2.0000     -15.575132      -423.8209
   4   2.0000     -11.320684      -308.0515
   5   2.0000     -11.297379      -307.4173
   6   2.0000     -11.288046      -307.1633
   7   2.0000     -11.274598      -306.7974
   8   2.0000     -11.221051      -305.3403
   9   2.0000      -1.423281       -38.7294
  10   2.0000      -1.363123       -37.0925
  11   2.0000      -1.279994       -34.8304
  12   2.0000      -1.101980       -29.9864
  13   2.0000      -1.059341       -28.8261
  14   2.0000      -0.925332       -25.1796
  15   2.0000      -0.883824       -24.0501
  16   2.0000      -0.832570       -22.6554
  17   2.0000      -0.794831       -21.6284
  18   2.0000      -0.752799       -20.4847
  19   2.0000      -0.706482       -19.2244
  20   2.0000      -0.663817       -18.0634
  21   2.0000      -0.637682       -17.3522
  22   2.0000      -0.636322       -17.3152
  23   2.0000      -0.602977       -16.4078
  24   2.0000      -0.580432       -15.7944
  25   2.0000      -0.563043       -15.3212
  26   2.0000      -0.543133       -14.7794
  27   2.0000      -0.506872       -13.7927
  28   2.0000      -0.500297       -13.6138
  29   2.0000      -0.464804       -12.6480
  30   2.0000      -0.428064       -11.6482
  31   2.0000      -0.347830        -9.4649
  32   2.0000      -0.336442        -9.1550
  33   0.0000       0.133111         3.6221
  34   0.0000       0.142562         3.8793
  35   0.0000       0.145570         3.9612
  36   0.0000       0.157344         4.2816
  37   0.0000       0.171420         4.6646

MULLIKEN ATOMIC CHARGES
-----------------------
   0 O :   -0.430286
   1 C :    0.192562
   2 N :   -0.239261
   3 N :   -0.138916
   4 C :    0.121440
   5 C :   -0.268153
   6 C :   -0.074135
   7 C :   -0.165508
   8 N :   -0.355486
   9 H :    0.338758
  10 H :    0.258591
  11 H :    0.150026
  12 H :    0.119170
  13 H :    0.129745
  14 H :    0.135214
  15 H :    0.226238
Sum of atomic charges:   -0.0000000

LOEWDIN ATOMIC CHARGES
----------------------
   0 O :    0.071466
   1 C :   -0.426950
   2 N :    0.010838
   3 N :    0.149197
   4 C :   -0.238363
   5 C :   -0.163215
   6 C :   -0.247289
   7 C :   -0.251932
   8 N :   -0.005344
   9 H :    0.198768
  10 H :    0.189977
  11 H :    0.145298
  12 H :    0.148194
  13 H :    0.126571
  14 H :    0.124911
  15 H :    0.167874

  Mayer bond orders larger than 0.1
B(  0-O ,  1-C ) :   1.1060 B(  0-O ,  9-H ) :   0.8198 B(  1-C ,  2-N ) :   1.5504
B(  1-C ,  5-C ) :   1.3235 B(  2-N ,  3-N ) :   1.0354 B(  2-N ,  4-C ) :   0.1088
B(  3-N ,  4-C ) :   1.2018 B(  3-N , 10-H ) :   0.8646 B(  4-C ,  5-C ) :   1.3353
B(  4-C ,  6-C ) :   0.9464 B(  5-C , 11-H ) :   0.9287 B(  6-C ,  7-C ) :   0.9529
B(  6-C ,  8-N ) :   0.8975 B(  6-C , 12-H ) :   0.9204 B(  7-C ,  8-N ) :   0.9282
B(  7-C , 13-H ) :   0.9199 B(  7-C , 14-H ) :   0.9217 B(  8-N , 15-H ) :   0.8744

MP2 TOTAL ENERGY:     -433.339205186 Eh
FINAL SINGLE POINT ENERGY      -433.339205186166

DIPOLE MOMENT
-------------
                                X             Y             Z
Electronic contribution:      1.79382       4.55670      -3.06793
Nuclear contribution   :     -1.38268      -4.79899       3.32874
                        -----------------------------------------
Total Dipole Moment    :      0.41115      -0.24229       0.26081
                        -----------------------------------------
Magnitude (a.u.)       :      0.54385
Magnitude (Debye)      :      1.38235

                             ****ORCA TERMINATED NORMALLY****
TOTAL RUN TIME: 0 days 0 hours 16 minutes 53 seconds 220 msec
