                         Program Version 3.0.3 - RELEASE   -
|  1> ! RI-MP2 RIJK def2-TZVP def2-TZVP/C def2-TZVP/JK TIGHTSCF
|  2> % maxcore 2000
|  3> % mp2 density relaxed end
|  4> *xyz 0 1
|  5>  O        0.0904047709     1.3176969381     0.4358075871
|  6>  C        0.1186051132    -0.0875640558     0.2215899871
|  7>  C       -1.2766362226    -0.6779397479     0.0731279184
|  8>  C       -2.1106739317    -0.3411865274    -1.2152200630
|  9>  C       -2.2917626718    -1.8473132243    -1.4687072516
| 10>  C       -3.5881676254    -2.4639150567    -1.9271098580
| 11>  O       -3.5807976522    -3.8827608735    -1.9080702369
| 12>  C       -0.9465330004    -2.4885758219    -1.6473569833
| 13>  C       -1.4261324644    -2.1711472308    -0.2497575887
| 14>  H       -0.3146677407     1.7207164666    -0.3389154762
| 15>  H        0.7422850120    -0.3425140875    -0.6494319559
| 16>  H        0.6106021330    -0.5132430366     1.1034200563
| 17>  H       -1.8552386888    -0.4125794398     0.9628553836
| 18>  H       -3.0448508184     0.1780443544    -0.9865363754
| 19>  H       -1.5947173208     0.2104820943    -2.0113548574
| 20>  H       -4.3991974699    -2.1618905169    -1.2531333541
| 21>  H       -3.8483527232    -2.0791833875    -2.9277403583
| 22>  H       -3.0340043980    -4.1817963426    -2.6408974953
| 23>  H       -0.9636296845    -3.5489979239    -1.8780039720
| 24>  H       -0.1235563532    -1.9479218309    -2.1084973485
| 25>  H       -1.5613030732    -2.9609848094     0.4795495721
| 26> *
| 27>
| 28>                          ****END OF INPUT****

CARTESIAN COORDINATES (ANGSTROEM)
---------------------------------
  O      0.090405    1.317697    0.435808
  C      0.118605   -0.087564    0.221590
  C     -1.276636   -0.677940    0.073128
  C     -2.110674   -0.341187   -1.215220
  C     -2.291763   -1.847313   -1.468707
  C     -3.588168   -2.463915   -1.927110
  O     -3.580798   -3.882761   -1.908070
  C     -0.946533   -2.488576   -1.647357
  C     -1.426132   -2.171147   -0.249758
  H     -0.314668    1.720716   -0.338915
  H      0.742285   -0.342514   -0.649432
  H      0.610602   -0.513243    1.103420
  H     -1.855239   -0.412579    0.962855
  H     -3.044851    0.178044   -0.986536
  H     -1.594717    0.210482   -2.011355
  H     -4.399197   -2.161891   -1.253133
  H     -3.848353   -2.079183   -2.927740
  H     -3.034004   -4.181796   -2.640897
  H     -0.963630   -3.548998   -1.878004
  H     -0.123556   -1.947922   -2.108497
  H     -1.561303   -2.960985    0.479550

 Total Charge           Charge          ....    0
 Multiplicity           Mult            ....    1
 Number of Electrons    NEL             ....   70
 Basis Dimension        Dim             ....  351

ORBITAL ENERGIES
----------------

  NO   OCC          E(Eh)            E(eV)
   0   2.0000     -20.560720      -559.4856
   1   2.0000     -20.552987      -559.2752
   2   2.0000     -11.282219      -307.0048
   3   2.0000     -11.270488      -306.6856
   4   2.0000     -11.241590      -305.8992
   5   2.0000     -11.234712      -305.7121
   6   2.0000     -11.234233      -305.6990
   7   2.0000     -11.233684      -305.6841
   8   2.0000     -11.232058      -305.6398
   9   2.0000      -1.365204       -37.1491
  10   2.0000      -1.356445       -36.9107
  11   2.0000      -1.197056       -32.5736
  12   2.0000      -1.015243       -27.6262
  13   2.0000      -0.966506       -26.3000
  14   2.0000      -0.924600       -25.1596
  15   2.0000      -0.853573       -23.2269
  16   2.0000      -0.781390       -21.2627
  17   2.0000      -0.729152       -19.8412
  18   2.0000      -0.705840       -19.2069
  19   2.0000      -0.690502       -18.7895
  20   2.0000      -0.673213       -18.3191
  21   2.0000      -0.631351       -17.1799
  22   2.0000      -0.606456       -16.5025
  23   2.0000      -0.602058       -16.3828
  24   2.0000      -0.588493       -16.0137
  25   2.0000      -0.556922       -15.1546
  26   2.0000      -0.541618       -14.7382
  27   2.0000      -0.528348       -14.3771
  28   2.0000      -0.510825       -13.9003
  29   2.0000      -0.487748       -13.2723
  30   2.0000      -0.470094       -12.7919
  31   2.0000      -0.441186       -12.0053
  32   2.0000      -0.438623       -11.9355
  33   2.0000      -0.410060       -11.1583
  34   2.0000      -0.370596       -10.0844
  35   0.0000       0.128754         3.5036
  36   0.0000       0.138284         3.7629
  37   0.0000       0.155895         4.2421
  38   0.0000       0.160125         4.3572
  39   0.0000       0.172886         4.7045

MULLIKEN ATOMIC CHARGES
-----------------------
   0 O :   -0.472648
   1 C :   -0.033241
   2 C :   -0.097856
   3 C :   -0.297622
   4 C :    0.055067
   5 C :   -0.039439
   6 O :   -0.469978
   7 C :   -0.353732
   8 C :   -0.093558
   9 H :    0.313324
  10 H :    0.094518
  11 H :    0.114442
  12 H :    0.104821
  13 H :    0.131349
  14 H :    0.115600
  15 H :    0.111651
  16 H :    0.110456
  17 H :    0.316412
  18 H :    0.126531
  19 H :    0.129434
  20 H :    0.134469
Sum of atomic charges:    0.0000000

LOEWDIN ATOMIC CHARGES
----------------------
   0 O :   -0.050132
   1 C :   -0.328107
   2 C :   -0.219644
   3 C :   -0.175159
   4 C :   -0.218379
   5 C :   -0.312296
   6 O :   -0.038218
   7 C :   -0.194703
   8 C :   -0.140392
   9 H :    0.171711
  10 H :    0.116469
  11 H :    0.132074
  12 H :    0.155132
  13 H :    0.137161
  14 H :    0.127956
  15 H :    0.134795
  16 H :    0.123254
  17 H :    0.172629
  18 H :    0.138236
  19 H :    0.128185
  20 H :    0.139427

  Mayer bond orders larger than 0.1
B(  0-O ,  1-C ) :   0.9088 B(  0-O ,  9-H ) :   0.8490 B(  1-C ,  2-C ) :   0.9349
B(  1-C , 10-H ) :   0.9271 B(  1-C , 11-H ) :   0.9292 B(  2-C ,  3-C ) :   0.9614
B(  2-C ,  8-C ) :   0.9265 B(  2-C , 12-H ) :   0.9208 B(  3-C ,  4-C ) :   0.8867
B(  3-C , 13-H ) :   0.9262 B(  3-C , 14-H ) :   0.9082 B(  4-C ,  5-C ) :   0.9039
B(  4-C ,  7-C ) :   0.8938 B(  4-C ,  8-C ) :   0.7916 B(  5-C ,  6-O ) :   0.9336
B(  5-C , 15-H ) :   0.9264 B(  5-C , 16-H ) :   0.9475 B(  6-O , 17-H ) :   0.8453
B(  7-C ,  8-C ) :   0.8657 B(  7-C , 18-H ) :   0.9322 B(  7-C , 19-H ) :   0.9123
B(  8-C , 20-H ) :   0.9124

MP2 TOTAL ENERGY:     -423.485222729 Eh
FINAL SINGLE POINT ENERGY      -423.485222729027

DIPOLE MOMENT
-------------
                                X             Y             Z
Electronic contribution:     -0.64510      -0.65031       0.90725
Nuclear contribution   :      0.58621       0.61179      -1.77902
                        -----------------------------------------
Total Dipole Moment    :     -0.05889      -0.03852      -0.87178
                        -----------------------------------------
Magnitude (a.u.)       :      0.87461
Magnitude (Debye)      :      2.22308

                             ****ORCA TERMINATED NORMALLY****
TOTAL RUN TIME: 0 days 0 hours 27 minutes 43 seconds 700 msec
