                         Program Version 3.0.3 - RELEASE   -
|  1> ! RI-MP2 RIJK def2-TZVP def2-TZVP/C def2-TZVP/JK TIGHTSCF
|  2> % maxcore 2000
|  3> % mp2 density relaxed end
|  4> *xyz 0 1
|  5>  C        0.0400707303     1.5496112688     0.4799736066
|  6>  C       -0.0070904195     0.0844546394     0.0961301613
|  7>  C       -1.3799398833    -0.4140370367    -0.3639145315
|  8>  C       -1.8436723633     0.2219864611    -1.5891353678
|  9>  C       -2.2110194711     0.7585683644    -2.6080302668
| 10>  C       -2.6297559777     1.3608169453    -3.7591390434
| 11>  N       -2.9857526646     1.8737720402    -4.7390639958
| 12>  C        1.2048909077    -0.5386852142    -0.5496514854
| 13>  C        0.8377804296    -0.8957597236     0.8724563554
| 14>  H        1.0456197787     1.8350633935     0.8017048900
| 15>  H       -0.2366258085     2.1905311814    -0.3638754985
| 16>  H       -0.6485614325     1.7657704589     1.3054786157
| 17>  H       -1.3475855103    -1.4989733754    -0.5239187137
| 18>  H       -2.1232732633    -0.2416763873     0.4268828343
| 19>  H        1.0517572575    -1.2877519970    -1.3193541969
| 20>  H        2.0723778548     0.0910822402    -0.7136473208
| 21>  H        1.4536267932    -0.5048330704     1.6751394222
| 22>  H        0.4404313924    -1.8872566587     1.0638906552
| 23> *
| 24>
| 25>                          ****END OF INPUT****

CARTESIAN COORDINATES (ANGSTROEM)
---------------------------------
  C      0.040071    1.549611    0.479974
  C     -0.007090    0.084455    0.096130
  C     -1.379940   -0.414037   -0.363915
  C     -1.843672    0.221986   -1.589135
  C     -2.211019    0.758568   -2.608030
  C     -2.629756    1.360817   -3.759139
  N     -2.985753    1.873772   -4.739064
  C      1.204891   -0.538685   -0.549651
  C      0.837780   -0.895760    0.872456
  H      1.045620    1.835063    0.801705
  H     -0.236626    2.190531   -0.363875
  H     -0.648561    1.765770    1.305479
  H     -1.347586   -1.498973   -0.523919
  H     -2.123273   -0.241676    0.426883
  H      1.051757   -1.287752   -1.319354
  H      2.072378    0.091082   -0.713647
  H      1.453627   -0.504833    1.675139
  H      0.440431   -1.887257    1.063891

 Total Charge           Charge          ....    0
 Multiplicity           Mult            ....    1
 Number of Electrons    NEL             ....   64
 Basis Dimension        Dim             ....  333

ORBITAL ENERGIES
----------------

  NO   OCC          E(Eh)            E(eV)
   0   2.0000     -15.588409      -424.1822
   1   2.0000     -11.297127      -307.4105
   2   2.0000     -11.290567      -307.2319
   3   2.0000     -11.281056      -306.9731
   4   2.0000     -11.271262      -306.7066
   5   2.0000     -11.264881      -306.5330
   6   2.0000     -11.241925      -305.9083
   7   2.0000     -11.240308      -305.8643
   8   2.0000     -11.232617      -305.6551
   9   2.0000      -1.229281       -33.4504
  10   2.0000      -1.181959       -32.1628
  11   2.0000      -1.098412       -29.8893
  12   2.0000      -1.016541       -27.6615
  13   2.0000      -0.973721       -26.4963
  14   2.0000      -0.873765       -23.7764
  15   2.0000      -0.842591       -22.9281
  16   2.0000      -0.772411       -21.0184
  17   2.0000      -0.688503       -18.7351
  18   2.0000      -0.659870       -17.9560
  19   2.0000      -0.655718       -17.8430
  20   2.0000      -0.606247       -16.4968
  21   2.0000      -0.578352       -15.7378
  22   2.0000      -0.573781       -15.6134
  23   2.0000      -0.556647       -15.1471
  24   2.0000      -0.536812       -14.6074
  25   2.0000      -0.529188       -14.3999
  26   2.0000      -0.525780       -14.3072
  27   2.0000      -0.509835       -13.8733
  28   2.0000      -0.435956       -11.8630
  29   2.0000      -0.420898       -11.4532
  30   2.0000      -0.398602       -10.8465
  31   2.0000      -0.397744       -10.8232
  32   0.0000       0.098618         2.6835
  33   0.0000       0.102370         2.7856
  34   0.0000       0.120933         3.2908
  35   0.0000       0.154345         4.1999
  36   0.0000       0.156966         4.2713

MULLIKEN ATOMIC CHARGES
-----------------------
   0 C :   -0.423035
   1 C :    0.116414
   2 C :   -0.298116
   3 C :   -0.105207
   4 C :    0.262604
   5 C :   -0.219669
   6 N :   -0.038760
   7 C :   -0.293775
   8 C :   -0.280584
   9 H :    0.132368
  10 H :    0.151851
  11 H :    0.133021
  12 H :    0.163141
  13 H :    0.161104
  14 H :    0.136277
  15 H :    0.135876
  16 H :    0.136021
  17 H :    0.130469
Sum of atomic charges:   -0.0000000

LOEWDIN ATOMIC CHARGES
----------------------
   0 C :   -0.259783
   1 C :   -0.268850
   2 C :   -0.198715
   3 C :    0.012862
   4 C :   -0.061691
   5 C :   -0.179657
   6 N :    0.093950
   7 C :   -0.203306
   8 C :   -0.206223
   9 H :    0.131237
  10 H :    0.132426
  11 H :    0.128724
  12 H :    0.169448
  13 H :    0.167907
  14 H :    0.136372
  15 H :    0.136127
  16 H :    0.135595
  17 H :    0.133578

  Mayer bond orders larger than 0.1
B(  0-C ,  1-C ) :   0.9266 B(  0-C ,  9-H ) :   0.9284 B(  0-C , 10-H ) :   0.9358
B(  0-C , 11-H ) :   0.9353 B(  1-C ,  2-C ) :   0.8823 B(  1-C ,  7-C ) :   0.8790
B(  1-C ,  8-C ) :   0.8758 B(  2-C ,  3-C ) :   1.0156 B(  2-C , 12-H ) :   0.9276
B(  2-C , 13-H ) :   0.9205 B(  3-C ,  4-C ) :   2.5407 B(  3-C ,  6-N ) :   0.1122
B(  4-C ,  5-C ) :   0.9696 B(  5-C ,  6-N ) :   2.7708 B(  7-C ,  8-C ) :   0.8983
B(  7-C , 14-H ) :   0.9253 B(  7-C , 15-H ) :   0.9286 B(  8-C , 16-H ) :   0.9302
B(  8-C , 17-H ) :   0.9221

MP2 TOTAL ENERGY:     -364.118129417 Eh
FINAL SINGLE POINT ENERGY      -364.118129416564

DIPOLE MOMENT
-------------
                                X             Y             Z
Electronic contribution:     -8.77925       2.47568     -11.34247
Nuclear contribution   :      9.52887      -3.26148      13.03905
                        -----------------------------------------
Total Dipole Moment    :      0.74962      -0.78580       1.69658
                        -----------------------------------------
Magnitude (a.u.)       :      2.01439
Magnitude (Debye)      :      5.12018

                             ****ORCA TERMINATED NORMALLY****
TOTAL RUN TIME: 0 days 0 hours 15 minutes 20 seconds 999 msec
