                         Program Version 3.0.3 - RELEASE   -
|  1> ! RI-MP2 RIJK def2-TZVP def2-TZVP/C def2-TZVP/JK TIGHTSCF
|  2> % maxcore 2000
|  3> % mp2 density relaxed end
|  4> *xyz 0 1
|  5>  C       -0.3333753473     1.5660684004    -0.2021665271
|  6>  C       -0.0179167076     0.0906554850    -0.0714857641
|  7>  C        1.3394041066    -0.5239964014    -0.3685279342
|  8>  C        2.5797320512     0.3353897254    -0.5908375958
|  9>  O        3.3688878444     0.5051872236     0.5788972605
| 10>  C        2.6281403514     1.0869102780     1.6305694935
| 11>  C        1.5307199805     0.1440526934     2.1599017179
| 12>  C        0.6160099940     0.8523389853     3.1661457828
| 13>  C        0.7737515274    -0.5635630513     1.0393593815
| 14>  H        0.4771735252     2.2163436763     0.1299449578
| 15>  H       -0.5484623384     1.8210745486    -1.2466136491
| 16>  H       -1.2202344132     1.8245149144     0.3867360749
| 17>  H       -0.8461918577    -0.5274129630    -0.4127445054
| 18>  H        1.3334038108    -1.4542474667    -0.9277284100
| 19>  H        3.2370080065    -0.1474510652    -1.3184290370
| 20>  H        2.3145461298     1.3253305939    -0.9971902203
| 21>  H        3.3438354624     1.3013477861     2.4309022457
| 22>  H        2.2011993701     2.0525750603     1.3111872932
| 23>  H        2.0652446284    -0.6527220715     2.6947511230
| 24>  H        0.0615763060     1.6711291369     2.6968945753
| 25>  H       -0.1155577545     0.1560965174     3.5885280319
| 26>  H        1.1942071730     1.2720314330     3.9973854047
| 27>  H        0.3759687108    -1.5243224890     1.3568905002
| 28> *
| 29>
| 30>                          ****END OF INPUT****

CARTESIAN COORDINATES (ANGSTROEM)
---------------------------------
  C     -0.333375    1.566068   -0.202167
  C     -0.017917    0.090655   -0.071486
  C      1.339404   -0.523996   -0.368528
  C      2.579732    0.335390   -0.590838
  O      3.368888    0.505187    0.578897
  C      2.628140    1.086910    1.630569
  C      1.530720    0.144053    2.159902
  C      0.616010    0.852339    3.166146
  C      0.773752   -0.563563    1.039359
  H      0.477174    2.216344    0.129945
  H     -0.548462    1.821075   -1.246614
  H     -1.220234    1.824515    0.386736
  H     -0.846192   -0.527413   -0.412745
  H      1.333404   -1.454247   -0.927728
  H      3.237008   -0.147451   -1.318429
  H      2.314546    1.325331   -0.997190
  H      3.343835    1.301348    2.430902
  H      2.201199    2.052575    1.311187
  H      2.065245   -0.652722    2.694751
  H      0.061576    1.671129    2.696895
  H     -0.115558    0.156097    3.588528
  H      1.194207    1.272031    3.997385
  H      0.375969   -1.524322    1.356891

 Total Charge           Charge          ....    0
 Multiplicity           Mult            ....    1
 Number of Electrons    NEL             ....   70
 Basis Dimension        Dim             ....  363

ORBITAL ENERGIES
----------------

  NO   OCC          E(Eh)            E(eV)
   0   2.0000     -20.545915      -559.0828
   1   2.0000     -11.270377      -306.6825
   2   2.0000     -11.266990      -306.5904
   3   2.0000     -11.231237      -305.6175
   4   2.0000     -11.228471      -305.5422
   5   2.0000     -11.227104      -305.5050
   6   2.0000     -11.223861      -305.4168
   7   2.0000     -11.219361      -305.2943
   8   2.0000     -11.214939      -305.1740
   9   2.0000      -1.368594       -37.2413
  10   2.0000      -1.151932       -31.3457
  11   2.0000      -1.057081       -28.7646
  12   2.0000      -0.978579       -26.6285
  13   2.0000      -0.946165       -25.7465
  14   2.0000      -0.888067       -24.1655
  15   2.0000      -0.849229       -23.1087
  16   2.0000      -0.755257       -20.5516
  17   2.0000      -0.730797       -19.8860
  18   2.0000      -0.692457       -18.8427
  19   2.0000      -0.645399       -17.5622
  20   2.0000      -0.629821       -17.1383
  21   2.0000      -0.619539       -16.8585
  22   2.0000      -0.602201       -16.3867
  23   2.0000      -0.564928       -15.3725
  24   2.0000      -0.561175       -15.2704
  25   2.0000      -0.546879       -14.8813
  26   2.0000      -0.535831       -14.5807
  27   2.0000      -0.523836       -14.2543
  28   2.0000      -0.513768       -13.9803
  29   2.0000      -0.482178       -13.1207
  30   2.0000      -0.473084       -12.8733
  31   2.0000      -0.457420       -12.4470
  32   2.0000      -0.405506       -11.0344
  33   2.0000      -0.392655       -10.6847
  34   2.0000      -0.387177       -10.5356
  35   0.0000       0.132070         3.5938
  36   0.0000       0.153020         4.1639
  37   0.0000       0.157625         4.2892
  38   0.0000       0.177689         4.8352
  39   0.0000       0.192700         5.2436

MULLIKEN ATOMIC CHARGES
-----------------------
   0 C :   -0.420455
   1 C :   -0.108584
   2 C :   -0.125532
   3 C :   -0.077137
   4 O :   -0.306467
   5 C :   -0.117932
   6 C :   -0.001747
   7 C :   -0.422182
   8 C :   -0.112123
   9 H :    0.126630
  10 H :    0.138405
  11 H :    0.139566
  12 H :    0.111547
  13 H :    0.123966
  14 H :    0.125807
  15 H :    0.102624
  16 H :    0.125196
  17 H :    0.098784
  18 H :    0.085208
  19 H :    0.129343
  20 H :    0.132832
  21 H :    0.131434
  22 H :    0.120817
Sum of atomic charges:   -0.0000000

LOEWDIN ATOMIC CHARGES
----------------------
   0 C :   -0.300039
   1 C :   -0.212881
   2 C :   -0.188486
   3 C :   -0.293280
   4 O :    0.157052
   5 C :   -0.300469
   6 C :   -0.266221
   7 C :   -0.287714
   8 C :   -0.165579
   9 H :    0.118876
  10 H :    0.127160
  11 H :    0.126706
  12 H :    0.150947
  13 H :    0.145187
  14 H :    0.133282
  15 H :    0.122826
  16 H :    0.131757
  17 H :    0.117560
  18 H :    0.159616
  19 H :    0.123423
  20 H :    0.125728
  21 H :    0.123642
  22 H :    0.150905

  Mayer bond orders larger than 0.1
B(  0-C ,  1-C ) :   0.9052 B(  0-C ,  9-H ) :   0.9390 B(  0-C , 10-H ) :   0.9355
B(  0-C , 11-H ) :   0.9375 B(  1-C ,  2-C ) :   0.8711 B(  1-C ,  8-C ) :   0.8917
B(  1-C , 12-H ) :   0.9283 B(  2-C ,  3-C ) :   0.9096 B(  2-C ,  8-C ) :   0.8484
B(  2-C , 13-H ) :   0.9262 B(  3-C ,  4-O ) :   0.9424 B(  3-C , 14-H ) :   0.9313
B(  3-C , 15-H ) :   0.9446 B(  4-O ,  5-C ) :   0.9286 B(  5-C ,  6-C ) :   0.9317
B(  5-C , 16-H ) :   0.9282 B(  5-C , 17-H ) :   0.9393 B(  6-C ,  7-C ) :   0.8934
B(  6-C ,  8-C ) :   0.9268 B(  6-C , 18-H ) :   0.9159 B(  7-C , 19-H ) :   0.9314
B(  7-C , 20-H ) :   0.9361 B(  7-C , 21-H ) :   0.9388 B(  8-C , 22-H ) :   0.9259

MP2 TOTAL ENERGY:     -387.607059736 Eh
FINAL SINGLE POINT ENERGY      -387.607059735806

DIPOLE MOMENT
-------------
                                X             Y             Z
Electronic contribution:      4.83218      -3.18099      -1.98115
Nuclear contribution   :     -5.41638       3.20292       1.98604
                        -----------------------------------------
Total Dipole Moment    :     -0.58420       0.02193       0.00490
                        -----------------------------------------
Magnitude (a.u.)       :      0.58463
Magnitude (Debye)      :      1.48602

                             ****ORCA TERMINATED NORMALLY****
TOTAL RUN TIME: 0 days 0 hours 21 minutes 18 seconds 813 msec
