                         Program Version 3.0.3 - RELEASE   -
|  1> ! RI-MP2 RIJK def2-TZVP def2-TZVP/C def2-TZVP/JK TIGHTSCF
|  2> % maxcore 2000
|  3> % mp2 density relaxed end
|  4> *xyz 0 1
|  5>  C        0.1672736084     1.6488649631     0.0282949318
|  6>  C        0.0418581292     0.1224109638     0.0702241420
|  7>  C        0.5474359483    -0.5427886828    -1.2004406930
|  8>  C        0.3432005967    -2.0664720459    -1.4251242302
|  9>  C       -0.3744059247    -1.6941680639    -2.7149624738
| 10>  C       -1.5050358533    -0.7676769801    -2.4467431504
| 11>  N       -0.1724405535    -0.1772872718    -2.4948459579
| 12>  C       -0.1248215138    -2.2787546532    -4.0442467314
| 13>  O        0.4626364051    -3.3178307262    -4.2265377630
| 14>  H        1.2119936904     1.9551003520    -0.0916438815
| 15>  H       -0.3964916373     2.0646585879    -0.8121484081
| 16>  H       -0.2112850083     2.1015972461     0.9493043198
| 17>  H        0.6216304511    -0.2821107212     0.9102359643
| 18>  H       -0.9996741716    -0.1624064705     0.2632752843
| 19>  H        1.5937947073    -0.2658239898    -1.3582111641
| 20>  H        1.2684924754    -2.6166612996    -1.5970024695
| 21>  H       -0.2586041136    -2.6033760892    -0.6864205564
| 22>  H       -2.1248589019    -0.4689744234    -3.2874366069
| 23>  H       -2.0397213279    -0.8707817124    -1.5056518913
| 24>  H       -0.5171907360    -1.6672303428    -4.8878599745
| 25> *
| 26>
| 27>                          ****END OF INPUT****

CARTESIAN COORDINATES (ANGSTROEM)
---------------------------------
  C      0.167274    1.648865    0.028295
  C      0.041858    0.122411    0.070224
  C      0.547436   -0.542789   -1.200441
  C      0.343201   -2.066472   -1.425124
  C     -0.374406   -1.694168   -2.714962
  C     -1.505036   -0.767677   -2.446743
  N     -0.172441   -0.177287   -2.494846
  C     -0.124822   -2.278755   -4.044247
  O      0.462636   -3.317831   -4.226538
  H      1.211994    1.955100   -0.091644
  H     -0.396492    2.064659   -0.812148
  H     -0.211285    2.101597    0.949304
  H      0.621630   -0.282111    0.910236
  H     -0.999674   -0.162406    0.263275
  H      1.593795   -0.265824   -1.358211
  H      1.268492   -2.616661   -1.597002
  H     -0.258604   -2.603376   -0.686421
  H     -2.124859   -0.468974   -3.287437
  H     -2.039721   -0.870782   -1.505652
  H     -0.517191   -1.667230   -4.887860

 Total Charge           Charge          ....    0
 Multiplicity           Mult            ....    1
 Number of Electrons    NEL             ....   68
 Basis Dimension        Dim             ....  345

ORBITAL ENERGIES
----------------

  NO   OCC          E(Eh)            E(eV)
   0   2.0000     -20.557206      -559.3900
   1   2.0000     -15.582187      -424.0129
   2   2.0000     -11.334709      -308.4331
   3   2.0000     -11.280962      -306.9706
   4   2.0000     -11.278724      -306.9097
   5   2.0000     -11.272661      -306.7447
   6   2.0000     -11.239953      -305.8547
   7   2.0000     -11.233283      -305.6732
   8   2.0000     -11.219970      -305.3109
   9   2.0000      -1.395816       -37.9821
  10   2.0000      -1.305746       -35.5311
  11   2.0000      -1.072084       -29.1729
  12   2.0000      -1.006563       -27.3900
  13   2.0000      -0.968800       -26.3624
  14   2.0000      -0.887683       -24.1551
  15   2.0000      -0.872882       -23.7523
  16   2.0000      -0.779155       -21.2019
  17   2.0000      -0.733183       -19.9509
  18   2.0000      -0.700589       -19.0640
  19   2.0000      -0.679630       -18.4937
  20   2.0000      -0.636818       -17.3287
  21   2.0000      -0.629721       -17.1356
  22   2.0000      -0.596856       -16.2413
  23   2.0000      -0.576801       -15.6955
  24   2.0000      -0.560586       -15.2543
  25   2.0000      -0.560435       -15.2502
  26   2.0000      -0.533373       -14.5138
  27   2.0000      -0.515653       -14.0316
  28   2.0000      -0.499801       -13.6003
  29   2.0000      -0.484258       -13.1773
  30   2.0000      -0.461564       -12.5598
  31   2.0000      -0.445896       -12.1334
  32   2.0000      -0.412915       -11.2360
  33   2.0000      -0.383231       -10.4283
  34   0.0000       0.117795         3.2054
  35   0.0000       0.133277         3.6267
  36   0.0000       0.154611         4.2072
  37   0.0000       0.159910         4.3514
  38   0.0000       0.167769         4.5652

MULLIKEN ATOMIC CHARGES
-----------------------
   0 C :   -0.399018
   1 C :   -0.205401
   2 C :   -0.008659
   3 C :   -0.213614
   4 C :    0.154390
   5 C :   -0.168007
   6 N :   -0.265337
   7 C :    0.012473
   8 O :   -0.271491
   9 H :    0.125464
  10 H :    0.143481
  11 H :    0.136231
  12 H :    0.121116
  13 H :    0.095161
  14 H :    0.111612
  15 H :    0.147856
  16 H :    0.125626
  17 H :    0.141099
  18 H :    0.131922
  19 H :    0.085094
Sum of atomic charges:   -0.0000000

LOEWDIN ATOMIC CHARGES
----------------------
   0 C :   -0.312205
   1 C :   -0.281321
   2 C :   -0.238252
   3 C :   -0.179052
   4 C :   -0.237877
   5 C :   -0.226426
   6 N :    0.142059
   7 C :   -0.271350
   8 O :    0.133726
   9 H :    0.123198
  10 H :    0.126029
  11 H :    0.121624
  12 H :    0.144001
  13 H :    0.134302
  14 H :    0.150392
  15 H :    0.145474
  16 H :    0.136414
  17 H :    0.137577
  18 H :    0.131157
  19 H :    0.120532

  Mayer bond orders larger than 0.1
B(  0-C ,  1-C ) :   0.9288 B(  0-C ,  9-H ) :   0.9365 B(  0-C , 10-H ) :   0.9357
B(  0-C , 11-H ) :   0.9396 B(  1-C ,  2-C ) :   0.9482 B(  1-C , 12-H ) :   0.9316
B(  1-C , 13-H ) :   0.9160 B(  2-C ,  3-C ) :   0.9530 B(  2-C ,  6-N ) :   0.8808
B(  2-C , 14-H ) :   0.9166 B(  3-C ,  4-C ) :   0.8841 B(  3-C , 15-H ) :   0.9253
B(  3-C , 16-H ) :   0.9197 B(  4-C ,  5-C ) :   0.8860 B(  4-C ,  6-N ) :   0.7434
B(  4-C ,  7-C ) :   0.8759 B(  5-C ,  6-N ) :   0.8983 B(  5-C , 17-H ) :   0.9210
B(  5-C , 18-H ) :   0.9023 B(  7-C ,  8-O ) :   1.9931 B(  7-C , 19-H ) :   0.9622

MP2 TOTAL ENERGY:     -402.424140161 Eh
FINAL SINGLE POINT ENERGY      -402.424140160914

DIPOLE MOMENT
-------------
                                X             Y             Z
Electronic contribution:      0.53521      -7.14340      -8.74055
Nuclear contribution   :     -1.09178       7.66787       9.69084
                        -----------------------------------------
Total Dipole Moment    :     -0.55658       0.52447       0.95029
                        -----------------------------------------
Magnitude (a.u.)       :      1.21979
Magnitude (Debye)      :      3.10047

                             ****ORCA TERMINATED NORMALLY****
TOTAL RUN TIME: 0 days 0 hours 31 minutes 50 seconds 935 msec
