                         Program Version 3.0.3 - RELEASE   -
|  1> ! RI-MP2 RIJK def2-TZVP def2-TZVP/C def2-TZVP/JK TIGHTSCF
|  2> % maxcore 2000
|  3> % mp2 density relaxed end
|  4> *xyz 0 1
|  5>  C        2.0322240830     2.2078785391     0.5052108267
|  6>  C        1.6488591243     0.7444872398     0.5269982880
|  7>  C        1.1491122843    -0.1272146821    -0.5595462843
|  8>  N        2.5058320267    -0.3824009233     0.0998962101
|  9>  C        3.1588862571    -0.0078200626    -1.2162856572
| 10>  C        4.2092728910    -1.0280342289    -1.6189707435
| 11>  C        1.7760426680     0.0312919161    -1.9537765407
| 12>  C        1.4858750300    -1.2246291958    -2.7856214097
| 13>  C        1.4354134322     1.2713354903    -2.7831243996
| 14>  H        2.5309994842     2.5290191217    -0.4084422612
| 15>  H        1.1370529918     2.8266335768     0.6295236430
| 16>  H        2.7035881409     2.4245184992     1.3436981745
| 17>  H        1.1932283666     0.4779192516     1.4817523025
| 18>  H        0.3135630227    -0.8016099216    -0.3784557835
| 19>  H        3.6372937702     0.9770374906    -1.1742182220
| 20>  H        3.8156520486    -2.0467693168    -1.6083532750
| 21>  H        4.6008239015    -0.8148250047    -2.6195874171
| 22>  H        5.0443763674    -0.9899928704    -0.9121955333
| 23>  H        1.6525802908    -2.1428931349    -2.2166849226
| 24>  H        0.4385140796    -1.2229171754    -3.1089280196
| 25>  H        2.1091410764    -1.2607077514    -3.6852447078
| 26>  H        2.0405539882     1.2990191867    -3.6972334094
| 27>  H        0.3828966188     1.2552982614    -3.0887765926
| 28>  H        1.6062107658     2.2042981547    -2.2431020857
| 29> *
| 30>
| 31>                          ****END OF INPUT****

CARTESIAN COORDINATES (ANGSTROEM)
---------------------------------
  C      2.032224    2.207879    0.505211
  C      1.648859    0.744487    0.526998
  C      1.149112   -0.127215   -0.559546
  N      2.505832   -0.382401    0.099896
  C      3.158886   -0.007820   -1.216286
  C      4.209273   -1.028034   -1.618971
  C      1.776043    0.031292   -1.953777
  C      1.485875   -1.224629   -2.785621
  C      1.435413    1.271335   -2.783124
  H      2.530999    2.529019   -0.408442
  H      1.137053    2.826634    0.629524
  H      2.703588    2.424518    1.343698
  H      1.193228    0.477919    1.481752
  H      0.313563   -0.801610   -0.378456
  H      3.637294    0.977037   -1.174218
  H      3.815652   -2.046769   -1.608353
  H      4.600824   -0.814825   -2.619587
  H      5.044376   -0.989993   -0.912196
  H      1.652580   -2.142893   -2.216685
  H      0.438514   -1.222917   -3.108928
  H      2.109141   -1.260708   -3.685245
  H      2.040554    1.299019   -3.697233
  H      0.382897    1.255298   -3.088777
  H      1.606211    2.204298   -2.243102

 Total Charge           Charge          ....    0
 Multiplicity           Mult            ....    1
 Number of Electrons    NEL             ....   70
 Basis Dimension        Dim             ....  369

ORBITAL ENERGIES
----------------

  NO   OCC          E(Eh)            E(eV)
   0   2.0000     -15.547886      -423.0795
   1   2.0000     -11.258158      -306.3500
   2   2.0000     -11.251177      -306.1601
   3   2.0000     -11.250897      -306.1525
   4   2.0000     -11.240008      -305.8562
   5   2.0000     -11.221866      -305.3625
   6   2.0000     -11.214691      -305.1672
   7   2.0000     -11.214049      -305.1498
   8   2.0000     -11.208287      -304.9930
   9   2.0000      -1.277798       -34.7706
  10   2.0000      -1.074145       -29.2290
  11   2.0000      -1.014792       -27.6139
  12   2.0000      -0.981699       -26.7134
  13   2.0000      -0.932762       -25.3817
  14   2.0000      -0.876175       -23.8419
  15   2.0000      -0.858928       -23.3726
  16   2.0000      -0.761819       -20.7302
  17   2.0000      -0.700748       -19.0683
  18   2.0000      -0.664354       -18.0780
  19   2.0000      -0.632643       -17.2151
  20   2.0000      -0.627292       -17.0695
  21   2.0000      -0.583434       -15.8760
  22   2.0000      -0.565391       -15.3851
  23   2.0000      -0.562451       -15.3051
  24   2.0000      -0.552731       -15.0406
  25   2.0000      -0.542524       -14.7628
  26   2.0000      -0.534955       -14.5569
  27   2.0000      -0.526038       -14.3142
  28   2.0000      -0.514258       -13.9937
  29   2.0000      -0.497669       -13.5423
  30   2.0000      -0.470988       -12.8162
  31   2.0000      -0.439175       -11.9505
  32   2.0000      -0.427417       -11.6306
  33   2.0000      -0.402340       -10.9482
  34   2.0000      -0.354306        -9.6412
  35   0.0000       0.130996         3.5646
  36   0.0000       0.154621         4.2075
  37   0.0000       0.166434         4.5289
  38   0.0000       0.170457         4.6384
  39   0.0000       0.190464         5.1828

MULLIKEN ATOMIC CHARGES
-----------------------
   0 C :   -0.386876
   1 C :   -0.029958
   2 C :   -0.105864
   3 N :   -0.237747
   4 C :   -0.059756
   5 C :   -0.392034
   6 C :    0.155201
   7 C :   -0.461977
   8 C :   -0.395840
   9 H :    0.129068
  10 H :    0.136987
  11 H :    0.140316
  12 H :    0.108177
  13 H :    0.119616
  14 H :    0.089516
  15 H :    0.126475
  16 H :    0.124432
  17 H :    0.135332
  18 H :    0.149972
  19 H :    0.134466
  20 H :    0.136248
  21 H :    0.129203
  22 H :    0.129962
  23 H :    0.125080
Sum of atomic charges:   -0.0000000

LOEWDIN ATOMIC CHARGES
----------------------
   0 C :   -0.298394
   1 C :   -0.272214
   2 C :   -0.162988
   3 N :    0.131535
   4 C :   -0.232103
   5 C :   -0.293613
   6 C :   -0.277325
   7 C :   -0.266705
   8 C :   -0.271813
   9 H :    0.118318
  10 H :    0.131265
  11 H :    0.129581
  12 H :    0.154074
  13 H :    0.134399
  14 H :    0.139052
  15 H :    0.125307
  16 H :    0.124697
  17 H :    0.128132
  18 H :    0.129549
  19 H :    0.127424
  20 H :    0.126646
  21 H :    0.126817
  22 H :    0.127230
  23 H :    0.121127

  Mayer bond orders larger than 0.1
B(  0-C ,  1-C ) :   0.8756 B(  0-C ,  9-H ) :   0.9391 B(  0-C , 10-H ) :   0.9274
B(  0-C , 11-H ) :   0.9356 B(  1-C ,  2-C ) :   0.9574 B(  1-C ,  3-N ) :   0.9227
B(  1-C , 12-H ) :   0.9279 B(  2-C ,  3-N ) :   0.8566 B(  2-C ,  6-C ) :   0.8970
B(  2-C , 13-H ) :   0.8926 B(  3-N ,  4-C ) :   0.9218 B(  4-C ,  5-C ) :   0.8933
B(  4-C ,  6-C ) :   0.9211 B(  4-C , 14-H ) :   0.9436 B(  5-C , 15-H ) :   0.9403
B(  5-C , 16-H ) :   0.9423 B(  5-C , 17-H ) :   0.9347 B(  6-C ,  7-C ) :   0.8812
B(  6-C ,  8-C ) :   0.9232 B(  7-C , 18-H ) :   0.9415 B(  7-C , 19-H ) :   0.9345
B(  7-C , 20-H ) :   0.9381 B(  8-C , 21-H ) :   0.9337 B(  8-C , 22-H ) :   0.9360
B(  8-C , 23-H ) :   0.9316

MP2 TOTAL ENERGY:     -367.716750195 Eh
FINAL SINGLE POINT ENERGY      -367.716750194739

DIPOLE MOMENT
-------------
                                X             Y             Z
Electronic contribution:     -0.85242      -1.49934       4.30411
Nuclear contribution   :      0.64148       1.96682      -4.69552
                        -----------------------------------------
Total Dipole Moment    :     -0.21095       0.46748      -0.39141
                        -----------------------------------------
Magnitude (a.u.)       :      0.64517
Magnitude (Debye)      :      1.63988

                             ****ORCA TERMINATED NORMALLY****
TOTAL RUN TIME: 0 days 0 hours 24 minutes 49 seconds 223 msec
