                         Program Version 3.0.3 - RELEASE   -
|  1> ! RI-MP2 RIJK def2-TZVP def2-TZVP/C def2-TZVP/JK TIGHTSCF
|  2> % maxcore 2000
|  3> % mp2 density relaxed end
|  4> *xyz 0 1
|  5>  C       -0.3360498875     1.4930144462    -0.0652947237
|  6>  C        0.1171844022     0.0323611300     0.0516917815
|  7>  C        0.8357833835    -0.4710826390    -1.1826386238
|  8>  C        0.0217521890    -1.0091321018    -2.3471858857
|  9>  C        0.8866414134    -1.9419099413    -1.5279512077
| 10>  N        2.2069642276    -2.2053362915    -2.0192936995
| 11>  C        2.9903454223    -1.0807556391    -2.1532376754
| 12>  O        4.0738490601    -1.0320840224    -2.6888302582
| 13>  C        2.2157906882     0.0855146040    -1.5131171992
| 14>  H        0.5164751886     2.1636328147    -0.2146620387
| 15>  H       -1.0161796592     1.6271530652    -0.9129203106
| 16>  H       -0.8577030460     1.8157667718     0.8406579103
| 17>  H        0.7770487152    -0.0788422503     0.9225409597
| 18>  H       -0.7544835986    -0.6053245294     0.2450623560
| 19>  H       -1.0531319381    -1.0620472036    -2.2055361803
| 20>  H        0.3364267068    -0.7964850386    -3.3643435357
| 21>  H        0.4463995032    -2.6981295387    -0.8870244082
| 22>  H        2.4380004264    -3.0288043689    -2.5540829622
| 23>  H        2.2109828162     0.9313058920    -2.2059864433
| 24>  H        2.7456075467     0.4112013608    -0.6104648553
| 25> *
| 26>
| 27>                          ****END OF INPUT****

CARTESIAN COORDINATES (ANGSTROEM)
---------------------------------
  C     -0.336050    1.493014   -0.065295
  C      0.117184    0.032361    0.051692
  C      0.835783   -0.471083   -1.182639
  C      0.021752   -1.009132   -2.347186
  C      0.886641   -1.941910   -1.527951
  N      2.206964   -2.205336   -2.019294
  C      2.990345   -1.080756   -2.153238
  O      4.073849   -1.032084   -2.688830
  C      2.215791    0.085515   -1.513117
  H      0.516475    2.163633   -0.214662
  H     -1.016180    1.627153   -0.912920
  H     -0.857703    1.815767    0.840658
  H      0.777049   -0.078842    0.922541
  H     -0.754484   -0.605325    0.245062
  H     -1.053132   -1.062047   -2.205536
  H      0.336427   -0.796485   -3.364344
  H      0.446400   -2.698130   -0.887024
  H      2.438000   -3.028804   -2.554083
  H      2.210983    0.931306   -2.205986
  H      2.745608    0.411201   -0.610465

 Total Charge           Charge          ....    0
 Multiplicity           Mult            ....    1
 Number of Electrons    NEL             ....   68
 Basis Dimension        Dim             ....  345

ORBITAL ENERGIES
----------------

  NO   OCC          E(Eh)            E(eV)
   0   2.0000     -20.516334      -558.2778
   1   2.0000     -15.581890      -424.0048
   2   2.0000     -11.346123      -308.7437
   3   2.0000     -11.278067      -306.8918
   4   2.0000     -11.252576      -306.1982
   5   2.0000     -11.242178      -305.9152
   6   2.0000     -11.238272      -305.8089
   7   2.0000     -11.237727      -305.7941
   8   2.0000     -11.223446      -305.4055
   9   2.0000      -1.380874       -37.5755
  10   2.0000      -1.266005       -34.4498
  11   2.0000      -1.134744       -30.8780
  12   2.0000      -1.033233       -28.1157
  13   2.0000      -1.006525       -27.3889
  14   2.0000      -0.878208       -23.8973
  15   2.0000      -0.849333       -23.1115
  16   2.0000      -0.792433       -21.5632
  17   2.0000      -0.760751       -20.7011
  18   2.0000      -0.699951       -19.0466
  19   2.0000      -0.658285       -17.9129
  20   2.0000      -0.629928       -17.1412
  21   2.0000      -0.625269       -17.0144
  22   2.0000      -0.608483       -16.5577
  23   2.0000      -0.583132       -15.8678
  24   2.0000      -0.573593       -15.6082
  25   2.0000      -0.553800       -15.0697
  26   2.0000      -0.545742       -14.8504
  27   2.0000      -0.532113       -14.4795
  28   2.0000      -0.504895       -13.7389
  29   2.0000      -0.492041       -13.3891
  30   2.0000      -0.461066       -12.5462
  31   2.0000      -0.414409       -11.2766
  32   2.0000      -0.411557       -11.1990
  33   2.0000      -0.368499       -10.0274
  34   0.0000       0.125468         3.4142
  35   0.0000       0.148207         4.0329
  36   0.0000       0.153635         4.1806
  37   0.0000       0.161757         4.4016
  38   0.0000       0.175511         4.7759

MULLIKEN ATOMIC CHARGES
-----------------------
   0 C :   -0.402613
   1 C :   -0.227149
   2 C :    0.081010
   3 C :   -0.307542
   4 C :   -0.001378
   5 N :   -0.322577
   6 C :    0.177686
   7 O :   -0.330578
   8 C :   -0.219769
   9 H :    0.132680
  10 H :    0.129989
  11 H :    0.137408
  12 H :    0.120365
  13 H :    0.108109
  14 H :    0.131009
  15 H :    0.141323
  16 H :    0.136287
  17 H :    0.240423
  18 H :    0.140408
  19 H :    0.134908
Sum of atomic charges:   -0.0000000

LOEWDIN ATOMIC CHARGES
----------------------
   0 C :   -0.308740
   1 C :   -0.250882
   2 C :   -0.224354
   3 C :   -0.184598
   4 C :   -0.221812
   5 N :    0.138010
   6 C :   -0.430790
   7 O :    0.087851
   8 C :   -0.172238
   9 H :    0.122706
  10 H :    0.123048
  11 H :    0.121859
  12 H :    0.142324
  13 H :    0.142003
  14 H :    0.138462
  15 H :    0.138893
  16 H :    0.141958
  17 H :    0.186344
  18 H :    0.153802
  19 H :    0.156154

  Mayer bond orders larger than 0.1
B(  0-C ,  1-C ) :   0.9273 B(  0-C ,  9-H ) :   0.9369 B(  0-C , 10-H ) :   0.9379
B(  0-C , 11-H ) :   0.9402 B(  1-C ,  2-C ) :   0.9107 B(  1-C , 12-H ) :   0.9345
B(  1-C , 13-H ) :   0.9287 B(  2-C ,  3-C ) :   0.8603 B(  2-C ,  4-C ) :   0.8432
B(  2-C ,  8-C ) :   0.9170 B(  3-C ,  4-C ) :   0.9040 B(  3-C , 14-H ) :   0.9185
B(  3-C , 15-H ) :   0.9140 B(  4-C ,  5-N ) :   0.9082 B(  4-C , 16-H ) :   0.9188
B(  5-N ,  6-C ) :   1.1660 B(  5-N , 17-H ) :   0.8617 B(  6-C ,  7-O ) :   2.0287
B(  6-C ,  8-C ) :   0.9312 B(  8-C , 18-H ) :   0.9069 B(  8-C , 19-H ) :   0.9100

MP2 TOTAL ENERGY:     -402.496129416 Eh
FINAL SINGLE POINT ENERGY      -402.496129415798

DIPOLE MOMENT
-------------
                                X             Y             Z
Electronic contribution:      8.15345      -5.81891      -4.63545
Nuclear contribution   :     -9.59514       5.62897       5.15062
                        -----------------------------------------
Total Dipole Moment    :     -1.44168      -0.18994       0.51517
                        -----------------------------------------
Magnitude (a.u.)       :      1.54270
Magnitude (Debye)      :      3.92124

                             ****ORCA TERMINATED NORMALLY****
TOTAL RUN TIME: 0 days 0 hours 18 minutes 52 seconds 499 msec
