                         Program Version 3.0.3 - RELEASE   -
|  1> ! RI-MP2 RIJK def2-TZVP def2-TZVP/C def2-TZVP/JK TIGHTSCF
|  2> % maxcore 2000
|  3> % mp2 density relaxed end
|  4> *xyz 0 1
|  5>  C        0.0938386867     1.5091196371     0.0540708089
|  6>  C       -0.0346868347    -0.0179669617    -0.0234062523
|  7>  C       -1.5128496187    -0.4185532893     0.0720909046
|  8>  C        0.6033170217    -0.5621039914    -1.3482123261
|  9>  C        1.7638384219    -1.5277499562    -1.0931273173
| 10>  C        1.3395837915    -2.5599425664    -0.0105825020
| 11>  C        1.6768989485    -1.4355682315     1.0053556699
| 12>  C        2.7130357752    -0.9132519386    -0.0260117142
| 13>  O        0.6010220090    -0.5365615241     1.1743895369
| 14>  H        1.1422597574     1.8154689617     0.0003453926
| 15>  H       -0.4453999740     1.9868443357    -0.7711076732
| 16>  H       -0.3196529179     1.8746763878     0.9984339170
| 17>  H       -2.0875173484     0.0168086559    -0.7526146198
| 18>  H       -1.6258019758    -1.5055191391     0.0312491213
| 19>  H       -1.9381676874    -0.0673675409     1.0166529161
| 20>  H       -0.1670569461    -1.0693688329    -1.9399582777
| 21>  H        0.9588313561     0.2803737242    -1.9522004204
| 22>  H        2.1912140155    -1.8929894259    -2.0301742221
| 23>  H        0.3177215558    -2.9473638842    -0.0204113699
| 24>  H        2.0470926488    -3.3902157837     0.0622833562
| 25>  H        2.0050051345    -1.6997878350     2.0129088264
| 26>  H        3.6574837065    -1.4594442466     0.0441863698
| 27>  H        2.9105717038     0.1613784450    -0.0495347748
| 28> *
| 29>
| 30>                          ****END OF INPUT****

CARTESIAN COORDINATES (ANGSTROEM)
---------------------------------
  C      0.093839    1.509120    0.054071
  C     -0.034687   -0.017967   -0.023406
  C     -1.512850   -0.418553    0.072091
  C      0.603317   -0.562104   -1.348212
  C      1.763838   -1.527750   -1.093127
  C      1.339584   -2.559943   -0.010583
  C      1.676899   -1.435568    1.005356
  C      2.713036   -0.913252   -0.026012
  O      0.601022   -0.536562    1.174390
  H      1.142260    1.815469    0.000345
  H     -0.445400    1.986844   -0.771108
  H     -0.319653    1.874676    0.998434
  H     -2.087517    0.016809   -0.752615
  H     -1.625802   -1.505519    0.031249
  H     -1.938168   -0.067368    1.016653
  H     -0.167057   -1.069369   -1.939958
  H      0.958831    0.280374   -1.952200
  H      2.191214   -1.892989   -2.030174
  H      0.317722   -2.947364   -0.020411
  H      2.047093   -3.390216    0.062283
  H      2.005005   -1.699788    2.012909
  H      3.657484   -1.459444    0.044186
  H      2.910572    0.161378   -0.049535

 Total Charge           Charge          ....    0
 Multiplicity           Mult            ....    1
 Number of Electrons    NEL             ....   70
 Basis Dimension        Dim             ....  363

ORBITAL ENERGIES
----------------

  NO   OCC          E(Eh)            E(eV)
   0   2.0000     -20.538725      -558.8871
   1   2.0000     -11.284134      -307.0569
   2   2.0000     -11.275401      -306.8192
   3   2.0000     -11.232042      -305.6394
   4   2.0000     -11.222122      -305.3695
   5   2.0000     -11.216727      -305.2227
   6   2.0000     -11.216710      -305.2222
   7   2.0000     -11.207910      -304.9827
   8   2.0000     -11.207895      -304.9823
   9   2.0000      -1.363550       -37.1041
  10   2.0000      -1.129578       -30.7374
  11   2.0000      -1.071397       -29.1542
  12   2.0000      -0.948377       -25.8066
  13   2.0000      -0.933253       -25.3951
  14   2.0000      -0.898575       -24.4515
  15   2.0000      -0.845989       -23.0205
  16   2.0000      -0.790642       -21.5145
  17   2.0000      -0.707457       -19.2509
  18   2.0000      -0.674947       -18.3662
  19   2.0000      -0.625094       -17.0097
  20   2.0000      -0.623504       -16.9664
  21   2.0000      -0.606587       -16.5061
  22   2.0000      -0.587641       -15.9905
  23   2.0000      -0.587292       -15.9810
  24   2.0000      -0.535205       -14.5637
  25   2.0000      -0.533020       -14.5042
  26   2.0000      -0.524807       -14.2807
  27   2.0000      -0.519540       -14.1374
  28   2.0000      -0.513563       -13.9748
  29   2.0000      -0.508675       -13.8417
  30   2.0000      -0.462906       -12.5963
  31   2.0000      -0.441310       -12.0087
  32   2.0000      -0.439306       -11.9541
  33   2.0000      -0.404391       -11.0040
  34   2.0000      -0.387833       -10.5535
  35   0.0000       0.134335         3.6554
  36   0.0000       0.155208         4.2234
  37   0.0000       0.169423         4.6102
  38   0.0000       0.172798         4.7021
  39   0.0000       0.185115         5.0372

MULLIKEN ATOMIC CHARGES
-----------------------
   0 C :   -0.409964
   1 C :    0.214418
   2 C :   -0.409983
   3 C :   -0.308344
   4 C :    0.017436
   5 C :   -0.303335
   6 C :    0.125427
   7 C :   -0.303328
   8 O :   -0.322944
   9 H :    0.123782
  10 H :    0.124841
  11 H :    0.134642
  12 H :    0.124841
  13 H :    0.123767
  14 H :    0.134643
  15 H :    0.124841
  16 H :    0.124833
  17 H :    0.111623
  18 H :    0.113373
  19 H :    0.117576
  20 H :    0.110916
  21 H :    0.117568
  22 H :    0.113373
Sum of atomic charges:   -0.0000000

LOEWDIN ATOMIC CHARGES
----------------------
   0 C :   -0.277460
   1 C :   -0.354600
   2 C :   -0.277463
   3 C :   -0.197300
   4 C :   -0.228671
   5 C :   -0.204434
   6 C :   -0.294572
   7 C :   -0.204434
   8 O :    0.210220
   9 H :    0.121835
  10 H :    0.124760
  11 H :    0.127096
  12 H :    0.124758
  13 H :    0.121827
  14 H :    0.127097
  15 H :    0.144189
  16 H :    0.144187
  17 H :    0.135171
  18 H :    0.126128
  19 H :    0.137966
  20 H :    0.129602
  21 H :    0.137963
  22 H :    0.126134

  Mayer bond orders larger than 0.1
B(  0-C ,  1-C ) :   0.9125 B(  0-C ,  9-H ) :   0.9333 B(  0-C , 10-H ) :   0.9356
B(  0-C , 11-H ) :   0.9370 B(  1-C ,  2-C ) :   0.9126 B(  1-C ,  3-C ) :   0.8874
B(  1-C ,  8-O ) :   0.8520 B(  2-C , 12-H ) :   0.9356 B(  2-C , 13-H ) :   0.9333
B(  2-C , 14-H ) :   0.9370 B(  3-C ,  4-C ) :   0.9234 B(  3-C , 15-H ) :   0.9289
B(  3-C , 16-H ) :   0.9289 B(  4-C ,  5-C ) :   0.9148 B(  4-C ,  7-C ) :   0.9148
B(  4-C , 17-H ) :   0.9319 B(  5-C ,  6-C ) :   0.8989 B(  5-C , 18-H ) :   0.9223
B(  5-C , 19-H ) :   0.9167 B(  6-C ,  7-C ) :   0.8989 B(  6-C ,  8-O ) :   0.9513
B(  6-C , 20-H ) :   0.9359 B(  7-C , 21-H ) :   0.9167 B(  7-C , 22-H ) :   0.9223

MP2 TOTAL ENERGY:     -387.615187154 Eh
FINAL SINGLE POINT ENERGY      -387.615187154406

DIPOLE MOMENT
-------------
                                X             Y             Z
Electronic contribution:      2.26027      -1.86014       2.51585
Nuclear contribution   :     -2.10270       1.72386      -3.01704
                        -----------------------------------------
Total Dipole Moment    :      0.15757      -0.13627      -0.50119
                        -----------------------------------------
Magnitude (a.u.)       :      0.54276
Magnitude (Debye)      :      1.37958

                             ****ORCA TERMINATED NORMALLY****
TOTAL RUN TIME: 0 days 0 hours 24 minutes 27 seconds 138 msec
