                         Program Version 3.0.3 - RELEASE   -
|  1> ! RI-MP2 RIJK def2-TZVP def2-TZVP/C def2-TZVP/JK TIGHTSCF
|  2> % maxcore 2000
|  3> % mp2 density relaxed end
|  4> *xyz 0 1
|  5>  O        0.0165868038     0.0610256987    -0.0587193331
|  6>  C       -0.0087180971     1.2573727329    -0.0135075128
|  7>  C       -1.2276219853     2.1960229997     0.0307371203
|  8>  C       -1.3182325237     2.7213841325     1.4953125120
|  9>  C        0.0452406257     3.0224677186     2.0751814909
| 10>  C        1.1878650128     2.7919605224     1.4238431352
| 11>  C        1.1694278487     2.2514777078    -0.0039291855
| 12>  C        0.6034482558     3.2990911263    -0.9512603187
| 13>  C       -0.7336589028     3.2664158741    -0.9223849226
| 14>  H       -2.1552766225     1.7025659444    -0.2664981109
| 15>  H       -1.9603437182     3.6119431382     1.5424461446
| 16>  H       -1.8128629470     1.9592965718     2.1131551254
| 17>  H        0.0663198675     3.4386556575     3.0793191938
| 18>  H        2.1490584157     2.9994841327     1.8835671401
| 19>  H        2.1201927543     1.8062313982    -0.2983010837
| 20>  H        1.2195822502     3.9774149477    -1.5284608267
| 21>  H       -1.3993537381     3.9142088866    -1.4800262682
| 22> *
| 23>
| 24>                          ****END OF INPUT****

CARTESIAN COORDINATES (ANGSTROEM)
---------------------------------
  O      0.016587    0.061026   -0.058719
  C     -0.008718    1.257373   -0.013508
  C     -1.227622    2.196023    0.030737
  C     -1.318233    2.721384    1.495313
  C      0.045241    3.022468    2.075181
  C      1.187865    2.791961    1.423843
  C      1.169428    2.251478   -0.003929
  C      0.603448    3.299091   -0.951260
  C     -0.733659    3.266416   -0.922385
  H     -2.155277    1.702566   -0.266498
  H     -1.960344    3.611943    1.542446
  H     -1.812863    1.959297    2.113155
  H      0.066320    3.438656    3.079319
  H      2.149058    2.999484    1.883567
  H      2.120193    1.806231   -0.298301
  H      1.219582    3.977415   -1.528461
  H     -1.399354    3.914209   -1.480026

 Total Charge           Charge          ....    0
 Multiplicity           Mult            ....    1
 Number of Electrons    NEL             ....   64
 Basis Dimension        Dim             ....  327

ORBITAL ENERGIES
----------------

  NO   OCC          E(Eh)            E(eV)
   0   2.0000     -20.546893      -559.1094
   1   2.0000     -11.329982      -308.3045
   2   2.0000     -11.251591      -306.1713
   3   2.0000     -11.250222      -306.1341
   4   2.0000     -11.247981      -306.0731
   5   2.0000     -11.246180      -306.0241
   6   2.0000     -11.243181      -305.9425
   7   2.0000     -11.242160      -305.9147
   8   2.0000     -11.240707      -305.8752
   9   2.0000      -1.393157       -37.9097
  10   2.0000      -1.180438       -32.1213
  11   2.0000      -1.063341       -28.9350
  12   2.0000      -1.034894       -28.1609
  13   2.0000      -0.938874       -25.5481
  14   2.0000      -0.884702       -24.0740
  15   2.0000      -0.791313       -21.5327
  16   2.0000      -0.751246       -20.4425
  17   2.0000      -0.704097       -19.1594
  18   2.0000      -0.694834       -18.9074
  19   2.0000      -0.653686       -17.7877
  20   2.0000      -0.621607       -16.9148
  21   2.0000      -0.610047       -16.6002
  22   2.0000      -0.581452       -15.8221
  23   2.0000      -0.567152       -15.4330
  24   2.0000      -0.555497       -15.1158
  25   2.0000      -0.535829       -14.5807
  26   2.0000      -0.533945       -14.5294
  27   2.0000      -0.496307       -13.5052
  28   2.0000      -0.480524       -13.0757
  29   2.0000      -0.407456       -11.0874
  30   2.0000      -0.366677        -9.9778
  31   2.0000      -0.345009        -9.3882
  32   0.0000       0.121718         3.3121
  33   0.0000       0.136709         3.7200
  34   0.0000       0.149810         4.0765
  35   0.0000       0.160688         4.3725
  36   0.0000       0.163090         4.4379

MULLIKEN ATOMIC CHARGES
-----------------------
   0 O :   -0.246677
   1 C :    0.084378
   2 C :    0.056845
   3 C :   -0.201925
   4 C :   -0.170162
   5 C :   -0.244013
   6 C :    0.111210
   7 C :   -0.205329
   8 C :   -0.243047
   9 H :    0.129373
  10 H :    0.125292
  11 H :    0.135841
  12 H :    0.126507
  13 H :    0.131480
  14 H :    0.136923
  15 H :    0.136593
  16 H :    0.136712
Sum of atomic charges:   -0.0000000

LOEWDIN ATOMIC CHARGES
----------------------
   0 O :    0.169848
   1 C :   -0.252336
   2 C :   -0.182511
   3 C :   -0.209770
   4 C :   -0.153795
   5 C :   -0.128827
   6 C :   -0.180712
   7 C :   -0.112245
   8 C :   -0.123430
   9 H :    0.154578
  10 H :    0.146036
  11 H :    0.151892
  12 H :    0.143720
  13 H :    0.143458
  14 H :    0.156046
  15 H :    0.138674
  16 H :    0.139375

  Mayer bond orders larger than 0.1
B(  0-O ,  1-C ) :   2.1027 B(  1-C ,  2-C ) :   0.8566 B(  1-C ,  6-C ) :   0.8550
B(  2-C ,  3-C ) :   0.8813 B(  2-C ,  8-C ) :   0.8967 B(  2-C ,  9-H ) :   0.9051
B(  3-C ,  4-C ) :   0.9447 B(  3-C , 10-H ) :   0.9092 B(  3-C , 11-H ) :   0.9072
B(  4-C ,  5-C ) :   1.7963 B(  4-C , 12-H ) :   0.9241 B(  5-C ,  6-C ) :   0.8610
B(  5-C , 13-H ) :   0.9222 B(  6-C ,  7-C ) :   0.8741 B(  6-C , 14-H ) :   0.9014
B(  7-C ,  8-C ) :   1.7580 B(  7-C , 15-H ) :   0.9191 B(  8-C , 16-H ) :   0.9198

MP2 TOTAL ENERGY:     -384.031958277 Eh
FINAL SINGLE POINT ENERGY      -384.031958277478

DIPOLE MOMENT
-------------
                                X             Y             Z
Electronic contribution:      1.24416      -3.67984      -1.95996
Nuclear contribution   :     -1.35543       4.78405       2.11690
                        -----------------------------------------
Total Dipole Moment    :     -0.11127       1.10421       0.15693
                        -----------------------------------------
Magnitude (a.u.)       :      1.12084
Magnitude (Debye)      :      2.84895

                             ****ORCA TERMINATED NORMALLY****
TOTAL RUN TIME: 0 days 0 hours 17 minutes 49 seconds 494 msec
