                         Program Version 3.0.3 - RELEASE   -
|  1> ! RI-MP2 RIJK def2-TZVP def2-TZVP/C def2-TZVP/JK TIGHTSCF
|  2> % maxcore 2000
|  3> % mp2 density relaxed end
|  4> *xyz 0 1
|  5>  C       -0.0343651166     1.4015132356    -0.0150167464
|  6>  N       -0.0149467548    -0.0508902340    -0.0291506705
|  7>  C        0.5623253633    -0.6438428430     0.9336788252
|  8>  N        1.2124753290    -0.1203026081     2.0570909658
|  9>  C        1.6824209713    -1.1800100350     2.8235964906
| 10>  N        1.4319237683    -2.3459990835     2.3602972918
| 11>  C        0.7081337394    -2.1193893066     1.1342451794
| 12>  C       -0.3897085500    -3.0752919412     0.7081961990
| 13>  C        0.8984393191    -3.0507344280    -0.0477147996
| 14>  H        0.9784181432     1.8356882101    -0.0339829483
| 15>  H       -0.5631853266     1.7691685760    -0.8978812906
| 16>  H       -0.5511383177     1.8067631740     0.8700841774
| 17>  H        1.3170934413     0.8555431709     2.2715783829
| 18>  H        2.2196115578    -0.9859165030     3.7452161162
| 19>  H       -0.5798593837    -3.9059057355     1.3772447543
| 20>  H       -1.2579860617    -2.6109617849     0.2541228146
| 21>  H        0.9120851998    -2.5696362579    -1.0193361597
| 22>  H        1.5986026888    -3.8643487456     0.0989352979
| 23> *
| 24>
| 25>                          ****END OF INPUT****

CARTESIAN COORDINATES (ANGSTROEM)
---------------------------------
  C     -0.034365    1.401513   -0.015017
  N     -0.014947   -0.050890   -0.029151
  C      0.562325   -0.643843    0.933679
  N      1.212475   -0.120303    2.057091
  C      1.682421   -1.180010    2.823596
  N      1.431924   -2.345999    2.360297
  C      0.708134   -2.119389    1.134245
  C     -0.389709   -3.075292    0.708196
  C      0.898439   -3.050734   -0.047715
  H      0.978418    1.835688   -0.033983
  H     -0.563185    1.769169   -0.897881
  H     -0.551138    1.806763    0.870084
  H      1.317093    0.855543    2.271578
  H      2.219612   -0.985917    3.745216
  H     -0.579859   -3.905906    1.377245
  H     -1.257986   -2.610962    0.254123
  H      0.912085   -2.569636   -1.019336
  H      1.598603   -3.864349    0.098935

 Total Charge           Charge          ....    0
 Multiplicity           Mult            ....    1
 Number of Electrons    NEL             ....   66
 Basis Dimension        Dim             ....  333

ORBITAL ENERGIES
----------------

  NO   OCC          E(Eh)            E(eV)
   0   2.0000     -15.607364      -424.6980
   1   2.0000     -15.553268      -423.2260
   2   2.0000     -15.530073      -422.5948
   3   2.0000     -11.321203      -308.0656
   4   2.0000     -11.317354      -307.9608
   5   2.0000     -11.267169      -306.5953
   6   2.0000     -11.246664      -306.0373
   7   2.0000     -11.230431      -305.5956
   8   2.0000     -11.229719      -305.5762
   9   2.0000      -1.342628       -36.5348
  10   2.0000      -1.220537       -33.2125
  11   2.0000      -1.179162       -32.0866
  12   2.0000      -1.112320       -30.2678
  13   2.0000      -0.963656       -26.2224
  14   2.0000      -0.893651       -24.3175
  15   2.0000      -0.826107       -22.4795
  16   2.0000      -0.821394       -22.3513
  17   2.0000      -0.761806       -20.7298
  18   2.0000      -0.718515       -19.5518
  19   2.0000      -0.664382       -18.0787
  20   2.0000      -0.637942       -17.3593
  21   2.0000      -0.618588       -16.8326
  22   2.0000      -0.611904       -16.6508
  23   2.0000      -0.579699       -15.7744
  24   2.0000      -0.570611       -15.5271
  25   2.0000      -0.548126       -14.9153
  26   2.0000      -0.520447       -14.1621
  27   2.0000      -0.453611       -12.3434
  28   2.0000      -0.451862       -12.2958
  29   2.0000      -0.440202       -11.9785
  30   2.0000      -0.425831       -11.5875
  31   2.0000      -0.396252       -10.7826
  32   2.0000      -0.322015        -8.7625
  33   0.0000       0.121772         3.3136
  34   0.0000       0.131289         3.5725
  35   0.0000       0.165872         4.5136
  36   0.0000       0.177277         4.8239
  37   0.0000       0.192867         5.2482

MULLIKEN ATOMIC CHARGES
-----------------------
   0 C :   -0.348866
   1 N :   -0.260031
   2 C :    0.088266
   3 N :   -0.337518
   4 C :    0.066009
   5 N :   -0.276098
   6 C :    0.235163
   7 C :   -0.270643
   8 C :   -0.270623
   9 H :    0.125592
  10 H :    0.149401
  11 H :    0.125075
  12 H :    0.252026
  13 H :    0.149623
  14 H :    0.139799
  15 H :    0.146525
  16 H :    0.146502
  17 H :    0.139798
Sum of atomic charges:    0.0000000

LOEWDIN ATOMIC CHARGES
----------------------
   0 C :   -0.348543
   1 N :    0.055603
   2 C :   -0.291576
   3 N :    0.139620
   4 C :   -0.284923
   5 N :    0.118913
   6 C :   -0.249742
   7 C :   -0.179433
   8 C :   -0.179417
   9 H :    0.108268
  10 H :    0.117293
  11 H :    0.108122
  12 H :    0.186896
  13 H :    0.133538
  14 H :    0.140124
  15 H :    0.142570
  16 H :    0.142563
  17 H :    0.140123

  Mayer bond orders larger than 0.1
B(  0-C ,  1-N ) :   0.8977 B(  0-C ,  9-H ) :   0.9281 B(  0-C , 10-H ) :   0.9500
B(  0-C , 11-H ) :   0.9280 B(  1-N ,  2-C ) :   1.9336 B(  2-C ,  3-N ) :   1.0385
B(  2-C ,  6-C ) :   0.9141 B(  3-N ,  4-C ) :   1.0468 B(  3-N , 12-H ) :   0.8666
B(  4-C ,  5-N ) :   1.7781 B(  4-C , 13-H ) :   0.9189 B(  5-N ,  6-C ) :   1.0167
B(  6-C ,  7-C ) :   0.7863 B(  6-C ,  8-C ) :   0.7862 B(  7-C ,  8-C ) :   0.9785
B(  7-C , 14-H ) :   0.9241 B(  7-C , 15-H ) :   0.9183 B(  8-C , 16-H ) :   0.9183
B(  8-C , 17-H ) :   0.9241

MP2 TOTAL ENERGY:     -397.439540204 Eh
FINAL SINGLE POINT ENERGY      -397.439540204380

DIPOLE MOMENT
-------------
                                X             Y             Z
Electronic contribution:      2.08071      -1.90660       3.47977
Nuclear contribution   :     -1.80350       2.89521      -2.97418
                        -----------------------------------------
Total Dipole Moment    :      0.27721       0.98861       0.50559
                        -----------------------------------------
Magnitude (a.u.)       :      1.14447
Magnitude (Debye)      :      2.90902

                             ****ORCA TERMINATED NORMALLY****
TOTAL RUN TIME: 0 days 0 hours 18 minutes 7 seconds 967 msec
