                         Program Version 3.0.3 - RELEASE   -
|  1> ! RI-MP2 RIJK def2-TZVP def2-TZVP/C def2-TZVP/JK TIGHTSCF
|  2> % maxcore 2000
|  3> % mp2 density relaxed end
|  4> *xyz 0 1
|  5>  C        0.0355551403     1.5382068255    -0.0725744422
|  6>  C        0.0355403008     0.0302835351     0.1509049376
|  7>  O        0.6140022804    -0.3194887608     1.4026896406
|  8>  C       -1.4016953528    -0.5548231139     0.0203133929
|  9>  O       -2.0048637801    -0.1041841857    -1.1630128490
| 10>  C       -1.4009971006    -2.0843640464     0.0348955199
| 11>  O       -1.7493793381    -2.6781495175    -0.9707173936
| 12>  C       -1.0083008035    -2.8701045807     1.2664856076
| 13>  O       -1.1195843136    -4.2486802402     1.0586822707
| 14>  H        1.0563775117     1.9241166597    -0.0066829817
| 15>  H       -0.3831985161     1.7821824248    -1.0498773144
| 16>  H       -0.5756397146     2.0402202666     0.6891853185
| 17>  H        0.6663960387    -0.4507210959    -0.6060909026
| 18>  H        0.2594556354     0.2769945877     2.0715267204
| 19>  H       -1.9775193422    -0.2041715378     0.8943931260
| 20>  H       -2.1601345483    -0.9018715953    -1.6948000819
| 21>  H        0.0119579558    -2.5781038142     1.5504788887
| 22>  H       -1.6574680671    -2.5365001004     2.0943164337
| 23>  H       -1.4472555362    -4.3528529007     0.1530753289
| 24> *
| 25>
| 26>                          ****END OF INPUT****

CARTESIAN COORDINATES (ANGSTROEM)
---------------------------------
  C      0.035555    1.538207   -0.072574
  C      0.035540    0.030284    0.150905
  O      0.614002   -0.319489    1.402690
  C     -1.401695   -0.554823    0.020313
  O     -2.004864   -0.104184   -1.163013
  C     -1.400997   -2.084364    0.034896
  O     -1.749379   -2.678150   -0.970717
  C     -1.008301   -2.870105    1.266486
  O     -1.119584   -4.248680    1.058682
  H      1.056378    1.924117   -0.006683
  H     -0.383199    1.782182   -1.049877
  H     -0.575640    2.040220    0.689185
  H      0.666396   -0.450721   -0.606091
  H      0.259456    0.276995    2.071527
  H     -1.977519   -0.204172    0.894393
  H     -2.160135   -0.901872   -1.694800
  H      0.011958   -2.578104    1.550479
  H     -1.657468   -2.536500    2.094316
  H     -1.447256   -4.352853    0.153075

 Total Charge           Charge          ....    0
 Multiplicity           Mult            ....    1
 Number of Electrons    NEL             ....   72
 Basis Dimension        Dim             ....  339

ORBITAL ENERGIES
----------------

  NO   OCC          E(Eh)            E(eV)
   0   2.0000     -20.581821      -560.0598
   1   2.0000     -20.580786      -560.0317
   2   2.0000     -20.569216      -559.7168
   3   2.0000     -20.559577      -559.4545
   4   2.0000     -11.356816      -309.0347
   5   2.0000     -11.311920      -307.8130
   6   2.0000     -11.306915      -307.6768
   7   2.0000     -11.295880      -307.3765
   8   2.0000     -11.231373      -305.6212
   9   2.0000      -1.438175       -39.1347
  10   2.0000      -1.391121       -37.8543
  11   2.0000      -1.378253       -37.5042
  12   2.0000      -1.361817       -37.0569
  13   2.0000      -1.062997       -28.9256
  14   2.0000      -1.012886       -27.5620
  15   2.0000      -0.941074       -25.6079
  16   2.0000      -0.849091       -23.1049
  17   2.0000      -0.789790       -21.4913
  18   2.0000      -0.754239       -20.5239
  19   2.0000      -0.706225       -19.2174
  20   2.0000      -0.690322       -18.7846
  21   2.0000      -0.680032       -18.5046
  22   2.0000      -0.659730       -17.9522
  23   2.0000      -0.632733       -17.2175
  24   2.0000      -0.616629       -16.7793
  25   2.0000      -0.606500       -16.5037
  26   2.0000      -0.574763       -15.6401
  27   2.0000      -0.558270       -15.1913
  28   2.0000      -0.546882       -14.8814
  29   2.0000      -0.539928       -14.6922
  30   2.0000      -0.530387       -14.4326
  31   2.0000      -0.523913       -14.2564
  32   2.0000      -0.497026       -13.5248
  33   2.0000      -0.455858       -12.4045
  34   2.0000      -0.450226       -12.2513
  35   2.0000      -0.435860       -11.8603
  36   0.0000       0.108741         2.9590
  37   0.0000       0.129340         3.5195
  38   0.0000       0.150315         4.0903
  39   0.0000       0.155507         4.2316
  40   0.0000       0.172534         4.6949

MULLIKEN ATOMIC CHARGES
-----------------------
   0 C :   -0.395566
   1 C :    0.078796
   2 O :   -0.476276
   3 C :    0.035274
   4 O :   -0.475703
   5 C :    0.223321
   6 O :   -0.362270
   7 C :   -0.046760
   8 O :   -0.482734
   9 H :    0.151939
  10 H :    0.161214
  11 H :    0.112511
  12 H :    0.099421
  13 H :    0.320475
  14 H :    0.099487
  15 H :    0.340381
  16 H :    0.168497
  17 H :    0.111935
  18 H :    0.336057
Sum of atomic charges:    0.0000000

LOEWDIN ATOMIC CHARGES
----------------------
   0 C :   -0.298868
   1 C :   -0.348382
   2 O :   -0.012062
   3 C :   -0.321674
   4 O :    0.003463
   5 C :   -0.297486
   6 O :    0.127211
   7 C :   -0.335160
   8 O :   -0.032418
   9 H :    0.128343
  10 H :    0.136598
  11 H :    0.123069
  12 H :    0.148994
  13 H :    0.177377
  14 H :    0.149508
  15 H :    0.184121
  16 H :    0.147511
  17 H :    0.139106
  18 H :    0.180752

  Mayer bond orders larger than 0.1
B(  0-C ,  1-C ) :   0.9482 B(  0-C ,  9-H ) :   0.9393 B(  0-C , 10-H ) :   0.9286
B(  0-C , 11-H ) :   0.9140 B(  1-C ,  2-O ) :   0.9009 B(  1-C ,  3-C ) :   0.8448
B(  1-C , 12-H ) :   0.9096 B(  2-O , 13-H ) :   0.8365 B(  3-C ,  4-O ) :   1.0698
B(  3-C ,  5-C ) :   0.9165 B(  3-C , 14-H ) :   0.9163 B(  4-O , 15-H ) :   0.7973
B(  5-C ,  6-O ) :   1.7986 B(  5-C ,  7-C ) :   0.9659 B(  7-C ,  8-O ) :   0.9966
B(  7-C , 16-H ) :   0.9028 B(  7-C , 17-H ) :   0.8987 B(  8-O , 18-H ) :   0.8110

MP2 TOTAL ENERGY:     -496.554250304 Eh
FINAL SINGLE POINT ENERGY      -496.554250304280

DIPOLE MOMENT
-------------
                                X             Y             Z
Electronic contribution:     -2.51001      -6.17683      -1.63976
Nuclear contribution   :      2.51282       7.16353       2.00405
                        -----------------------------------------
Total Dipole Moment    :      0.00281       0.98670       0.36429
                        -----------------------------------------
Magnitude (a.u.)       :      1.05181
Magnitude (Debye)      :      2.67348

                             ****ORCA TERMINATED NORMALLY****
TOTAL RUN TIME: 0 days 0 hours 15 minutes 13 seconds 27 msec
