                         Program Version 3.0.3 - RELEASE   -
|  1> ! RI-MP2 RIJK def2-TZVP def2-TZVP/C def2-TZVP/JK TIGHTSCF
|  2> % maxcore 2000
|  3> % mp2 density relaxed end
|  4> *xyz 0 1
|  5>  C       -0.3149738949     1.7242795488     0.2122053111
|  6>  C        0.1040258659     0.2613118874     0.0436413002
|  7>  C       -1.1628821752    -0.6333513640    -0.1137120326
|  8>  C       -1.9638036536    -0.3433983097    -1.2972078769
|  9>  C       -2.6155382760    -0.0980280661    -2.2778785778
| 10>  C        1.0815498959     0.0483603255    -1.1344178914
| 11>  C        1.8084858975    -1.2820703856    -0.8389232676
| 12>  C        1.7427715213    -1.4659444619     0.7063606888
| 13>  C        0.9373528642    -0.2575147758     1.2395314221
| 14>  H        0.5641510841     2.3683903139     0.3185269288
| 15>  H       -0.8914361321     2.0734699239    -0.6497316622
| 16>  H       -0.9375642777     1.8582305701     1.1046059073
| 17>  H       -0.8714665512    -1.6905169596    -0.1345790269
| 18>  H       -1.7866902906    -0.5114033974     0.7816364864
| 19>  H       -3.1985268633     0.1131346484    -3.1397134407
| 20>  H        0.5737354944     0.0549267458    -2.1027666380
| 21>  H        1.8009300713     0.8758991686    -1.1422284707
| 22>  H        1.3112691134    -2.1147682766    -1.3460000577
| 23>  H        2.8368878363    -1.2686770325    -1.2096617500
| 24>  H        1.2506163951    -2.4092629135     0.9623945786
| 25>  H        2.7375306529    -1.5092413418     1.1580625260
| 26>  H        1.6205846430     0.5384013813     1.5578614905
| 27>  H        0.3176085193    -0.5069051291     2.1076713026
| 28> *
| 29>
| 30>                          ****END OF INPUT****

CARTESIAN COORDINATES (ANGSTROEM)
---------------------------------
  C     -0.314974    1.724280    0.212205
  C      0.104026    0.261312    0.043641
  C     -1.162882   -0.633351   -0.113712
  C     -1.963804   -0.343398   -1.297208
  C     -2.615538   -0.098028   -2.277879
  C      1.081550    0.048360   -1.134418
  C      1.808486   -1.282070   -0.838923
  C      1.742772   -1.465944    0.706361
  C      0.937353   -0.257515    1.239531
  H      0.564151    2.368390    0.318527
  H     -0.891436    2.073470   -0.649732
  H     -0.937564    1.858231    1.104606
  H     -0.871467   -1.690517   -0.134579
  H     -1.786690   -0.511403    0.781636
  H     -3.198527    0.113135   -3.139713
  H      0.573735    0.054927   -2.102767
  H      1.800930    0.875899   -1.142228
  H      1.311269   -2.114768   -1.346000
  H      2.836888   -1.268677   -1.209662
  H      1.250616   -2.409263    0.962395
  H      2.737531   -1.509241    1.158063
  H      1.620585    0.538401    1.557861
  H      0.317609   -0.506905    2.107671

 Total Charge           Charge          ....    0
 Multiplicity           Mult            ....    1
 Number of Electrons    NEL             ....   68
 Basis Dimension        Dim             ....  363

ORBITAL ENERGIES
----------------

  NO   OCC          E(Eh)            E(eV)
   0   2.0000     -11.246186      -306.0243
   1   2.0000     -11.237225      -305.7804
   2   2.0000     -11.229933      -305.5820
   3   2.0000     -11.217552      -305.2451
   4   2.0000     -11.216915      -305.2278
   5   2.0000     -11.215497      -305.1892
   6   2.0000     -11.215492      -305.1891
   7   2.0000     -11.211801      -305.0886
   8   2.0000     -11.209010      -305.0127
   9   2.0000      -1.140350       -31.0305
  10   2.0000      -1.055053       -28.7094
  11   2.0000      -1.005218       -27.3534
  12   2.0000      -0.961289       -26.1580
  13   2.0000      -0.942041       -25.6342
  14   2.0000      -0.887120       -24.1398
  15   2.0000      -0.778003       -21.1705
  16   2.0000      -0.745152       -20.2766
  17   2.0000      -0.707956       -19.2645
  18   2.0000      -0.650775       -17.7085
  19   2.0000      -0.643226       -17.5031
  20   2.0000      -0.628896       -17.1131
  21   2.0000      -0.594156       -16.1678
  22   2.0000      -0.578690       -15.7470
  23   2.0000      -0.557904       -15.1813
  24   2.0000      -0.552477       -15.0337
  25   2.0000      -0.515203       -14.0194
  26   2.0000      -0.476671       -12.9709
  27   2.0000      -0.470728       -12.8092
  28   2.0000      -0.468082       -12.7372
  29   2.0000      -0.458084       -12.4651
  30   2.0000      -0.453353       -12.3364
  31   2.0000      -0.440821       -11.9953
  32   2.0000      -0.380572       -10.3559
  33   2.0000      -0.378529       -10.3003
  34   0.0000       0.127674         3.4742
  35   0.0000       0.153208         4.1690
  36   0.0000       0.161610         4.3976
  37   0.0000       0.166894         4.5414
  38   0.0000       0.175106         4.7649

MULLIKEN ATOMIC CHARGES
-----------------------
   0 C :   -0.407646
   1 C :    0.187174
   2 C :   -0.403656
   3 C :   -0.013486
   4 C :   -0.166985
   5 C :   -0.275076
   6 C :   -0.254635
   7 C :   -0.257450
   8 C :   -0.260984
   9 H :    0.125638
  10 H :    0.150639
  11 H :    0.127073
  12 H :    0.152490
  13 H :    0.142685
  14 H :    0.186088
  15 H :    0.139600
  16 H :    0.109723
  17 H :    0.122793
  18 H :    0.122313
  19 H :    0.120887
  20 H :    0.120720
  21 H :    0.114661
  22 H :    0.117434
Sum of atomic charges:   -0.0000000

LOEWDIN ATOMIC CHARGES
----------------------
   0 C :   -0.267763
   1 C :   -0.285984
   2 C :   -0.204094
   3 C :   -0.109827
   4 C :   -0.112134
   5 C :   -0.213269
   6 C :   -0.253518
   7 C :   -0.255316
   8 C :   -0.216951
   9 H :    0.124565
  10 H :    0.131910
  11 H :    0.126272
  12 H :    0.163189
  13 H :    0.160755
  14 H :    0.125416
  15 H :    0.142065
  16 H :    0.140203
  17 H :    0.133310
  18 H :    0.131630
  19 H :    0.131326
  20 H :    0.131775
  21 H :    0.140855
  22 H :    0.135585

  Mayer bond orders larger than 0.1
B(  0-C ,  1-C ) :   0.9031 B(  0-C ,  9-H ) :   0.9317 B(  0-C , 10-H ) :   0.9373
B(  0-C , 11-H ) :   0.9348 B(  1-C ,  2-C ) :   0.8769 B(  1-C ,  5-C ) :   0.8916
B(  1-C ,  8-C ) :   0.8800 B(  2-C ,  3-C ) :   1.1043 B(  2-C , 12-H ) :   0.9211
B(  2-C , 13-H ) :   0.9219 B(  3-C ,  4-C ) :   2.6067 B(  4-C , 14-H ) :   0.9022
B(  5-C ,  6-C ) :   0.9388 B(  5-C , 15-H ) :   0.9226 B(  5-C , 16-H ) :   0.9299
B(  6-C ,  7-C ) :   0.9154 B(  6-C , 17-H ) :   0.9391 B(  6-C , 18-H ) :   0.9332
B(  7-C ,  8-C ) :   0.9437 B(  7-C , 19-H ) :   0.9395 B(  7-C , 20-H ) :   0.9341
B(  8-C , 21-H ) :   0.9291 B(  8-C , 22-H ) :   0.9215

MP2 TOTAL ENERGY:     -350.495531827 Eh
FINAL SINGLE POINT ENERGY      -350.495531827265

DIPOLE MOMENT
-------------
                                X             Y             Z
Electronic contribution:     -4.70739      -0.88536      -2.86442
Nuclear contribution   :      4.91551       0.87540       3.02803
                        -----------------------------------------
Total Dipole Moment    :      0.20812      -0.00997       0.16361
                        -----------------------------------------
Magnitude (a.u.)       :      0.26492
Magnitude (Debye)      :      0.67338

                             ****ORCA TERMINATED NORMALLY****
TOTAL RUN TIME: 0 days 0 hours 22 minutes 41 seconds 395 msec
