                         Program Version 3.0.3 - RELEASE   -
|  1> ! RI-MP2 RIJK def2-TZVP def2-TZVP/C def2-TZVP/JK TIGHTSCF
|  2> % maxcore 2000
|  3> % mp2 density relaxed end
|  4> *xyz 0 1
|  5>  N        0.1018242912     1.2481977790    -0.0937047198
|  6>  C        0.0353895840     0.0113757853     0.1341366625
|  7>  O       -1.0291719461    -0.6899625540    -0.3226399507
|  8>  C       -1.0854367523    -2.0685245153    -0.0217895284
|  9>  C       -1.3185404693    -2.3188975763     1.4681024699
| 10>  O       -1.2802381667    -1.4689364879     2.3155352045
| 11>  C       -2.1991350047    -2.7069137095    -0.8343088163
| 12>  C       -3.4917909017    -1.9693964247    -1.0772010359
| 13>  C       -2.5314189264    -2.2117009484    -2.2159460716
| 14>  H        0.9613668978     1.6281844466     0.2966984825
| 15>  H        0.7740360210    -0.6026455794     0.6623109563
| 16>  H       -0.1289589491    -2.5595739653    -0.2785627004
| 17>  H       -1.5212649284    -3.3864111023     1.7133038010
| 18>  H       -2.2683468644    -3.7782545948    -0.6694265947
| 19>  H       -4.4145221158    -2.5371948538    -1.0428487264
| 20>  H       -3.5637327436    -0.9551679642    -0.7031487222
| 21>  H       -1.9793220259    -1.3556338916    -2.5840333598
| 22>  H       -2.7896637198    -2.9497636333    -2.9669730105
| 23> *
| 24>
| 25>                          ****END OF INPUT****

CARTESIAN COORDINATES (ANGSTROEM)
---------------------------------
  N      0.101824    1.248198   -0.093705
  C      0.035390    0.011376    0.134137
  O     -1.029172   -0.689963   -0.322640
  C     -1.085437   -2.068525   -0.021790
  C     -1.318540   -2.318898    1.468102
  O     -1.280238   -1.468936    2.315535
  C     -2.199135   -2.706914   -0.834309
  C     -3.491791   -1.969396   -1.077201
  C     -2.531419   -2.211701   -2.215946
  H      0.961367    1.628184    0.296698
  H      0.774036   -0.602646    0.662311
  H     -0.128959   -2.559574   -0.278563
  H     -1.521265   -3.386411    1.713304
  H     -2.268347   -3.778255   -0.669427
  H     -4.414522   -2.537195   -1.042849
  H     -3.563733   -0.955168   -0.703149
  H     -1.979322   -1.355634   -2.584033
  H     -2.789664   -2.949764   -2.966973

 Total Charge           Charge          ....    0
 Multiplicity           Mult            ....    1
 Number of Electrons    NEL             ....   68
 Basis Dimension        Dim             ....  333

ORBITAL ENERGIES
----------------

  NO   OCC          E(Eh)            E(eV)
   0   2.0000     -20.600616      -560.5713
   1   2.0000     -20.576793      -559.9230
   2   2.0000     -15.539653      -422.8555
   3   2.0000     -11.348401      -308.8057
   4   2.0000     -11.340343      -308.5864
   5   2.0000     -11.324494      -308.1551
   6   2.0000     -11.256304      -306.2996
   7   2.0000     -11.236626      -305.7641
   8   2.0000     -11.235507      -305.7337
   9   2.0000      -1.445521       -39.3346
  10   2.0000      -1.410717       -38.3876
  11   2.0000      -1.204574       -32.7781
  12   2.0000      -1.157622       -31.5005
  13   2.0000      -1.026336       -27.9280
  14   2.0000      -0.863405       -23.4945
  15   2.0000      -0.836110       -22.7517
  16   2.0000      -0.825912       -22.4742
  17   2.0000      -0.799955       -21.7679
  18   2.0000      -0.714220       -19.4349
  19   2.0000      -0.711571       -19.3628
  20   2.0000      -0.695466       -18.9246
  21   2.0000      -0.661764       -18.0075
  22   2.0000      -0.646903       -17.6031
  23   2.0000      -0.633677       -17.2432
  24   2.0000      -0.570972       -15.5369
  25   2.0000      -0.563940       -15.3456
  26   2.0000      -0.542762       -14.7693
  27   2.0000      -0.523614       -14.2483
  28   2.0000      -0.516189       -14.0462
  29   2.0000      -0.464934       -12.6515
  30   2.0000      -0.437938       -11.9169
  31   2.0000      -0.434162       -11.8141
  32   2.0000      -0.425428       -11.5765
  33   2.0000      -0.396022       -10.7763
  34   0.0000       0.116236         3.1629
  35   0.0000       0.125922         3.4265
  36   0.0000       0.144997         3.9456
  37   0.0000       0.157368         4.2822
  38   0.0000       0.167628         4.5614

MULLIKEN ATOMIC CHARGES
-----------------------
   0 N :   -0.344402
   1 C :    0.075974
   2 O :   -0.220594
   3 C :    0.082173
   4 C :    0.080678
   5 O :   -0.244134
   6 C :   -0.129934
   7 C :   -0.273660
   8 C :   -0.265745
   9 H :    0.227052
  10 H :    0.087452
  11 H :    0.112435
  12 H :    0.089411
  13 H :    0.133129
  14 H :    0.135318
  15 H :    0.161823
  16 H :    0.158171
  17 H :    0.134852
Sum of atomic charges:    0.0000000

LOEWDIN ATOMIC CHARGES
----------------------
   0 N :   -0.074947
   1 C :   -0.388136
   2 O :    0.281342
   3 C :   -0.308922
   4 C :   -0.272624
   5 O :    0.158078
   6 C :   -0.217007
   7 C :   -0.217302
   8 C :   -0.217848
   9 H :    0.169769
  10 H :    0.111887
  11 H :    0.156114
  12 H :    0.118167
  13 H :    0.153284
  14 H :    0.131654
  15 H :    0.143085
  16 H :    0.141463
  17 H :    0.131946

  Mayer bond orders larger than 0.1
B(  0-N ,  1-C ) :   1.9604 B(  0-N ,  9-H ) :   0.8502 B(  1-C ,  2-O ) :   1.0208
B(  1-C , 10-H ) :   0.9252 B(  2-O ,  3-C ) :   0.9064 B(  3-C ,  4-C ) :   0.8474
B(  3-C ,  6-C ) :   0.9181 B(  3-C , 11-H ) :   0.9097 B(  4-C ,  5-O ) :   2.0069
B(  4-C , 12-H ) :   0.9313 B(  6-C ,  7-C ) :   0.8997 B(  6-C ,  8-C ) :   0.9027
B(  6-C , 13-H ) :   0.9117 B(  7-C ,  8-C ) :   0.9007 B(  7-C , 14-H ) :   0.9299
B(  7-C , 15-H ) :   0.9186 B(  8-C , 16-H ) :   0.9220 B(  8-C , 17-H ) :   0.9299

MP2 TOTAL ENERGY:     -438.338508337 Eh
FINAL SINGLE POINT ENERGY      -438.338508336735

DIPOLE MOMENT
-------------
                                X             Y             Z
Electronic contribution:      2.68645       2.68282       4.57860
Nuclear contribution   :     -2.18552      -4.23318      -4.82325
                        -----------------------------------------
Total Dipole Moment    :      0.50093      -1.55036      -0.24465
                        -----------------------------------------
Magnitude (a.u.)       :      1.64754
Magnitude (Debye)      :      4.18772

                             ****ORCA TERMINATED NORMALLY****
TOTAL RUN TIME: 0 days 0 hours 15 minutes 59 seconds 289 msec
