                         Program Version 3.0.3 - RELEASE   -
|  1> ! RI-MP2 RIJK def2-TZVP def2-TZVP/C def2-TZVP/JK TIGHTSCF
|  2> % maxcore 2000
|  3> % mp2 density relaxed end
|  4> *xyz 0 1
|  5>  C        0.2913336492     1.2075145537     0.1837066683
|  6>  O       -0.3702253670     0.0496273571    -0.2896620718
|  7>  C        0.3380391505    -0.6067254878    -1.2936914886
|  8>  C        1.3527433336    -1.6888637060    -0.9344215396
|  9>  C        1.7108709520    -2.0065031250     0.5009848032
| 10>  C        0.0167043642    -2.0576269798    -1.5411262190
| 11>  C       -1.0502957604    -2.7619970677    -0.7336087474
| 12>  O        0.1410297743    -2.4857583384    -2.8752863414
| 13>  C       -0.9399449282    -2.1327493489    -3.7162972856
| 14>  H        1.2763892499     0.9710732286     0.6087452647
| 15>  H        0.4292659675     1.9466258193    -0.6199013761
| 16>  H       -0.3403072850     1.6444759643     0.9608482397
| 17>  H        0.5583185478     0.0087980331    -2.1675945105
| 18>  H        2.1707452194    -1.7773704822    -1.6441948075
| 19>  H        0.9192825439    -1.7038978162     1.1904455319
| 20>  H        1.8894519756    -3.0782647307     0.6399827300
| 21>  H        2.6249584256    -1.4798619369     0.7953699692
| 22>  H       -1.1023966131    -2.3649569823     0.2803555211
| 23>  H       -2.0389346121    -2.6244311371    -1.1828213257
| 24>  H       -0.8435918604    -3.8361233787    -0.6871367624
| 25>  H       -1.8617739714    -2.6752899666    -3.4654470861
| 26>  H       -1.1512579354    -1.0544769426    -3.6769853303
| 27>  H       -0.6474665005    -2.4003900794    -4.7347259063
| 28> *
| 29>
| 30>                          ****END OF INPUT****

CARTESIAN COORDINATES (ANGSTROEM)
---------------------------------
  C      0.291334    1.207515    0.183707
  O     -0.370225    0.049627   -0.289662
  C      0.338039   -0.606725   -1.293691
  C      1.352743   -1.688864   -0.934422
  C      1.710871   -2.006503    0.500985
  C      0.016704   -2.057627   -1.541126
  C     -1.050296   -2.761997   -0.733609
  O      0.141030   -2.485758   -2.875286
  C     -0.939945   -2.132749   -3.716297
  H      1.276389    0.971073    0.608745
  H      0.429266    1.946626   -0.619901
  H     -0.340307    1.644476    0.960848
  H      0.558319    0.008798   -2.167595
  H      2.170745   -1.777370   -1.644195
  H      0.919283   -1.703898    1.190446
  H      1.889452   -3.078265    0.639983
  H      2.624958   -1.479862    0.795370
  H     -1.102397   -2.364957    0.280356
  H     -2.038935   -2.624431   -1.182821
  H     -0.843592   -3.836123   -0.687137
  H     -1.861774   -2.675290   -3.465447
  H     -1.151258   -1.054477   -3.676985
  H     -0.647467   -2.400390   -4.734726

 Total Charge           Charge          ....    0
 Multiplicity           Mult            ....    1
 Number of Electrons    NEL             ....   72
 Basis Dimension        Dim             ....  363

ORBITAL ENERGIES
----------------

  NO   OCC          E(Eh)            E(eV)
   0   2.0000     -20.561465      -559.5059
   1   2.0000     -20.553332      -559.2846
   2   2.0000     -11.278685      -306.9086
   3   2.0000     -11.273936      -306.7794
   4   2.0000     -11.272956      -306.7527
   5   2.0000     -11.266106      -306.5663
   6   2.0000     -11.223189      -305.3985
   7   2.0000     -11.215630      -305.1928
   8   2.0000     -11.211914      -305.0917
   9   2.0000      -1.387578       -37.7579
  10   2.0000      -1.371242       -37.3134
  11   2.0000      -1.130195       -30.7542
  12   2.0000      -0.979632       -26.6571
  13   2.0000      -0.958381       -26.0789
  14   2.0000      -0.936028       -25.4706
  15   2.0000      -0.907212       -24.6865
  16   2.0000      -0.781292       -21.2600
  17   2.0000      -0.747462       -20.3395
  18   2.0000      -0.700828       -19.0705
  19   2.0000      -0.666844       -18.1457
  20   2.0000      -0.638461       -17.3734
  21   2.0000      -0.627597       -17.0778
  22   2.0000      -0.620452       -16.8834
  23   2.0000      -0.602685       -16.3999
  24   2.0000      -0.571745       -15.5580
  25   2.0000      -0.565757       -15.3950
  26   2.0000      -0.556666       -15.1477
  27   2.0000      -0.543160       -14.7801
  28   2.0000      -0.533939       -14.5292
  29   2.0000      -0.513827       -13.9820
  30   2.0000      -0.492960       -13.4141
  31   2.0000      -0.488085       -13.2815
  32   2.0000      -0.468706       -12.7542
  33   2.0000      -0.438921       -11.9436
  34   2.0000      -0.382424       -10.4063
  35   2.0000      -0.372403       -10.1336
  36   0.0000       0.135078         3.6757
  37   0.0000       0.157968         4.2985
  38   0.0000       0.163373         4.4456
  39   0.0000       0.181746         4.9455
  40   0.0000       0.194872         5.3027

MULLIKEN ATOMIC CHARGES
-----------------------
   0 C :   -0.224158
   1 O :   -0.312180
   2 C :   -0.042136
   3 C :   -0.089254
   4 C :   -0.442115
   5 C :    0.237826
   6 C :   -0.410984
   7 O :   -0.311775
   8 C :   -0.221110
   9 H :    0.119455
  10 H :    0.116577
  11 H :    0.140301
  12 H :    0.113357
  13 H :    0.121072
  14 H :    0.147994
  15 H :    0.140239
  16 H :    0.135810
  17 H :    0.143270
  18 H :    0.130994
  19 H :    0.137205
  20 H :    0.115579
  21 H :    0.113305
  22 H :    0.140727
Sum of atomic charges:   -0.0000000

LOEWDIN ATOMIC CHARGES
----------------------
   0 C :   -0.346830
   1 O :    0.168202
   2 C :   -0.274243
   3 C :   -0.197457
   4 C :   -0.294867
   5 C :   -0.333619
   6 C :   -0.264010
   7 O :    0.185665
   8 C :   -0.348852
   9 H :    0.104389
  10 H :    0.103546
  11 H :    0.113293
  12 H :    0.137527
  13 H :    0.154791
  14 H :    0.128202
  15 H :    0.127714
  16 H :    0.125236
  17 H :    0.134462
  18 H :    0.128015
  19 H :    0.130479
  20 H :    0.101672
  21 H :    0.103794
  22 H :    0.112892

  Mayer bond orders larger than 0.1
B(  0-C ,  1-O ) :   0.8984 B(  0-C ,  9-H ) :   0.9364 B(  0-C , 10-H ) :   0.9376
B(  0-C , 11-H ) :   0.9399 B(  1-O ,  2-C ) :   0.9745 B(  2-C ,  3-C ) :   0.9139
B(  2-C ,  5-C ) :   0.8896 B(  2-C , 12-H ) :   0.9249 B(  3-C ,  4-C ) :   0.8691
B(  3-C ,  5-C ) :   0.8494 B(  3-C , 13-H ) :   0.9099 B(  4-C , 14-H ) :   0.9413
B(  4-C , 15-H ) :   0.9386 B(  4-C , 16-H ) :   0.9383 B(  5-C ,  6-C ) :   0.9124
B(  5-C ,  7-O ) :   0.9355 B(  6-C , 17-H ) :   0.9243 B(  6-C , 18-H ) :   0.9300
B(  6-C , 19-H ) :   0.9383 B(  7-O ,  8-C ) :   0.9004 B(  8-C , 20-H ) :   0.9346
B(  8-C , 21-H ) :   0.9308 B(  8-C , 22-H ) :   0.9414

MP2 TOTAL ENERGY:     -424.680609656 Eh
FINAL SINGLE POINT ENERGY      -424.680609656440

DIPOLE MOMENT
-------------
                                X             Y             Z
Electronic contribution:      0.16437      -0.26479      -2.67066
Nuclear contribution   :     -0.14650       0.70001       2.76480
                        -----------------------------------------
Total Dipole Moment    :      0.01787       0.43521       0.09413
                        -----------------------------------------
Magnitude (a.u.)       :      0.44564
Magnitude (Debye)      :      1.13272

                             ****ORCA TERMINATED NORMALLY****
TOTAL RUN TIME: 0 days 0 hours 18 minutes 39 seconds 208 msec
