                         Program Version 3.0.3 - RELEASE   -
|  1> ! RI-MP2 RIJK def2-TZVP def2-TZVP/C def2-TZVP/JK TIGHTSCF
|  2> % maxcore 2000
|  3> % mp2 density relaxed end
|  4> *xyz 0 1
|  5>  C        0.3720262084     1.5860773353    -0.4182654757
|  6>  C        0.1569951210     0.1414285297    -0.0510634914
|  7>  O        1.3201198126    -0.6863365444     0.1140319646
|  8>  C        0.4813067405    -0.4626796616     1.2502412918
|  9>  C        1.0898552943     0.2762164291     2.4278070490
| 10>  O        0.0801260408     0.6283768125     3.3578901502
| 11>  C        2.2145159306    -0.5759975577     3.0563099778
| 12>  C        2.8735438591     0.0739460756     4.1802311308
| 13>  C        3.4163837869     0.6200017246     5.1026353844
| 14>  H        1.1914654211     2.0353139892     0.1457516667
| 15>  H        0.6112660615     1.6695869584    -1.4833877856
| 16>  H       -0.5393541972     2.1636855385    -0.2314652657
| 17>  H       -0.6365330963    -0.3500003801    -0.6181844197
| 18>  H       -0.1005908495    -1.3402083309     1.5521314795
| 19>  H        1.5226947971     1.2229354213     2.0960259231
| 20>  H       -0.2013234182    -0.1701053017     3.8182433231
| 21>  H        1.7917840539    -1.5402093035     3.3769161390
| 22>  H        2.9405691878    -0.8098832506     2.2686806758
| 23>  H        3.8963669256     1.1001829762     5.9188372524
| 24> *
| 25>
| 26>                          ****END OF INPUT****

CARTESIAN COORDINATES (ANGSTROEM)
---------------------------------
  C      0.372026    1.586077   -0.418265
  C      0.156995    0.141429   -0.051063
  O      1.320120   -0.686337    0.114032
  C      0.481307   -0.462680    1.250241
  C      1.089855    0.276216    2.427807
  O      0.080126    0.628377    3.357890
  C      2.214516   -0.575998    3.056310
  C      2.873544    0.073946    4.180231
  C      3.416384    0.620002    5.102635
  H      1.191465    2.035314    0.145752
  H      0.611266    1.669587   -1.483388
  H     -0.539354    2.163686   -0.231465
  H     -0.636533   -0.350000   -0.618184
  H     -0.100591   -1.340208    1.552131
  H      1.522695    1.222935    2.096026
  H     -0.201323   -0.170105    3.818243
  H      1.791784   -1.540209    3.376916
  H      2.940569   -0.809883    2.268681
  H      3.896367    1.100183    5.918837

 Total Charge           Charge          ....    0
 Multiplicity           Mult            ....    1
 Number of Electrons    NEL             ....   68
 Basis Dimension        Dim             ....  339

ORBITAL ENERGIES
----------------

  NO   OCC          E(Eh)            E(eV)
   0   2.0000     -20.572188      -559.7977
   1   2.0000     -20.568359      -559.6935
   2   2.0000     -11.299702      -307.4805
   3   2.0000     -11.295071      -307.3545
   4   2.0000     -11.291645      -307.2613
   5   2.0000     -11.259525      -306.3872
   6   2.0000     -11.234380      -305.7030
   7   2.0000     -11.229809      -305.5786
   8   2.0000     -11.221227      -305.3451
   9   2.0000      -1.417339       -38.5678
  10   2.0000      -1.375624       -37.4326
  11   2.0000      -1.083459       -29.4824
  12   2.0000      -1.018797       -27.7229
  13   2.0000      -1.006296       -27.3827
  14   2.0000      -0.934391       -25.4261
  15   2.0000      -0.862023       -23.4568
  16   2.0000      -0.802264       -21.8307
  17   2.0000      -0.727307       -19.7910
  18   2.0000      -0.708736       -19.2857
  19   2.0000      -0.685565       -18.6552
  20   2.0000      -0.650250       -17.6942
  21   2.0000      -0.644103       -17.5269
  22   2.0000      -0.617370       -16.7995
  23   2.0000      -0.591694       -16.1008
  24   2.0000      -0.570963       -15.5367
  25   2.0000      -0.565279       -15.3820
  26   2.0000      -0.556928       -15.1548
  27   2.0000      -0.519662       -14.1407
  28   2.0000      -0.500914       -13.6306
  29   2.0000      -0.477514       -12.9938
  30   2.0000      -0.445831       -12.1317
  31   2.0000      -0.433858       -11.8059
  32   2.0000      -0.387302       -10.5390
  33   2.0000      -0.384183       -10.4542
  34   0.0000       0.126026         3.4294
  35   0.0000       0.148341         4.0366
  36   0.0000       0.160153         4.3580
  37   0.0000       0.168937         4.5970
  38   0.0000       0.177124         4.8198

MULLIKEN ATOMIC CHARGES
-----------------------
   0 C :   -0.385947
   1 C :    0.051453
   2 O :   -0.346576
   3 C :    0.029579
   4 C :    0.116419
   5 O :   -0.462482
   6 C :   -0.487963
   7 C :    0.027607
   8 C :   -0.099021
   9 H :    0.133957
  10 H :    0.142272
  11 H :    0.136989
  12 H :    0.110019
  13 H :    0.115733
  14 H :    0.099295
  15 H :    0.315363
  16 H :    0.143812
  17 H :    0.168308
  18 H :    0.191184
Sum of atomic charges:   -0.0000000

LOEWDIN ATOMIC CHARGES
----------------------
   0 C :   -0.291625
   1 C :   -0.282664
   2 O :    0.158577
   3 C :   -0.264891
   4 C :   -0.324418
   5 O :    0.001918
   6 C :   -0.235488
   7 C :   -0.112134
   8 C :   -0.100592
   9 H :    0.126934
  10 H :    0.131017
  11 H :    0.134115
  12 H :    0.138229
  13 H :    0.137621
  14 H :    0.152814
  15 H :    0.177909
  16 H :    0.157164
  17 H :    0.169116
  18 H :    0.126397

  Mayer bond orders larger than 0.1
B(  0-C ,  1-C ) :   0.8971 B(  0-C ,  9-H ) :   0.9420 B(  0-C , 10-H ) :   0.9335
B(  0-C , 11-H ) :   0.9247 B(  1-C ,  2-O ) :   0.8909 B(  1-C ,  3-C ) :   0.9924
B(  1-C , 12-H ) :   0.9168 B(  2-O ,  3-C ) :   0.8784 B(  3-C ,  4-C ) :   0.9205
B(  3-C , 13-H ) :   0.8781 B(  4-C ,  5-O ) :   0.9170 B(  4-C ,  6-C ) :   0.9316
B(  4-C , 14-H ) :   0.9339 B(  5-O , 15-H ) :   0.8392 B(  6-C ,  7-C ) :   1.1071
B(  6-C ,  8-C ) :  -0.1428 B(  6-C , 16-H ) :   0.9209 B(  6-C , 17-H ) :   0.9169
B(  7-C ,  8-C ) :   2.6234 B(  8-C , 18-H ) :   0.8909

MP2 TOTAL ENERGY:     -422.257136955 Eh
FINAL SINGLE POINT ENERGY      -422.257136954948

DIPOLE MOMENT
-------------
                                X             Y             Z
Electronic contribution:      1.64155      -2.21837       3.43475
Nuclear contribution   :     -2.11184       2.01757      -3.48844
                        -----------------------------------------
Total Dipole Moment    :     -0.47029      -0.20080      -0.05370
                        -----------------------------------------
Magnitude (a.u.)       :      0.51418
Magnitude (Debye)      :      1.30694

                             ****ORCA TERMINATED NORMALLY****
TOTAL RUN TIME: 0 days 0 hours 17 minutes 58 seconds 749 msec
