                         Program Version 3.0.3 - RELEASE   -
|  1> ! RI-MP2 RIJK def2-TZVP def2-TZVP/C def2-TZVP/JK TIGHTSCF
|  2> % maxcore 2000
|  3> % mp2 density relaxed end
|  4> *xyz 0 1
|  5>  O        1.9377139757     4.1522809247     0.1642937175
|  6>  C        1.0627352470     3.3225515504     0.0692912724
|  7>  N        1.2283593722     1.9695769680    -0.0767944977
|  8>  C        2.4217311609     1.2432795611    -0.1546520465
|  9>  C        2.4947673355    -0.0908382797    -0.2830951267
| 10>  C        3.9278965975    -0.5724327463    -0.3015723021
| 11>  C        4.7416367047     0.7229760080    -0.2903235539
| 12>  C        4.5567763097     1.6898911768    -1.4288342508
| 13>  C        3.7700957911     1.8839298008    -0.1471864755
| 14>  H       -0.0151542501     3.5786144055     0.0941310174
| 15>  H        0.3777118338     1.4267063463    -0.1078316574
| 16>  H        1.6443178294    -0.7558192743    -0.3853044505
| 17>  H        4.1553679284    -1.1906832109     0.5781455349
| 18>  H        4.1492466416    -1.1946030814    -1.1789740592
| 19>  H        5.6874413414     0.7370735588     0.2377039868
| 20>  H        5.3638601518     2.3888876307    -1.6204368596
| 21>  H        4.0163866533     1.3654042475    -2.3124449941
| 22>  H        3.9528725160     2.7551392539     0.4634196752
| 23> *
| 24>
| 25>                          ****END OF INPUT****

CARTESIAN COORDINATES (ANGSTROEM)
---------------------------------
  O      1.937714    4.152281    0.164294
  C      1.062735    3.322552    0.069291
  N      1.228359    1.969577   -0.076794
  C      2.421731    1.243280   -0.154652
  C      2.494767   -0.090838   -0.283095
  C      3.927897   -0.572433   -0.301572
  C      4.741637    0.722976   -0.290324
  C      4.556776    1.689891   -1.428834
  C      3.770096    1.883930   -0.147186
  H     -0.015154    3.578614    0.094131
  H      0.377712    1.426706   -0.107832
  H      1.644318   -0.755819   -0.385304
  H      4.155368   -1.190683    0.578146
  H      4.149247   -1.194603   -1.178974
  H      5.687441    0.737074    0.237704
  H      5.363860    2.388888   -1.620437
  H      4.016387    1.365404   -2.312445
  H      3.952873    2.755139    0.463420

 Total Charge           Charge          ....    0
 Multiplicity           Mult            ....    1
 Number of Electrons    NEL             ....   66
 Basis Dimension        Dim             ....  333

ORBITAL ENERGIES
----------------

  NO   OCC          E(Eh)            E(eV)
   0   2.0000     -20.533069      -558.7332
   1   2.0000     -15.609163      -424.7469
   2   2.0000     -11.361027      -309.1493
   3   2.0000     -11.280992      -306.9714
   4   2.0000     -11.231094      -305.6136
   5   2.0000     -11.229973      -305.5831
   6   2.0000     -11.228566      -305.5448
   7   2.0000     -11.224807      -305.4425
   8   2.0000     -11.216688      -305.2216
   9   2.0000      -1.393812       -37.9276
  10   2.0000      -1.262176       -34.3455
  11   2.0000      -1.174376       -31.9564
  12   2.0000      -1.036248       -28.1977
  13   2.0000      -0.966750       -26.3066
  14   2.0000      -0.850188       -23.1348
  15   2.0000      -0.839799       -22.8521
  16   2.0000      -0.782884       -21.3034
  17   2.0000      -0.745803       -20.2943
  18   2.0000      -0.717264       -19.5177
  19   2.0000      -0.694487       -18.8980
  20   2.0000      -0.642125       -17.4731
  21   2.0000      -0.617450       -16.8017
  22   2.0000      -0.593521       -16.1505
  23   2.0000      -0.579032       -15.7563
  24   2.0000      -0.567105       -15.4317
  25   2.0000      -0.541251       -14.7282
  26   2.0000      -0.518810       -14.1175
  27   2.0000      -0.485661       -13.2155
  28   2.0000      -0.479314       -13.0428
  29   2.0000      -0.442915       -12.0523
  30   2.0000      -0.420923       -11.4539
  31   2.0000      -0.400892       -10.9088
  32   2.0000      -0.310434        -8.4473
  33   0.0000       0.126927         3.4539
  34   0.0000       0.135471         3.6864
  35   0.0000       0.152507         4.1499
  36   0.0000       0.174837         4.7575
  37   0.0000       0.181859         4.9486

MULLIKEN ATOMIC CHARGES
-----------------------
   0 O :   -0.343710
   1 C :    0.198873
   2 N :   -0.300283
   3 C :    0.127737
   4 C :   -0.275690
   5 C :   -0.153144
   6 C :   -0.107077
   7 C :   -0.270939
   8 C :   -0.102172
   9 H :    0.083058
  10 H :    0.236429
  11 H :    0.120495
  12 H :    0.117397
  13 H :    0.119282
  14 H :    0.129574
  15 H :    0.131192
  16 H :    0.131387
  17 H :    0.157591
Sum of atomic charges:   -0.0000000

LOEWDIN ATOMIC CHARGES
----------------------
   0 O :    0.080552
   1 C :   -0.418561
   2 N :    0.143187
   3 C :   -0.195088
   4 C :   -0.155871
   5 C :   -0.223176
   6 C :   -0.180554
   7 C :   -0.191524
   8 C :   -0.155040
   9 H :    0.111914
  10 H :    0.198520
  11 H :    0.133284
  12 H :    0.141270
  13 H :    0.141797
  14 H :    0.143794
  15 H :    0.135660
  16 H :    0.137062
  17 H :    0.152773

  Mayer bond orders larger than 0.1
B(  0-O ,  1-C ) :   1.9014 B(  1-C ,  2-N ) :   1.0973 B(  1-C ,  9-H ) :   0.9294
B(  2-N ,  3-C ) :   0.9716 B(  2-N , 10-H ) :   0.8703 B(  3-C ,  4-C ) :   1.6771
B(  3-C ,  8-C ) :   0.9601 B(  4-C ,  5-C ) :   0.9889 B(  4-C , 11-H ) :   0.9160
B(  5-C ,  6-C ) :   0.9541 B(  5-C , 12-H ) :   0.9106 B(  5-C , 13-H ) :   0.9143
B(  6-C ,  7-C ) :   0.9059 B(  6-C ,  8-C ) :   0.8280 B(  6-C , 14-H ) :   0.9277
B(  7-C ,  8-C ) :   0.8581 B(  7-C , 15-H ) :   0.9254 B(  7-C , 16-H ) :   0.9233
B(  8-C , 17-H ) :   0.9258

MP2 TOTAL ENERGY:     -401.274515535 Eh
FINAL SINGLE POINT ENERGY      -401.274515534825

DIPOLE MOMENT
-------------
                                X             Y             Z
Electronic contribution:     -3.83881       4.19210       1.58436
Nuclear contribution   :      3.24351      -5.24126      -1.68787
                        -----------------------------------------
Total Dipole Moment    :     -0.59530      -1.04916      -0.10352
                        -----------------------------------------
Magnitude (a.u.)       :      1.21072
Magnitude (Debye)      :      3.07740

                             ****ORCA TERMINATED NORMALLY****
TOTAL RUN TIME: 0 days 0 hours 17 minutes 49 seconds 260 msec
