                         Program Version 3.0.3 - RELEASE   -
|  1> ! RI-MP2 RIJK def2-TZVP def2-TZVP/C def2-TZVP/JK TIGHTSCF
|  2> % maxcore 2000
|  3> % mp2 density relaxed end
|  4> *xyz 0 1
|  5>  N       -0.0443668975    -1.1347620883    -0.0693239477
|  6>  C       -0.0028475318     0.0188387835    -0.0002283070
|  7>  C        0.0484552598     1.4744869401     0.0636978445
|  8>  C       -0.3551388404     2.0903148075     1.4330528003
|  9>  C        0.6702896714     1.4382241981     2.3970254202
| 10>  C        1.6798902807     2.2977508481     1.6246523025
| 11>  C        0.5786170712     3.3816615782     1.3938088394
| 12>  C        1.1039580913     3.6090760185    -0.0304439918
| 13>  C        1.4727796920     2.1049646856     0.0572063937
| 14>  H       -0.5530233609     1.8645092345    -0.7631892563
| 15>  H       -1.4186543116     2.1399604310     1.6601975796
| 16>  H        0.5548338818     1.8086001992     3.4194333549
| 17>  H        0.7573168046     0.3488250571     2.4043124742
| 18>  H        2.6874522119     2.5278118637     1.9668938386
| 19>  H        0.3554932763     4.1751865441     2.1053111625
| 20>  H        0.4284540166     3.9319268378    -0.8294109323
| 21>  H        1.9891185426     4.2509892381    -0.0156198037
| 22>  H        2.2218147620     1.6450984731    -0.5844603016
| 23> *
| 24>
| 25>                          ****END OF INPUT****

CARTESIAN COORDINATES (ANGSTROEM)
---------------------------------
  N     -0.044367   -1.134762   -0.069324
  C     -0.002848    0.018839   -0.000228
  C      0.048455    1.474487    0.063698
  C     -0.355139    2.090315    1.433053
  C      0.670290    1.438224    2.397025
  C      1.679890    2.297751    1.624652
  C      0.578617    3.381662    1.393809
  C      1.103958    3.609076   -0.030444
  C      1.472780    2.104965    0.057206
  H     -0.553023    1.864509   -0.763189
  H     -1.418654    2.139960    1.660198
  H      0.554834    1.808600    3.419433
  H      0.757317    0.348825    2.404312
  H      2.687452    2.527812    1.966894
  H      0.355493    4.175187    2.105311
  H      0.428454    3.931927   -0.829411
  H      1.989119    4.250989   -0.015620
  H      2.221815    1.645098   -0.584460

 Total Charge           Charge          ....    0
 Multiplicity           Mult            ....    1
 Number of Electrons    NEL             ....   64
 Basis Dimension        Dim             ....  333

ORBITAL ENERGIES
----------------

  NO   OCC          E(Eh)            E(eV)
   0   2.0000     -15.562688      -423.4823
   1   2.0000     -11.279423      -306.9287
   2   2.0000     -11.266422      -306.5749
   3   2.0000     -11.259828      -306.3955
   4   2.0000     -11.259604      -306.3894
   5   2.0000     -11.250161      -306.1324
   6   2.0000     -11.248252      -306.0805
   7   2.0000     -11.240514      -305.8699
   8   2.0000     -11.234720      -305.7123
   9   2.0000      -1.242256       -33.8035
  10   2.0000      -1.207340       -32.8534
  11   2.0000      -1.034997       -28.1637
  12   2.0000      -1.025422       -27.9031
  13   2.0000      -0.919923       -25.0324
  14   2.0000      -0.847478       -23.0610
  15   2.0000      -0.814697       -22.1690
  16   2.0000      -0.734454       -19.9855
  17   2.0000      -0.715106       -19.4590
  18   2.0000      -0.689896       -18.7730
  19   2.0000      -0.641428       -17.4541
  20   2.0000      -0.620095       -16.8736
  21   2.0000      -0.579595       -15.7716
  22   2.0000      -0.549812       -14.9611
  23   2.0000      -0.533548       -14.5186
  24   2.0000      -0.517459       -14.0808
  25   2.0000      -0.494020       -13.4430
  26   2.0000      -0.477414       -12.9911
  27   2.0000      -0.466610       -12.6971
  28   2.0000      -0.455121       -12.3845
  29   2.0000      -0.445100       -12.1118
  30   2.0000      -0.427948       -11.6450
  31   2.0000      -0.417130       -11.3507
  32   0.0000       0.131370         3.5748
  33   0.0000       0.148426         4.0389
  34   0.0000       0.155680         4.2363
  35   0.0000       0.158563         4.3147
  36   0.0000       0.172930         4.7057

MULLIKEN ATOMIC CHARGES
-----------------------
   0 N :   -0.045142
   1 C :   -0.233858
   2 C :   -0.016777
   3 C :   -0.050554
   4 C :   -0.258664
   5 C :   -0.156530
   6 C :   -0.136803
   7 C :   -0.232390
   8 C :   -0.076377
   9 H :    0.140033
  10 H :    0.142424
  11 H :    0.122943
  12 H :    0.146113
  13 H :    0.130412
  14 H :    0.132377
  15 H :    0.118113
  16 H :    0.126678
  17 H :    0.148004
Sum of atomic charges:   -0.0000000

LOEWDIN ATOMIC CHARGES
----------------------
   0 N :    0.058142
   1 C :   -0.170717
   2 C :   -0.187556
   3 C :   -0.139667
   4 C :   -0.198141
   5 C :   -0.146828
   6 C :   -0.147667
   7 C :   -0.203752
   8 C :   -0.137507
   9 H :    0.175718
  10 H :    0.137232
  11 H :    0.143872
  12 H :    0.134867
  13 H :    0.136430
  14 H :    0.136212
  15 H :    0.125917
  16 H :    0.144017
  17 H :    0.139427

  Mayer bond orders larger than 0.1
B(  0-N ,  1-C ) :   2.8882 B(  1-C ,  2-C ) :   0.9375 B(  2-C ,  3-C ) :   0.8928
B(  2-C ,  8-C ) :   0.8694 B(  2-C ,  9-H ) :   0.9033 B(  3-C ,  4-C ) :   0.9231
B(  3-C ,  6-C ) :   0.8766 B(  3-C , 10-H ) :   0.9075 B(  4-C ,  5-C ) :   0.9471
B(  4-C , 11-H ) :   0.9230 B(  4-C , 12-H ) :   0.9108 B(  5-C ,  6-C ) :   0.9001
B(  5-C ,  8-C ) :   0.8834 B(  5-C , 13-H ) :   0.9188 B(  6-C ,  7-C ) :   0.9382
B(  6-C , 14-H ) :   0.9175 B(  7-C ,  8-C ) :   0.9158 B(  7-C , 15-H ) :   0.9171
B(  7-C , 16-H ) :   0.9229 B(  8-C , 17-H ) :   0.9137

MP2 TOTAL ENERGY:     -364.140148760 Eh
FINAL SINGLE POINT ENERGY      -364.140148759533

DIPOLE MOMENT
-------------
                                X             Y             Z
Electronic contribution:     -1.50051      -5.16248      -1.99413
Nuclear contribution   :      1.70565       6.80961       2.27483
                        -----------------------------------------
Total Dipole Moment    :      0.20514       1.64713       0.28070
                        -----------------------------------------
Magnitude (a.u.)       :      1.68342
Magnitude (Debye)      :      4.27892

                             ****ORCA TERMINATED NORMALLY****
TOTAL RUN TIME: 0 days 0 hours 20 minutes 35 seconds 936 msec
