                         Program Version 3.0.3 - RELEASE   -
|  1> ! RI-MP2 RIJK def2-TZVP def2-TZVP/C def2-TZVP/JK TIGHTSCF
|  2> % maxcore 2000
|  3> % mp2 density relaxed end
|  4> *xyz 0 1
|  5>  N        0.0785724485     1.2987486766     0.2792970837
|  6>  C       -0.0739805335    -0.0295696934     0.0005446648
|  7>  N       -1.2134249944    -0.6056269358     0.1671189268
|  8>  C       -1.3723854057    -1.9330672412    -0.2508772512
|  9>  O       -2.1912555955    -2.2835485431    -1.0564909391
| 10>  N       -0.5810950269    -2.8641495861     0.4695427214
| 11>  C        0.6874783191    -2.7958973794     0.3706564910
| 12>  N        1.4624285536    -1.9213709293    -0.4001097329
| 13>  C        1.1262749117    -0.6987504804    -0.5703903962
| 14>  H        0.9976931755     1.6747197278     0.4398943404
| 15>  H       -0.6869354299     1.7486607471     0.7576201295
| 16>  H        1.2921485384    -3.5339104530     0.8975426758
| 17>  H        1.7993053389    -0.0714299696    -1.1616673039
| 18> *
| 19>
| 20>                          ****END OF INPUT****

CARTESIAN COORDINATES (ANGSTROEM)
---------------------------------
  N      0.078572    1.298749    0.279297
  C     -0.073981   -0.029570    0.000545
  N     -1.213425   -0.605627    0.167119
  C     -1.372385   -1.933067   -0.250877
  O     -2.191256   -2.283549   -1.056491
  N     -0.581095   -2.864150    0.469543
  C      0.687478   -2.795897    0.370656
  N      1.462429   -1.921371   -0.400110
  C      1.126275   -0.698750   -0.570390
  H      0.997693    1.674720    0.439894
  H     -0.686935    1.748661    0.757620
  H      1.292149   -3.533910    0.897543
  H      1.799305   -0.071430   -1.161667

 Total Charge           Charge          ....    0
 Multiplicity           Mult            ....    1
 Number of Electrons    NEL             ....   64
 Basis Dimension        Dim             ....  303

ORBITAL ENERGIES
----------------

  NO   OCC          E(Eh)            E(eV)
   0   2.0000     -20.537371      -558.8503
   1   2.0000     -15.623649      -425.1411
   2   2.0000     -15.616445      -424.9451
   3   2.0000     -15.589832      -424.2209
   4   2.0000     -15.580031      -423.9542
   5   2.0000     -11.382123      -309.7233
   6   2.0000     -11.375581      -309.5453
   7   2.0000     -11.349001      -308.8220
   8   2.0000     -11.345635      -308.7304
   9   2.0000      -1.412775       -38.4436
  10   2.0000      -1.337228       -36.3878
  11   2.0000      -1.295051       -35.2401
  12   2.0000      -1.230640       -33.4874
  13   2.0000      -1.196356       -32.5545
  14   2.0000      -0.988271       -26.8922
  15   2.0000      -0.936557       -25.4850
  16   2.0000      -0.827814       -22.5260
  17   2.0000      -0.812709       -22.1149
  18   2.0000      -0.746792       -20.3212
  19   2.0000      -0.708662       -19.2837
  20   2.0000      -0.703109       -19.1326
  21   2.0000      -0.661302       -17.9949
  22   2.0000      -0.656014       -17.8510
  23   2.0000      -0.594301       -16.1717
  24   2.0000      -0.569486       -15.4965
  25   2.0000      -0.538062       -14.6414
  26   2.0000      -0.520919       -14.1749
  27   2.0000      -0.483497       -13.1566
  28   2.0000      -0.468130       -12.7385
  29   2.0000      -0.429345       -11.6831
  30   2.0000      -0.411051       -11.1853
  31   2.0000      -0.396596       -10.7919
  32   0.0000       0.035959         0.9785
  33   0.0000       0.100465         2.7338
  34   0.0000       0.111081         3.0227
  35   0.0000       0.154247         4.1973
  36   0.0000       0.173791         4.7291

MULLIKEN ATOMIC CHARGES
-----------------------
   0 N :   -0.484001
   1 C :    0.268933
   2 N :   -0.227419
   3 C :    0.242303
   4 O :   -0.253669
   5 N :   -0.169796
   6 C :    0.056706
   7 N :   -0.196190
   8 C :   -0.088010
   9 H :    0.267592
  10 H :    0.273566
  11 H :    0.150615
  12 H :    0.159371
Sum of atomic charges:    0.0000000

LOEWDIN ATOMIC CHARGES
----------------------
   0 N :   -0.006990
   1 C :   -0.349487
   2 N :    0.166746
   3 C :   -0.504825
   4 O :    0.155543
   5 N :    0.169671
   6 C :   -0.270621
   7 N :    0.149999
   8 C :   -0.158000
   9 H :    0.175713
  10 H :    0.181895
  11 H :    0.142282
  12 H :    0.148073

  Mayer bond orders larger than 0.1
B(  0-N ,  1-C ) :   1.1180 B(  0-N ,  9-H ) :   0.8679 B(  0-N , 10-H ) :   0.8542
B(  1-C ,  2-N ) :   1.6772 B(  1-C ,  8-C ) :   0.9541 B(  2-N ,  3-C ) :   1.0462
B(  3-C ,  4-O ) :   2.0795 B(  3-C ,  5-N ) :   0.9952 B(  5-N ,  6-C ) :   1.7603
B(  6-C ,  7-N ) :   1.0271 B(  6-C , 11-H ) :   0.9214 B(  7-N ,  8-C ) :   1.7591
B(  8-C , 12-H ) :   0.9187

MP2 TOTAL ENERGY:     -448.210875983 Eh
FINAL SINGLE POINT ENERGY      -448.210875982671

DIPOLE MOMENT
-------------
                                X             Y             Z
Electronic contribution:     -2.32791      -2.92293      -0.56705
Nuclear contribution   :      4.09755       4.64604       1.29474
                        -----------------------------------------
Total Dipole Moment    :      1.76963       1.72311       0.72769
                        -----------------------------------------
Magnitude (a.u.)       :      2.57492
Magnitude (Debye)      :      6.54493

                             ****ORCA TERMINATED NORMALLY****
TOTAL RUN TIME: 0 days 0 hours 13 minutes 6 seconds 950 msec
