                         Program Version 3.0.3 - RELEASE   -
|  1> ! RI-MP2 RIJK def2-TZVP def2-TZVP/C def2-TZVP/JK TIGHTSCF
|  2> % maxcore 2000
|  3> % mp2 density relaxed end
|  4> *xyz 0 1
|  5>  C        0.1228725442     1.5043473597     0.2325865305
|  6>  C       -0.0052285204     0.0473552574     0.0014441156
|  7>  C       -1.0569541838    -0.7861753748    -0.2087008196
|  8>  N       -0.5907031627    -2.0919472335    -0.3697588732
|  9>  C        0.6894356591    -1.9828941441    -0.2514441212
| 10>  O        1.1323752833    -0.7266622522    -0.0256063171
| 11>  N       -2.4094007951    -0.4086148328    -0.2588780345
| 12>  C       -3.2721106893    -1.1524962342    -1.1922826260
| 13>  C       -3.3882334596    -1.3741126784     0.2689868068
| 14>  H        0.5893157865     1.7228734399     1.1998791699
| 15>  H        0.7282277035     1.9870953370    -0.5429793048
| 16>  H       -0.8765620651     1.9438087769     0.2194875794
| 17>  H        1.4376703593    -2.7581607263    -0.3095598160
| 18>  H       -4.0028490269    -0.5446002431    -1.7174400682
| 19>  H       -2.8040397202    -1.9405037167    -1.7745789905
| 20>  H       -2.9973562651    -2.3094543642     0.6581700563
| 21>  H       -4.2053572377    -0.9310540607     0.8305157028
| 22> *
| 23>
| 24>                          ****END OF INPUT****

CARTESIAN COORDINATES (ANGSTROEM)
---------------------------------
  C      0.122873    1.504347    0.232587
  C     -0.005229    0.047355    0.001444
  C     -1.056954   -0.786175   -0.208701
  N     -0.590703   -2.091947   -0.369759
  C      0.689436   -1.982894   -0.251444
  O      1.132375   -0.726662   -0.025606
  N     -2.409401   -0.408615   -0.258878
  C     -3.272111   -1.152496   -1.192283
  C     -3.388233   -1.374113    0.268987
  H      0.589316    1.722873    1.199879
  H      0.728228    1.987095   -0.542979
  H     -0.876562    1.943809    0.219488
  H      1.437670   -2.758161   -0.309560
  H     -4.002849   -0.544600   -1.717440
  H     -2.804040   -1.940504   -1.774579
  H     -2.997356   -2.309454    0.658170
  H     -4.205357   -0.931054    0.830516

 Total Charge           Charge          ....    0
 Multiplicity           Mult            ....    1
 Number of Electrons    NEL             ....   66
 Basis Dimension        Dim             ....  327

ORBITAL ENERGIES
----------------

  NO   OCC          E(Eh)            E(eV)
   0   2.0000     -20.630720      -561.3904
   1   2.0000     -15.569854      -423.6773
   2   2.0000     -15.563227      -423.4969
   3   2.0000     -11.332494      -308.3728
   4   2.0000     -11.285196      -307.0858
   5   2.0000     -11.280709      -306.9637
   6   2.0000     -11.257278      -306.3261
   7   2.0000     -11.256532      -306.3058
   8   2.0000     -11.231651      -305.6288
   9   2.0000      -1.480556       -40.2880
  10   2.0000      -1.290150       -35.1068
  11   2.0000      -1.219140       -33.1745
  12   2.0000      -1.067255       -29.0415
  13   2.0000      -0.969369       -26.3779
  14   2.0000      -0.907728       -24.7005
  15   2.0000      -0.843002       -22.9393
  16   2.0000      -0.821566       -22.3559
  17   2.0000      -0.777831       -21.1659
  18   2.0000      -0.723838       -19.6966
  19   2.0000      -0.663720       -18.0607
  20   2.0000      -0.660941       -17.9851
  21   2.0000      -0.645092       -17.5539
  22   2.0000      -0.603647       -16.4261
  23   2.0000      -0.566198       -15.4070
  24   2.0000      -0.565586       -15.3904
  25   2.0000      -0.547872       -14.9084
  26   2.0000      -0.534053       -14.5323
  27   2.0000      -0.519162       -14.1271
  28   2.0000      -0.484355       -13.1800
  29   2.0000      -0.465791       -12.6748
  30   2.0000      -0.435637       -11.8543
  31   2.0000      -0.393920       -10.7191
  32   2.0000      -0.315521        -8.5858
  33   0.0000       0.143146         3.8952
  34   0.0000       0.150996         4.1088
  35   0.0000       0.171722         4.6728
  36   0.0000       0.178560         4.8589
  37   0.0000       0.187761         5.1092

MULLIKEN ATOMIC CHARGES
-----------------------
   0 C :   -0.410677
   1 C :    0.124991
   2 C :    0.101146
   3 N :   -0.308207
   4 C :    0.098108
   5 O :   -0.208766
   6 N :   -0.239166
   7 C :   -0.164909
   8 C :   -0.164907
   9 H :    0.147358
  10 H :    0.147356
  11 H :    0.171197
  12 H :    0.155552
  13 H :    0.131161
  14 H :    0.144303
  15 H :    0.144298
  16 H :    0.131163
Sum of atomic charges:   -0.0000000

LOEWDIN ATOMIC CHARGES
----------------------
   0 C :   -0.271432
   1 C :   -0.246685
   2 C :   -0.308462
   3 N :    0.113000
   4 C :   -0.332103
   5 O :    0.346111
   6 N :    0.133068
   7 C :   -0.245371
   8 C :   -0.245356
   9 H :    0.135304
  10 H :    0.135311
  11 H :    0.146094
  12 H :    0.131550
  13 H :    0.124075
  14 H :    0.130410
  15 H :    0.130409
  16 H :    0.124076

  Mayer bond orders larger than 0.1
B(  0-C ,  1-C ) :   0.8587 B(  0-C ,  9-H ) :   0.9313 B(  0-C , 10-H ) :   0.9314
B(  0-C , 11-H ) :   0.9410 B(  1-C ,  2-C ) :   1.5627 B(  1-C ,  5-O ) :   1.0309
B(  2-C ,  3-N ) :   1.1379 B(  2-C ,  6-N ) :   1.0694 B(  3-N ,  4-C ) :   1.6430
B(  4-C ,  5-O ) :   1.0914 B(  4-C , 12-H ) :   0.9263 B(  6-N ,  7-C ) :   0.8535
B(  6-N ,  8-C ) :   0.8535 B(  7-C ,  8-C ) :   0.9530 B(  7-C , 13-H ) :   0.9263
B(  7-C , 14-H ) :   0.9180 B(  8-C , 15-H ) :   0.9180 B(  8-C , 16-H ) :   0.9263

MP2 TOTAL ENERGY:     -417.299148701 Eh
FINAL SINGLE POINT ENERGY      -417.299148700986

DIPOLE MOMENT
-------------
                                X             Y             Z
Electronic contribution:      4.25332      -2.88737      -0.09997
Nuclear contribution   :     -4.15351       3.05170       0.13286
                        -----------------------------------------
Total Dipole Moment    :      0.09981       0.16433       0.03289
                        -----------------------------------------
Magnitude (a.u.)       :      0.19506
Magnitude (Debye)      :      0.49580

                             ****ORCA TERMINATED NORMALLY****
TOTAL RUN TIME: 0 days 0 hours 16 minutes 12 seconds 393 msec
