                         Program Version 3.0.3 - RELEASE   -
|  1> ! RI-MP2 RIJK def2-TZVP def2-TZVP/C def2-TZVP/JK TIGHTSCF
|  2> % maxcore 2000
|  3> % mp2 density relaxed end
|  4> *xyz 0 1
|  5>  O       -0.0687252531     0.0686524531    -0.1753632541
|  6>  C       -0.0625694572     1.2671941652    -0.0329765302
|  7>  C       -1.2411446713     2.1665664594     0.1231468016
|  8>  C       -0.7228250331     3.4147115991     0.8454883729
|  9>  C        0.7645819254     3.2025520130     1.1278591092
| 10>  C        1.1722319803     2.1797294442     0.0485472769
| 11>  C        1.2980012775     2.8852086725    -1.3227083670
| 12>  C        0.0026271561     3.6765758129    -1.6609338497
| 13>  C       -1.0791657969     3.5075877652    -0.6017966297
| 14>  H       -2.2256660969     1.7452518135     0.2789500527
| 15>  H       -1.3429082683     3.9099653311     1.5837795803
| 16>  H        1.3427855245     4.1317879697     1.0678757945
| 17>  H        0.9043254128     2.7870469783     2.1317203346
| 18>  H        2.0718941007     1.6097234031     0.2824278813
| 19>  H        2.1636440594     3.5550591381    -1.2964093719
| 20>  H        1.5019368161     2.1383649554    -2.0958414836
| 21>  H        0.2256413761     4.7447310913    -1.7633960386
| 22>  H       -0.3950471682     3.3563179122    -2.6296720751
| 23>  H       -2.0224686039     3.9967817327    -0.8270243439
| 24> *
| 25>
| 26>                          ****END OF INPUT****

CARTESIAN COORDINATES (ANGSTROEM)
---------------------------------
  O     -0.068725    0.068652   -0.175363
  C     -0.062569    1.267194   -0.032977
  C     -1.241145    2.166566    0.123147
  C     -0.722825    3.414712    0.845488
  C      0.764582    3.202552    1.127859
  C      1.172232    2.179729    0.048547
  C      1.298001    2.885209   -1.322708
  C      0.002627    3.676576   -1.660934
  C     -1.079166    3.507588   -0.601797
  H     -2.225666    1.745252    0.278950
  H     -1.342908    3.909965    1.583780
  H      1.342786    4.131788    1.067876
  H      0.904325    2.787047    2.131720
  H      2.071894    1.609723    0.282428
  H      2.163644    3.555059   -1.296409
  H      1.501937    2.138365   -2.095841
  H      0.225641    4.744731   -1.763396
  H     -0.395047    3.356318   -2.629672
  H     -2.022469    3.996782   -0.827024

 Total Charge           Charge          ....    0
 Multiplicity           Mult            ....    1
 Number of Electrons    NEL             ....   66
 Basis Dimension        Dim             ....  339

ORBITAL ENERGIES
----------------

  NO   OCC          E(Eh)            E(eV)
   0   2.0000     -20.534719      -558.7781
   1   2.0000     -11.319828      -308.0282
   2   2.0000     -11.251646      -306.1728
   3   2.0000     -11.248947      -306.0994
   4   2.0000     -11.238716      -305.8210
   5   2.0000     -11.238119      -305.8048
   6   2.0000     -11.238056      -305.8031
   7   2.0000     -11.236616      -305.7639
   8   2.0000     -11.236075      -305.7491
   9   2.0000      -1.378126       -37.5007
  10   2.0000      -1.205108       -32.7927
  11   2.0000      -1.063771       -28.9467
  12   2.0000      -1.024798       -27.8862
  13   2.0000      -0.941559       -25.6211
  14   2.0000      -0.858453       -23.3597
  15   2.0000      -0.830473       -22.5983
  16   2.0000      -0.762465       -20.7477
  17   2.0000      -0.712866       -19.3981
  18   2.0000      -0.686599       -18.6833
  19   2.0000      -0.648115       -17.6361
  20   2.0000      -0.623833       -16.9754
  21   2.0000      -0.611085       -16.6285
  22   2.0000      -0.583960       -15.8904
  23   2.0000      -0.559400       -15.2221
  24   2.0000      -0.556728       -15.1493
  25   2.0000      -0.544040       -14.8041
  26   2.0000      -0.522214       -14.2102
  27   2.0000      -0.518652       -14.1133
  28   2.0000      -0.478560       -13.0223
  29   2.0000      -0.458708       -12.4821
  30   2.0000      -0.418563       -11.3897
  31   2.0000      -0.404835       -11.0161
  32   2.0000      -0.382095       -10.3973
  33   0.0000       0.124586         3.3902
  34   0.0000       0.145827         3.9682
  35   0.0000       0.154201         4.1960
  36   0.0000       0.163927         4.4607
  37   0.0000       0.174069         4.7367

MULLIKEN ATOMIC CHARGES
-----------------------
   0 O :   -0.276572
   1 C :    0.045848
   2 C :   -0.123865
   3 C :   -0.078630
   4 C :   -0.312610
   5 C :    0.154290
   6 C :   -0.319555
   7 C :   -0.185170
   8 C :   -0.173585
   9 H :    0.139001
  10 H :    0.134657
  11 H :    0.117056
  12 H :    0.129339
  13 H :    0.120638
  14 H :    0.125512
  15 H :    0.134135
  16 H :    0.118236
  17 H :    0.124302
  18 H :    0.126975
Sum of atomic charges:   -0.0000000

LOEWDIN ATOMIC CHARGES
----------------------
   0 O :    0.145043
   1 C :   -0.288292
   2 C :   -0.131735
   3 C :   -0.162741
   4 C :   -0.198627
   5 C :   -0.198745
   6 C :   -0.220309
   7 C :   -0.227810
   8 C :   -0.170208
   9 H :    0.149808
  10 H :    0.145506
  11 H :    0.139207
  12 H :    0.143996
  13 H :    0.153785
  14 H :    0.139133
  15 H :    0.143008
  16 H :    0.141939
  17 H :    0.142773
  18 H :    0.154270

  Mayer bond orders larger than 0.1
B(  0-O ,  1-C ) :   2.0385 B(  1-C ,  2-C ) :   0.9815 B(  1-C ,  5-C ) :   0.8173
B(  2-C ,  3-C ) :   0.7764 B(  2-C ,  5-C ) :  -0.1496 B(  2-C ,  8-C ) :   0.8267
B(  2-C ,  9-H ) :   0.9236 B(  3-C ,  4-C ) :   0.9614 B(  3-C ,  8-C ) :   0.8891
B(  3-C , 10-H ) :   0.9268 B(  4-C ,  5-C ) :   0.8823 B(  4-C , 11-H ) :   0.9212
B(  4-C , 12-H ) :   0.9255 B(  5-C ,  6-C ) :   0.8553 B(  5-C , 13-H ) :   0.9182
B(  6-C ,  7-C ) :   0.9684 B(  6-C , 14-H ) :   0.9250 B(  6-C , 15-H ) :   0.9270
B(  7-C ,  8-C ) :   0.9380 B(  7-C , 16-H ) :   0.9213 B(  7-C , 17-H ) :   0.9254
B(  8-C , 18-H ) :   0.9257

MP2 TOTAL ENERGY:     -385.253954376 Eh
FINAL SINGLE POINT ENERGY      -385.253954376448

DIPOLE MOMENT
-------------
                                X             Y             Z
Electronic contribution:     -1.87271      -5.48271       1.30476
Nuclear contribution   :      1.87605       6.83409      -1.23788
                        -----------------------------------------
Total Dipole Moment    :      0.00333       1.35137       0.06688
                        -----------------------------------------
Magnitude (a.u.)       :      1.35303
Magnitude (Debye)      :      3.43913

                             ****ORCA TERMINATED NORMALLY****
TOTAL RUN TIME: 0 days 0 hours 22 minutes 54 seconds 553 msec
