                         Program Version 3.0.3 - RELEASE   -
|  1> ! RI-MP2 RIJK def2-TZVP def2-TZVP/C def2-TZVP/JK TIGHTSCF
|  2> % maxcore 2000
|  3> % mp2 density relaxed end
|  4> *xyz 0 1
|  5>  C       -0.7607531516     0.9081041564    -0.1086842269
|  6>  C        0.0707931290    -0.3552122036    -0.0141955571
|  7>  C        1.5089562507    -0.3744048441    -0.4770619873
|  8>  O        2.0512227808     0.8671326295    -0.8297419666
|  9>  C        1.1886691903    -0.6496542326     0.9788749814
| 10>  C        1.7256176237     0.1857672135     2.1109378903
| 11>  C        3.1371805967    -0.2286590233     2.5034637583
| 12>  C        1.3702028918     1.6392714280     2.3251439229
| 13>  C        0.8029098007     0.5854525188     3.2433765085
| 14>  H       -0.1318652406     1.7895340608    -0.2397078153
| 15>  H       -1.4177454716     0.8464829747    -0.9827637795
| 16>  H       -1.3986818247     1.0529098103     0.7694824625
| 17>  H       -0.4905344161    -1.2503678671    -0.2705052758
| 18>  H        1.8482886166    -1.1987053369    -1.1044087466
| 19>  H        2.8701229138     0.9892945725    -0.3397200573
| 20>  H        1.2394493061    -1.7083710912     1.2333166850
| 21>  H        3.8486623264    -0.0716656400     1.6826957638
| 22>  H        3.4948315130     0.3437564697     3.3650242925
| 23>  H        3.1777772289    -1.2919842962     2.7679691472
| 24>  H        2.1528385616     2.2823514900     2.7154403811
| 25>  H        0.6989090667     2.1350172458     1.6400576177
| 26>  H       -0.2496379645     0.3448025783     3.1413226269
| 27>  H        1.1786385825     0.5237003767     4.2596174044
| 28> *
| 29>
| 30>                          ****END OF INPUT****

CARTESIAN COORDINATES (ANGSTROEM)
---------------------------------
  C     -0.760753    0.908104   -0.108684
  C      0.070793   -0.355212   -0.014196
  C      1.508956   -0.374405   -0.477062
  O      2.051223    0.867133   -0.829742
  C      1.188669   -0.649654    0.978875
  C      1.725618    0.185767    2.110938
  C      3.137181   -0.228659    2.503464
  C      1.370203    1.639271    2.325144
  C      0.802910    0.585453    3.243377
  H     -0.131865    1.789534   -0.239708
  H     -1.417745    0.846483   -0.982764
  H     -1.398682    1.052910    0.769482
  H     -0.490534   -1.250368   -0.270505
  H      1.848289   -1.198705   -1.104409
  H      2.870123    0.989295   -0.339720
  H      1.239449   -1.708371    1.233317
  H      3.848662   -0.071666    1.682696
  H      3.494832    0.343756    3.365024
  H      3.177777   -1.291984    2.767969
  H      2.152839    2.282351    2.715440
  H      0.698909    2.135017    1.640058
  H     -0.249638    0.344803    3.141323
  H      1.178639    0.523700    4.259617

 Total Charge           Charge          ....    0
 Multiplicity           Mult            ....    1
 Number of Electrons    NEL             ....   70
 Basis Dimension        Dim             ....  363

ORBITAL ENERGIES
----------------

  NO   OCC          E(Eh)            E(eV)
   0   2.0000     -20.557076      -559.3865
   1   2.0000     -11.273834      -306.7766
   2   2.0000     -11.241284      -305.8909
   3   2.0000     -11.229456      -305.5690
   4   2.0000     -11.228659      -305.5473
   5   2.0000     -11.220998      -305.3389
   6   2.0000     -11.220202      -305.3172
   7   2.0000     -11.219454      -305.2969
   8   2.0000     -11.210459      -305.0521
   9   2.0000      -1.366839       -37.1936
  10   2.0000      -1.162166       -31.6242
  11   2.0000      -1.111064       -30.2336
  12   2.0000      -0.976583       -26.5742
  13   2.0000      -0.952316       -25.9138
  14   2.0000      -0.849575       -23.1181
  15   2.0000      -0.822038       -22.3688
  16   2.0000      -0.782206       -21.2849
  17   2.0000      -0.727514       -19.7967
  18   2.0000      -0.693053       -18.8589
  19   2.0000      -0.666737       -18.1428
  20   2.0000      -0.643979       -17.5236
  21   2.0000      -0.615483       -16.7482
  22   2.0000      -0.584338       -15.9006
  23   2.0000      -0.567551       -15.4439
  24   2.0000      -0.562437       -15.3047
  25   2.0000      -0.541971       -14.7478
  26   2.0000      -0.537424       -14.6241
  27   2.0000      -0.523429       -14.2432
  28   2.0000      -0.507572       -13.8117
  29   2.0000      -0.487396       -13.2627
  30   2.0000      -0.478287       -13.0148
  31   2.0000      -0.434822       -11.8321
  32   2.0000      -0.412298       -11.2192
  33   2.0000      -0.385256       -10.4833
  34   2.0000      -0.368835       -10.0365
  35   0.0000       0.131043         3.5659
  36   0.0000       0.152887         4.1603
  37   0.0000       0.162374         4.4184
  38   0.0000       0.165804         4.5117
  39   0.0000       0.184312         5.0154

MULLIKEN ATOMIC CHARGES
-----------------------
   0 C :   -0.436472
   1 C :   -0.053387
   2 C :    0.016681
   3 O :   -0.476569
   4 C :   -0.116029
   5 C :    0.052282
   6 C :   -0.403055
   7 C :   -0.270757
   8 C :   -0.302907
   9 H :    0.158882
  10 H :    0.136631
  11 H :    0.130189
  12 H :    0.116390
  13 H :    0.109862
  14 H :    0.327906
  15 H :    0.111401
  16 H :    0.112214
  17 H :    0.132718
  18 H :    0.131979
  19 H :    0.124383
  20 H :    0.137769
  21 H :    0.132751
  22 H :    0.127136
Sum of atomic charges:   -0.0000000

LOEWDIN ATOMIC CHARGES
----------------------
   0 C :   -0.297520
   1 C :   -0.208612
   2 C :   -0.294917
   3 O :    0.004782
   4 C :   -0.164899
   5 C :   -0.262822
   6 C :   -0.262694
   7 C :   -0.208481
   8 C :   -0.204176
   9 H :    0.128562
  10 H :    0.127469
  11 H :    0.122181
  12 H :    0.150024
  13 H :    0.127098
  14 H :    0.179189
  15 H :    0.158541
  16 H :    0.120076
  17 H :    0.127962
  18 H :    0.127124
  19 H :    0.132250
  20 H :    0.133402
  21 H :    0.134412
  22 H :    0.131049

  Mayer bond orders larger than 0.1
B(  0-C ,  1-C ) :   0.8970 B(  0-C ,  9-H ) :   0.9361 B(  0-C , 10-H ) :   0.9329
B(  0-C , 11-H ) :   0.9401 B(  1-C ,  2-C ) :   0.8604 B(  1-C ,  4-C ) :   0.8670
B(  1-C , 12-H ) :   0.9256 B(  2-C ,  3-O ) :   0.9807 B(  2-C ,  4-C ) :   0.8719
B(  2-C , 13-H ) :   0.9593 B(  3-O , 14-H ) :   0.8409 B(  4-C ,  5-C ) :   0.9194
B(  4-C , 15-H ) :   0.9225 B(  5-C ,  6-C ) :   0.9204 B(  5-C ,  7-C ) :   0.8721
B(  5-C ,  8-C ) :   0.8589 B(  6-C , 16-H ) :   0.9349 B(  6-C , 17-H ) :   0.9304
B(  6-C , 18-H ) :   0.9414 B(  7-C ,  8-C ) :   0.9101 B(  7-C , 19-H ) :   0.9322
B(  7-C , 20-H ) :   0.9233 B(  8-C , 21-H ) :   0.9322 B(  8-C , 22-H ) :   0.9294

MP2 TOTAL ENERGY:     -387.580623271 Eh
FINAL SINGLE POINT ENERGY      -387.580623271473

DIPOLE MOMENT
-------------
                                X             Y             Z
Electronic contribution:      0.92496      -0.73580      -3.27454
Nuclear contribution   :     -0.69251       0.41452       3.68101
                        -----------------------------------------
Total Dipole Moment    :      0.23244      -0.32128       0.40648
                        -----------------------------------------
Magnitude (a.u.)       :      0.56787
Magnitude (Debye)      :      1.44341

                             ****ORCA TERMINATED NORMALLY****
TOTAL RUN TIME: 0 days 0 hours 20 minutes 27 seconds 28 msec
