                         Program Version 3.0.3 - RELEASE   -
|  1> ! RI-MP2 RIJK def2-TZVP def2-TZVP/C def2-TZVP/JK TIGHTSCF
|  2> % maxcore 2000
|  3> % mp2 density relaxed end
|  4> *xyz 0 1
|  5>  C       -0.3922203555     1.4210799589    -0.0217982754
|  6>  C        0.0622526794    -0.0295862451    -0.0679329448
|  7>  C        1.4136874074    -0.3527337421    -0.7342547234
|  8>  O        1.8608292452    -1.0866190537     0.4191939748
|  9>  C        0.6860697555    -0.6983700371     1.1911107866
| 10>  C        1.0918420117     0.1683410786     2.4087585528
| 11>  C        1.0341774147    -0.7972469920     3.5668897693
| 12>  C        0.4312132889    -1.9376527796     3.2354655816
| 13>  C       -0.0149303700    -1.9346547063     1.7955227702
| 14>  H        0.3989926565     2.0820466543     0.3468547810
| 15>  H       -0.6732824992     1.7668787836    -1.0226773838
| 16>  H       -1.2664111443     1.5481280746     0.6260318678
| 17>  H       -0.7416272413    -0.6541306785    -0.4705526849
| 18>  H        1.3887842795    -0.9748312888    -1.6368484646
| 19>  H        2.0427109879     0.5277274324    -0.9305821434
| 20>  H        2.0849456768     0.6011318787     2.2474639822
| 21>  H        0.3979901831     1.0061019117     2.5631322111
| 22>  H        1.4227258561    -0.5536125555     4.5494295928
| 23>  H        0.2498169221    -2.7710263039     3.9048284482
| 24>  H       -1.1084065217    -1.8454886824     1.7156708089
| 25>  H        0.2740523170    -2.8325643077     1.2385263028
| 26> *
| 27>
| 28>                          ****END OF INPUT****

CARTESIAN COORDINATES (ANGSTROEM)
---------------------------------
  C     -0.392220    1.421080   -0.021798
  C      0.062253   -0.029586   -0.067933
  C      1.413687   -0.352734   -0.734255
  O      1.860829   -1.086619    0.419194
  C      0.686070   -0.698370    1.191111
  C      1.091842    0.168341    2.408759
  C      1.034177   -0.797247    3.566890
  C      0.431213   -1.937653    3.235466
  C     -0.014930   -1.934655    1.795523
  H      0.398993    2.082047    0.346855
  H     -0.673282    1.766879   -1.022677
  H     -1.266411    1.548128    0.626032
  H     -0.741627   -0.654131   -0.470553
  H      1.388784   -0.974831   -1.636848
  H      2.042711    0.527727   -0.930582
  H      2.084946    0.601132    2.247464
  H      0.397990    1.006102    2.563132
  H      1.422726   -0.553613    4.549430
  H      0.249817   -2.771026    3.904828
  H     -1.108407   -1.845489    1.715671
  H      0.274052   -2.832564    1.238526

 Total Charge           Charge          ....    0
 Multiplicity           Mult            ....    1
 Number of Electrons    NEL             ....   68
 Basis Dimension        Dim             ....  351

ORBITAL ENERGIES
----------------

  NO   OCC          E(Eh)            E(eV)
   0   2.0000     -20.537306      -558.8485
   1   2.0000     -11.283652      -307.0438
   2   2.0000     -11.270456      -306.6847
   3   2.0000     -11.232669      -305.6565
   4   2.0000     -11.222933      -305.3915
   5   2.0000     -11.222222      -305.3722
   6   2.0000     -11.221381      -305.3493
   7   2.0000     -11.220957      -305.3378
   8   2.0000     -11.220170      -305.3163
   9   2.0000      -1.370315       -37.2882
  10   2.0000      -1.124338       -30.5948
  11   2.0000      -1.049959       -28.5708
  12   2.0000      -0.962725       -26.1971
  13   2.0000      -0.951035       -25.8790
  14   2.0000      -0.911334       -24.7987
  15   2.0000      -0.829034       -22.5591
  16   2.0000      -0.740325       -20.1453
  17   2.0000      -0.716280       -19.4910
  18   2.0000      -0.677158       -18.4264
  19   2.0000      -0.641724       -17.4622
  20   2.0000      -0.638087       -17.3632
  21   2.0000      -0.612901       -16.6779
  22   2.0000      -0.575931       -15.6719
  23   2.0000      -0.563419       -15.3314
  24   2.0000      -0.548355       -14.9215
  25   2.0000      -0.534873       -14.5546
  26   2.0000      -0.529570       -14.4103
  27   2.0000      -0.511829       -13.9276
  28   2.0000      -0.492492       -13.4014
  29   2.0000      -0.489581       -13.3222
  30   2.0000      -0.442860       -12.0508
  31   2.0000      -0.433165       -11.7870
  32   2.0000      -0.398259       -10.8372
  33   2.0000      -0.344772        -9.3817
  34   0.0000       0.131127         3.5681
  35   0.0000       0.157590         4.2882
  36   0.0000       0.165144         4.4938
  37   0.0000       0.166923         4.5422
  38   0.0000       0.174896         4.7592

MULLIKEN ATOMIC CHARGES
-----------------------
   0 C :   -0.443154
   1 C :   -0.072354
   2 C :   -0.039907
   3 O :   -0.334404
   4 C :    0.223133
   5 C :   -0.219796
   6 C :   -0.176165
   7 C :   -0.198666
   8 C :   -0.189494
   9 H :    0.138143
  10 H :    0.140448
  11 H :    0.136132
  12 H :    0.106691
  13 H :    0.097802
  14 H :    0.085411
  15 H :    0.131308
  16 H :    0.120671
  17 H :    0.125021
  18 H :    0.124900
  19 H :    0.115364
  20 H :    0.128914
Sum of atomic charges:    0.0000000

LOEWDIN ATOMIC CHARGES
----------------------
   0 C :   -0.300889
   1 C :   -0.229241
   2 C :   -0.258248
   3 O :    0.152685
   4 C :   -0.250538
   5 C :   -0.202708
   6 C :   -0.160035
   7 C :   -0.161415
   8 C :   -0.205207
   9 H :    0.125463
  10 H :    0.126765
  11 H :    0.125491
  12 H :    0.150023
  13 H :    0.115136
  14 H :    0.116977
  15 H :    0.146954
  16 H :    0.145918
  17 H :    0.135523
  18 H :    0.135517
  19 H :    0.144751
  20 H :    0.147079

  Mayer bond orders larger than 0.1
B(  0-C ,  1-C ) :   0.9088 B(  0-C ,  9-H ) :   0.9360 B(  0-C , 10-H ) :   0.9352
B(  0-C , 11-H ) :   0.9377 B(  1-C ,  2-C ) :   0.9736 B(  1-C ,  4-C ) :   0.8817
B(  1-C , 12-H ) :   0.9272 B(  2-C ,  3-O ) :   0.9542 B(  2-C , 13-H ) :   0.9145
B(  2-C , 14-H ) :   0.9049 B(  3-O ,  4-C ) :   0.9831 B(  4-C ,  5-C ) :   0.9133
B(  4-C ,  8-C ) :   0.9042 B(  5-C ,  6-C ) :   0.9543 B(  5-C , 15-H ) :   0.9120
B(  5-C , 16-H ) :   0.9049 B(  6-C ,  7-C ) :   1.8029 B(  6-C , 17-H ) :   0.9289
B(  7-C ,  8-C ) :   0.9614 B(  7-C , 18-H ) :   0.9296 B(  8-C , 19-H ) :   0.9071
B(  8-C , 20-H ) :   0.9092

MP2 TOTAL ENERGY:     -386.405138734 Eh
FINAL SINGLE POINT ENERGY      -386.405138734202

DIPOLE MOMENT
-------------
                                X             Y             Z
Electronic contribution:      2.95513      -3.89902       1.72957
Nuclear contribution   :     -3.59170       4.32097      -1.88571
                        -----------------------------------------
Total Dipole Moment    :     -0.63657       0.42195      -0.15614
                        -----------------------------------------
Magnitude (a.u.)       :      0.77951
Magnitude (Debye)      :      1.98136

                             ****ORCA TERMINATED NORMALLY****
TOTAL RUN TIME: 0 days 0 hours 19 minutes 2 seconds 117 msec
