                         Program Version 3.0.3 - RELEASE   -
|  1> ! RI-MP2 RIJK def2-TZVP def2-TZVP/C def2-TZVP/JK TIGHTSCF
|  2> % maxcore 2000
|  3> % mp2 density relaxed end
|  4> *xyz 0 1
|  5>  C       -0.0251499596     1.5644553738     0.0185049453
|  6>  C        0.0011737302     0.0342175225     0.0190455885
|  7>  N        0.7669487515    -0.5522408106    -1.0720033467
|  8>  C        1.8667624678    -1.2560869379    -0.6556276335
|  9>  O        2.7279586734    -1.7786212170    -1.3206486988
| 10>  N        1.7893477884    -1.2605392909     0.7488578684
| 11>  C        0.7247532287    -0.5313892074     1.2452678484
| 12>  N        0.3454686324    -0.3056403952     2.4348132721
| 13>  H        0.9909893976     1.9697671750     0.0154585612
| 14>  H       -0.5546688665     1.9429885306    -0.8614584425
| 15>  H       -0.5396010657     1.9149263035     0.9161540712
| 16>  H       -1.0279313706    -0.3456272124     0.0200825187
| 17>  H        0.6867463886    -0.2695497025    -2.0333115551
| 18>  H        2.4768466059    -1.7440457725     1.3026249980
| 19>  H        0.9503754580    -0.7557382193     3.1227618946
| 20> *
| 21>
| 22>                          ****END OF INPUT****

CARTESIAN COORDINATES (ANGSTROEM)
---------------------------------
  C     -0.025150    1.564455    0.018505
  C      0.001174    0.034218    0.019046
  N      0.766949   -0.552241   -1.072003
  C      1.866762   -1.256087   -0.655628
  O      2.727959   -1.778621   -1.320649
  N      1.789348   -1.260539    0.748858
  C      0.724753   -0.531389    1.245268
  N      0.345469   -0.305640    2.434813
  H      0.990989    1.969767    0.015459
  H     -0.554669    1.942989   -0.861458
  H     -0.539601    1.914926    0.916154
  H     -1.027931   -0.345627    0.020083
  H      0.686746   -0.269550   -2.033312
  H      2.476847   -1.744046    1.302625
  H      0.950375   -0.755738    3.122762

 Total Charge           Charge          ....    0
 Multiplicity           Mult            ....    1
 Number of Electrons    NEL             ....   60
 Basis Dimension        Dim             ....  290

ORBITAL ENERGIES
----------------

  NO   OCC          E(Eh)            E(eV)
   0   2.0000     -20.530566      -558.6651
   1   2.0000     -15.615014      -424.9061
   2   2.0000     -15.594884      -424.3584
   3   2.0000     -15.545362      -423.0108
   4   2.0000     -11.394716      -310.0660
   5   2.0000     -11.340971      -308.6035
   6   2.0000     -11.299682      -307.4800
   7   2.0000     -11.238011      -305.8018
   8   2.0000      -1.417061       -38.5602
   9   2.0000      -1.322463       -35.9860
  10   2.0000      -1.230424       -33.4815
  11   2.0000      -1.180164       -32.1139
  12   2.0000      -1.041270       -28.3344
  13   2.0000      -0.915103       -24.9012
  14   2.0000      -0.862344       -23.4656
  15   2.0000      -0.817351       -22.2413
  16   2.0000      -0.736007       -20.0278
  17   2.0000      -0.693856       -18.8808
  18   2.0000      -0.673702       -18.3324
  19   2.0000      -0.656149       -17.8547
  20   2.0000      -0.628656       -17.1066
  21   2.0000      -0.608748       -16.5649
  22   2.0000      -0.566467       -15.4144
  23   2.0000      -0.550568       -14.9817
  24   2.0000      -0.532782       -14.4977
  25   2.0000      -0.517815       -14.0905
  26   2.0000      -0.470426       -12.8009
  27   2.0000      -0.433623       -11.7995
  28   2.0000      -0.417987       -11.3740
  29   2.0000      -0.385715       -10.4959
  30   0.0000       0.118195         3.2162
  31   0.0000       0.135598         3.6898
  32   0.0000       0.154364         4.2005
  33   0.0000       0.173023         4.7082
  34   0.0000       0.177540         4.8311

MULLIKEN ATOMIC CHARGES
-----------------------
   0 C :   -0.410048
   1 C :    0.166405
   2 N :   -0.350864
   3 C :    0.304203
   4 O :   -0.339803
   5 N :   -0.293221
   6 C :    0.036513
   7 N :   -0.373246
   8 H :    0.133805
   9 H :    0.135560
  10 H :    0.155399
  11 H :    0.123977
  12 H :    0.251687
  13 H :    0.249222
  14 H :    0.210412
Sum of atomic charges:    0.0000000

LOEWDIN ATOMIC CHARGES
----------------------
   0 C :   -0.280652
   1 C :   -0.249114
   2 N :    0.126585
   3 C :   -0.519783
   4 O :    0.079200
   5 N :    0.157028
   6 C :   -0.343056
   7 N :   -0.063502
   8 H :    0.128536
   9 H :    0.123906
  10 H :    0.137668
  11 H :    0.158745
  12 H :    0.189251
  13 H :    0.193150
  14 H :    0.162039

  Mayer bond orders larger than 0.1
B(  0-C ,  1-C ) :   0.9267 B(  0-C ,  8-H ) :   0.9279 B(  0-C ,  9-H ) :   0.9355
B(  0-C , 10-H ) :   0.9266 B(  1-C ,  2-N ) :   0.8778 B(  1-C ,  6-C ) :   0.8786
B(  1-C , 11-H ) :   0.9151 B(  2-N ,  3-C ) :   1.1527 B(  2-N , 12-H ) :   0.8693
B(  3-C ,  4-O ) :   2.0276 B(  3-C ,  5-N ) :   1.0077 B(  5-N ,  6-C ) :   1.0874
B(  5-N , 13-H ) :   0.8636 B(  6-C ,  7-N ) :   2.0750 B(  7-N , 14-H ) :   0.8542

MP2 TOTAL ENERGY:     -395.401628487 Eh
FINAL SINGLE POINT ENERGY      -395.401628486785

DIPOLE MOMENT
-------------
                                X             Y             Z
Electronic contribution:      3.67443      -5.44005      -1.08522
Nuclear contribution   :     -4.03640       5.87061       1.24270
                        -----------------------------------------
Total Dipole Moment    :     -0.36198       0.43055       0.15748
                        -----------------------------------------
Magnitude (a.u.)       :      0.58413
Magnitude (Debye)      :      1.48474

                             ****ORCA TERMINATED NORMALLY****
TOTAL RUN TIME: 0 days 0 hours 16 minutes 51 seconds 79 msec
