                         Program Version 3.0.3 - RELEASE   -
|  1> ! RI-MP2 RIJK def2-TZVP def2-TZVP/C def2-TZVP/JK TIGHTSCF
|  2> % maxcore 2000
|  3> % mp2 density relaxed end
|  4> *xyz 0 1
|  5>  C       -0.0435211540     1.5706823891    -0.0539573995
|  6>  C        0.0888050731     0.0666820581     0.0761182970
|  7>  C        1.3325796323    -0.7389276691    -0.1739939092
|  8>  C        2.5843222480    -0.0206328451     0.3429095979
|  9>  C        1.9716672037    -0.0599259617     1.7920266162
| 10>  C        2.7234699686    -1.0119196429     2.7186340068
| 11>  O        1.7404552359     1.1819198310     2.4418215627
| 12>  C        0.6967116362    -0.6906953429     1.2290739356
| 13>  H        0.8094804892     2.1002774144     0.3696361974
| 14>  H       -0.1501840604     1.8563939606    -1.1069448592
| 15>  H       -0.9344807356     1.9207338848     0.4785279042
| 16>  H       -0.7920996880    -0.4608879651    -0.2892785733
| 17>  H        1.3473318773    -1.5707186045    -0.8680550925
| 18>  H        3.4998464986    -0.6113959598     0.2572094575
| 19>  H        2.7689558976     0.9773785075    -0.0646003596
| 20>  H        3.7153116224    -0.6108683265     2.9637766108
| 21>  H        2.1669648691    -1.1481346256     3.6515626959
| 22>  H        2.8664613524    -1.9910642805     2.2524855533
| 23>  H        2.5749248806     1.4794151561     2.8206617968
| 24>  H        0.1396339730    -1.4612698879     1.7517794111
| 25> *
| 26>
| 27>                          ****END OF INPUT****

CARTESIAN COORDINATES (ANGSTROEM)
---------------------------------
  C     -0.043521    1.570682   -0.053957
  C      0.088805    0.066682    0.076118
  C      1.332580   -0.738928   -0.173994
  C      2.584322   -0.020633    0.342910
  C      1.971667   -0.059926    1.792027
  C      2.723470   -1.011920    2.718634
  O      1.740455    1.181920    2.441822
  C      0.696712   -0.690695    1.229074
  H      0.809480    2.100277    0.369636
  H     -0.150184    1.856394   -1.106945
  H     -0.934481    1.920734    0.478528
  H     -0.792100   -0.460888   -0.289279
  H      1.347332   -1.570719   -0.868055
  H      3.499846   -0.611396    0.257209
  H      2.768956    0.977379   -0.064600
  H      3.715312   -0.610868    2.963777
  H      2.166965   -1.148135    3.651563
  H      2.866461   -1.991064    2.252486
  H      2.574925    1.479415    2.820662
  H      0.139634   -1.461270    1.751779

 Total Charge           Charge          ....    0
 Multiplicity           Mult            ....    1
 Number of Electrons    NEL             ....   62
 Basis Dimension        Dim             ....  320

ORBITAL ENERGIES
----------------

  NO   OCC          E(Eh)            E(eV)
   0   2.0000     -20.549451      -559.1790
   1   2.0000     -11.286917      -307.1326
   2   2.0000     -11.229067      -305.5584
   3   2.0000     -11.227499      -305.5158
   4   2.0000     -11.222164      -305.3706
   5   2.0000     -11.220078      -305.3138
   6   2.0000     -11.218704      -305.2764
   7   2.0000     -11.201436      -304.8066
   8   2.0000      -1.359249       -36.9871
   9   2.0000      -1.180417       -32.1208
  10   2.0000      -1.024445       -27.8766
  11   2.0000      -0.959725       -26.1155
  12   2.0000      -0.923529       -25.1305
  13   2.0000      -0.854125       -23.2419
  14   2.0000      -0.748304       -20.3624
  15   2.0000      -0.728917       -19.8349
  16   2.0000      -0.681738       -18.5510
  17   2.0000      -0.665875       -18.1194
  18   2.0000      -0.615901       -16.7595
  19   2.0000      -0.598038       -16.2734
  20   2.0000      -0.568459       -15.4686
  21   2.0000      -0.553214       -15.0537
  22   2.0000      -0.549129       -14.9426
  23   2.0000      -0.542196       -14.7539
  24   2.0000      -0.512834       -13.9549
  25   2.0000      -0.512038       -13.9333
  26   2.0000      -0.473081       -12.8732
  27   2.0000      -0.455413       -12.3924
  28   2.0000      -0.418041       -11.3755
  29   2.0000      -0.393828       -10.7166
  30   2.0000      -0.372686       -10.1413
  31   0.0000       0.130379         3.5478
  32   0.0000       0.154851         4.2137
  33   0.0000       0.168147         4.5755
  34   0.0000       0.178334         4.8527
  35   0.0000       0.189223         5.1490

MULLIKEN ATOMIC CHARGES
-----------------------
   0 C :   -0.370797
   1 C :   -0.103395
   2 C :   -0.112382
   3 C :   -0.291049
   4 C :    0.286263
   5 C :   -0.485145
   6 O :   -0.473929
   7 C :   -0.154428
   8 H :    0.141774
   9 H :    0.120110
  10 H :    0.125427
  11 H :    0.110435
  12 H :    0.129391
  13 H :    0.118422
  14 H :    0.117139
  15 H :    0.126456
  16 H :    0.143550
  17 H :    0.138232
  18 H :    0.308319
  19 H :    0.125610
Sum of atomic charges:   -0.0000000

LOEWDIN ATOMIC CHARGES
----------------------
   0 C :   -0.292037
   1 C :   -0.213592
   2 C :   -0.162819
   3 C :   -0.185797
   4 C :   -0.362640
   5 C :   -0.279691
   6 O :    0.005769
   7 C :   -0.132564
   8 H :    0.126593
   9 H :    0.122035
  10 H :    0.126823
  11 H :    0.158151
  12 H :    0.132927
  13 H :    0.134555
  14 H :    0.129799
  15 H :    0.122081
  16 H :    0.128263
  17 H :    0.131648
  18 H :    0.173497
  19 H :    0.137000

  Mayer bond orders larger than 0.1
B(  0-C ,  1-C ) :   0.9140 B(  0-C ,  8-H ) :   0.9309 B(  0-C ,  9-H ) :   0.9340
B(  0-C , 10-H ) :   0.9369 B(  1-C ,  2-C ) :   0.8922 B(  1-C ,  7-C ) :   0.8765
B(  1-C , 11-H ) :   0.9349 B(  2-C ,  3-C ) :   0.9539 B(  2-C ,  7-C ) :   0.8256
B(  2-C , 12-H ) :   0.9271 B(  3-C ,  4-C ) :   0.9266 B(  3-C , 13-H ) :   0.9226
B(  3-C , 14-H ) :   0.9122 B(  4-C ,  5-C ) :   0.8908 B(  4-C ,  6-O ) :   0.9594
B(  4-C ,  7-C ) :   0.8997 B(  5-C , 15-H ) :   0.9306 B(  5-C , 16-H ) :   0.9446
B(  5-C , 17-H ) :   0.9358 B(  6-O , 18-H ) :   0.8429 B(  7-C , 19-H ) :   0.9249

MP2 TOTAL ENERGY:     -348.377240589 Eh
FINAL SINGLE POINT ENERGY      -348.377240588524

DIPOLE MOMENT
-------------
                                X             Y             Z
Electronic contribution:     -0.49075       0.09264       0.83015
Nuclear contribution   :      1.01036      -0.41335      -0.82492
                        -----------------------------------------
Total Dipole Moment    :      0.51961      -0.32071       0.00523
                        -----------------------------------------
Magnitude (a.u.)       :      0.61064
Magnitude (Debye)      :      1.55212

                             ****ORCA TERMINATED NORMALLY****
TOTAL RUN TIME: 0 days 0 hours 14 minutes 10 seconds 913 msec
