                         Program Version 3.0.3 - RELEASE   -
|  1> ! RI-MP2 RIJK def2-TZVP def2-TZVP/C def2-TZVP/JK TIGHTSCF
|  2> % maxcore 2000
|  3> % mp2 density relaxed end
|  4> *xyz 0 1
|  5>  C        0.0990933319    -1.1602390648    -0.0063809289
|  6>  C        0.0752155170     0.0396644359     0.0016519348
|  7>  C       -0.0009603418     1.4892311283     0.0119257984
|  8>  O        1.3391889468     2.0240057660    -0.0004814159
|  9>  C        1.3873780052     3.3478619524     0.0072614780
| 10>  N        0.4173571023     4.2057185677     0.0241441368
| 11>  C        1.0828745300     5.4344768479     0.0239691477
| 12>  C        2.4148785760     5.2275933720     0.0069118471
| 13>  O        2.6283019203     3.8614359717    -0.0042093473
| 14>  H        0.1245106395    -2.2221187185    -0.0135400961
| 15>  H       -0.5446079014     1.8679598465    -0.8610559588
| 16>  H       -0.5237277051     1.8565504549     0.9023637633
| 17>  H        0.5425544251     6.3674233884     0.0362225903
| 18>  H        3.2941816543     5.8462537416     0.0003964006
| 19> *
| 20>
| 21>                          ****END OF INPUT****

CARTESIAN COORDINATES (ANGSTROEM)
---------------------------------
  C      0.099093   -1.160239   -0.006381
  C      0.075216    0.039664    0.001652
  C     -0.000960    1.489231    0.011926
  O      1.339189    2.024006   -0.000481
  C      1.387378    3.347862    0.007261
  N      0.417357    4.205719    0.024144
  C      1.082875    5.434477    0.023969
  C      2.414879    5.227593    0.006912
  O      2.628302    3.861436   -0.004209
  H      0.124511   -2.222119   -0.013540
  H     -0.544608    1.867960   -0.861056
  H     -0.523728    1.856550    0.902364
  H      0.542554    6.367423    0.036223
  H      3.294182    5.846254    0.000396

 Total Charge           Charge          ....    0
 Multiplicity           Mult            ....    1
 Number of Electrons    NEL             ....   64
 Basis Dimension        Dim             ....  309

ORBITAL ENERGIES
----------------

  NO   OCC          E(Eh)            E(eV)
   0   2.0000     -20.641290      -561.6781
   1   2.0000     -20.625380      -561.2451
   2   2.0000     -15.561093      -423.4389
   3   2.0000     -11.401265      -310.2442
   4   2.0000     -11.331207      -308.3378
   5   2.0000     -11.292202      -307.2764
   6   2.0000     -11.269153      -306.6492
   7   2.0000     -11.248098      -306.0763
   8   2.0000     -11.241721      -305.9028
   9   2.0000      -1.515906       -41.2499
  10   2.0000      -1.435850       -39.0715
  11   2.0000      -1.238930       -33.7130
  12   2.0000      -1.082438       -29.4546
  13   2.0000      -1.024762       -27.8852
  14   2.0000      -0.971373       -26.4324
  15   2.0000      -0.853681       -23.2298
  16   2.0000      -0.814360       -22.1598
  17   2.0000      -0.765457       -20.8291
  18   2.0000      -0.742250       -20.1977
  19   2.0000      -0.715623       -19.4731
  20   2.0000      -0.682935       -18.5836
  21   2.0000      -0.660366       -17.9695
  22   2.0000      -0.649548       -17.6751
  23   2.0000      -0.621743       -16.9185
  24   2.0000      -0.585236       -15.9251
  25   2.0000      -0.560363       -15.2483
  26   2.0000      -0.533604       -14.5201
  27   2.0000      -0.471920       -12.8416
  28   2.0000      -0.460942       -12.5429
  29   2.0000      -0.413846       -11.2613
  30   2.0000      -0.403049       -10.9675
  31   2.0000      -0.335812        -9.1379
  32   0.0000       0.141723         3.8565
  33   0.0000       0.149457         4.0669
  34   0.0000       0.161820         4.4033
  35   0.0000       0.162913         4.4331
  36   0.0000       0.174540         4.7495

MULLIKEN ATOMIC CHARGES
-----------------------
   0 C :   -0.049705
   1 C :   -0.016450
   2 C :   -0.246911
   3 O :   -0.230470
   4 C :    0.405625
   5 N :   -0.323567
   6 C :   -0.119619
   7 C :   -0.032697
   8 O :   -0.203058
   9 H :    0.200507
  10 H :    0.155857
  11 H :    0.155845
  12 H :    0.145052
  13 H :    0.159591
Sum of atomic charges:    0.0000000

LOEWDIN ATOMIC CHARGES
----------------------
   0 C :   -0.071720
   1 C :   -0.105070
   2 C :   -0.251657
   3 O :    0.278083
   4 C :   -0.491243
   5 N :    0.084600
   6 C :   -0.251076
   7 C :   -0.243906
   8 O :    0.346945
   9 H :    0.130208
  10 H :    0.151051
  11 H :    0.151049
  12 H :    0.137947
  13 H :    0.134789

  Mayer bond orders larger than 0.1
B(  0-C ,  1-C ) :   2.6255 B(  0-C ,  2-C ) :  -0.1293 B(  0-C ,  9-H ) :   0.8847
B(  1-C ,  2-C ) :   1.0807 B(  2-C ,  3-O ) :   0.8515 B(  2-C , 10-H ) :   0.9295
B(  2-C , 11-H ) :   0.9295 B(  3-O ,  4-C ) :   1.1365 B(  4-C ,  5-N ) :   1.5656
B(  4-C ,  8-O ) :   1.1234 B(  5-N ,  6-C ) :   1.1483 B(  6-C ,  7-C ) :   1.6402
B(  6-C , 12-H ) :   0.9305 B(  7-C ,  8-O ) :   0.9741 B(  7-C , 13-H ) :   0.9254

MP2 TOTAL ENERGY:     -435.930933100 Eh
FINAL SINGLE POINT ENERGY      -435.930933100392

DIPOLE MOMENT
-------------
                                X             Y             Z
Electronic contribution:      2.28022       0.18202      -0.02565
Nuclear contribution   :     -2.33037      -0.05813       0.02697
                        -----------------------------------------
Total Dipole Moment    :     -0.05015       0.12389       0.00133
                        -----------------------------------------
Magnitude (a.u.)       :      0.13366
Magnitude (Debye)      :      0.33973

                             ****ORCA TERMINATED NORMALLY****
TOTAL RUN TIME: 0 days 0 hours 12 minutes 27 seconds 344 msec
