                         Program Version 3.0.3 - RELEASE   -
|  1> ! RI-MP2 RIJK def2-TZVP def2-TZVP/C def2-TZVP/JK TIGHTSCF
|  2> % maxcore 2000
|  3> % mp2 density relaxed end
|  4> *xyz 0 1
|  5>  C       -0.3679597083     1.4535009192     0.1995263020
|  6>  C       -0.0156060762    -0.0098949779     0.1245675627
|  7>  N        1.3560340723    -0.3454119391    -0.2634550266
|  8>  C        0.8997922481    -0.6734922835     1.1130401790
|  9>  C        1.5051415477     0.0365245138     2.2047123691
| 10>  C        2.0016166490     0.6200363165     3.1359042696
| 11>  C        2.5588380593     1.3305157380     4.2851237846
| 12>  O        1.6873534927     2.3167234188     4.8237078448
| 13>  H        0.4550229498     2.0248863546     0.6335275564
| 14>  H       -0.5729735548     1.8485391095    -0.8009398468
| 15>  H       -1.2607545622     1.6057111470     0.8151814459
| 16>  H       -0.8079089340    -0.6548802456    -0.2548545722
| 17>  H        1.3761045487    -1.1972533028    -0.8185465762
| 18>  H        0.6858796453    -1.7204039083     1.3202221186
| 19>  H        2.8579677609     0.5989939173     5.0532564359
| 20>  H        3.4680738287     1.8666736204     3.9909720735
| 21>  H        0.8337266731     1.8955246819     4.9683368298
| 22> *
| 23>
| 24>                          ****END OF INPUT****

CARTESIAN COORDINATES (ANGSTROEM)
---------------------------------
  C     -0.367960    1.453501    0.199526
  C     -0.015606   -0.009895    0.124568
  N      1.356034   -0.345412   -0.263455
  C      0.899792   -0.673492    1.113040
  C      1.505142    0.036525    2.204712
  C      2.001617    0.620036    3.135904
  C      2.558838    1.330516    4.285124
  O      1.687353    2.316723    4.823708
  H      0.455023    2.024886    0.633528
  H     -0.572974    1.848539   -0.800940
  H     -1.260755    1.605711    0.815181
  H     -0.807909   -0.654880   -0.254855
  H      1.376105   -1.197253   -0.818547
  H      0.685880   -1.720404    1.320222
  H      2.857968    0.598994    5.053256
  H      3.468074    1.866674    3.990972
  H      0.833727    1.895525    4.968337

 Total Charge           Charge          ....    0
 Multiplicity           Mult            ....    1
 Number of Electrons    NEL             ....   60
 Basis Dimension        Dim             ....  302

ORBITAL ENERGIES
----------------

  NO   OCC          E(Eh)            E(eV)
   0   2.0000     -20.563512      -559.5616
   1   2.0000     -15.568993      -423.6538
   2   2.0000     -11.303551      -307.5852
   3   2.0000     -11.285907      -307.1051
   4   2.0000     -11.275071      -306.8103
   5   2.0000     -11.232342      -305.6476
   6   2.0000     -11.226454      -305.4874
   7   2.0000     -11.218802      -305.2791
   8   2.0000      -1.367595       -37.2142
   9   2.0000      -1.274519       -34.6814
  10   2.0000      -1.054230       -28.6871
  11   2.0000      -0.994753       -27.0686
  12   2.0000      -0.963341       -26.2138
  13   2.0000      -0.891893       -24.2697
  14   2.0000      -0.812721       -22.1153
  15   2.0000      -0.725459       -19.7408
  16   2.0000      -0.718879       -19.5617
  17   2.0000      -0.666790       -18.1443
  18   2.0000      -0.645434       -17.5631
  19   2.0000      -0.616221       -16.7682
  20   2.0000      -0.582056       -15.8385
  21   2.0000      -0.564978       -15.3738
  22   2.0000      -0.541270       -14.7287
  23   2.0000      -0.529442       -14.4068
  24   2.0000      -0.497904       -13.5486
  25   2.0000      -0.478324       -13.0159
  26   2.0000      -0.471907       -12.8412
  27   2.0000      -0.422910       -11.5080
  28   2.0000      -0.376959       -10.2576
  29   2.0000      -0.364110        -9.9079
  30   0.0000       0.126495         3.4421
  31   0.0000       0.133868         3.6427
  32   0.0000       0.157633         4.2894
  33   0.0000       0.171688         4.6719
  34   0.0000       0.180811         4.9201

MULLIKEN ATOMIC CHARGES
-----------------------
   0 C :   -0.400448
   1 C :    0.056457
   2 N :   -0.363764
   3 C :   -0.290387
   4 C :    0.069305
   5 C :   -0.033195
   6 C :   -0.055785
   7 O :   -0.459784
   8 H :    0.156088
   9 H :    0.131833
  10 H :    0.122634
  11 H :    0.120319
  12 H :    0.220123
  13 H :    0.139087
  14 H :    0.130266
  15 H :    0.139187
  16 H :    0.318063
Sum of atomic charges:   -0.0000000

LOEWDIN ATOMIC CHARGES
----------------------
   0 C :   -0.289605
   1 C :   -0.273268
   2 N :    0.016090
   3 C :   -0.247603
   4 C :   -0.054653
   5 C :   -0.078097
   6 C :   -0.333862
   7 O :   -0.043506
   8 H :    0.136547
   9 H :    0.127821
  10 H :    0.127319
  11 H :    0.136392
  12 H :    0.167534
  13 H :    0.151932
  14 H :    0.134195
  15 H :    0.146339
  16 H :    0.176425

  Mayer bond orders larger than 0.1
B(  0-C ,  1-C ) :   0.9187 B(  0-C ,  8-H ) :   0.9361 B(  0-C ,  9-H ) :   0.9358
B(  0-C , 10-H ) :   0.9349 B(  1-C ,  2-N ) :   0.8893 B(  1-C ,  3-C ) :   0.9004
B(  1-C , 11-H ) :   0.9210 B(  2-N ,  3-C ) :   1.0007 B(  2-N , 12-H ) :   0.8675
B(  3-C ,  4-C ) :   1.0648 B(  3-C ,  5-C ) :  -0.1419 B(  3-C , 13-H ) :   0.9383
B(  4-C ,  5-C ) :   2.6928 B(  5-C ,  6-C ) :   0.8982 B(  6-C ,  7-O ) :   0.9470
B(  6-C , 14-H ) :   0.9730 B(  6-C , 15-H ) :   0.9196 B(  7-O , 16-H ) :   0.8430

MP2 TOTAL ENERGY:     -363.174056962 Eh
FINAL SINGLE POINT ENERGY      -363.174056962063

DIPOLE MOMENT
-------------
                                X             Y             Z
Electronic contribution:      2.72417      -1.44085       2.65629
Nuclear contribution   :     -3.42982       0.45545      -2.80372
                        -----------------------------------------
Total Dipole Moment    :     -0.70565      -0.98540      -0.14743
                        -----------------------------------------
Magnitude (a.u.)       :      1.22094
Magnitude (Debye)      :      3.10338

                             ****ORCA TERMINATED NORMALLY****
TOTAL RUN TIME: 0 days 0 hours 11 minutes 1 seconds 940 msec
