                         Program Version 3.0.3 - RELEASE   -
|  1> ! RI-MP2 RIJK def2-TZVP def2-TZVP/C def2-TZVP/JK TIGHTSCF
|  2> % maxcore 2000
|  3> % mp2 density relaxed end
|  4> *xyz 0 1
|  5>  O        0.2102622428     1.3468708503    -0.2630165821
|  6>  C        0.0588492826    -0.0263984734     0.0596585324
|  7>  C       -1.3290423832    -0.5682780080    -0.2856282091
|  8>  C       -1.4712399590    -2.0495324979     0.0455703529
|  9>  N       -1.4900231714    -2.3705846158     1.5128322203
| 10>  C       -2.7380450524    -3.1798563944     1.3753214075
| 11>  C       -2.8471091560    -2.6789242193    -0.0468482539
| 12>  N       -3.7004591661    -2.6784774115    -0.9778728432
| 13>  O       -4.8642229262    -3.3703814137    -0.5958106729
| 14>  H       -0.4049915764     1.8446153399     0.2848366893
| 15>  H        0.8230042055    -0.5514169095    -0.5258082171
| 16>  H        0.2728611633    -0.2159532716     1.1227178384
| 17>  H       -2.0903946787    -0.0121379238     0.2757664424
| 18>  H       -1.5283549142    -0.4142295765    -1.3520720482
| 19>  H       -0.7220144398    -2.6310278750    -0.5143844042
| 20>  H       -0.6910701265    -2.9136636878     1.8190847917
| 21>  H       -2.6082992701    -4.2686188406     1.4402607872
| 22>  H       -3.5429741145    -2.8868989275     2.0578819724
| 23>  H       -5.4197020295    -3.2820340038    -1.3778547438
| 24> *
| 25>
| 26>                          ****END OF INPUT****

CARTESIAN COORDINATES (ANGSTROEM)
---------------------------------
  O      0.210262    1.346871   -0.263017
  C      0.058849   -0.026398    0.059659
  C     -1.329042   -0.568278   -0.285628
  C     -1.471240   -2.049532    0.045570
  N     -1.490023   -2.370585    1.512832
  C     -2.738045   -3.179856    1.375321
  C     -2.847109   -2.678924   -0.046848
  N     -3.700459   -2.678477   -0.977873
  O     -4.864223   -3.370381   -0.595811
  H     -0.404992    1.844615    0.284837
  H      0.823004   -0.551417   -0.525808
  H      0.272861   -0.215953    1.122718
  H     -2.090395   -0.012138    0.275766
  H     -1.528355   -0.414230   -1.352072
  H     -0.722014   -2.631028   -0.514384
  H     -0.691070   -2.913664    1.819085
  H     -2.608299   -4.268619    1.440261
  H     -3.542974   -2.886899    2.057882
  H     -5.419702   -3.282034   -1.377855

 Total Charge           Charge          ....    0
 Multiplicity           Mult            ....    1
 Number of Electrons    NEL             ....   70
 Basis Dimension        Dim             ....  339

ORBITAL ENERGIES
----------------

  NO   OCC          E(Eh)            E(eV)
   0   2.0000     -20.596922      -560.4707
   1   2.0000     -20.554363      -559.3127
   2   2.0000     -15.621037      -425.0700
   3   2.0000     -15.560039      -423.4102
   4   2.0000     -11.282182      -307.0038
   5   2.0000     -11.278208      -306.8956
   6   2.0000     -11.275115      -306.8115
   7   2.0000     -11.272563      -306.7420
   8   2.0000     -11.226395      -305.4857
   9   2.0000      -1.422506       -38.7084
  10   2.0000      -1.358366       -36.9630
  11   2.0000      -1.257525       -34.2190
  12   2.0000      -1.145218       -31.1630
  13   2.0000      -1.044349       -28.4182
  14   2.0000      -0.931645       -25.3514
  15   2.0000      -0.919579       -25.0230
  16   2.0000      -0.831726       -22.6324
  17   2.0000      -0.731220       -19.8975
  18   2.0000      -0.711106       -19.3502
  19   2.0000      -0.694687       -18.9034
  20   2.0000      -0.689930       -18.7739
  21   2.0000      -0.656728       -17.8705
  22   2.0000      -0.617079       -16.7916
  23   2.0000      -0.596147       -16.2220
  24   2.0000      -0.590778       -16.0759
  25   2.0000      -0.585723       -15.9383
  26   2.0000      -0.560656       -15.2562
  27   2.0000      -0.523735       -14.2516
  28   2.0000      -0.522324       -14.2132
  29   2.0000      -0.506713       -13.7884
  30   2.0000      -0.479052       -13.0357
  31   2.0000      -0.448208       -12.1964
  32   2.0000      -0.425632       -11.5820
  33   2.0000      -0.415701       -11.3118
  34   2.0000      -0.377946       -10.2844
  35   0.0000       0.118528         3.2253
  36   0.0000       0.143001         3.8913
  37   0.0000       0.144915         3.9433
  38   0.0000       0.159499         4.3402
  39   0.0000       0.168612         4.5882

MULLIKEN ATOMIC CHARGES
-----------------------
   0 O :   -0.471623
   1 C :   -0.041459
   2 C :   -0.209402
   3 C :   -0.015612
   4 N :   -0.349777
   5 C :   -0.125279
   6 C :   -0.016675
   7 N :   -0.091926
   8 O :   -0.362765
   9 H :    0.313993
  10 H :    0.103189
  11 H :    0.115407
  12 H :    0.098274
  13 H :    0.127237
  14 H :    0.115951
  15 H :    0.211854
  16 H :    0.129543
  17 H :    0.129612
  18 H :    0.339459
Sum of atomic charges:    0.0000000

LOEWDIN ATOMIC CHARGES
----------------------
   0 O :   -0.051675
   1 C :   -0.348770
   2 C :   -0.258408
   3 C :   -0.233264
   4 N :   -0.005622
   5 C :   -0.236946
   6 C :   -0.267489
   7 N :    0.027556
   8 O :   -0.072890
   9 H :    0.173424
  10 H :    0.126903
  11 H :    0.117636
  12 H :    0.140056
  13 H :    0.146355
  14 H :    0.148351
  15 H :    0.156920
  16 H :    0.132939
  17 H :    0.133954
  18 H :    0.170968

  Mayer bond orders larger than 0.1
B(  0-O ,  1-C ) :   0.9285 B(  0-O ,  9-H ) :   0.8478 B(  1-C ,  2-C ) :   0.9165
B(  1-C , 10-H ) :   0.9205 B(  1-C , 11-H ) :   0.9439 B(  2-C ,  3-C ) :   0.8812
B(  2-C , 12-H ) :   0.9198 B(  2-C , 13-H ) :   0.9224 B(  3-C ,  4-N ) :   0.9887
B(  3-C ,  6-C ) :   0.8983 B(  3-C , 14-H ) :   0.9119 B(  4-N ,  5-C ) :   0.9649
B(  4-N , 15-H ) :   0.8760 B(  5-C ,  6-C ) :   0.9505 B(  5-C , 16-H ) :   0.9089
B(  5-C , 17-H ) :   0.9051 B(  6-C ,  7-N ) :   1.8839 B(  7-N ,  8-O ) :   0.8074
B(  8-O , 18-H ) :   0.8425

MP2 TOTAL ENERGY:     -455.529826525 Eh
FINAL SINGLE POINT ENERGY      -455.529826525105

DIPOLE MOMENT
-------------
                                X             Y             Z
Electronic contribution:     -4.26121      -2.18667      -1.92160
Nuclear contribution   :      4.03033       1.53547       2.23916
                        -----------------------------------------
Total Dipole Moment    :     -0.23087      -0.65120       0.31756
                        -----------------------------------------
Magnitude (a.u.)       :      0.76040
Magnitude (Debye)      :      1.93278

                             ****ORCA TERMINATED NORMALLY****
TOTAL RUN TIME: 0 days 0 hours 14 minutes 48 seconds 770 msec
