                         Program Version 3.0.3 - RELEASE   -
|  1> ! RI-MP2 RIJK def2-TZVP def2-TZVP/C def2-TZVP/JK TIGHTSCF
|  2> % maxcore 2000
|  3> % mp2 density relaxed end
|  4> *xyz 0 1
|  5>  O       -0.9337382372     1.5563166913    -0.1151860356
|  6>  C        0.0930059607     1.2415741681     0.4328853848
|  7>  C        1.4237217477     1.9061049669     0.1979158085
|  8>  C        1.4965156964     3.0249531148    -0.8725321789
|  9>  C        2.0111139507     4.0297250152     0.1992656773
| 10>  O        1.1501903623     5.0862668784     0.5675289315
| 11>  C        0.1540788655     4.5126668374     1.3835949620
| 12>  O        0.7683447764     3.4528103901     2.1082052207
| 13>  C        1.8215747175     2.9564011555     1.3106846519
| 14>  H        0.1078201057     0.4278758779     1.1913136520
| 15>  H        2.1945560737     1.1339452038     0.1060560047
| 16>  H        2.1858618397     2.8392690053    -1.6977778252
| 17>  H        0.5164571616     3.2849932171    -1.2776088517
| 18>  H        3.0075668914     4.4410286346     0.0357992508
| 19>  H       -0.2032955020     5.2643483929     2.0921403003
| 20>  H       -0.6779736234     4.1222571714     0.7788825269
| 21>  H        2.6518222936     2.6798589592     1.9619251601
| 22> *
| 23>
| 24>                          ****END OF INPUT****

CARTESIAN COORDINATES (ANGSTROEM)
---------------------------------
  O     -0.933738    1.556317   -0.115186
  C      0.093006    1.241574    0.432885
  C      1.423722    1.906105    0.197916
  C      1.496516    3.024953   -0.872532
  C      2.011114    4.029725    0.199266
  O      1.150190    5.086267    0.567529
  C      0.154079    4.512667    1.383595
  O      0.768345    3.452810    2.108205
  C      1.821575    2.956401    1.310685
  H      0.107820    0.427876    1.191314
  H      2.194556    1.133945    0.106056
  H      2.185862    2.839269   -1.697778
  H      0.516457    3.284993   -1.277609
  H      3.007567    4.441029    0.035799
  H     -0.203296    5.264348    2.092140
  H     -0.677974    4.122257    0.778883
  H      2.651822    2.679859    1.961925

 Total Charge           Charge          ....    0
 Multiplicity           Mult            ....    1
 Number of Electrons    NEL             ....   68
 Basis Dimension        Dim             ....  327

ORBITAL ENERGIES
----------------

  NO   OCC          E(Eh)            E(eV)
   0   2.0000     -20.577405      -559.9396
   1   2.0000     -20.573769      -559.8407
   2   2.0000     -20.561196      -559.4986
   3   2.0000     -11.337188      -308.5006
   4   2.0000     -11.332596      -308.3756
   5   2.0000     -11.304006      -307.5977
   6   2.0000     -11.295657      -307.3705
   7   2.0000     -11.253825      -306.2322
   8   2.0000     -11.236798      -305.7688
   9   2.0000      -1.450555       -39.4716
  10   2.0000      -1.400288       -38.1038
  11   2.0000      -1.346898       -36.6510
  12   2.0000      -1.138369       -30.9766
  13   2.0000      -0.977725       -26.6053
  14   2.0000      -0.940597       -25.5949
  15   2.0000      -0.866431       -23.5768
  16   2.0000      -0.821815       -22.3627
  17   2.0000      -0.756976       -20.5984
  18   2.0000      -0.740362       -20.1463
  19   2.0000      -0.703429       -19.1413
  20   2.0000      -0.680898       -18.5282
  21   2.0000      -0.655905       -17.8481
  22   2.0000      -0.630316       -17.1518
  23   2.0000      -0.618003       -16.8167
  24   2.0000      -0.594400       -16.1744
  25   2.0000      -0.571628       -15.5548
  26   2.0000      -0.538637       -14.6570
  27   2.0000      -0.524942       -14.2844
  28   2.0000      -0.521472       -14.1900
  29   2.0000      -0.511613       -13.9217
  30   2.0000      -0.469201       -12.7676
  31   2.0000      -0.436126       -11.8676
  32   2.0000      -0.422749       -11.5036
  33   2.0000      -0.415228       -11.2989
  34   0.0000       0.123952         3.3729
  35   0.0000       0.131378         3.5750
  36   0.0000       0.158719         4.3190
  37   0.0000       0.175879         4.7859
  38   0.0000       0.186921         5.0864

MULLIKEN ATOMIC CHARGES
-----------------------
   0 O :   -0.278408
   1 C :    0.103020
   2 C :   -0.078486
   3 C :   -0.267368
   4 C :    0.023048
   5 O :   -0.310010
   6 C :    0.074826
   7 O :   -0.325957
   8 C :    0.074797
   9 H :    0.084999
  10 H :    0.125764
  11 H :    0.132038
  12 H :    0.147668
  13 H :    0.118209
  14 H :    0.129950
  15 H :    0.117303
  16 H :    0.128608
Sum of atomic charges:   -0.0000000

LOEWDIN ATOMIC CHARGES
----------------------
   0 O :    0.135030
   1 C :   -0.274280
   2 C :   -0.217822
   3 C :   -0.195232
   4 C :   -0.272134
   5 O :    0.182425
   6 C :   -0.352986
   7 O :    0.177803
   8 C :   -0.243897
   9 H :    0.115648
  10 H :    0.157754
  11 H :    0.133775
  12 H :    0.147337
  13 H :    0.138381
  14 H :    0.120908
  15 H :    0.112156
  16 H :    0.135135

  Mayer bond orders larger than 0.1
B(  0-O ,  1-C ) :   1.9631 B(  1-C ,  2-C ) :   0.8575 B(  1-C ,  9-H ) :   0.9347
B(  2-C ,  3-C ) :   0.9296 B(  2-C ,  8-C ) :   0.8774 B(  2-C , 10-H ) :   0.8925
B(  3-C ,  4-C ) :   0.9214 B(  3-C , 11-H ) :   0.9172 B(  3-C , 12-H ) :   0.8965
B(  4-C ,  5-O ) :   0.9616 B(  4-C ,  8-C ) :   0.9154 B(  4-C , 13-H ) :   0.9300
B(  5-O ,  6-C ) :   0.9621 B(  6-C ,  7-O ) :   0.9365 B(  6-C , 14-H ) :   0.9231
B(  6-C , 15-H ) :   0.9272 B(  7-O ,  8-C ) :   0.9555 B(  8-C , 16-H ) :   0.9324

MP2 TOTAL ENERGY:     -458.217603429 Eh
FINAL SINGLE POINT ENERGY      -458.217603428702

DIPOLE MOMENT
-------------
                                X             Y             Z
Electronic contribution:     -1.71860       0.23849       1.44812
Nuclear contribution   :      2.72894      -0.61380      -1.44887
                        -----------------------------------------
Total Dipole Moment    :      1.01034      -0.37531      -0.00075
                        -----------------------------------------
Magnitude (a.u.)       :      1.07780
Magnitude (Debye)      :      2.73954

                             ****ORCA TERMINATED NORMALLY****
TOTAL RUN TIME: 0 days 0 hours 16 minutes 35 seconds 80 msec
