                         Program Version 3.0.3 - RELEASE   -
|  1> ! RI-MP2 RIJK def2-TZVP def2-TZVP/C def2-TZVP/JK TIGHTSCF
|  2> % maxcore 2000
|  3> % mp2 density relaxed end
|  4> *xyz 0 1
|  5>  C       -0.0152335599     1.5474173404     0.0168684475
|  6>  C       -0.0247514957    -0.0011215432    -0.0433970058
|  7>  C       -1.3943952137    -0.5246264461     0.0068194169
|  8>  C       -2.5241421879    -0.9277145914     0.0647362519
|  9>  C        0.6939504927    -0.4894932620    -1.2255410292
| 10>  C        1.3004706311    -0.8634037915    -2.1922267902
| 11>  H        1.0143451862     1.9133058477     0.0190137386
| 12>  H       -0.5337281167     1.9625240940    -0.8499475620
| 13>  H       -0.5198926586     1.8875036055     0.9243771442
| 14>  H        0.5061932779    -0.3709490588     0.8457972444
| 15>  H       -3.5192911902    -1.2954928760     0.1098435913
| 16>  H        1.8296978349    -1.2057416085    -3.0468245177
| 17> *
| 18>
| 19>                          ****END OF INPUT****

CARTESIAN COORDINATES (ANGSTROEM)
---------------------------------
  C     -0.015234    1.547417    0.016868
  C     -0.024751   -0.001122   -0.043397
  C     -1.394395   -0.524626    0.006819
  C     -2.524142   -0.927715    0.064736
  C      0.693950   -0.489493   -1.225541
  C      1.300471   -0.863404   -2.192227
  H      1.014345    1.913306    0.019014
  H     -0.533728    1.962524   -0.849948
  H     -0.519893    1.887504    0.924377
  H      0.506193   -0.370949    0.845797
  H     -3.519291   -1.295493    0.109844
  H      1.829698   -1.205742   -3.046825

 Total Charge           Charge          ....    0
 Multiplicity           Mult            ....    1
 Number of Electrons    NEL             ....   42
 Basis Dimension        Dim             ....  222

ORBITAL ENERGIES
----------------

  NO   OCC          E(Eh)            E(eV)
   0   2.0000     -11.291851      -307.2669
   1   2.0000     -11.239931      -305.8541
   2   2.0000     -11.239919      -305.8538
   3   2.0000     -11.236207      -305.7527
   4   2.0000     -11.227344      -305.5116
   5   2.0000     -11.227342      -305.5115
   6   2.0000      -1.121484       -30.5171
   7   2.0000      -1.022944       -27.8357
   8   2.0000      -0.995393       -27.0860
   9   2.0000      -0.895987       -24.3810
  10   2.0000      -0.749290       -20.3892
  11   2.0000      -0.715927       -19.4814
  12   2.0000      -0.667054       -18.1515
  13   2.0000      -0.660076       -17.9616
  14   2.0000      -0.576645       -15.6913
  15   2.0000      -0.548750       -14.9322
  16   2.0000      -0.535389       -14.5687
  17   2.0000      -0.408185       -11.1073
  18   2.0000      -0.404454       -11.0058
  19   2.0000      -0.387031       -10.5317
  20   2.0000      -0.383161       -10.4263
  21   0.0000       0.129772         3.5313
  22   0.0000       0.158999         4.3266
  23   0.0000       0.164096         4.4653
  24   0.0000       0.165364         4.4998
  25   0.0000       0.183398         4.9905

MULLIKEN ATOMIC CHARGES
-----------------------
   0 C :   -0.367319
   1 C :   -0.247297
   2 C :   -0.021745
   3 C :   -0.143418
   4 C :   -0.021758
   5 C :   -0.143407
   6 H :    0.141453
   7 H :    0.138635
   8 H :    0.141452
   9 H :    0.137124
  10 H :    0.193139
  11 H :    0.193139
Sum of atomic charges:   -0.0000000

LOEWDIN ATOMIC CHARGES
----------------------
   0 C :   -0.250699
   1 C :   -0.253497
   2 C :   -0.073079
   3 C :   -0.090073
   4 C :   -0.073080
   5 C :   -0.090073
   6 H :    0.128381
   7 H :    0.131339
   8 H :    0.128380
   9 H :    0.186783
  10 H :    0.127809
  11 H :    0.127809

  Mayer bond orders larger than 0.1
B(  0-C ,  1-C ) :   0.9099 B(  0-C ,  6-H ) :   0.9333 B(  0-C ,  7-H ) :   0.9289
B(  0-C ,  8-H ) :   0.9333 B(  1-C ,  2-C ) :   1.1259 B(  1-C ,  4-C ) :   1.1259
B(  1-C ,  9-H ) :   0.9091 B(  2-C ,  3-C ) :   2.5884 B(  3-C , 10-H ) :   0.8977
B(  4-C ,  5-C ) :   2.5884 B(  5-C , 11-H ) :   0.8977

MP2 TOTAL ENERGY:     -231.576363270 Eh
FINAL SINGLE POINT ENERGY      -231.576363270076

DIPOLE MOMENT
-------------
                                X             Y             Z
Electronic contribution:     -0.56519      -3.40333      -1.05490
Nuclear contribution   :      0.64173       3.59206       1.19011
                        -----------------------------------------
Total Dipole Moment    :      0.07654       0.18873       0.13521
                        -----------------------------------------
Magnitude (a.u.)       :      0.24446
Magnitude (Debye)      :      0.62137

                             ****ORCA TERMINATED NORMALLY****
TOTAL RUN TIME: 0 days 0 hours 4 minutes 15 seconds 152 msec
