                         Program Version 3.0.3 - RELEASE   -
|  1> ! RI-MP2 RIJK def2-TZVP def2-TZVP/C def2-TZVP/JK TIGHTSCF
|  2> % maxcore 2000
|  3> % mp2 density relaxed end
|  4> *xyz 0 1
|  5>  C       -0.1407037341     1.4232016113     0.0113586873
|  6>  C        0.1026845490    -0.0566789625     0.0011571204
|  7>  N        1.2659392487    -0.5563799700    -0.0131853549
|  8>  O       -1.1005885810    -0.7161417150     0.0095684712
|  9>  C       -1.0869730351    -2.1158073843     0.0016732153
| 10>  C       -2.5155767526    -2.6375533868     0.0128798886
| 11>  O       -3.4961586401    -1.9477043254     0.0262580010
| 12>  C       -2.6178542794    -4.1828787140     0.0054789438
| 13>  O       -3.6718252076    -4.7527287617     0.0126526981
| 14>  H        0.8123127663     1.9495571681     0.0063813129
| 15>  H       -0.7315019103     1.7132216860    -0.8627684824
| 16>  H       -0.7172096234     1.7035268263     0.8980703051
| 17>  H        1.2733818138    -1.5750172816    -0.0188225856
| 18>  H       -0.5748038553    -2.5184147910    -0.8890052780
| 19>  H       -0.5573057706    -2.5281983265     0.8775088472
| 20>  H       -1.6480677684    -4.7312941129    -0.0069502702
| 21> *
| 22>
| 23>                          ****END OF INPUT****

CARTESIAN COORDINATES (ANGSTROEM)
---------------------------------
  C     -0.140704    1.423202    0.011359
  C      0.102685   -0.056679    0.001157
  N      1.265939   -0.556380   -0.013185
  O     -1.100589   -0.716142    0.009568
  C     -1.086973   -2.115807    0.001673
  C     -2.515577   -2.637553    0.012880
  O     -3.496159   -1.947704    0.026258
  C     -2.617854   -4.182879    0.005479
  O     -3.671825   -4.752729    0.012653
  H      0.812313    1.949557    0.006381
  H     -0.731502    1.713222   -0.862768
  H     -0.717210    1.703527    0.898070
  H      1.273382   -1.575017   -0.018823
  H     -0.574804   -2.518415   -0.889005
  H     -0.557306   -2.528198    0.877509
  H     -1.648068   -4.731294   -0.006950

 Total Charge           Charge          ....    0
 Multiplicity           Mult            ....    1
 Number of Electrons    NEL             ....   68
 Basis Dimension        Dim             ....  321

ORBITAL ENERGIES
----------------

  NO   OCC          E(Eh)            E(eV)
   0   2.0000     -20.621939      -561.1515
   1   2.0000     -20.604442      -560.6754
   2   2.0000     -20.593786      -560.3854
   3   2.0000     -15.553295      -423.2267
   4   2.0000     -11.369992      -309.3932
   5   2.0000     -11.368937      -309.3645
   6   2.0000     -11.358417      -309.0783
   7   2.0000     -11.339707      -308.5691
   8   2.0000     -11.238236      -305.8079
   9   2.0000      -1.462597       -39.7993
  10   2.0000      -1.445220       -39.3264
  11   2.0000      -1.418795       -38.6074
  12   2.0000      -1.215008       -33.0621
  13   2.0000      -1.070502       -29.1298
  14   2.0000      -1.004442       -27.3323
  15   2.0000      -0.922851       -25.1121
  16   2.0000      -0.798034       -21.7156
  17   2.0000      -0.785488       -21.3742
  18   2.0000      -0.750107       -20.4114
  19   2.0000      -0.727840       -19.8055
  20   2.0000      -0.712916       -19.3994
  21   2.0000      -0.684097       -18.6152
  22   2.0000      -0.671851       -18.2820
  23   2.0000      -0.613273       -16.6880
  24   2.0000      -0.611824       -16.6486
  25   2.0000      -0.582340       -15.8463
  26   2.0000      -0.567012       -15.4292
  27   2.0000      -0.551189       -14.9986
  28   2.0000      -0.536822       -14.6077
  29   2.0000      -0.519486       -14.1359
  30   2.0000      -0.515465       -14.0265
  31   2.0000      -0.452997       -12.3267
  32   2.0000      -0.433284       -11.7903
  33   2.0000      -0.426590       -11.6081
  34   0.0000       0.041536         1.1303
  35   0.0000       0.105995         2.8843
  36   0.0000       0.142133         3.8676
  37   0.0000       0.154193         4.1958
  38   0.0000       0.170450         4.6382

MULLIKEN ATOMIC CHARGES
-----------------------
   0 C :   -0.374896
   1 C :    0.210696
   2 N :   -0.382847
   3 O :   -0.214654
   4 C :   -0.189983
   5 C :    0.265808
   6 O :   -0.209817
   7 C :    0.031147
   8 O :   -0.198574
   9 H :    0.156183
  10 H :    0.147365
  11 H :    0.147394
  12 H :    0.212298
  13 H :    0.148373
  14 H :    0.148380
  15 H :    0.103127
Sum of atomic charges:    0.0000000

LOEWDIN ATOMIC CHARGES
----------------------
   0 C :   -0.261698
   1 C :   -0.422454
   2 N :   -0.057564
   3 O :    0.261780
   4 C :   -0.304895
   5 C :   -0.331775
   6 O :    0.220143
   7 C :   -0.263354
   8 O :    0.189489
   9 H :    0.138099
  10 H :    0.138263
  11 H :    0.138237
  12 H :    0.155008
  13 H :    0.143152
  14 H :    0.143147
  15 H :    0.114420

  Mayer bond orders larger than 0.1
B(  0-C ,  1-C ) :   0.9159 B(  0-C ,  9-H ) :   0.9429 B(  0-C , 10-H ) :   0.9220
B(  0-C , 11-H ) :   0.9221 B(  1-C ,  2-N ) :   1.9470 B(  1-C ,  3-O ) :   1.0448
B(  2-N , 12-H ) :   0.8726 B(  3-O ,  4-C ) :   0.9254 B(  4-C ,  5-C ) :   0.8813
B(  4-C , 13-H ) :   0.8960 B(  4-C , 14-H ) :   0.8960 B(  5-C ,  6-O ) :   2.0159
B(  5-C ,  7-C ) :   0.8005 B(  7-C ,  8-O ) :   2.0080 B(  7-C , 15-H ) :   0.9253

MP2 TOTAL ENERGY:     -474.265630968 Eh
FINAL SINGLE POINT ENERGY      -474.265630967934

DIPOLE MOMENT
-------------
                                X             Y             Z
Electronic contribution:     -6.80711      -6.09645       0.03479
Nuclear contribution   :      7.70816       5.72021      -0.04576
                        -----------------------------------------
Total Dipole Moment    :      0.90104      -0.37624      -0.01097
                        -----------------------------------------
Magnitude (a.u.)       :      0.97650
Magnitude (Debye)      :      2.48207

                             ****ORCA TERMINATED NORMALLY****
TOTAL RUN TIME: 0 days 0 hours 12 minutes 50 seconds 771 msec
