                         Program Version 3.0.3 - RELEASE   -
|  1> ! RI-MP2 RIJK def2-TZVP def2-TZVP/C def2-TZVP/JK TIGHTSCF
|  2> % maxcore 2000
|  3> % mp2 density relaxed end
|  4> *xyz 0 1
|  5>  N       -0.0381241128     1.3021378487    -0.3050427724
|  6>  C        0.0105072849     0.0849968392     0.0415398071
|  7>  O        1.1729974384    -0.5069995168     0.4362673580
|  8>  C        1.1715183057    -1.8891014763     0.8180019211
|  9>  C       -0.1869129367    -2.5482062968     0.7309258174
| 10>  C       -1.1005694393    -2.2329261313    -0.4817484909
| 11>  O       -2.2761867344    -2.5970866278     0.3300072737
| 12>  C       -1.4362605552    -1.7646945973     1.2105099355
| 13>  C       -1.2157632398    -0.7702834681     0.0349045987
| 14>  H        0.8909486457     1.7245675395    -0.2375670330
| 15>  H        1.8882374171    -2.4065408986     0.1686498053
| 16>  H        1.5562085113    -1.9434554235     1.8437365742
| 17>  H       -0.1655385045    -3.5989567459     1.0258894484
| 18>  H       -1.0536709430    -2.5950658948    -1.5085546753
| 19>  H       -1.7933539823    -1.5633432436     2.2202707285
| 20>  H       -2.0949255549    -0.2203433465    -0.2916726261
| 21> *
| 22>
| 23>                          ****END OF INPUT****

CARTESIAN COORDINATES (ANGSTROEM)
---------------------------------
  N     -0.038124    1.302138   -0.305043
  C      0.010507    0.084997    0.041540
  O      1.172997   -0.507000    0.436267
  C      1.171518   -1.889101    0.818002
  C     -0.186913   -2.548206    0.730926
  C     -1.100569   -2.232926   -0.481748
  O     -2.276187   -2.597087    0.330007
  C     -1.436261   -1.764695    1.210510
  C     -1.215763   -0.770283    0.034905
  H      0.890949    1.724568   -0.237567
  H      1.888237   -2.406541    0.168650
  H      1.556209   -1.943455    1.843737
  H     -0.165539   -3.598957    1.025889
  H     -1.053671   -2.595066   -1.508555
  H     -1.793354   -1.563343    2.220271
  H     -2.094926   -0.220343   -0.291673

 Total Charge           Charge          ....    0
 Multiplicity           Mult            ....    1
 Number of Electrons    NEL             ....   66
 Basis Dimension        Dim             ....  321

ORBITAL ENERGIES
----------------

  NO   OCC          E(Eh)            E(eV)
   0   2.0000     -20.601644      -560.5992
   1   2.0000     -20.567686      -559.6752
   2   2.0000     -15.536460      -422.7686
   3   2.0000     -11.343986      -308.6856
   4   2.0000     -11.321022      -308.0607
   5   2.0000     -11.320940      -308.0584
   6   2.0000     -11.310448      -307.7729
   7   2.0000     -11.267298      -306.5988
   8   2.0000     -11.262336      -306.4638
   9   2.0000      -1.438314       -39.1385
  10   2.0000      -1.414041       -38.4780
  11   2.0000      -1.201511       -32.6948
  12   2.0000      -1.115786       -30.3621
  13   2.0000      -1.016390       -27.6574
  14   2.0000      -0.912215       -24.8226
  15   2.0000      -0.906548       -24.6684
  16   2.0000      -0.839910       -22.8551
  17   2.0000      -0.726684       -19.7741
  18   2.0000      -0.714413       -19.4402
  19   2.0000      -0.699211       -19.0265
  20   2.0000      -0.682263       -18.5653
  21   2.0000      -0.680416       -18.5151
  22   2.0000      -0.614509       -16.7216
  23   2.0000      -0.571610       -15.5543
  24   2.0000      -0.569717       -15.5028
  25   2.0000      -0.565319       -15.3831
  26   2.0000      -0.537187       -14.6176
  27   2.0000      -0.481527       -13.1030
  28   2.0000      -0.481469       -13.1014
  29   2.0000      -0.466958       -12.7066
  30   2.0000      -0.444696       -12.1008
  31   2.0000      -0.424522       -11.5518
  32   2.0000      -0.396815       -10.7979
  33   0.0000       0.127803         3.4777
  34   0.0000       0.146687         3.9916
  35   0.0000       0.161267         4.3883
  36   0.0000       0.170535         4.6405
  37   0.0000       0.187028         5.0893

MULLIKEN ATOMIC CHARGES
-----------------------
   0 N :   -0.360365
   1 C :    0.070272
   2 O :   -0.255973
   3 C :   -0.056347
   4 C :   -0.081131
   5 C :   -0.027573
   6 O :   -0.305402
   7 C :   -0.027577
   8 C :    0.000759
   9 H :    0.219566
  10 H :    0.126367
  11 H :    0.126388
  12 H :    0.130415
  13 H :    0.147839
  14 H :    0.147840
  15 H :    0.144921
Sum of atomic charges:    0.0000000

LOEWDIN ATOMIC CHARGES
----------------------
   0 N :   -0.049720
   1 C :   -0.399424
   2 O :    0.240865
   3 C :   -0.261064
   4 C :   -0.193087
   5 C :   -0.179518
   6 O :    0.141599
   7 C :   -0.179510
   8 C :   -0.141730
   9 H :    0.167027
  10 H :    0.135617
  11 H :    0.135620
  12 H :    0.157108
  13 H :    0.130263
  14 H :    0.130263
  15 H :    0.165691

  Mayer bond orders larger than 0.1
B(  0-N ,  1-C ) :   2.0367 B(  0-N ,  9-H ) :   0.8556 B(  1-C ,  2-O ) :   1.0988
B(  1-C ,  8-C ) :   0.9040 B(  2-O ,  3-C ) :   0.8925 B(  3-C ,  4-C ) :   0.9241
B(  3-C , 10-H ) :   0.9222 B(  3-C , 11-H ) :   0.9222 B(  4-C ,  5-C ) :   0.9128
B(  4-C ,  7-C ) :   0.9128 B(  4-C , 12-H ) :   0.9041 B(  5-C ,  6-O ) :   0.9158
B(  5-C ,  8-C ) :   0.8777 B(  5-C , 13-H ) :   0.8865 B(  6-O ,  7-C ) :   0.9158
B(  7-C ,  8-C ) :   0.8777 B(  7-C , 14-H ) :   0.8865 B(  8-C , 15-H ) :   0.9229

MP2 TOTAL ENERGY:     -437.108026682 Eh
FINAL SINGLE POINT ENERGY      -437.108026681555

DIPOLE MOMENT
-------------
                                X             Y             Z
Electronic contribution:     -1.14695       1.13777      -0.54179
Nuclear contribution   :      2.00723      -1.98433       0.94660
                        -----------------------------------------
Total Dipole Moment    :      0.86028      -0.84656       0.40481
                        -----------------------------------------
Magnitude (a.u.)       :      1.27304
Magnitude (Debye)      :      3.23580

                             ****ORCA TERMINATED NORMALLY****
TOTAL RUN TIME: 0 days 0 hours 16 minutes 2 seconds 754 msec
