                         Program Version 3.0.3 - RELEASE   -
|  1> ! RI-MP2 RIJK def2-TZVP def2-TZVP/C def2-TZVP/JK TIGHTSCF
|  2> % maxcore 2000
|  3> % mp2 density relaxed end
|  4> *xyz 0 1
|  5>  O        0.1224564387    -0.0335469647    -0.4949303542
|  6>  C        0.0552673018     1.1466097390    -0.2137137808
|  7>  N       -1.1578810054     1.7861085666    -0.0655573893
|  8>  C       -1.3148043350     3.1596789255     0.1530562594
|  9>  C       -0.2945127145     4.0188130660     0.1857633076
| 10>  C        1.1242196587     3.5759537201     0.0007215751
| 11>  C        1.9965654319     3.6503794828     1.2952557558
| 12>  C        1.7179002954     2.1437742056     1.5396623443
| 13>  C        1.2644715229     2.0177949176     0.0495563067
| 14>  H       -1.9703714289     1.2046419841    -0.2031360876
| 15>  H       -2.3440863884     3.4717301134     0.2880371949
| 16>  H       -0.4956935367     5.0704330300     0.3588484326
| 17>  H        1.5676558912     4.0643520747    -0.8744591075
| 18>  H        3.0478029914     3.8437137330     1.0639874135
| 19>  H        1.6721664645     4.3508661424     2.0683651962
| 20>  H        2.5521248316     1.5121866519     1.8493323644
| 21>  H        0.8855583313     1.9858948966     2.2303097725
| 22>  H        2.0779087297     1.6493074454    -0.5767646534
| 23> *
| 24>
| 25>                          ****END OF INPUT****

CARTESIAN COORDINATES (ANGSTROEM)
---------------------------------
  O      0.122456   -0.033547   -0.494930
  C      0.055267    1.146610   -0.213714
  N     -1.157881    1.786109   -0.065557
  C     -1.314804    3.159679    0.153056
  C     -0.294513    4.018813    0.185763
  C      1.124220    3.575954    0.000722
  C      1.996565    3.650379    1.295256
  C      1.717900    2.143774    1.539662
  C      1.264472    2.017795    0.049556
  H     -1.970371    1.204642   -0.203136
  H     -2.344086    3.471730    0.288037
  H     -0.495694    5.070433    0.358848
  H      1.567656    4.064352   -0.874459
  H      3.047803    3.843714    1.063987
  H      1.672166    4.350866    2.068365
  H      2.552125    1.512187    1.849332
  H      0.885558    1.985895    2.230310
  H      2.077909    1.649307   -0.576765

 Total Charge           Charge          ....    0
 Multiplicity           Mult            ....    1
 Number of Electrons    NEL             ....   66
 Basis Dimension        Dim             ....  333

ORBITAL ENERGIES
----------------

  NO   OCC          E(Eh)            E(eV)
   0   2.0000     -20.521407      -558.4159
   1   2.0000     -15.595122      -424.3648
   2   2.0000     -11.350373      -308.8593
   3   2.0000     -11.283233      -307.0324
   4   2.0000     -11.246048      -306.0205
   5   2.0000     -11.243411      -305.9488
   6   2.0000     -11.235761      -305.7406
   7   2.0000     -11.231928      -305.6363
   8   2.0000     -11.228107      -305.5323
   9   2.0000      -1.385782       -37.7090
  10   2.0000      -1.253716       -34.1154
  11   2.0000      -1.147187       -31.2165
  12   2.0000      -1.039537       -28.2872
  13   2.0000      -0.950271       -25.8582
  14   2.0000      -0.916875       -24.9494
  15   2.0000      -0.833834       -22.6898
  16   2.0000      -0.802683       -21.8421
  17   2.0000      -0.736724       -20.0473
  18   2.0000      -0.687538       -18.7089
  19   2.0000      -0.671033       -18.2597
  20   2.0000      -0.661573       -18.0023
  21   2.0000      -0.619834       -16.8665
  22   2.0000      -0.600828       -16.3494
  23   2.0000      -0.587465       -15.9857
  24   2.0000      -0.560634       -15.2556
  25   2.0000      -0.541207       -14.7270
  26   2.0000      -0.499640       -13.5959
  27   2.0000      -0.493459       -13.4277
  28   2.0000      -0.487515       -13.2660
  29   2.0000      -0.457492       -12.4490
  30   2.0000      -0.441788       -12.0217
  31   2.0000      -0.410141       -11.1605
  32   2.0000      -0.325137        -8.8474
  33   0.0000       0.123528         3.3614
  34   0.0000       0.134868         3.6699
  35   0.0000       0.151160         4.1133
  36   0.0000       0.163858         4.4588
  37   0.0000       0.166131         4.5206

MULLIKEN ATOMIC CHARGES
-----------------------
   0 O :   -0.328989
   1 C :    0.184422
   2 N :   -0.279848
   3 C :   -0.027706
   4 C :   -0.284711
   5 C :    0.033225
   6 C :   -0.226707
   7 C :   -0.267515
   8 C :   -0.054046
   9 H :    0.241975
  10 H :    0.140315
  11 H :    0.131780
  12 H :    0.121440
  13 H :    0.117953
  14 H :    0.116998
  15 H :    0.129701
  16 H :    0.128300
  17 H :    0.123412
Sum of atomic charges:   -0.0000000

LOEWDIN ATOMIC CHARGES
----------------------
   0 O :    0.096844
   1 C :   -0.414808
   2 N :    0.144683
   3 C :   -0.215042
   4 C :   -0.181481
   5 C :   -0.189892
   6 C :   -0.211111
   7 C :   -0.198926
   8 C :   -0.156486
   9 H :    0.195808
  10 H :    0.142868
  11 H :    0.147916
  12 H :    0.147148
  13 H :    0.133875
  14 H :    0.126581
  15 H :    0.128078
  16 H :    0.140682
  17 H :    0.163263

  Mayer bond orders larger than 0.1
B(  0-O ,  1-C ) :   2.0105 B(  1-C ,  2-N ) :   1.1274 B(  1-C ,  8-C ) :   0.8955
B(  2-N ,  3-C ) :   1.0091 B(  2-N ,  9-H ) :   0.8626 B(  3-C ,  4-C ) :   1.7686
B(  3-C , 10-H ) :   0.9131 B(  4-C ,  5-C ) :   0.9024 B(  4-C , 11-H ) :   0.9227
B(  5-C ,  6-C ) :   0.8911 B(  5-C ,  8-C ) :   0.8776 B(  5-C , 12-H ) :   0.9163
B(  6-C ,  7-C ) :   0.9371 B(  6-C , 13-H ) :   0.9238 B(  6-C , 14-H ) :   0.9195
B(  7-C ,  8-C ) :   0.9292 B(  7-C , 15-H ) :   0.9325 B(  7-C , 16-H ) :   0.9135
B(  8-C , 17-H ) :   0.9181

MP2 TOTAL ENERGY:     -401.289484557 Eh
FINAL SINGLE POINT ENERGY      -401.289484557302

DIPOLE MOMENT
-------------
                                X             Y             Z
Electronic contribution:     -3.58630      -4.51926      -3.17737
Nuclear contribution   :      3.29658       5.64791       3.50585
                        -----------------------------------------
Total Dipole Moment    :     -0.28972       1.12865       0.32848
                        -----------------------------------------
Magnitude (a.u.)       :      1.21065
Magnitude (Debye)      :      3.07723

                             ****ORCA TERMINATED NORMALLY****
TOTAL RUN TIME: 0 days 0 hours 19 minutes 18 seconds 504 msec
