                         Program Version 3.0.3 - RELEASE   -
|  1> ! RI-MP2 RIJK def2-TZVP def2-TZVP/C def2-TZVP/JK TIGHTSCF
|  2> % maxcore 2000
|  3> % mp2 density relaxed end
|  4> *xyz 0 1
|  5>  C        0.0920966391     1.1099360153     0.9875920427
|  6>  C       -0.4113711778     0.5122963268    -0.3239591275
|  7>  O        0.5402126875    -0.3831369866    -0.9030013952
|  8>  C       -1.7868718229    -0.1783411780    -0.1736269784
|  9>  O       -2.4512542760    -0.3324931780    -1.4173464161
| 10>  C       -2.2323466134    -1.6601203534    -1.9135250628
| 11>  C       -2.1915371054    -2.5490257684    -0.6689077155
| 12>  C       -1.6265733888    -1.6019295601     0.3830630629
| 13>  O       -1.1079140058    -1.8953205920     1.4306788003
| 14>  H        1.0787230937     1.5564152199     0.8362481088
| 15>  H       -0.5865413880     1.8878356998     1.3515866998
| 16>  H        0.1641513401     0.3377152418     1.7603959553
| 17>  H       -0.5488302546     1.2994038515    -1.0731103135
| 18>  H        0.8864670546    -0.9344102485    -0.1916175507
| 19>  H       -2.4279845061     0.4212893153     0.4845461933
| 20>  H       -3.0535435127    -1.8915960783    -2.5952972915
| 21>  H       -1.2841908408    -1.7126322255    -2.4621580494
| 22>  H       -3.2019076860    -2.8385602450    -0.3549731242
| 23>  H       -1.5871968367    -3.4535979265    -0.7556904883
| 24> *
| 25>
| 26>                          ****END OF INPUT****

CARTESIAN COORDINATES (ANGSTROEM)
---------------------------------
  C      0.092097    1.109936    0.987592
  C     -0.411371    0.512296   -0.323959
  O      0.540213   -0.383137   -0.903001
  C     -1.786872   -0.178341   -0.173627
  O     -2.451254   -0.332493   -1.417346
  C     -2.232347   -1.660120   -1.913525
  C     -2.191537   -2.549026   -0.668908
  C     -1.626573   -1.601930    0.383063
  O     -1.107914   -1.895321    1.430679
  H      1.078723    1.556415    0.836248
  H     -0.586541    1.887836    1.351587
  H      0.164151    0.337715    1.760396
  H     -0.548830    1.299404   -1.073110
  H      0.886467   -0.934410   -0.191618
  H     -2.427985    0.421289    0.484546
  H     -3.053544   -1.891596   -2.595297
  H     -1.284191   -1.712632   -2.462158
  H     -3.201908   -2.838560   -0.354973
  H     -1.587197   -3.453598   -0.755690

 Total Charge           Charge          ....    0
 Multiplicity           Mult            ....    1
 Number of Electrons    NEL             ....   70
 Basis Dimension        Dim             ....  339

ORBITAL ENERGIES
----------------

  NO   OCC          E(Eh)            E(eV)
   0   2.0000     -20.567659      -559.6745
   1   2.0000     -20.563781      -559.5689
   2   2.0000     -20.562064      -559.5222
   3   2.0000     -11.344174      -308.6907
   4   2.0000     -11.294418      -307.3367
   5   2.0000     -11.292312      -307.2794
   6   2.0000     -11.287969      -307.1613
   7   2.0000     -11.246850      -306.0423
   8   2.0000     -11.223087      -305.3957
   9   2.0000      -1.413427       -38.4613
  10   2.0000      -1.389393       -37.8073
  11   2.0000      -1.366244       -37.1774
  12   2.0000      -1.058902       -28.8142
  13   2.0000      -1.052674       -28.6447
  14   2.0000      -0.973770       -26.4976
  15   2.0000      -0.867463       -23.6049
  16   2.0000      -0.832503       -22.6536
  17   2.0000      -0.760633       -20.6979
  18   2.0000      -0.698650       -19.0112
  19   2.0000      -0.691861       -18.8265
  20   2.0000      -0.675015       -18.3681
  21   2.0000      -0.644598       -17.5404
  22   2.0000      -0.623865       -16.9762
  23   2.0000      -0.605065       -16.4646
  24   2.0000      -0.596744       -16.2382
  25   2.0000      -0.582720       -15.8566
  26   2.0000      -0.566219       -15.4076
  27   2.0000      -0.542601       -14.7649
  28   2.0000      -0.535231       -14.5644
  29   2.0000      -0.516895       -14.0654
  30   2.0000      -0.504797       -13.7362
  31   2.0000      -0.490581       -13.3494
  32   2.0000      -0.481589       -13.1047
  33   2.0000      -0.423684       -11.5290
  34   2.0000      -0.400161       -10.8889
  35   0.0000       0.120372         3.2755
  36   0.0000       0.136950         3.7266
  37   0.0000       0.152468         4.1489
  38   0.0000       0.176649         4.8069
  39   0.0000       0.180226         4.9042

MULLIKEN ATOMIC CHARGES
-----------------------
   0 C :   -0.437713
   1 C :    0.041233
   2 O :   -0.482209
   3 C :    0.200637
   4 O :   -0.329178
   5 C :   -0.044134
   6 C :   -0.207384
   7 C :    0.028234
   8 O :   -0.279730
   9 H :    0.147398
  10 H :    0.130005
  11 H :    0.156735
  12 H :    0.110883
  13 H :    0.323941
  14 H :    0.127934
  15 H :    0.121812
  16 H :    0.113066
  17 H :    0.137354
  18 H :    0.141115
Sum of atomic charges:   -0.0000000

LOEWDIN ATOMIC CHARGES
----------------------
   0 C :   -0.301305
   1 C :   -0.343967
   2 O :   -0.016497
   3 C :   -0.274620
   4 O :    0.172263
   5 C :   -0.289299
   6 C :   -0.229249
   7 C :   -0.299838
   8 O :    0.153043
   9 H :    0.128012
  10 H :    0.128868
  11 H :    0.129942
  12 H :    0.150365
  13 H :    0.176377
  14 H :    0.156995
  15 H :    0.125901
  16 H :    0.125806
  17 H :    0.157763
  18 H :    0.149440

  Mayer bond orders larger than 0.1
B(  0-C ,  1-C ) :   0.9396 B(  0-C ,  9-H ) :   0.9349 B(  0-C , 10-H ) :   0.9302
B(  0-C , 11-H ) :   0.9151 B(  1-C ,  2-O ) :   0.9352 B(  1-C ,  3-C ) :   0.8700
B(  1-C , 12-H ) :   0.9304 B(  2-O ,  7-C ) :   0.1145 B(  2-O , 13-H ) :   0.8371
B(  3-C ,  4-O ) :   0.9323 B(  3-C ,  7-C ) :   0.8130 B(  3-C , 14-H ) :   0.8917
B(  4-O ,  5-C ) :   0.9065 B(  5-C ,  6-C ) :   0.9722 B(  5-C , 15-H ) :   0.9269
B(  5-C , 16-H ) :   0.9142 B(  6-C ,  7-C ) :   0.9146 B(  6-C , 17-H ) :   0.8949
B(  6-C , 18-H ) :   0.9104 B(  7-C ,  8-O ) :   1.9958

MP2 TOTAL ENERGY:     -459.450862223 Eh
FINAL SINGLE POINT ENERGY      -459.450862222833

DIPOLE MOMENT
-------------
                                X             Y             Z
Electronic contribution:     -1.65009      -2.32079       0.06975
Nuclear contribution   :      1.41258       2.17641      -0.09073
                        -----------------------------------------
Total Dipole Moment    :     -0.23751      -0.14438      -0.02098
                        -----------------------------------------
Magnitude (a.u.)       :      0.27874
Magnitude (Debye)      :      0.70850

                             ****ORCA TERMINATED NORMALLY****
TOTAL RUN TIME: 0 days 0 hours 20 minutes 11 seconds 694 msec
