                         Program Version 3.0.3 - RELEASE   -
|  1> ! RI-MP2 RIJK def2-TZVP def2-TZVP/C def2-TZVP/JK TIGHTSCF
|  2> % maxcore 2000
|  3> % mp2 density relaxed end
|  4> *xyz 0 1
|  5>  C        0.1249860757     1.4961749210    -0.0164434485
|  6>  C       -0.0500399573     0.0137217165     0.0179418241
|  7>  C       -1.2270606781    -0.6733351326    -0.0171844164
|  8>  C       -2.5865184538    -0.0257086125    -0.0991885791
|  9>  C       -1.0868153611    -2.0934876307     0.0304301721
| 10>  N        0.0285673971    -2.7584130207     0.1014715322
| 11>  C        1.2126029358    -2.0585614317     0.1359779651
| 12>  O        2.3152370161    -2.5114095127     0.1997140224
| 13>  O        1.1190493339    -0.6314807075     0.0909232066
| 14>  H        0.7406587725     1.7783632875    -0.8770633262
| 15>  H       -0.8321138879     2.0136798940    -0.0762187076
| 16>  H        0.6579967880     1.8288201367     0.8805704456
| 17>  H       -2.7060572154     0.5754594937    -1.0066781618
| 18>  H       -3.3664459216    -0.7921392609    -0.1133933873
| 19>  H       -2.7882467185     0.6263517821     0.7571756334
| 20>  H       -1.9978935353    -2.6956774523     0.0056581453
| 21> *
| 22>
| 23>                          ****END OF INPUT****

CARTESIAN COORDINATES (ANGSTROEM)
---------------------------------
  C      0.124986    1.496175   -0.016443
  C     -0.050040    0.013722    0.017942
  C     -1.227061   -0.673335   -0.017184
  C     -2.586518   -0.025709   -0.099189
  C     -1.086815   -2.093488    0.030430
  N      0.028567   -2.758413    0.101472
  C      1.212603   -2.058561    0.135978
  O      2.315237   -2.511410    0.199714
  O      1.119049   -0.631481    0.090923
  H      0.740659    1.778363   -0.877063
  H     -0.832114    2.013680   -0.076219
  H      0.657997    1.828820    0.880570
  H     -2.706057    0.575459   -1.006678
  H     -3.366446   -0.792139   -0.113393
  H     -2.788247    0.626352    0.757176
  H     -1.997894   -2.695677    0.005658

 Total Charge           Charge          ....    0
 Multiplicity           Mult            ....    1
 Number of Electrons    NEL             ....   66
 Basis Dimension        Dim             ....  321

ORBITAL ENERGIES
----------------

  NO   OCC          E(Eh)            E(eV)
   0   2.0000     -20.636597      -561.5503
   1   2.0000     -20.533940      -558.7569
   2   2.0000     -15.573241      -423.7694
   3   2.0000     -11.406740      -310.3932
   4   2.0000     -11.358903      -309.0915
   5   2.0000     -11.327660      -308.2413
   6   2.0000     -11.261674      -306.4457
   7   2.0000     -11.256226      -306.2975
   8   2.0000     -11.254740      -306.2570
   9   2.0000      -1.485972       -40.4353
  10   2.0000      -1.382661       -37.6241
  11   2.0000      -1.256660       -34.1955
  12   2.0000      -1.126974       -30.6665
  13   2.0000      -1.033322       -28.1181
  14   2.0000      -0.959703       -26.1149
  15   2.0000      -0.909124       -24.7385
  16   2.0000      -0.869696       -23.6656
  17   2.0000      -0.759842       -20.6763
  18   2.0000      -0.700233       -19.0543
  19   2.0000      -0.680851       -18.5269
  20   2.0000      -0.657304       -17.8861
  21   2.0000      -0.631805       -17.1923
  22   2.0000      -0.611144       -16.6301
  23   2.0000      -0.604372       -16.4458
  24   2.0000      -0.593683       -16.1549
  25   2.0000      -0.586419       -15.9573
  26   2.0000      -0.570232       -15.5168
  27   2.0000      -0.552787       -15.0421
  28   2.0000      -0.526269       -14.3205
  29   2.0000      -0.480042       -13.0626
  30   2.0000      -0.471352       -12.8261
  31   2.0000      -0.433929       -11.8078
  32   2.0000      -0.350339        -9.5332
  33   0.0000       0.057301         1.5592
  34   0.0000       0.112817         3.0699
  35   0.0000       0.147792         4.0216
  36   0.0000       0.156001         4.2450
  37   0.0000       0.168934         4.5969

MULLIKEN ATOMIC CHARGES
-----------------------
   0 C :   -0.422926
   1 C :    0.226294
   2 C :   -0.015143
   3 C :   -0.433347
   4 C :   -0.040594
   5 N :   -0.231451
   6 C :    0.286506
   7 O :   -0.264033
   8 O :   -0.181195
   9 H :    0.163920
  10 H :    0.151643
  11 H :    0.163912
  12 H :    0.156922
  13 H :    0.147003
  14 H :    0.156913
  15 H :    0.135578
Sum of atomic charges:    0.0000000

LOEWDIN ATOMIC CHARGES
----------------------
   0 C :   -0.250512
   1 C :   -0.228636
   2 C :   -0.192255
   3 C :   -0.264667
   4 C :   -0.159303
   5 N :    0.136500
   6 C :   -0.504794
   7 O :    0.145488
   8 O :    0.341547
   9 H :    0.145237
  10 H :    0.136422
  11 H :    0.145246
  12 H :    0.133450
  13 H :    0.135119
  14 H :    0.133448
  15 H :    0.147710

  Mayer bond orders larger than 0.1
B(  0-C ,  1-C ) :   0.8968 B(  0-C ,  9-H ) :   0.9203 B(  0-C , 10-H ) :   0.9516
B(  0-C , 11-H ) :   0.9203 B(  1-C ,  2-C ) :   1.4969 B(  1-C ,  8-O ) :   1.1288
B(  2-C ,  3-C ) :   0.8579 B(  2-C ,  4-C ) :   1.1306 B(  3-C , 12-H ) :   0.9387
B(  3-C , 13-H ) :   0.9361 B(  3-C , 14-H ) :   0.9387 B(  4-C ,  5-N ) :   1.6265
B(  4-C , 15-H ) :   0.9476 B(  5-N ,  6-C ) :   1.1361 B(  6-C ,  7-O ) :   2.0589
B(  6-C ,  8-O ) :   0.9262

MP2 TOTAL ENERGY:     -437.213522230 Eh
FINAL SINGLE POINT ENERGY      -437.213522229530

DIPOLE MOMENT
-------------
                                X             Y             Z
Electronic contribution:      7.82242      -7.97482       0.59266
Nuclear contribution   :     -9.68807       9.69903      -0.72865
                        -----------------------------------------
Total Dipole Moment    :     -1.86565       1.72420      -0.13599
                        -----------------------------------------
Magnitude (a.u.)       :      2.54402
Magnitude (Debye)      :      6.46638

                             ****ORCA TERMINATED NORMALLY****
TOTAL RUN TIME: 0 days 0 hours 16 minutes 15 seconds 394 msec
