                         Program Version 3.0.3 - RELEASE   -
|  1> ! RI-MP2 RIJK def2-TZVP def2-TZVP/C def2-TZVP/JK TIGHTSCF
|  2> % maxcore 2000
|  3> % mp2 density relaxed end
|  4> *xyz 0 1
|  5>  C        0.3972960512     0.4741754358    -0.7620915362
|  6>  O       -0.0773848127    -0.6492496566    -0.0536040835
|  7>  C       -1.4424532609    -0.5854433543     0.2923656344
|  8>  C       -2.3991809684    -0.9799086133    -0.8658214286
|  9>  C       -2.3660796981    -2.4690826496    -0.3769884077
| 10>  C       -1.4535722350    -3.3287698398    -1.1008780361
| 11>  C       -0.6897000475    -4.0483616225    -1.6890396230
| 12>  C       -1.7947168651    -1.9245635380     0.9976918906
| 13>  O       -0.7818685997    -2.6016770261     1.6573270221
| 14>  H        1.4633484891     0.3164705972    -0.9405041342
| 15>  H       -0.1081254835     0.5976183460    -1.7303295927
| 16>  H        0.2636121894     1.3985867386    -0.1799265449
| 17>  H       -1.6578505011     0.3494017180     0.8290893814
| 18>  H       -3.3917138421    -0.5366455536    -0.7543081625
| 19>  H       -2.0355261335    -0.7999062829    -1.8779178534
| 20>  H       -3.3446133697    -2.9507386288    -0.2945879304
| 21>  H       -0.0221963457    -4.6866410032    -2.2125761529
| 22>  H       -2.6205572097    -1.7927903671     1.7019485681
| 23>  H        0.0075054030    -2.5140952198     1.1069505795
| 24> *
| 25>
| 26>                          ****END OF INPUT****

CARTESIAN COORDINATES (ANGSTROEM)
---------------------------------
  C      0.397296    0.474175   -0.762092
  O     -0.077385   -0.649250   -0.053604
  C     -1.442453   -0.585443    0.292366
  C     -2.399181   -0.979909   -0.865821
  C     -2.366080   -2.469083   -0.376988
  C     -1.453572   -3.328770   -1.100878
  C     -0.689700   -4.048362   -1.689040
  C     -1.794717   -1.924564    0.997692
  O     -0.781869   -2.601677    1.657327
  H      1.463348    0.316471   -0.940504
  H     -0.108125    0.597618   -1.730330
  H      0.263612    1.398587   -0.179927
  H     -1.657851    0.349402    0.829089
  H     -3.391714   -0.536646   -0.754308
  H     -2.035526   -0.799906   -1.877918
  H     -3.344613   -2.950739   -0.294588
  H     -0.022196   -4.686641   -2.212576
  H     -2.620557   -1.792790    1.701949
  H      0.007505   -2.514095    1.106951

 Total Charge           Charge          ....    0
 Multiplicity           Mult            ....    1
 Number of Electrons    NEL             ....   68
 Basis Dimension        Dim             ....  339

ORBITAL ENERGIES
----------------

  NO   OCC          E(Eh)            E(eV)
   0   2.0000     -20.567980      -559.6832
   1   2.0000     -20.551934      -559.2465
   2   2.0000     -11.288869      -307.1857
   3   2.0000     -11.287677      -307.1533
   4   2.0000     -11.279488      -306.9305
   5   2.0000     -11.255069      -306.2660
   6   2.0000     -11.238032      -305.8024
   7   2.0000     -11.229599      -305.5729
   8   2.0000     -11.216708      -305.2221
   9   2.0000      -1.396986       -38.0139
  10   2.0000      -1.360674       -37.0258
  11   2.0000      -1.134060       -30.8594
  12   2.0000      -1.025802       -27.9135
  13   2.0000      -0.955515       -26.0009
  14   2.0000      -0.902826       -24.5671
  15   2.0000      -0.891012       -24.2457
  16   2.0000      -0.787504       -21.4291
  17   2.0000      -0.727267       -19.7899
  18   2.0000      -0.711171       -19.3519
  19   2.0000      -0.688713       -18.7408
  20   2.0000      -0.651353       -17.7242
  21   2.0000      -0.634444       -17.2641
  22   2.0000      -0.617726       -16.8092
  23   2.0000      -0.593121       -16.1396
  24   2.0000      -0.584408       -15.9026
  25   2.0000      -0.562582       -15.3086
  26   2.0000      -0.539061       -14.6686
  27   2.0000      -0.513061       -13.9611
  28   2.0000      -0.490996       -13.3607
  29   2.0000      -0.465869       -12.6769
  30   2.0000      -0.435372       -11.8471
  31   2.0000      -0.423883       -11.5345
  32   2.0000      -0.375199       -10.2097
  33   2.0000      -0.371033       -10.0963
  34   0.0000       0.133891         3.6433
  35   0.0000       0.146569         3.9883
  36   0.0000       0.163778         4.4566
  37   0.0000       0.164952         4.4886
  38   0.0000       0.178080         4.8458

MULLIKEN ATOMIC CHARGES
-----------------------
   0 C :   -0.218707
   1 O :   -0.335907
   2 C :    0.060556
   3 C :   -0.264545
   4 C :   -0.084337
   5 C :   -0.082190
   6 C :   -0.184772
   7 C :    0.066587
   8 O :   -0.451456
   9 H :    0.143560
  10 H :    0.114883
  11 H :    0.117429
  12 H :    0.087204
  13 H :    0.128321
  14 H :    0.137078
  15 H :    0.132249
  16 H :    0.186396
  17 H :    0.107862
  18 H :    0.339788
Sum of atomic charges:    0.0000000

LOEWDIN ATOMIC CHARGES
----------------------
   0 C :   -0.348940
   1 O :    0.158292
   2 C :   -0.292328
   3 C :   -0.187607
   4 C :   -0.198483
   5 C :   -0.096639
   6 C :   -0.102971
   7 C :   -0.290100
   8 O :    0.018669
   9 H :    0.115468
  10 H :    0.103286
  11 H :    0.104629
  12 H :    0.123928
  13 H :    0.138073
  14 H :    0.136747
  15 H :    0.158777
  16 H :    0.125710
  17 H :    0.146065
  18 H :    0.187422

  Mayer bond orders larger than 0.1
B(  0-C ,  1-O ) :   0.9098 B(  0-C ,  9-H ) :   0.9397 B(  0-C , 10-H ) :   0.9347
B(  0-C , 11-H ) :   0.9369 B(  1-O ,  2-C ) :   0.9438 B(  2-C ,  3-C ) :   0.9256
B(  2-C ,  7-C ) :   0.9132 B(  2-C , 12-H ) :   0.9379 B(  3-C ,  4-C ) :   0.8461
B(  3-C , 13-H ) :   0.9187 B(  3-C , 14-H ) :   0.9201 B(  4-C ,  5-C ) :   1.1517
B(  4-C ,  7-C ) :   0.8159 B(  4-C , 15-H ) :   0.9268 B(  5-C ,  6-C ) :   2.5659
B(  6-C , 16-H ) :   0.9000 B(  7-C ,  8-O ) :   1.0604 B(  7-C , 17-H ) :   0.9351
B(  8-O , 18-H ) :   0.8162

MP2 TOTAL ENERGY:     -422.254775151 Eh
FINAL SINGLE POINT ENERGY      -422.254775151484

DIPOLE MOMENT
-------------
                                X             Y             Z
Electronic contribution:     -0.04214      -5.28320       1.92774
Nuclear contribution   :     -0.12996       6.19311      -2.50582
                        -----------------------------------------
Total Dipole Moment    :     -0.17209       0.90992      -0.57809
                        -----------------------------------------
Magnitude (a.u.)       :      1.09168
Magnitude (Debye)      :      2.77482

                             ****ORCA TERMINATED NORMALLY****
TOTAL RUN TIME: 0 days 0 hours 27 minutes 54 seconds 270 msec
