                         Program Version 3.0.3 - RELEASE   -
|  1> ! RI-MP2 RIJK def2-TZVP def2-TZVP/C def2-TZVP/JK TIGHTSCF
|  2> % maxcore 2000
|  3> % mp2 density relaxed end
|  4> *xyz 0 1
|  5>  N        0.4551597857     0.9088601285    -0.4070434525
|  6>  C        0.3052396261    -0.3262671904     0.1142951965
|  7>  O        1.1668700790    -0.9340569179     0.7268555747
|  8>  N       -0.9694057053    -0.9323983056    -0.1039030654
|  9>  C       -1.1243118224    -2.2830099487     0.4422942968
| 10>  C       -1.6132315708    -2.2868482395     1.8843875776
| 11>  O       -2.9358414851    -1.7656427725     1.8976468426
| 12>  C       -2.0750255123    -0.3331396471    -0.6689330063
| 13>  N       -2.1035799855     0.8533833555    -1.1462685222
| 14>  H        1.3267650765     1.3695529860    -0.2123790884
| 15>  H       -0.3411029564     1.3758547235    -0.8372322547
| 16>  H       -1.8362179444    -2.8295068887    -0.1833319347
| 17>  H       -0.1543253489    -2.7756648181     0.3885844941
| 18>  H       -1.5868636697    -3.3201243849     2.2648349037
| 19>  H       -0.9290368501    -1.6828752015     2.4937905814
| 20>  H       -3.1632411747    -1.5307404376     2.8012340477
| 21>  H       -2.9381293224    -1.0012573266    -0.6590646053
| 22>  H       -3.0257434592     1.0668221256    -1.5138737757
| 23> *
| 24>
| 25>                          ****END OF INPUT****

CARTESIAN COORDINATES (ANGSTROEM)
---------------------------------
  N      0.455160    0.908860   -0.407043
  C      0.305240   -0.326267    0.114295
  O      1.166870   -0.934057    0.726856
  N     -0.969406   -0.932398   -0.103903
  C     -1.124312   -2.283010    0.442294
  C     -1.613232   -2.286848    1.884388
  O     -2.935841   -1.765643    1.897647
  C     -2.075026   -0.333140   -0.668933
  N     -2.103580    0.853383   -1.146269
  H      1.326765    1.369553   -0.212379
  H     -0.341103    1.375855   -0.837232
  H     -1.836218   -2.829507   -0.183332
  H     -0.154325   -2.775665    0.388584
  H     -1.586864   -3.320124    2.264835
  H     -0.929037   -1.682875    2.493791
  H     -3.163241   -1.530740    2.801234
  H     -2.938129   -1.001257   -0.659065
  H     -3.025743    1.066822   -1.513874

 Total Charge           Charge          ....    0
 Multiplicity           Mult            ....    1
 Number of Electrons    NEL             ....   70
 Basis Dimension        Dim             ....  333

ORBITAL ENERGIES
----------------

  NO   OCC          E(Eh)            E(eV)
   0   2.0000     -20.568716      -559.7032
   1   2.0000     -20.508631      -558.0682
   2   2.0000     -15.603720      -424.5988
   3   2.0000     -15.563074      -423.4928
   4   2.0000     -15.544433      -422.9855
   5   2.0000     -11.378182      -309.6161
   6   2.0000     -11.331743      -308.3524
   7   2.0000     -11.284073      -307.0552
   8   2.0000     -11.269630      -306.6622
   9   2.0000      -1.395053       -37.9613
  10   2.0000      -1.373237       -37.3677
  11   2.0000      -1.286128       -34.9973
  12   2.0000      -1.198246       -32.6059
  13   2.0000      -1.182751       -32.1843
  14   2.0000      -1.012691       -27.5567
  15   2.0000      -0.894771       -24.3480
  16   2.0000      -0.863567       -23.4988
  17   2.0000      -0.769508       -20.9394
  18   2.0000      -0.733119       -19.9492
  19   2.0000      -0.717397       -19.5214
  20   2.0000      -0.686199       -18.6724
  21   2.0000      -0.680018       -18.5042
  22   2.0000      -0.661545       -18.0015
  23   2.0000      -0.623179       -16.9576
  24   2.0000      -0.618212       -16.8224
  25   2.0000      -0.587999       -16.0003
  26   2.0000      -0.571011       -15.5380
  27   2.0000      -0.548266       -14.9191
  28   2.0000      -0.522962       -14.2305
  29   2.0000      -0.493041       -13.4163
  30   2.0000      -0.463869       -12.6225
  31   2.0000      -0.446357       -12.1460
  32   2.0000      -0.437951       -11.9173
  33   2.0000      -0.407473       -11.0879
  34   2.0000      -0.373072       -10.1518
  35   0.0000       0.129395         3.5210
  36   0.0000       0.138472         3.7680
  37   0.0000       0.152692         4.1550
  38   0.0000       0.163572         4.4510
  39   0.0000       0.174554         4.7498

MULLIKEN ATOMIC CHARGES
-----------------------
   0 N :   -0.484293
   1 C :    0.339132
   2 O :   -0.406212
   3 N :   -0.086453
   4 C :   -0.139345
   5 C :   -0.092979
   6 O :   -0.487046
   7 C :    0.076051
   8 N :   -0.481160
   9 H :    0.254861
  10 H :    0.296060
  11 H :    0.136531
  12 H :    0.162669
  13 H :    0.103632
  14 H :    0.135285
  15 H :    0.324230
  16 H :    0.127380
  17 H :    0.221657
Sum of atomic charges:   -0.0000000

LOEWDIN ATOMIC CHARGES
----------------------
   0 N :   -0.004743
   1 C :   -0.521714
   2 O :    0.049076
   3 N :    0.201811
   4 C :   -0.255166
   5 C :   -0.346057
   6 O :   -0.050353
   7 C :   -0.309856
   8 N :   -0.119016
   9 H :    0.175332
  10 H :    0.168623
  11 H :    0.140182
  12 H :    0.152800
  13 H :    0.120053
  14 H :    0.126163
  15 H :    0.175259
  16 H :    0.132978
  17 H :    0.164627

  Mayer bond orders larger than 0.1
B(  0-N ,  1-C ) :   1.2452 B(  0-N ,  9-H ) :   0.8632 B(  0-N , 10-H ) :   0.7938
B(  1-C ,  2-O ) :   1.8836 B(  1-C ,  3-N ) :   0.9828 B(  3-N ,  4-C ) :   0.8586
B(  3-N ,  7-C ) :   1.0931 B(  4-C ,  5-C ) :   0.9182 B(  4-C , 11-H ) :   0.9304
B(  4-C , 12-H ) :   0.9067 B(  5-C ,  6-O ) :   0.9771 B(  5-C , 13-H ) :   0.9336
B(  5-C , 14-H ) :   0.9284 B(  6-O , 15-H ) :   0.8460 B(  7-C ,  8-N ) :   1.7623
B(  7-C , 16-H ) :   0.9253 B(  8-N , 17-H ) :   0.8622

MP2 TOTAL ENERGY:     -471.703087745 Eh
FINAL SINGLE POINT ENERGY      -471.703087744691

DIPOLE MOMENT
-------------
                                X             Y             Z
Electronic contribution:      2.35447       2.01411      -1.19741
Nuclear contribution   :     -3.37015      -2.06788       1.40144
                        -----------------------------------------
Total Dipole Moment    :     -1.01568      -0.05377       0.20402
                        -----------------------------------------
Magnitude (a.u.)       :      1.03736
Magnitude (Debye)      :      2.63677

                             ****ORCA TERMINATED NORMALLY****
TOTAL RUN TIME: 0 days 0 hours 15 minutes 20 seconds 400 msec
