                         Program Version 3.0.3 - RELEASE   -
|  1> ! RI-MP2 RIJK def2-TZVP def2-TZVP/C def2-TZVP/JK TIGHTSCF
|  2> % maxcore 2000
|  3> % mp2 density relaxed end
|  4> *xyz 0 1
|  5>  C       -0.3916214682     0.9760722410    -0.5083613580
|  6>  N        0.6473470844     1.4874865655     0.3905716795
|  7>  C        0.4393498362     0.0229482995     0.2690238396
|  8>  C       -0.1040056993    -0.6610622903     1.4623946699
|  9>  N       -1.1981055565    -0.4115578968     2.0673893721
| 10>  C       -1.2905772157    -1.3601938494     3.1504876278
| 11>  C       -1.3662631104    -2.8200120056     2.7433099295
| 12>  C       -0.0327296930    -2.2053717147     3.0534277547
| 13>  O        0.6848352885    -1.6665808234     1.9538959046
| 14>  H       -1.4060632242     1.1577879565    -0.1689510332
| 15>  H       -0.2371435066     1.0220445718    -1.5831598681
| 16>  H        1.4749110261     1.7432301123    -0.1432631387
| 17>  H        1.1951389266    -0.5528510313    -0.2557539568
| 18>  H       -1.7522911174    -1.0181889165     4.0685307993
| 19>  H       -1.7501291926    -3.5148710037     3.4822993237
| 20>  H       -1.6131165722    -3.0524486842     1.7126866263
| 21>  H        0.6102903442    -2.5439386007     3.8550515278
| 22> *
| 23>
| 24>                          ****END OF INPUT****

CARTESIAN COORDINATES (ANGSTROEM)
---------------------------------
  C     -0.391621    0.976072   -0.508361
  N      0.647347    1.487487    0.390572
  C      0.439350    0.022948    0.269024
  C     -0.104006   -0.661062    1.462395
  N     -1.198106   -0.411558    2.067389
  C     -1.290577   -1.360194    3.150488
  C     -1.366263   -2.820012    2.743310
  C     -0.032730   -2.205372    3.053428
  O      0.684835   -1.666581    1.953896
  H     -1.406063    1.157788   -0.168951
  H     -0.237144    1.022045   -1.583160
  H      1.474911    1.743230   -0.143263
  H      1.195139   -0.552851   -0.255754
  H     -1.752291   -1.018189    4.068531
  H     -1.750129   -3.514871    3.482299
  H     -1.613117   -3.052449    1.712687
  H      0.610290   -2.543939    3.855052

 Total Charge           Charge          ....    0
 Multiplicity           Mult            ....    1
 Number of Electrons    NEL             ....   66
 Basis Dimension        Dim             ....  327

ORBITAL ENERGIES
----------------

  NO   OCC          E(Eh)            E(eV)
   0   2.0000     -20.600452      -560.5668
   1   2.0000     -15.572529      -423.7500
   2   2.0000     -15.544361      -422.9836
   3   2.0000     -11.334350      -308.4233
   4   2.0000     -11.294422      -307.3368
   5   2.0000     -11.277022      -306.8634
   6   2.0000     -11.265743      -306.5565
   7   2.0000     -11.264870      -306.5327
   8   2.0000     -11.235377      -305.7301
   9   2.0000      -1.447602       -39.3913
  10   2.0000      -1.273748       -34.6604
  11   2.0000      -1.219706       -33.1899
  12   2.0000      -1.120718       -30.4963
  13   2.0000      -0.949895       -25.8479
  14   2.0000      -0.885649       -24.0997
  15   2.0000      -0.837654       -22.7937
  16   2.0000      -0.828639       -22.5484
  17   2.0000      -0.755094       -20.5471
  18   2.0000      -0.725116       -19.7314
  19   2.0000      -0.706446       -19.2234
  20   2.0000      -0.657573       -17.8935
  21   2.0000      -0.615857       -16.7583
  22   2.0000      -0.611964       -16.6524
  23   2.0000      -0.589400       -16.0384
  24   2.0000      -0.563466       -15.3327
  25   2.0000      -0.531503       -14.4629
  26   2.0000      -0.512347       -13.9417
  27   2.0000      -0.493308       -13.4236
  28   2.0000      -0.479602       -13.0506
  29   2.0000      -0.463810       -12.6209
  30   2.0000      -0.409761       -11.1502
  31   2.0000      -0.394524       -10.7355
  32   2.0000      -0.357536        -9.7290
  33   0.0000       0.134108         3.6493
  34   0.0000       0.154612         4.2072
  35   0.0000       0.163546         4.4503
  36   0.0000       0.174212         4.7405
  37   0.0000       0.189636         5.1603

MULLIKEN ATOMIC CHARGES
-----------------------
   0 C :   -0.154002
   1 N :   -0.363708
   2 C :   -0.125513
   3 C :    0.247017
   4 N :   -0.261225
   5 C :   -0.025188
   6 C :   -0.280123
   7 C :    0.019500
   8 O :   -0.262775
   9 H :    0.148385
  10 H :    0.129975
  11 H :    0.221297
  12 H :    0.144679
  13 H :    0.135468
  14 H :    0.136908
  15 H :    0.149218
  16 H :    0.140089
Sum of atomic charges:   -0.0000000

LOEWDIN ATOMIC CHARGES
----------------------
   0 C :   -0.249679
   1 N :   -0.001819
   2 C :   -0.240961
   3 C :   -0.340888
   4 N :    0.130874
   5 C :   -0.240083
   6 C :   -0.210478
   7 C :   -0.249157
   8 O :    0.273529
   9 H :    0.135207
  10 H :    0.120857
  11 H :    0.167899
  12 H :    0.147917
  13 H :    0.139041
  14 H :    0.140694
  15 H :    0.140514
  16 H :    0.136533

  Mayer bond orders larger than 0.1
B(  0-C ,  1-N ) :   0.9473 B(  0-C ,  2-C ) :   0.9100 B(  0-C ,  9-H ) :   0.9138
B(  0-C , 10-H ) :   0.9271 B(  1-N ,  2-C ) :   0.9204 B(  1-N , 11-H ) :   0.8676
B(  2-C ,  3-C ) :   0.9129 B(  2-C , 12-H ) :   0.9321 B(  3-C ,  4-N ) :   1.8677
B(  3-C ,  8-O ) :   1.0624 B(  4-N ,  5-C ) :   0.9620 B(  5-C ,  6-C ) :   0.8486
B(  5-C ,  7-C ) :   0.8976 B(  5-C , 13-H ) :   0.9348 B(  6-C ,  7-C ) :   0.8757
B(  6-C , 14-H ) :   0.9217 B(  6-C , 15-H ) :   0.9176 B(  7-C ,  8-O ) :   0.9009
B(  7-C , 16-H ) :   0.9291

MP2 TOTAL ENERGY:     -417.258822026 Eh
FINAL SINGLE POINT ENERGY      -417.258822025706

DIPOLE MOMENT
-------------
                                X             Y             Z
Electronic contribution:      1.53937       0.17951       1.38478
Nuclear contribution   :     -1.23947      -0.83681      -1.73454
                        -----------------------------------------
Total Dipole Moment    :      0.29990      -0.65731      -0.34976
                        -----------------------------------------
Magnitude (a.u.)       :      0.80270
Magnitude (Debye)      :      2.04030

                             ****ORCA TERMINATED NORMALLY****
TOTAL RUN TIME: 0 days 0 hours 15 minutes 1 seconds 882 msec
