                         Program Version 3.0.3 - RELEASE   -
|  1> ! RI-MP2 RIJK def2-TZVP def2-TZVP/C def2-TZVP/JK TIGHTSCF
|  2> % maxcore 2000
|  3> % mp2 density relaxed end
|  4> *xyz 0 1
|  5>  C       -0.4554096895     1.1982986047    -0.1384659429
|  6>  N        0.3886097835     0.0362460968     0.1600329882
|  7>  C        0.8141726490    -0.7156853074    -0.9289150346
|  8>  C        0.6416002534    -2.0410828710    -1.2079554007
|  9>  N        0.0263085029    -2.9900729580    -0.3815814886
| 10>  C        1.2943647441    -2.2820858844    -2.4642138304
| 11>  C        1.8138878233    -1.0874896327    -2.8516890515
| 12>  O        1.5531492102    -0.1212505173    -1.9440660912
| 13>  H        0.0407958878     1.9577363750    -0.7589961721
| 14>  H       -1.3517505117     0.8609095402    -0.6669818538
| 15>  H       -0.7665192601     1.6648363504     0.8011495659
| 16>  H        1.1520705997     0.2980776222     0.7758507369
| 17>  H       -0.4924994789    -2.5329762328     0.3597817829
| 18>  H       -0.5842703277    -3.6182483548    -0.8891703926
| 19>  H        1.3686996942    -3.2206015424    -2.9915514123
| 20>  H        2.3727144797    -0.7813564784    -3.7215273933
| 21> *
| 22>
| 23>                          ****END OF INPUT****

CARTESIAN COORDINATES (ANGSTROEM)
---------------------------------
  C     -0.455410    1.198299   -0.138466
  N      0.388610    0.036246    0.160033
  C      0.814173   -0.715685   -0.928915
  C      0.641600   -2.041083   -1.207955
  N      0.026309   -2.990073   -0.381581
  C      1.294365   -2.282086   -2.464214
  C      1.813888   -1.087490   -2.851689
  O      1.553149   -0.121251   -1.944066
  H      0.040796    1.957736   -0.758996
  H     -1.351751    0.860910   -0.666982
  H     -0.766519    1.664836    0.801150
  H      1.152071    0.298078    0.775851
  H     -0.492499   -2.532976    0.359782
  H     -0.584270   -3.618248   -0.889170
  H      1.368700   -3.220602   -2.991551
  H      2.372714   -0.781356   -3.721527

 Total Charge           Charge          ....    0
 Multiplicity           Mult            ....    1
 Number of Electrons    NEL             ....   60
 Basis Dimension        Dim             ....  296

ORBITAL ENERGIES
----------------

  NO   OCC          E(Eh)            E(eV)
   0   2.0000     -20.605026      -560.6913
   1   2.0000     -15.559514      -423.3959
   2   2.0000     -15.554005      -423.2460
   3   2.0000     -11.285565      -307.0958
   4   2.0000     -11.283062      -307.0277
   5   2.0000     -11.256898      -306.3158
   6   2.0000     -11.248594      -306.0898
   7   2.0000     -11.219898      -305.3089
   8   2.0000      -1.443055       -39.2675
   9   2.0000      -1.221101       -33.2278
  10   2.0000      -1.196175       -32.5496
  11   2.0000      -1.051346       -28.6086
  12   2.0000      -0.977768       -26.6064
  13   2.0000      -0.901082       -24.5197
  14   2.0000      -0.801086       -21.7986
  15   2.0000      -0.763454       -20.7746
  16   2.0000      -0.722695       -19.6655
  17   2.0000      -0.671724       -18.2785
  18   2.0000      -0.652445       -17.7539
  19   2.0000      -0.625630       -17.0243
  20   2.0000      -0.607838       -16.5401
  21   2.0000      -0.597638       -16.2626
  22   2.0000      -0.575365       -15.6565
  23   2.0000      -0.555475       -15.1153
  24   2.0000      -0.537409       -14.6237
  25   2.0000      -0.520756       -14.1705
  26   2.0000      -0.483077       -13.1452
  27   2.0000      -0.398066       -10.8319
  28   2.0000      -0.357824        -9.7369
  29   2.0000      -0.288342        -7.8462
  30   0.0000       0.133036         3.6201
  31   0.0000       0.147401         4.0110
  32   0.0000       0.166777         4.5382
  33   0.0000       0.177277         4.8240
  34   0.0000       0.182067         4.9543

MULLIKEN ATOMIC CHARGES
-----------------------
   0 C :   -0.274792
   1 N :   -0.381704
   2 C :    0.161151
   3 C :    0.079669
   4 N :   -0.518054
   5 C :   -0.248125
   6 C :    0.001488
   7 O :   -0.215604
   8 H :    0.133471
   9 H :    0.130722
  10 H :    0.131986
  11 H :    0.227542
  12 H :    0.249200
  13 H :    0.246781
  14 H :    0.133606
  15 H :    0.142666
Sum of atomic charges:    0.0000000

LOEWDIN ATOMIC CHARGES
----------------------
   0 C :   -0.330315
   1 N :    0.001825
   2 C :   -0.337332
   3 C :   -0.265408
   4 N :   -0.091503
   5 C :   -0.174732
   6 C :   -0.258691
   7 O :    0.330282
   8 H :    0.105945
   9 H :    0.118185
  10 H :    0.113971
  11 H :    0.180024
  12 H :    0.169419
  13 H :    0.165663
  14 H :    0.142405
  15 H :    0.130261

  Mayer bond orders larger than 0.1
B(  0-C ,  1-N ) :   0.8998 B(  0-C ,  8-H ) :   0.9349 B(  0-C ,  9-H ) :   0.9373
B(  0-C , 10-H ) :   0.9357 B(  1-N ,  2-C ) :   1.0848 B(  1-N , 11-H ) :   0.8723
B(  2-C ,  3-C ) :   1.5306 B(  2-C ,  7-O ) :   0.9776 B(  3-C ,  4-N ) :   1.0148
B(  3-C ,  5-C ) :   1.2218 B(  4-N , 12-H ) :   0.8746 B(  4-N , 13-H ) :   0.8755
B(  5-C ,  6-C ) :   1.5564 B(  5-C , 14-H ) :   0.9227 B(  6-C ,  7-O ) :   1.0711
B(  6-C , 15-H ) :   0.9358

MP2 TOTAL ENERGY:     -379.293168141 Eh
FINAL SINGLE POINT ENERGY      -379.293168141355

DIPOLE MOMENT
-------------
                                X             Y             Z
Electronic contribution:      3.40617      -2.00940      -2.23446
Nuclear contribution   :     -3.83450       2.19070       2.21842
                        -----------------------------------------
Total Dipole Moment    :     -0.42833       0.18130      -0.01604
                        -----------------------------------------
Magnitude (a.u.)       :      0.46540
Magnitude (Debye)      :      1.18295

                             ****ORCA TERMINATED NORMALLY****
TOTAL RUN TIME: 0 days 0 hours 11 minutes 37 seconds 587 msec
