                         Program Version 3.0.3 - RELEASE   -
|  1> ! RI-MP2 RIJK def2-TZVP def2-TZVP/C def2-TZVP/JK TIGHTSCF
|  2> % maxcore 2000
|  3> % mp2 density relaxed end
|  4> *xyz 0 1
|  5>  O        0.0221337144     0.0194400919    -0.4499615760
|  6>  C        0.0006521806     1.1597518108    -0.0923629693
|  7>  C       -1.1275813598     2.1495877225     0.2558714871
|  8>  C       -0.0512965426     3.2536869504     0.4601344335
|  9>  C        0.3671757736     3.5169757349     1.9202238161
| 10>  C        1.8963108219     3.7306344758     1.8271587103
| 11>  C        1.7758310559     2.2213654634     1.5013790864
| 12>  O        0.6357747695     2.1651926868     2.4168901133
| 13>  C        1.0967474716     2.2251057516     0.1130219599
| 14>  H       -1.8110319606     2.3186072031    -0.5817096066
| 15>  H       -1.7059824808     1.8740888869     1.1414456901
| 16>  H       -0.1505257625     4.1512609391    -0.1491510611
| 17>  H       -0.2879108760     4.1021671354     2.5655106272
| 18>  H        2.2969229885     4.4118487289     1.0717895544
| 19>  H        2.3484390400     3.8995206913     2.8051535943
| 20>  H        2.5503948032     1.4850405906     1.7100854484
| 21>  H        1.7786842030     2.3958781167    -0.7217832980
| 22> *
| 23>
| 24>                          ****END OF INPUT****

CARTESIAN COORDINATES (ANGSTROEM)
---------------------------------
  O      0.022134    0.019440   -0.449962
  C      0.000652    1.159752   -0.092363
  C     -1.127581    2.149588    0.255871
  C     -0.051297    3.253687    0.460134
  C      0.367176    3.516976    1.920224
  C      1.896311    3.730634    1.827159
  C      1.775831    2.221365    1.501379
  O      0.635775    2.165193    2.416890
  C      1.096747    2.225106    0.113022
  H     -1.811032    2.318607   -0.581710
  H     -1.705982    1.874089    1.141446
  H     -0.150526    4.151261   -0.149151
  H     -0.287911    4.102167    2.565511
  H      2.296923    4.411849    1.071790
  H      2.348439    3.899521    2.805154
  H      2.550395    1.485041    1.710085
  H      1.778684    2.395878   -0.721783

 Total Charge           Charge          ....    0
 Multiplicity           Mult            ....    1
 Number of Electrons    NEL             ....   66
 Basis Dimension        Dim             ....  327

ORBITAL ENERGIES
----------------

  NO   OCC          E(Eh)            E(eV)
   0   2.0000     -20.562524      -559.5347
   1   2.0000     -20.550298      -559.2020
   2   2.0000     -11.330724      -308.3247
   3   2.0000     -11.306725      -307.6716
   4   2.0000     -11.302313      -307.5516
   5   2.0000     -11.250815      -306.1502
   6   2.0000     -11.248490      -306.0870
   7   2.0000     -11.246443      -306.0313
   8   2.0000     -11.239008      -305.8289
   9   2.0000      -1.406508       -38.2730
  10   2.0000      -1.391746       -37.8713
  11   2.0000      -1.142950       -31.1012
  12   2.0000      -1.037312       -28.2267
  13   2.0000      -0.981222       -26.7004
  14   2.0000      -0.911089       -24.7920
  15   2.0000      -0.827674       -22.5222
  16   2.0000      -0.769121       -20.9288
  17   2.0000      -0.725874       -19.7520
  18   2.0000      -0.715577       -19.4718
  19   2.0000      -0.678420       -18.4607
  20   2.0000      -0.666835       -18.1455
  21   2.0000      -0.621640       -16.9157
  22   2.0000      -0.594990       -16.1905
  23   2.0000      -0.577514       -15.7149
  24   2.0000      -0.553215       -15.0537
  25   2.0000      -0.540378       -14.7044
  26   2.0000      -0.511047       -13.9063
  27   2.0000      -0.504074       -13.7166
  28   2.0000      -0.489007       -13.3066
  29   2.0000      -0.470336       -12.7985
  30   2.0000      -0.455024       -12.3818
  31   2.0000      -0.431526       -11.7424
  32   2.0000      -0.391445       -10.6518
  33   0.0000       0.123365         3.3569
  34   0.0000       0.142133         3.8676
  35   0.0000       0.156840         4.2678
  36   0.0000       0.162535         4.4228
  37   0.0000       0.169232         4.6050

MULLIKEN ATOMIC CHARGES
-----------------------
   0 O :   -0.247222
   1 C :    0.092113
   2 C :   -0.226472
   3 C :   -0.089672
   4 C :    0.004413
   5 C :   -0.222892
   6 C :    0.014721
   7 O :   -0.323439
   8 C :   -0.082493
   9 H :    0.138607
  10 H :    0.135735
  11 H :    0.127977
  12 H :    0.139126
  13 H :    0.122160
  14 H :    0.131885
  15 H :    0.147798
  16 H :    0.137656
Sum of atomic charges:   -0.0000000

LOEWDIN ATOMIC CHARGES
----------------------
   0 O :    0.168735
   1 C :   -0.288823
   2 C :   -0.188289
   3 C :   -0.173451
   4 C :   -0.238465
   5 C :   -0.196447
   6 C :   -0.228239
   7 O :    0.165190
   8 C :   -0.148875
   9 H :    0.144838
  10 H :    0.148373
  11 H :    0.143316
  12 H :    0.133276
  13 H :    0.130450
  14 H :    0.141033
  15 H :    0.136214
  16 H :    0.151165

  Mayer bond orders larger than 0.1
B(  0-O ,  1-C ) :   2.0478 B(  1-C ,  2-C ) :   0.9174 B(  1-C ,  8-C ) :   0.8389
B(  2-C ,  3-C ) :   0.9529 B(  2-C ,  8-C ) :  -0.1133 B(  2-C ,  9-H ) :   0.9013
B(  2-C , 10-H ) :   0.8836 B(  3-C ,  4-C ) :   0.9156 B(  3-C ,  8-C ) :   0.9230
B(  3-C , 11-H ) :   0.9080 B(  4-C ,  5-C ) :   0.9434 B(  4-C ,  7-O ) :   0.9027
B(  4-C , 12-H ) :   0.9055 B(  5-C ,  6-C ) :   0.9312 B(  5-C , 13-H ) :   0.9230
B(  5-C , 14-H ) :   0.9227 B(  6-C ,  7-O ) :   0.9147 B(  6-C ,  8-C ) :   0.8913
B(  6-C , 15-H ) :   0.9066 B(  8-C , 16-H ) :   0.8923

MP2 TOTAL ENERGY:     -421.100663876 Eh
FINAL SINGLE POINT ENERGY      -421.100663876174

DIPOLE MOMENT
-------------
                                X             Y             Z
Electronic contribution:     -0.56536      -4.69648      -0.68612
Nuclear contribution   :      0.88701       6.20828       0.63215
                        -----------------------------------------
Total Dipole Moment    :      0.32165       1.51180      -0.05397
                        -----------------------------------------
Magnitude (a.u.)       :      1.54658
Magnitude (Debye)      :      3.93109

                             ****ORCA TERMINATED NORMALLY****
TOTAL RUN TIME: 0 days 0 hours 19 minutes 30 seconds 949 msec
