                         Program Version 3.0.3 - RELEASE   -
|  1> ! RI-MP2 RIJK def2-TZVP def2-TZVP/C def2-TZVP/JK TIGHTSCF
|  2> % maxcore 2000
|  3> % mp2 density relaxed end
|  4> *xyz 0 1
|  5>  O       -0.0614114224     1.4076495076    -0.2987594359
|  6>  N        0.0756624838     0.0184354651    -0.1653972472
|  7>  C       -1.0388943785    -0.5581516968     0.1092292510
|  8>  C       -0.9903817887    -2.0689389017     0.2234333636
|  9>  C       -1.9999598036    -2.6189341812     1.2087464630
| 10>  N       -2.1083109259    -1.9418219139     2.5018662648
| 11>  C       -3.2182141742    -1.8122977773     1.5089108402
| 12>  C       -3.3602044044    -0.4884211817     0.8627316923
| 13>  C       -2.3321367776     0.1073790607     0.2419790520
| 14>  H        0.8371177507     1.6764469882    -0.5151346995
| 15>  H       -1.2171733785    -2.5005178562    -0.7616246784
| 16>  H        0.0256635316    -2.3797089512     0.4812617926
| 17>  H       -2.1147608632    -3.7009120583     1.1882851045
| 18>  H       -2.3777411282    -2.6095757307     3.2209756419
| 19>  H       -4.1391842557    -2.3428157010     1.7323542325
| 20>  H       -4.3234714966     0.0088096893     0.9306634693
| 21>  H       -2.4238950586     1.1037503490    -0.1714933668
| 22> *
| 23>
| 24>                          ****END OF INPUT****

CARTESIAN COORDINATES (ANGSTROEM)
---------------------------------
  O     -0.061411    1.407650   -0.298759
  N      0.075662    0.018435   -0.165397
  C     -1.038894   -0.558152    0.109229
  C     -0.990382   -2.068939    0.223433
  C     -1.999960   -2.618934    1.208746
  N     -2.108311   -1.941822    2.501866
  C     -3.218214   -1.812298    1.508911
  C     -3.360204   -0.488421    0.862732
  C     -2.332137    0.107379    0.241979
  H      0.837118    1.676447   -0.515135
  H     -1.217173   -2.500518   -0.761625
  H      0.025664   -2.379709    0.481262
  H     -2.114761   -3.700912    1.188285
  H     -2.377741   -2.609576    3.220976
  H     -4.139184   -2.342816    1.732354
  H     -4.323471    0.008810    0.930663
  H     -2.423895    1.103750   -0.171493

 Total Charge           Charge          ....    0
 Multiplicity           Mult            ....    1
 Number of Electrons    NEL             ....   66
 Basis Dimension        Dim             ....  327

ORBITAL ENERGIES
----------------

  NO   OCC          E(Eh)            E(eV)
   0   2.0000     -20.583125      -560.0953
   1   2.0000     -15.606662      -424.6789
   2   2.0000     -15.568221      -423.6328
   3   2.0000     -11.275611      -306.8250
   4   2.0000     -11.272945      -306.7524
   5   2.0000     -11.271908      -306.7242
   6   2.0000     -11.249055      -306.1024
   7   2.0000     -11.237427      -305.7859
   8   2.0000     -11.234034      -305.6936
   9   2.0000      -1.410988       -38.3949
  10   2.0000      -1.276606       -34.7382
  11   2.0000      -1.164304       -31.6823
  12   2.0000      -1.064681       -28.9715
  13   2.0000      -1.005273       -27.3549
  14   2.0000      -0.914930       -24.8965
  15   2.0000      -0.831229       -22.6189
  16   2.0000      -0.803301       -21.8589
  17   2.0000      -0.731813       -19.9136
  18   2.0000      -0.701301       -19.0834
  19   2.0000      -0.672792       -18.3076
  20   2.0000      -0.664298       -18.0765
  21   2.0000      -0.610109       -16.6019
  22   2.0000      -0.602205       -16.3868
  23   2.0000      -0.589291       -16.0354
  24   2.0000      -0.567810       -15.4509
  25   2.0000      -0.549537       -14.9537
  26   2.0000      -0.509206       -13.8562
  27   2.0000      -0.498541       -13.5660
  28   2.0000      -0.475257       -12.9324
  29   2.0000      -0.426611       -11.6087
  30   2.0000      -0.415373       -11.3029
  31   2.0000      -0.400581       -10.9004
  32   2.0000      -0.331430        -9.0187
  33   0.0000       0.097042         2.6406
  34   0.0000       0.127035         3.4568
  35   0.0000       0.159052         4.3280
  36   0.0000       0.164944         4.4883
  37   0.0000       0.173336         4.7167

MULLIKEN ATOMIC CHARGES
-----------------------
   0 O :   -0.373452
   1 N :   -0.082426
   2 C :    0.056521
   3 C :   -0.140375
   4 C :   -0.055474
   5 N :   -0.385056
   6 C :    0.023508
   7 C :   -0.190951
   8 C :   -0.185213
   9 H :    0.336154
  10 H :    0.119910
  11 H :    0.126950
  12 H :    0.126673
  13 H :    0.217383
  14 H :    0.131401
  15 H :    0.130871
  16 H :    0.143576
Sum of atomic charges:   -0.0000000

LOEWDIN ATOMIC CHARGES
----------------------
   0 O :   -0.073914
   1 N :    0.029112
   2 C :   -0.266984
   3 C :   -0.197043
   4 C :   -0.252019
   5 N :    0.017332
   6 C :   -0.235617
   7 C :   -0.124713
   8 C :   -0.123361
   9 H :    0.169718
  10 H :    0.155326
  11 H :    0.154247
  12 H :    0.139253
  13 H :    0.167764
  14 H :    0.140302
  15 H :    0.146331
  16 H :    0.154265

  Mayer bond orders larger than 0.1
B(  0-O ,  1-N ) :   0.8142 B(  0-O ,  9-H ) :   0.8453 B(  1-N ,  2-C ) :   1.8284
B(  2-C ,  3-C ) :   0.9522 B(  2-C ,  8-C ) :   1.0272 B(  3-C ,  4-C ) :   0.9457
B(  3-C , 10-H ) :   0.9058 B(  3-C , 11-H ) :   0.8989 B(  4-C ,  5-N ) :   0.9373
B(  4-C ,  6-C ) :   0.8987 B(  4-C , 12-H ) :   0.9289 B(  5-N ,  6-C ) :   0.8983
B(  5-N , 13-H ) :   0.8669 B(  6-C ,  7-C ) :   0.9610 B(  6-C , 14-H ) :   0.9213
B(  7-C ,  8-C ) :   1.7073 B(  7-C , 15-H ) :   0.9285 B(  8-C , 16-H ) :   0.9119

MP2 TOTAL ENERGY:     -417.242973998 Eh
FINAL SINGLE POINT ENERGY      -417.242973998317

DIPOLE MOMENT
-------------
                                X             Y             Z
Electronic contribution:      2.01788       3.01702      -0.68507
Nuclear contribution   :     -2.59525      -3.72413       0.63993
                        -----------------------------------------
Total Dipole Moment    :     -0.57738      -0.70711      -0.04514
                        -----------------------------------------
Magnitude (a.u.)       :      0.91401
Magnitude (Debye)      :      2.32322

                             ****ORCA TERMINATED NORMALLY****
TOTAL RUN TIME: 0 days 0 hours 16 minutes 37 seconds 367 msec
