                         Program Version 3.0.3 - RELEASE   -
|  1> ! RI-MP2 RIJK def2-TZVP def2-TZVP/C def2-TZVP/JK TIGHTSCF
|  2> % maxcore 2000
|  3> % mp2 density relaxed end
|  4> *xyz 0 1
|  5>  N       -0.0319201439    -1.0917525380     0.0133751683
|  6>  C       -0.0389893635     0.0648184862     0.0162917069
|  7>  C       -0.0657086855     1.5035776294    -0.0083673528
|  8>  N       -0.9746760155     2.2415076964     0.9333065868
|  9>  C       -0.8410445691     3.3545672220    -0.0640982401
| 10>  C        0.6588682544     3.7256775499    -0.0676373211
| 11>  C        0.9535844979     2.9881919546    -1.3563028542
| 12>  C        1.2554128619     2.3206364159    -0.0362815196
| 13>  C       -0.4807798479     2.3927598685    -1.2529941550
| 14>  H       -1.9092023206     1.8393225272     0.8361712913
| 15>  H       -1.6044795568     4.1293781481    -0.0767822662
| 16>  H        1.1545669305     4.5775467419     0.3754200843
| 17>  H        1.5950191986     3.2290222575    -2.1902889435
| 18>  H        2.1990315481     2.0750192063     0.4280258209
| 19>  H       -1.1510787986     2.0662319943    -2.0439404760
| 20> *
| 21>
| 22>                          ****END OF INPUT****

CARTESIAN COORDINATES (ANGSTROEM)
---------------------------------
  N     -0.031920   -1.091753    0.013375
  C     -0.038989    0.064818    0.016292
  C     -0.065709    1.503578   -0.008367
  N     -0.974676    2.241508    0.933307
  C     -0.841045    3.354567   -0.064098
  C      0.658868    3.725678   -0.067637
  C      0.953584    2.988192   -1.356303
  C      1.255413    2.320636   -0.036282
  C     -0.480780    2.392760   -1.252994
  H     -1.909202    1.839323    0.836171
  H     -1.604480    4.129378   -0.076782
  H      1.154567    4.577547    0.375420
  H      1.595019    3.229022   -2.190289
  H      2.199032    2.075019    0.428026
  H     -1.151079    2.066232   -2.043940

 Total Charge           Charge          ....    0
 Multiplicity           Mult            ....    1
 Number of Electrons    NEL             ....   62
 Basis Dimension        Dim             ....  315

ORBITAL ENERGIES
----------------

  NO   OCC          E(Eh)            E(eV)
   0   2.0000     -15.577062      -423.8734
   1   2.0000     -15.572396      -423.7464
   2   2.0000     -11.319474      -308.0185
   3   2.0000     -11.289132      -307.1929
   4   2.0000     -11.276812      -306.8576
   5   2.0000     -11.270566      -306.6877
   6   2.0000     -11.263452      -306.4941
   7   2.0000     -11.260255      -306.4071
   8   2.0000     -11.257494      -306.3320
   9   2.0000      -1.321432       -35.9580
  10   2.0000      -1.220588       -33.2139
  11   2.0000      -1.165314       -31.7098
  12   2.0000      -1.001789       -27.2601
  13   2.0000      -0.961227       -26.1563
  14   2.0000      -0.875282       -23.8176
  15   2.0000      -0.817427       -22.2433
  16   2.0000      -0.761863       -20.7314
  17   2.0000      -0.739938       -20.1347
  18   2.0000      -0.677671       -18.4404
  19   2.0000      -0.623926       -16.9779
  20   2.0000      -0.621379       -16.9086
  21   2.0000      -0.591928       -16.1072
  22   2.0000      -0.575345       -15.6559
  23   2.0000      -0.547095       -14.8872
  24   2.0000      -0.511029       -13.9058
  25   2.0000      -0.495097       -13.4723
  26   2.0000      -0.473013       -12.8713
  27   2.0000      -0.442203       -12.0329
  28   2.0000      -0.418615       -11.3911
  29   2.0000      -0.398303       -10.8384
  30   2.0000      -0.390725       -10.6322
  31   0.0000       0.127100         3.4586
  32   0.0000       0.141708         3.8561
  33   0.0000       0.147366         4.0100
  34   0.0000       0.152742         4.1563
  35   0.0000       0.176739         4.8093

MULLIKEN ATOMIC CHARGES
-----------------------
   0 N :   -0.029418
   1 C :   -0.272075
   2 C :    0.292225
   3 N :   -0.350254
   4 C :    0.008684
   5 C :   -0.183070
   6 C :   -0.171849
   7 C :   -0.188481
   8 C :   -0.093974
   9 H :    0.215384
  10 H :    0.146801
  11 H :    0.152627
  12 H :    0.156191
  13 H :    0.157664
  14 H :    0.159546
Sum of atomic charges:   -0.0000000

LOEWDIN ATOMIC CHARGES
----------------------
   0 N :    0.079360
   1 C :   -0.147851
   2 C :   -0.229349
   3 N :    0.036145
   4 C :   -0.186038
   5 C :   -0.126330
   6 C :   -0.128137
   7 C :   -0.095254
   8 C :   -0.073597
   9 H :    0.173597
  10 H :    0.135156
  11 H :    0.141756
  12 H :    0.136066
  13 H :    0.146288
  14 H :    0.138186

  Mayer bond orders larger than 0.1
B(  0-N ,  1-C ) :   2.8894 B(  1-C ,  2-C ) :   0.8427 B(  2-C ,  3-N ) :   0.9542
B(  2-C ,  7-C ) :   0.8664 B(  2-C ,  8-C ) :   0.8949 B(  3-N ,  4-C ) :   0.9012
B(  3-N ,  9-H ) :   0.8605 B(  4-C ,  5-C ) :   0.8946 B(  4-C ,  8-C ) :   0.9463
B(  4-C , 10-H ) :   0.9194 B(  5-C ,  6-C ) :   0.8429 B(  5-C ,  7-C ) :   0.8836
B(  5-C , 11-H ) :   0.9179 B(  6-C ,  7-C ) :   0.8604 B(  6-C ,  8-C ) :   0.9108
B(  6-C , 12-H ) :   0.9182 B(  7-C , 13-H ) :   0.9224 B(  8-C , 14-H ) :   0.9023

MP2 TOTAL ENERGY:     -378.910801753 Eh
FINAL SINGLE POINT ENERGY      -378.910801753371

DIPOLE MOMENT
-------------
                                X             Y             Z
Electronic contribution:     -0.21248      -4.22886       0.74525
Nuclear contribution   :      0.09373       5.80864      -1.41751
                        -----------------------------------------
Total Dipole Moment    :     -0.11875       1.57979      -0.67226
                        -----------------------------------------
Magnitude (a.u.)       :      1.72098
Magnitude (Debye)      :      4.37438

                             ****ORCA TERMINATED NORMALLY****
TOTAL RUN TIME: 0 days 0 hours 17 minutes 34 seconds 381 msec
