                         Program Version 3.0.3 - RELEASE   -
|  1> ! RI-MP2 RIJK def2-TZVP def2-TZVP/C def2-TZVP/JK TIGHTSCF
|  2> % maxcore 2000
|  3> % mp2 density relaxed end
|  4> *xyz 0 1
|  5>  N        0.0469306053    -1.1281069577    -0.0471661665
|  6>  C        0.0473232624     0.0269428195    -0.0194204072
|  7>  C       -0.0136103565     1.4723713859     0.0284261081
|  8>  C       -0.3171706488     2.2821106788     1.3303345755
|  9>  C        0.5020881046     3.2970098359     0.4849352160
| 10>  O        1.2559776863     2.1684396379    -0.0453824098
| 11>  C       -0.4896067599     3.6147946333    -0.6653616341
| 12>  N       -0.0728869544     3.0223252681    -1.9531293160
| 13>  C       -0.8898138862     2.2347267438    -1.0162681673
| 14>  H       -1.3598970890     2.5029779590     1.5705618947
| 15>  H        0.2356969189     1.8999113653     2.1883817692
| 16>  H        1.1207702489     4.0832809453     0.9112633642
| 17>  H       -1.1717017138     4.4543788939    -0.6159723319
| 18>  H       -0.6861663530     3.3770329805    -2.6854406813
| 19>  H       -1.8933790550     1.9056593406    -1.2525270735
| 20> *
| 21>
| 22>                          ****END OF INPUT****

CARTESIAN COORDINATES (ANGSTROEM)
---------------------------------
  N      0.046931   -1.128107   -0.047166
  C      0.047323    0.026943   -0.019420
  C     -0.013610    1.472371    0.028426
  C     -0.317171    2.282111    1.330335
  C      0.502088    3.297010    0.484935
  O      1.255978    2.168440   -0.045382
  C     -0.489607    3.614795   -0.665362
  N     -0.072887    3.022325   -1.953129
  C     -0.889814    2.234727   -1.016268
  H     -1.359897    2.502978    1.570562
  H      0.235697    1.899911    2.188382
  H      1.120770    4.083281    0.911263
  H     -1.171702    4.454379   -0.615972
  H     -0.686166    3.377033   -2.685441
  H     -1.893379    1.905659   -1.252527

 Total Charge           Charge          ....    0
 Multiplicity           Mult            ....    1
 Number of Electrons    NEL             ....   64
 Basis Dimension        Dim             ....  315

ORBITAL ENERGIES
----------------

  NO   OCC          E(Eh)            E(eV)
   0   2.0000     -20.582537      -560.0793
   1   2.0000     -15.585686      -424.1081
   2   2.0000     -15.583480      -424.0480
   3   2.0000     -11.353453      -308.9432
   4   2.0000     -11.320686      -308.0515
   5   2.0000     -11.291428      -307.2554
   6   2.0000     -11.286377      -307.1179
   7   2.0000     -11.280454      -306.9568
   8   2.0000     -11.268569      -306.6334
   9   2.0000      -1.435425       -39.0599
  10   2.0000      -1.281746       -34.8781
  11   2.0000      -1.226608       -33.3777
  12   2.0000      -1.071627       -29.1605
  13   2.0000      -1.009477       -27.4693
  14   2.0000      -0.928646       -25.2698
  15   2.0000      -0.843286       -22.9470
  16   2.0000      -0.799508       -21.7557
  17   2.0000      -0.769933       -20.9509
  18   2.0000      -0.715153       -19.4603
  19   2.0000      -0.681857       -18.5543
  20   2.0000      -0.627409       -17.0727
  21   2.0000      -0.592889       -16.1333
  22   2.0000      -0.579032       -15.7563
  23   2.0000      -0.554952       -15.1010
  24   2.0000      -0.537335       -14.6216
  25   2.0000      -0.526134       -14.3168
  26   2.0000      -0.511391       -13.9157
  27   2.0000      -0.505475       -13.7547
  28   2.0000      -0.476436       -12.9645
  29   2.0000      -0.460868       -12.5409
  30   2.0000      -0.443449       -12.0669
  31   2.0000      -0.391922       -10.6647
  32   0.0000       0.120557         3.2805
  33   0.0000       0.127204         3.4614
  34   0.0000       0.148117         4.0305
  35   0.0000       0.157059         4.2738
  36   0.0000       0.171317         4.6618

MULLIKEN ATOMIC CHARGES
-----------------------
   0 N :   -0.031378
   1 C :   -0.214530
   2 C :    0.332341
   3 C :   -0.220606
   4 C :    0.048340
   5 O :   -0.271918
   6 C :   -0.128946
   7 N :   -0.349016
   8 C :   -0.118655
   9 H :    0.129885
  10 H :    0.144842
  11 H :    0.157228
  12 H :    0.142066
  13 H :    0.225699
  14 H :    0.154647
Sum of atomic charges:    0.0000000

LOEWDIN ATOMIC CHARGES
----------------------
   0 N :    0.089601
   1 C :   -0.133518
   2 C :   -0.283551
   3 C :   -0.148851
   4 C :   -0.220396
   5 O :    0.227054
   6 C :   -0.228608
   7 N :    0.027233
   8 C :   -0.199840
   9 H :    0.134322
  10 H :    0.144639
  11 H :    0.135892
  12 H :    0.137847
  13 H :    0.176033
  14 H :    0.142142

  Mayer bond orders larger than 0.1
B(  0-N ,  1-C ) :   2.8691 B(  1-C ,  2-C ) :   0.8728 B(  2-C ,  3-C ) :   0.9026
B(  2-C ,  5-O ) :   0.9426 B(  2-C ,  8-C ) :   0.8385 B(  3-C ,  4-C ) :   0.9508
B(  3-C ,  9-H ) :   0.9039 B(  3-C , 10-H ) :   0.9223 B(  4-C ,  5-O ) :   0.9264
B(  4-C ,  6-C ) :   0.8936 B(  4-C , 11-H ) :   0.8986 B(  6-C ,  7-N ) :   1.0123
B(  6-C ,  8-C ) :   0.9456 B(  6-C , 12-H ) :   0.9154 B(  7-N ,  8-C ) :   1.0436
B(  7-N , 13-H ) :   0.8648 B(  8-C , 14-H ) :   0.9132

MP2 TOTAL ENERGY:     -416.040363239 Eh
FINAL SINGLE POINT ENERGY      -416.040363238608

DIPOLE MOMENT
-------------
                                X             Y             Z
Electronic contribution:      2.31751      -4.43988      -0.93835
Nuclear contribution   :     -3.59690       6.26381       1.34358
                        -----------------------------------------
Total Dipole Moment    :     -1.27940       1.82394       0.40523
                        -----------------------------------------
Magnitude (a.u.)       :      2.26447
Magnitude (Debye)      :      5.75582

                             ****ORCA TERMINATED NORMALLY****
TOTAL RUN TIME: 0 days 0 hours 16 minutes 29 seconds 909 msec
