                         Program Version 3.0.3 - RELEASE   -
|  1> ! RI-MP2 RIJK def2-TZVP def2-TZVP/C def2-TZVP/JK TIGHTSCF
|  2> % maxcore 2000
|  3> % mp2 density relaxed end
|  4> *xyz 0 1
|  5>  C       -0.3478895813     1.4955421109    -0.0061917224
|  6>  C        0.0352525981     0.0168773294    -0.1035819953
|  7>  C        1.1151687519    -0.3337250940    -1.1533742662
|  8>  C        2.1360927149    -1.1398769244    -0.4020841406
|  9>  C        1.8645614028    -1.2467639922     0.9105869665
| 10>  C        2.6815056673    -1.9501367032     1.9218740618
| 11>  O        3.7015225938    -2.5495801741     1.6659602807
| 12>  C        0.6075296302    -0.5169202692     1.2244513207
| 13>  O        0.1194336366    -0.3579626627     2.3196134552
| 14>  H        0.5385683009     2.1215924824     0.1430023881
| 15>  H       -0.8536315644     1.8351767051    -0.9147076774
| 16>  H       -1.0154661647     1.6496753845     0.8453921379
| 17>  H       -0.8716753880    -0.5689375115    -0.2997348804
| 18>  H        0.7222915202    -0.8940333614    -2.0101859270
| 19>  H        1.5841939906     0.5650254248    -1.5769728262
| 20>  H        3.0099195724    -1.5774473804    -0.8737644414
| 21>  H        2.2834145987    -1.8890049739     2.9539055660
| 22> *
| 23>
| 24>                          ****END OF INPUT****

CARTESIAN COORDINATES (ANGSTROEM)
---------------------------------
  C     -0.347890    1.495542   -0.006192
  C      0.035253    0.016877   -0.103582
  C      1.115169   -0.333725   -1.153374
  C      2.136093   -1.139877   -0.402084
  C      1.864561   -1.246764    0.910587
  C      2.681506   -1.950137    1.921874
  O      3.701523   -2.549580    1.665960
  C      0.607530   -0.516920    1.224451
  O      0.119434   -0.357963    2.319613
  H      0.538568    2.121592    0.143002
  H     -0.853632    1.835177   -0.914708
  H     -1.015466    1.649675    0.845392
  H     -0.871675   -0.568938   -0.299735
  H      0.722292   -0.894033   -2.010186
  H      1.584194    0.565025   -1.576973
  H      3.009920   -1.577447   -0.873764
  H      2.283415   -1.889005    2.953906

 Total Charge           Charge          ....    0
 Multiplicity           Mult            ....    1
 Number of Electrons    NEL             ....   66
 Basis Dimension        Dim             ....  327

ORBITAL ENERGIES
----------------

  NO   OCC          E(Eh)            E(eV)
   0   2.0000     -20.558800      -559.4334
   1   2.0000     -20.551303      -559.2294
   2   2.0000     -11.340528      -308.5915
   3   2.0000     -11.338597      -308.5389
   4   2.0000     -11.295697      -307.3715
   5   2.0000     -11.264046      -306.5103
   6   2.0000     -11.258976      -306.3723
   7   2.0000     -11.254091      -306.2394
   8   2.0000     -11.234812      -305.7148
   9   2.0000      -1.398134       -38.0452
  10   2.0000      -1.393265       -37.9127
  11   2.0000      -1.172762       -31.9125
  12   2.0000      -1.057774       -28.7835
  13   2.0000      -0.982948       -26.7474
  14   2.0000      -0.908288       -24.7158
  15   2.0000      -0.871344       -23.7105
  16   2.0000      -0.785583       -21.3768
  17   2.0000      -0.729168       -19.8417
  18   2.0000      -0.699636       -19.0381
  19   2.0000      -0.672512       -18.3000
  20   2.0000      -0.648219       -17.6389
  21   2.0000      -0.624656       -16.9978
  22   2.0000      -0.605667       -16.4810
  23   2.0000      -0.583846       -15.8873
  24   2.0000      -0.574168       -15.6239
  25   2.0000      -0.566116       -15.4048
  26   2.0000      -0.547799       -14.9064
  27   2.0000      -0.535035       -14.5590
  28   2.0000      -0.506123       -13.7723
  29   2.0000      -0.496626       -13.5139
  30   2.0000      -0.446720       -12.1559
  31   2.0000      -0.406427       -11.0594
  32   2.0000      -0.393494       -10.7075
  33   0.0000       0.055767         1.5175
  34   0.0000       0.112621         3.0646
  35   0.0000       0.136448         3.7129
  36   0.0000       0.158166         4.3039
  37   0.0000       0.159176         4.3314

MULLIKEN ATOMIC CHARGES
-----------------------
   0 C :   -0.428769
   1 C :   -0.017514
   2 C :   -0.182447
   3 C :   -0.123718
   4 C :   -0.033398
   5 C :    0.072115
   6 O :   -0.272327
   7 C :    0.157163
   8 O :   -0.288705
   9 H :    0.129640
  10 H :    0.140148
  11 H :    0.156995
  12 H :    0.121176
  13 H :    0.141830
  14 H :    0.140680
  15 H :    0.166717
  16 H :    0.120412
Sum of atomic charges:   -0.0000000

LOEWDIN ATOMIC CHARGES
----------------------
   0 C :   -0.284647
   1 C :   -0.221843
   2 C :   -0.209025
   3 C :   -0.031591
   4 C :   -0.149102
   5 C :   -0.251064
   6 O :    0.135726
   7 C :   -0.273352
   8 O :    0.150168
   9 H :    0.126612
  10 H :    0.125170
  11 H :    0.133668
  12 H :    0.168060
  13 H :    0.148862
  14 H :    0.154016
  15 H :    0.152028
  16 H :    0.126314

  Mayer bond orders larger than 0.1
B(  0-C ,  1-C ) :   0.9105 B(  0-C ,  9-H ) :   0.9305 B(  0-C , 10-H ) :   0.9383
B(  0-C , 11-H ) :   0.9327 B(  1-C ,  2-C ) :   0.9285 B(  1-C ,  7-C ) :   0.8943
B(  1-C , 12-H ) :   0.9022 B(  2-C ,  3-C ) :   0.9525 B(  2-C , 13-H ) :   0.9104
B(  2-C , 14-H ) :   0.8993 B(  3-C ,  4-C ) :   1.5951 B(  3-C , 15-H ) :   0.9094
B(  4-C ,  5-C ) :   0.8591 B(  4-C ,  6-O ) :  -0.1047 B(  4-C ,  7-C ) :   0.9193
B(  5-C ,  6-O ) :   1.9767 B(  5-C , 16-H ) :   0.9664 B(  7-C ,  8-O ) :   2.0019

MP2 TOTAL ENERGY:     -421.156822857 Eh
FINAL SINGLE POINT ENERGY      -421.156822857039

DIPOLE MOMENT
-------------
                                X             Y             Z
Electronic contribution:      4.38625      -6.03522       5.71843
Nuclear contribution   :     -4.81996       6.54904      -7.07500
                        -----------------------------------------
Total Dipole Moment    :     -0.43372       0.51383      -1.35657
                        -----------------------------------------
Magnitude (a.u.)       :      1.51407
Magnitude (Debye)      :      3.84847

                             ****ORCA TERMINATED NORMALLY****
TOTAL RUN TIME: 0 days 0 hours 16 minutes 35 seconds 945 msec
