                         Program Version 3.0.3 - RELEASE   -
|  1> ! RI-MP2 RIJK def2-TZVP def2-TZVP/C def2-TZVP/JK TIGHTSCF
|  2> % maxcore 2000
|  3> % mp2 density relaxed end
|  4> *xyz 0 1
|  5>  C       -0.0520053903     1.5562844329     0.0598025198
|  6>  C        0.0172185258     0.0402042197    -0.0005939919
|  7>  O       -1.2567038862    -0.5542829353    -0.1689318120
|  8>  C        1.1145133544    -0.6051893642    -0.9449872295
|  9>  C        1.7144876890    -1.2734616132     0.2964095958
| 10>  O        2.0609451143    -0.2225468133     1.2119700102
| 11>  C        0.7063393207    -0.6762052082     1.1812866418
| 12>  H        0.9275531758     1.9692568241     0.3117732848
| 13>  H       -0.3571922783     1.9713329706    -0.9090458362
| 14>  H       -0.7793218144     1.8747108621     0.8132317667
| 15>  H       -1.6665359887    -0.1635310921    -0.9480871169
| 16>  H        0.6456449725    -1.3142273414    -1.6309360838
| 17>  H        1.7842686184     0.0681232988    -1.4861875738
| 18>  H        2.2652717092    -2.2025826383     0.3819834058
| 19>  H        0.2548711378    -1.0216579721     2.1043061492
| 20> *
| 21>
| 22>                          ****END OF INPUT****

CARTESIAN COORDINATES (ANGSTROEM)
---------------------------------
  C     -0.052005    1.556284    0.059803
  C      0.017219    0.040204   -0.000594
  O     -1.256704   -0.554283   -0.168932
  C      1.114513   -0.605189   -0.944987
  C      1.714488   -1.273462    0.296410
  O      2.060945   -0.222547    1.211970
  C      0.706339   -0.676205    1.181287
  H      0.927553    1.969257    0.311773
  H     -0.357192    1.971333   -0.909046
  H     -0.779322    1.874711    0.813232
  H     -1.666536   -0.163531   -0.948087
  H      0.645645   -1.314227   -1.630936
  H      1.784269    0.068123   -1.486188
  H      2.265272   -2.202583    0.381983
  H      0.254871   -1.021658    2.104306

 Total Charge           Charge          ....    0
 Multiplicity           Mult            ....    1
 Number of Electrons    NEL             ....   54
 Basis Dimension        Dim             ....  265

ORBITAL ENERGIES
----------------

  NO   OCC          E(Eh)            E(eV)
   0   2.0000     -20.568630      -559.7009
   1   2.0000     -20.565215      -559.6080
   2   2.0000     -11.298993      -307.4612
   3   2.0000     -11.287158      -307.1392
   4   2.0000     -11.282365      -307.0088
   5   2.0000     -11.232881      -305.6622
   6   2.0000     -11.218911      -305.2821
   7   2.0000      -1.421838       -38.6902
   8   2.0000      -1.372287       -37.3418
   9   2.0000      -1.078598       -29.3501
  10   2.0000      -0.981896       -26.7188
  11   2.0000      -0.900634       -24.5075
  12   2.0000      -0.840576       -22.8732
  13   2.0000      -0.756926       -20.5970
  14   2.0000      -0.721389       -19.6300
  15   2.0000      -0.664113       -18.0714
  16   2.0000      -0.641324       -17.4513
  17   2.0000      -0.615421       -16.7465
  18   2.0000      -0.588935       -16.0257
  19   2.0000      -0.568194       -15.4614
  20   2.0000      -0.542489       -14.7619
  21   2.0000      -0.522577       -14.2200
  22   2.0000      -0.509313       -13.8591
  23   2.0000      -0.488169       -13.2838
  24   2.0000      -0.465519       -12.6674
  25   2.0000      -0.417299       -11.3553
  26   2.0000      -0.401605       -10.9282
  27   0.0000       0.130715         3.5569
  28   0.0000       0.166489         4.5304
  29   0.0000       0.173549         4.7225
  30   0.0000       0.182590         4.9685
  31   0.0000       0.200065         5.4441

MULLIKEN ATOMIC CHARGES
-----------------------
   0 C :   -0.462432
   1 C :    0.291538
   2 O :   -0.470469
   3 C :   -0.225817
   4 C :   -0.032625
   5 O :   -0.329878
   6 C :   -0.011634
   7 H :    0.152453
   8 H :    0.123061
   9 H :    0.140210
  10 H :    0.317945
  11 H :    0.112941
  12 H :    0.114537
  13 H :    0.139055
  14 H :    0.141116
Sum of atomic charges:   -0.0000000

LOEWDIN ATOMIC CHARGES
----------------------
   0 C :   -0.283987
   1 C :   -0.366354
   2 O :    0.013390
   3 C :   -0.188646
   4 C :   -0.239525
   5 O :    0.173327
   6 C :   -0.208308
   7 H :    0.136093
   8 H :    0.123724
   9 H :    0.128961
  10 H :    0.178039
  11 H :    0.139171
  12 H :    0.131432
  13 H :    0.128909
  14 H :    0.133774

  Mayer bond orders larger than 0.1
B(  0-C ,  1-C ) :   0.9175 B(  0-C ,  7-H ) :   0.9275 B(  0-C ,  8-H ) :   0.9236
B(  0-C ,  9-H ) :   0.9402 B(  1-C ,  2-O ) :   0.9913 B(  1-C ,  3-C ) :   0.9240
B(  1-C ,  6-C ) :   0.8581 B(  2-O , 10-H ) :   0.8392 B(  3-C ,  4-C ) :   0.9173
B(  3-C , 11-H ) :   0.9092 B(  3-C , 12-H ) :   0.8894 B(  4-C ,  5-O ) :   0.9189
B(  4-C ,  6-C ) :   0.9385 B(  4-C , 13-H ) :   0.9234 B(  5-O ,  6-C ) :   0.9046
B(  6-C , 14-H ) :   0.9148

MP2 TOTAL ENERGY:     -345.050967485 Eh
FINAL SINGLE POINT ENERGY      -345.050967484511

DIPOLE MOMENT
-------------
                                X             Y             Z
Electronic contribution:      1.16123      -2.77643       2.26742
Nuclear contribution   :     -1.46967       2.80900      -2.95089
                        -----------------------------------------
Total Dipole Moment    :     -0.30844       0.03256      -0.68347
                        -----------------------------------------
Magnitude (a.u.)       :      0.75055
Magnitude (Debye)      :      1.90774

                             ****ORCA TERMINATED NORMALLY****
TOTAL RUN TIME: 0 days 0 hours 7 minutes 34 seconds 111 msec
