                         Program Version 3.0.3 - RELEASE   -
|  1> ! RI-MP2 RIJK def2-TZVP def2-TZVP/C def2-TZVP/JK TIGHTSCF
|  2> % maxcore 2000
|  3> % mp2 density relaxed end
|  4> *xyz 0 1
|  5>  C        0.1049649951     1.5144650503     0.1495771539
|  6>  C       -0.0519546042    -0.0030251638     0.0149180824
|  7>  O       -1.4166513216    -0.3815645698    -0.1258891615
|  8>  C        0.7411177713    -0.5660054644    -1.1440261256
|  9>  C        2.2644111518    -0.4155882988    -1.3939434062
| 10>  C        1.9462880963    -1.5051549367    -2.4674438584
| 11>  C        0.9208404889    -2.0774918047    -1.4398522427
| 12>  C        0.9969790213    -0.7184231615    -3.3787457680
| 13>  O        0.1696604171    -0.0716941068    -2.3849747032
| 14>  H        1.1404309419     1.7869966549     0.3801632772
| 15>  H       -0.1800731902     2.0112488352    -0.7822969227
| 16>  H       -0.5379593050     1.8796669949     0.9543167605
| 17>  H        0.2957019719    -0.4877800457     0.9351600054
| 18>  H       -1.6518250070    -0.1771198655    -1.0396777175
| 19>  H        2.6226706995     0.5600186743    -1.7313181918
| 20>  H        2.8763246332    -0.7972229215    -0.5748041262
| 21>  H        2.7169647251    -2.1127098722    -2.9396710399
| 22>  H        1.3972667647    -2.6196550405    -0.6213987825
| 23>  H        0.0499780943    -2.6192323126    -1.8148692291
| 24>  H        1.5008672090     0.0361826166    -3.9939133295
| 25>  H        0.3824540166    -1.3557671618    -4.0251752845
| 26> *
| 27>
| 28>                          ****END OF INPUT****

CARTESIAN COORDINATES (ANGSTROEM)
---------------------------------
  C      0.104965    1.514465    0.149577
  C     -0.051955   -0.003025    0.014918
  O     -1.416651   -0.381565   -0.125889
  C      0.741118   -0.566005   -1.144026
  C      2.264411   -0.415588   -1.393943
  C      1.946288   -1.505155   -2.467444
  C      0.920840   -2.077492   -1.439852
  C      0.996979   -0.718423   -3.378746
  O      0.169660   -0.071694   -2.384975
  H      1.140431    1.786997    0.380163
  H     -0.180073    2.011249   -0.782297
  H     -0.537959    1.879667    0.954317
  H      0.295702   -0.487780    0.935160
  H     -1.651825   -0.177120   -1.039678
  H      2.622671    0.560019   -1.731318
  H      2.876325   -0.797223   -0.574804
  H      2.716965   -2.112710   -2.939671
  H      1.397267   -2.619655   -0.621399
  H      0.049978   -2.619232   -1.814869
  H      1.500867    0.036183   -3.993913
  H      0.382454   -1.355767   -4.025175

 Total Charge           Charge          ....    0
 Multiplicity           Mult            ....    1
 Number of Electrons    NEL             ....   70
 Basis Dimension        Dim             ....  351

ORBITAL ENERGIES
----------------

  NO   OCC          E(Eh)            E(eV)
   0   2.0000     -20.554995      -559.3299
   1   2.0000     -20.543015      -559.0039
   2   2.0000     -11.289422      -307.2008
   3   2.0000     -11.278322      -306.8987
   4   2.0000     -11.276989      -306.8625
   5   2.0000     -11.245611      -306.0086
   6   2.0000     -11.233065      -305.6672
   7   2.0000     -11.228377      -305.5397
   8   2.0000     -11.209501      -305.0260
   9   2.0000      -1.390015       -37.8242
  10   2.0000      -1.347009       -36.6540
  11   2.0000      -1.128316       -30.7030
  12   2.0000      -1.031638       -28.0723
  13   2.0000      -0.963742       -26.2248
  14   2.0000      -0.913458       -24.8565
  15   2.0000      -0.857616       -23.3369
  16   2.0000      -0.781740       -21.2722
  17   2.0000      -0.762063       -20.7368
  18   2.0000      -0.717818       -19.5328
  19   2.0000      -0.654499       -17.8098
  20   2.0000      -0.650891       -17.7116
  21   2.0000      -0.621993       -16.9253
  22   2.0000      -0.613802       -16.7024
  23   2.0000      -0.578659       -15.7461
  24   2.0000      -0.564617       -15.3640
  25   2.0000      -0.531976       -14.4758
  26   2.0000      -0.530285       -14.4298
  27   2.0000      -0.525574       -14.3016
  28   2.0000      -0.508961       -13.8495
  29   2.0000      -0.504796       -13.7362
  30   2.0000      -0.470427       -12.8010
  31   2.0000      -0.464337       -12.6353
  32   2.0000      -0.454475       -12.3669
  33   2.0000      -0.419925       -11.4267
  34   2.0000      -0.402485       -10.9522
  35   0.0000       0.135805         3.6955
  36   0.0000       0.152442         4.1481
  37   0.0000       0.163370         4.4455
  38   0.0000       0.171238         4.6596
  39   0.0000       0.188581         5.1315

MULLIKEN ATOMIC CHARGES
-----------------------
   0 C :   -0.396483
   1 C :    0.140641
   2 O :   -0.477069
   3 C :    0.079421
   4 C :   -0.257219
   5 C :   -0.096391
   6 C :   -0.214381
   7 C :   -0.079211
   8 O :   -0.363856
   9 H :    0.121479
  10 H :    0.135083
  11 H :    0.140924
  12 H :    0.085311
  13 H :    0.325352
  14 H :    0.124689
  15 H :    0.128359
  16 H :    0.137779
  17 H :    0.125414
  18 H :    0.118415
  19 H :    0.110777
  20 H :    0.110966
Sum of atomic charges:   -0.0000000

LOEWDIN ATOMIC CHARGES
----------------------
   0 C :   -0.294756
   1 C :   -0.339294
   2 O :   -0.016993
   3 C :   -0.306029
   4 C :   -0.178148
   5 C :   -0.217474
   6 C :   -0.174945
   7 C :   -0.262609
   8 O :    0.156317
   9 H :    0.124382
  10 H :    0.126975
  11 H :    0.126233
  12 H :    0.149006
  13 H :    0.179093
  14 H :    0.131936
  15 H :    0.141343
  16 H :    0.134915
  17 H :    0.140981
  18 H :    0.132779
  19 H :    0.123064
  20 H :    0.123224

  Mayer bond orders larger than 0.1
B(  0-C ,  1-C ) :   0.9288 B(  0-C ,  9-H ) :   0.9302 B(  0-C , 10-H ) :   0.9263
B(  0-C , 11-H ) :   0.9402 B(  1-C ,  2-O ) :   0.9135 B(  1-C ,  3-C ) :   0.9268
B(  1-C , 12-H ) :   0.9223 B(  2-O , 13-H ) :   0.8278 B(  3-C ,  4-C ) :   0.8814
B(  3-C ,  6-C ) :   0.9027 B(  3-C ,  8-O ) :   0.9074 B(  4-C ,  5-C ) :   0.9135
B(  4-C , 14-H ) :   0.9226 B(  4-C , 15-H ) :   0.9233 B(  5-C ,  6-C ) :   0.9213
B(  5-C ,  7-C ) :   0.9351 B(  5-C , 16-H ) :   0.9112 B(  6-C , 17-H ) :   0.9251
B(  6-C , 18-H ) :   0.9195 B(  7-C ,  8-O ) :   0.9325 B(  7-C , 19-H ) :   0.9279
B(  7-C , 20-H ) :   0.9277

MP2 TOTAL ENERGY:     -423.514061593 Eh
FINAL SINGLE POINT ENERGY      -423.514061592610

DIPOLE MOMENT
-------------
                                X             Y             Z
Electronic contribution:     -2.49673      -1.50270      -1.17205
Nuclear contribution   :      3.43049       1.31231       0.76190
                        -----------------------------------------
Total Dipole Moment    :      0.93376      -0.19039      -0.41015
                        -----------------------------------------
Magnitude (a.u.)       :      1.03749
Magnitude (Debye)      :      2.63708

                             ****ORCA TERMINATED NORMALLY****
TOTAL RUN TIME: 0 days 0 hours 20 minutes 58 seconds 282 msec
