                         Program Version 3.0.3 - RELEASE   -
|  1> ! RI-MP2 RIJK def2-TZVP def2-TZVP/C def2-TZVP/JK TIGHTSCF
|  2> % maxcore 2000
|  3> % mp2 density relaxed end
|  4> *xyz 0 1
|  5>  C       -0.0374395075     1.5772979859    -0.0634074164
|  6>  C        1.5121083313     1.3243212966     0.0141336881
|  7>  N        1.1462449675     0.2273546727     0.9861978451
|  8>  C       -0.0263110270     0.0106332608     0.0472859887
|  9>  C        0.6582884282    -0.3637242766    -1.2700194109
| 10>  C        1.7042906565     0.5378623993    -1.2802782465
| 11>  N        2.3653313578     0.3751202979    -2.4371500308
| 12>  N        1.8167674092    -0.6136273252    -3.1959756048
| 13>  C        0.7643624337    -1.0520058683    -2.4864877715
| 14>  H       -0.4201171137     2.0648564984     0.8354323255
| 15>  H       -0.4368103594     2.0199173030    -0.9759686321
| 16>  H        2.2293850507     2.0789502619     0.3323046702
| 17>  H        1.8077004113    -0.5498758043     0.9462986584
| 18>  H       -0.8736939841    -0.5595653791     0.4226947798
| 19>  H        3.1884558571     0.8401117355    -2.7807979413
| 20>  H        0.1565513984    -1.8453667385    -2.8958719714
| 21> *
| 22>
| 23>                          ****END OF INPUT****

CARTESIAN COORDINATES (ANGSTROEM)
---------------------------------
  C     -0.037440    1.577298   -0.063407
  C      1.512108    1.324321    0.014134
  N      1.146245    0.227355    0.986198
  C     -0.026311    0.010633    0.047286
  C      0.658288   -0.363724   -1.270019
  C      1.704291    0.537862   -1.280278
  N      2.365331    0.375120   -2.437150
  N      1.816767   -0.613627   -3.195976
  C      0.764362   -1.052006   -2.486488
  H     -0.420117    2.064856    0.835432
  H     -0.436810    2.019917   -0.975969
  H      2.229385    2.078950    0.332305
  H      1.807700   -0.549876    0.946299
  H     -0.873694   -0.559565    0.422695
  H      3.188456    0.840112   -2.780798
  H      0.156551   -1.845367   -2.895872

 Total Charge           Charge          ....    0
 Multiplicity           Mult            ....    1
 Number of Electrons    NEL             ....   64
 Basis Dimension        Dim             ....  321

ORBITAL ENERGIES
----------------

  NO   OCC          E(Eh)            E(eV)
   0   2.0000     -15.642655      -425.6583
   1   2.0000     -15.577475      -423.8847
   2   2.0000     -15.559246      -423.3886
   3   2.0000     -11.293859      -307.3215
   4   2.0000     -11.283581      -307.0419
   5   2.0000     -11.270366      -306.6823
   6   2.0000     -11.257070      -306.3204
   7   2.0000     -11.243960      -305.9637
   8   2.0000     -11.211159      -305.0712
   9   2.0000      -1.367893       -37.2223
  10   2.0000      -1.272056       -34.6144
  11   2.0000      -1.093463       -29.7546
  12   2.0000      -1.054014       -28.6812
  13   2.0000      -0.976152       -26.5624
  14   2.0000      -0.934045       -25.4167
  15   2.0000      -0.829457       -22.5707
  16   2.0000      -0.805963       -21.9314
  17   2.0000      -0.756795       -20.5934
  18   2.0000      -0.718512       -19.5517
  19   2.0000      -0.697409       -18.9775
  20   2.0000      -0.616957       -16.7882
  21   2.0000      -0.602540       -16.3959
  22   2.0000      -0.570513       -15.5244
  23   2.0000      -0.558164       -15.1884
  24   2.0000      -0.527175       -14.3452
  25   2.0000      -0.506439       -13.7809
  26   2.0000      -0.493335       -13.4243
  27   2.0000      -0.475828       -12.9479
  28   2.0000      -0.469770       -12.7831
  29   2.0000      -0.411351       -11.1934
  30   2.0000      -0.365236        -9.9386
  31   2.0000      -0.311545        -8.4776
  32   0.0000       0.130922         3.5626
  33   0.0000       0.150502         4.0954
  34   0.0000       0.157439         4.2841
  35   0.0000       0.168358         4.5813
  36   0.0000       0.170964         4.6522

MULLIKEN ATOMIC CHARGES
-----------------------
   0 C :   -0.202324
   1 C :   -0.008326
   2 N :   -0.303709
   3 C :   -0.003372
   4 C :   -0.075974
   5 C :   -0.035510
   6 N :   -0.136753
   7 N :   -0.192721
   8 C :   -0.163991
   9 H :    0.126878
  10 H :    0.126256
  11 H :    0.142086
  12 H :    0.200532
  13 H :    0.139988
  14 H :    0.256588
  15 H :    0.130352
Sum of atomic charges:    0.0000000

LOEWDIN ATOMIC CHARGES
----------------------
   0 C :   -0.177379
   1 C :   -0.204774
   2 N :    0.027328
   3 C :   -0.194323
   4 C :   -0.152889
   5 C :   -0.210234
   6 N :    0.148654
   7 N :    0.015356
   8 C :   -0.262159
   9 H :    0.135718
  10 H :    0.129935
  11 H :    0.132748
  12 H :    0.155926
  13 H :    0.133393
  14 H :    0.188847
  15 H :    0.133854

  Mayer bond orders larger than 0.1
B(  0-C ,  1-C ) :   0.9106 B(  0-C ,  3-C ) :   0.8949 B(  0-C ,  9-H ) :   0.9188
B(  0-C , 10-H ) :   0.9105 B(  1-C ,  2-N ) :   0.9994 B(  1-C ,  5-C ) :   0.9754
B(  1-C , 11-H ) :   0.9053 B(  2-N ,  3-C ) :   0.9835 B(  2-N , 12-H ) :   0.8852
B(  3-C ,  4-C ) :   0.9972 B(  3-C , 13-H ) :   0.9129 B(  4-C ,  5-C ) :   1.2701
B(  4-C ,  8-C ) :   1.2907 B(  5-C ,  6-N ) :   1.2126 B(  5-C ,  7-N ) :   0.1116
B(  6-N ,  7-N ) :   1.0618 B(  6-N , 14-H ) :   0.8599 B(  7-N ,  8-C ) :   1.5156
B(  8-C , 15-H ) :   0.9396

MP2 TOTAL ENERGY:     -396.195317098 Eh
FINAL SINGLE POINT ENERGY      -396.195317097993

DIPOLE MOMENT
-------------
                                X             Y             Z
Electronic contribution:      2.25901      -1.62144      -2.93585
Nuclear contribution   :     -2.02090       2.25735       3.16497
                        -----------------------------------------
Total Dipole Moment    :      0.23812       0.63591       0.22913
                        -----------------------------------------
Magnitude (a.u.)       :      0.71664
Magnitude (Debye)      :      1.82156

                             ****ORCA TERMINATED NORMALLY****
TOTAL RUN TIME: 0 days 0 hours 18 minutes 58 seconds 318 msec
