                         Program Version 3.0.3 - RELEASE   -
|  1> ! RI-MP2 RIJK def2-TZVP def2-TZVP/C def2-TZVP/JK TIGHTSCF
|  2> % maxcore 2000
|  3> % mp2 density relaxed end
|  4> *xyz 0 1
|  5>  O       -0.0182831939     1.4256474174    -0.0399557112
|  6>  C        0.0330282912     0.0386980814    -0.0702578726
|  7>  C        0.4270589503    -0.8295996617    -1.2622085279
|  8>  N       -0.3239070825    -1.9424300011    -0.5559461313
|  9>  C        0.5901854955    -2.1451365218     0.6197386227
| 10>  C        0.4035789051    -0.7697694930     1.2716691788
| 11>  C       -1.1170311507    -0.8239485918     1.5791383701
| 12>  C       -1.2399674878    -0.8330163784     0.0562967884
| 13>  H        0.8566785228     1.7626492964     0.1808062431
| 14>  H       -0.1053230289    -0.5339302997    -2.1705864455
| 15>  H        1.4735758297    -1.0520589366    -1.4954586121
| 16>  H        0.2466487302    -2.9727478222     1.2471001132
| 17>  H        1.6026326108    -2.3684900974     0.2744673957
| 18>  H        1.1309420221    -0.3958988730     1.9928994788
| 19>  H       -1.4978658638    -1.6623787243     2.1691654244
| 20>  H       -1.4979532292     0.1224721373     1.9698517985
| 21>  H       -2.1578053908    -0.6858195515    -0.5092790531
| 22> *
| 23>
| 24>                          ****END OF INPUT****

CARTESIAN COORDINATES (ANGSTROEM)
---------------------------------
  O     -0.018283    1.425647   -0.039956
  C      0.033028    0.038698   -0.070258
  C      0.427059   -0.829600   -1.262209
  N     -0.323907   -1.942430   -0.555946
  C      0.590185   -2.145137    0.619739
  C      0.403579   -0.769769    1.271669
  C     -1.117031   -0.823949    1.579138
  C     -1.239967   -0.833016    0.056297
  H      0.856679    1.762649    0.180806
  H     -0.105323   -0.533930   -2.170586
  H      1.473576   -1.052059   -1.495459
  H      0.246649   -2.972748    1.247100
  H      1.602633   -2.368490    0.274467
  H      1.130942   -0.395899    1.992899
  H     -1.497866   -1.662379    2.169165
  H     -1.497953    0.122472    1.969852
  H     -2.157805   -0.685820   -0.509279

 Total Charge           Charge          ....    0
 Multiplicity           Mult            ....    1
 Number of Electrons    NEL             ....   60
 Basis Dimension        Dim             ....  302

ORBITAL ENERGIES
----------------

  NO   OCC          E(Eh)            E(eV)
   0   2.0000     -20.570985      -559.7650
   1   2.0000     -15.556509      -423.3141
   2   2.0000     -11.292001      -307.2710
   3   2.0000     -11.256333      -306.3004
   4   2.0000     -11.248847      -306.0967
   5   2.0000     -11.248351      -306.0832
   6   2.0000     -11.239104      -305.8316
   7   2.0000     -11.226830      -305.4976
   8   2.0000      -1.383289       -37.6412
   9   2.0000      -1.278201       -34.7816
  10   2.0000      -1.063826       -28.9482
  11   2.0000      -0.987895       -26.8820
  12   2.0000      -0.927038       -25.2260
  13   2.0000      -0.843175       -22.9440
  14   2.0000      -0.783601       -21.3229
  15   2.0000      -0.741694       -20.1825
  16   2.0000      -0.702591       -19.1185
  17   2.0000      -0.662299       -18.0221
  18   2.0000      -0.644315       -17.5327
  19   2.0000      -0.624524       -16.9942
  20   2.0000      -0.603760       -16.4291
  21   2.0000      -0.549142       -14.9429
  22   2.0000      -0.530802       -14.4439
  23   2.0000      -0.509506       -13.8644
  24   2.0000      -0.493838       -13.4380
  25   2.0000      -0.471311       -12.8250
  26   2.0000      -0.450988       -12.2720
  27   2.0000      -0.436601       -11.8805
  28   2.0000      -0.406795       -11.0695
  29   2.0000      -0.365089        -9.9346
  30   0.0000       0.131447         3.5768
  31   0.0000       0.157974         4.2987
  32   0.0000       0.166466         4.5298
  33   0.0000       0.179873         4.8946
  34   0.0000       0.188920         5.1408

MULLIKEN ATOMIC CHARGES
-----------------------
   0 O :   -0.449260
   1 C :    0.120894
   2 C :   -0.161973
   3 N :   -0.199445
   4 C :   -0.157028
   5 C :   -0.141573
   6 C :   -0.239735
   7 C :   -0.071277
   8 H :    0.326806
   9 H :    0.118334
  10 H :    0.112205
  11 H :    0.116624
  12 H :    0.118494
  13 H :    0.132584
  14 H :    0.120727
  15 H :    0.126115
  16 H :    0.127508
Sum of atomic charges:   -0.0000000

LOEWDIN ATOMIC CHARGES
----------------------
   0 O :    0.024986
   1 C :   -0.326038
   2 C :   -0.228827
   3 N :    0.100276
   4 C :   -0.247447
   5 C :   -0.188118
   6 C :   -0.210109
   7 C :   -0.162640
   8 H :    0.183686
   9 H :    0.137078
  10 H :    0.119295
  11 H :    0.129884
  12 H :    0.128914
  13 H :    0.130123
  14 H :    0.126953
  15 H :    0.147919
  16 H :    0.134065

  Mayer bond orders larger than 0.1
B(  0-O ,  1-C ) :   1.0726 B(  0-O ,  8-H ) :   0.8342 B(  1-C ,  2-C ) :   0.9906
B(  1-C ,  5-C ) :   0.8598 B(  1-C ,  7-C ) :   0.9077 B(  2-C ,  3-N ) :   0.9291
B(  2-C ,  9-H ) :   0.9142 B(  2-C , 10-H ) :   0.9193 B(  3-N ,  4-C ) :   0.9217
B(  3-N ,  7-C ) :   0.9179 B(  4-C ,  5-C ) :   0.9370 B(  4-C , 11-H ) :   0.9176
B(  4-C , 12-H ) :   0.9386 B(  5-C ,  6-C ) :   0.9077 B(  5-C , 13-H ) :   0.9076
B(  6-C ,  7-C ) :   0.9581 B(  6-C , 14-H ) :   0.9153 B(  6-C , 15-H ) :   0.9081
B(  7-C , 16-H ) :   0.9048

MP2 TOTAL ENERGY:     -363.189320267 Eh
FINAL SINGLE POINT ENERGY      -363.189320266700

DIPOLE MOMENT
-------------
                                X             Y             Z
Electronic contribution:     -0.52132       1.79596      -1.30862
Nuclear contribution   :      1.23619      -1.45664       1.78280
                        -----------------------------------------
Total Dipole Moment    :      0.71487       0.33932       0.47419
                        -----------------------------------------
Magnitude (a.u.)       :      0.92251
Magnitude (Debye)      :      2.34483

                             ****ORCA TERMINATED NORMALLY****
TOTAL RUN TIME: 0 days 0 hours 13 minutes 58 seconds 618 msec
