                         Program Version 3.0.3 - RELEASE   -
|  1> ! RI-MP2 RIJK def2-TZVP def2-TZVP/C def2-TZVP/JK TIGHTSCF
|  2> % maxcore 2000
|  3> % mp2 density relaxed end
|  4> *xyz 0 1
|  5>  O        0.2543437964     1.2911981189    -0.4837405673
|  6>  C        0.0886746416     0.0620752879     0.1974649156
|  7>  C       -1.3322725760    -0.4707493410     0.0984817767
|  8>  C       -2.3352907851     0.2566175422     0.9632012181
|  9>  O       -2.3579557637     1.6312316414     0.5633848278
| 10>  C       -1.7936289189    -1.0047138989    -1.2261388888
| 11>  C       -1.5727234586    -1.9710982071    -0.0720430308
| 12>  C       -0.4891105816    -2.9099309694    -0.0872905629
| 13>  C        0.4054141901    -3.7145979985    -0.0940446248
| 14>  H       -0.4859803714     1.8494200971    -0.2123059440
| 15>  H        0.7866812600    -0.6484625315    -0.2535126315
| 16>  H        0.3630054665     0.1515350822     1.2630761385
| 17>  H       -3.3345364365    -0.1913193245     0.8537966101
| 18>  H       -2.0419214585     0.1717152532     2.0204913860
| 19>  H       -2.8096507320     2.1416947125     1.2418807908
| 20>  H       -2.8178391504    -0.8260598255    -1.5351936299
| 21>  H       -1.0708005329    -1.0220598023    -2.0330844621
| 22>  H       -2.4761158802    -2.3478313787     0.4017609759
| 23>  H        1.1986454513    -4.4201216578    -0.1032334674
| 24> *
| 25>
| 26>                          ****END OF INPUT****

CARTESIAN COORDINATES (ANGSTROEM)
---------------------------------
  O      0.254344    1.291198   -0.483741
  C      0.088675    0.062075    0.197465
  C     -1.332273   -0.470749    0.098482
  C     -2.335291    0.256618    0.963201
  O     -2.357956    1.631232    0.563385
  C     -1.793629   -1.004714   -1.226139
  C     -1.572723   -1.971098   -0.072043
  C     -0.489111   -2.909931   -0.087291
  C      0.405414   -3.714598   -0.094045
  H     -0.485980    1.849420   -0.212306
  H      0.786681   -0.648463   -0.253513
  H      0.363005    0.151535    1.263076
  H     -3.334536   -0.191319    0.853797
  H     -2.041921    0.171715    2.020491
  H     -2.809651    2.141695    1.241881
  H     -2.817839   -0.826060   -1.535194
  H     -1.070801   -1.022060   -2.033084
  H     -2.476116   -2.347831    0.401761
  H      1.198645   -4.420122   -0.103233

 Total Charge           Charge          ....    0
 Multiplicity           Mult            ....    1
 Number of Electrons    NEL             ....   68
 Basis Dimension        Dim             ....  339

ORBITAL ENERGIES
----------------

  NO   OCC          E(Eh)            E(eV)
   0   2.0000     -20.579741      -560.0032
   1   2.0000     -20.535382      -558.7962
   2   2.0000     -11.297685      -307.4256
   3   2.0000     -11.270639      -306.6897
   4   2.0000     -11.265666      -306.5544
   5   2.0000     -11.252376      -306.1927
   6   2.0000     -11.239970      -305.8551
   7   2.0000     -11.237131      -305.7779
   8   2.0000     -11.222344      -305.3755
   9   2.0000      -1.383544       -37.6481
  10   2.0000      -1.343081       -36.5471
  11   2.0000      -1.177464       -32.0404
  12   2.0000      -1.032831       -28.1048
  13   2.0000      -0.972396       -26.4602
  14   2.0000      -0.922911       -25.1137
  15   2.0000      -0.870449       -23.6861
  16   2.0000      -0.775535       -21.1034
  17   2.0000      -0.737442       -20.0668
  18   2.0000      -0.709187       -19.2980
  19   2.0000      -0.689954       -18.7746
  20   2.0000      -0.680231       -18.5100
  21   2.0000      -0.631018       -17.1709
  22   2.0000      -0.626736       -17.0544
  23   2.0000      -0.587609       -15.9897
  24   2.0000      -0.584735       -15.9114
  25   2.0000      -0.562344       -15.3022
  26   2.0000      -0.543403       -14.7867
  27   2.0000      -0.498332       -13.5603
  28   2.0000      -0.483391       -13.1537
  29   2.0000      -0.455943       -12.4068
  30   2.0000      -0.447246       -12.1702
  31   2.0000      -0.431386       -11.7386
  32   2.0000      -0.381608       -10.3841
  33   2.0000      -0.363086        -9.8801
  34   0.0000       0.118059         3.2125
  35   0.0000       0.147094         4.0026
  36   0.0000       0.164487         4.4759
  37   0.0000       0.166716         4.5366
  38   0.0000       0.174312         4.7433

MULLIKEN ATOMIC CHARGES
-----------------------
   0 O :   -0.481084
   1 C :   -0.003971
   2 C :    0.075583
   3 C :   -0.085574
   4 O :   -0.493330
   5 C :   -0.240857
   6 C :   -0.344219
   7 C :   -0.009417
   8 C :   -0.120436
   9 H :    0.333173
  10 H :    0.121633
  11 H :    0.091229
  12 H :    0.103453
  13 H :    0.119754
  14 H :    0.324191
  15 H :    0.138009
  16 H :    0.146563
  17 H :    0.134435
  18 H :    0.190865
Sum of atomic charges:   -0.0000000

LOEWDIN ATOMIC CHARGES
----------------------
   0 O :   -0.045508
   1 C :   -0.297016
   2 C :   -0.238616
   3 C :   -0.294147
   4 O :   -0.049875
   5 C :   -0.151453
   6 C :   -0.170183
   7 C :   -0.096348
   8 C :   -0.097562
   9 H :    0.170620
  10 H :    0.139434
  11 H :    0.123466
  12 H :    0.125299
  13 H :    0.125820
  14 H :    0.175155
  15 H :    0.139162
  16 H :    0.148457
  17 H :    0.166389
  18 H :    0.126907

  Mayer bond orders larger than 0.1
B(  0-O ,  1-C ) :   0.9651 B(  0-O ,  9-H ) :   0.8224 B(  1-C ,  2-C ) :   0.9835
B(  1-C , 10-H ) :   0.9123 B(  1-C , 11-H ) :   0.9207 B(  2-C ,  3-C ) :   0.9153
B(  2-C ,  5-C ) :   0.8580 B(  2-C ,  6-C ) :   0.7902 B(  3-C ,  4-O ) :   0.9939
B(  3-C , 12-H ) :   0.9153 B(  3-C , 13-H ) :   0.9351 B(  4-O , 14-H ) :   0.8414
B(  5-C ,  6-C ) :   0.8660 B(  5-C , 15-H ) :   0.9218 B(  5-C , 16-H ) :   0.9234
B(  6-C ,  7-C ) :   1.1839 B(  6-C ,  8-C ) :  -0.1397 B(  6-C , 17-H ) :   0.9316
B(  7-C ,  8-C ) :   2.5644 B(  8-C , 18-H ) :   0.8962

MP2 TOTAL ENERGY:     -422.265220784 Eh
FINAL SINGLE POINT ENERGY      -422.265220783633

DIPOLE MOMENT
-------------
                                X             Y             Z
Electronic contribution:      1.15591      -0.93750      -0.62950
Nuclear contribution   :     -2.17206       0.85668       1.52203
                        -----------------------------------------
Total Dipole Moment    :     -1.01616      -0.08082       0.89254
                        -----------------------------------------
Magnitude (a.u.)       :      1.35489
Magnitude (Debye)      :      3.44386

                             ****ORCA TERMINATED NORMALLY****
TOTAL RUN TIME: 0 days 0 hours 19 minutes 52 seconds 192 msec
