                         Program Version 3.0.3 - RELEASE   -
|  1> ! RI-MP2 RIJK def2-TZVP def2-TZVP/C def2-TZVP/JK TIGHTSCF
|  2> % maxcore 2000
|  3> % mp2 density relaxed end
|  4> *xyz 0 1
|  5>  C       -0.0245536617     1.4252348235    -0.2465025424
|  6>  C        0.0203099594    -0.0690558316     0.1023291877
|  7>  C        0.7454764783    -0.3290233805     1.4248920285
|  8>  N       -1.3252192691    -0.6477294434     0.1035226260
|  9>  C       -2.2079084097    -0.7314994059     1.1304722151
| 10>  N       -3.3732824850    -1.2252343059     0.7553721535
| 11>  C       -3.2497776566    -1.4611906237    -0.5890898023
| 12>  N       -4.3413276987    -1.9404939945    -1.3216091374
| 13>  C       -1.9938079308    -1.1085281657    -1.0247236843
| 14>  H        0.9891078385     1.8295535967    -0.3305554022
| 15>  H       -0.5412785626     1.5865345294    -1.1961472116
| 16>  H       -0.5559620456     1.9850122525     0.5296786958
| 17>  H        0.5640923707    -0.5946717011    -0.6911620090
| 18>  H        1.7828099253     0.0077650005     1.3454478532
| 19>  H        0.2856254528     0.2213280089     2.2515641306
| 20>  H        0.7444300343    -1.3932469715     1.6741857794
| 21>  H       -1.9592577656    -0.4320531055     2.1361712388
| 22>  H       -5.0177630878    -2.3674984861    -0.7013739737
| 23>  H       -4.0821927984    -2.5895382203    -2.0525363893
| 24>  H       -1.5163480377    -1.1422660260    -1.9895112966
| 25> *
| 26>
| 27>                          ****END OF INPUT****

CARTESIAN COORDINATES (ANGSTROEM)
---------------------------------
  C     -0.024554    1.425235   -0.246503
  C      0.020310   -0.069056    0.102329
  C      0.745476   -0.329023    1.424892
  N     -1.325219   -0.647729    0.103523
  C     -2.207908   -0.731499    1.130472
  N     -3.373282   -1.225234    0.755372
  C     -3.249778   -1.461191   -0.589090
  N     -4.341328   -1.940494   -1.321609
  C     -1.993808   -1.108528   -1.024724
  H      0.989108    1.829554   -0.330555
  H     -0.541279    1.586535   -1.196147
  H     -0.555962    1.985012    0.529679
  H      0.564092   -0.594672   -0.691162
  H      1.782810    0.007765    1.345448
  H      0.285625    0.221328    2.251564
  H      0.744430   -1.393247    1.674186
  H     -1.959258   -0.432053    2.136171
  H     -5.017763   -2.367498   -0.701374
  H     -4.082193   -2.589538   -2.052536
  H     -1.516348   -1.142266   -1.989511

 Total Charge           Charge          ....    0
 Multiplicity           Mult            ....    1
 Number of Electrons    NEL             ....   68
 Basis Dimension        Dim             ....  345

ORBITAL ENERGIES
----------------

  NO   OCC          E(Eh)            E(eV)
   0   2.0000     -15.605637      -424.6510
   1   2.0000     -15.546553      -423.0432
   2   2.0000     -15.529439      -422.5775
   3   2.0000     -11.287907      -307.1596
   4   2.0000     -11.285442      -307.0925
   5   2.0000     -11.272111      -306.7297
   6   2.0000     -11.233689      -305.6842
   7   2.0000     -11.230757      -305.6044
   8   2.0000     -11.227792      -305.5237
   9   2.0000      -1.335392       -36.3379
  10   2.0000      -1.212134       -32.9839
  11   2.0000      -1.152144       -31.3514
  12   2.0000      -1.057467       -28.7751
  13   2.0000      -0.974654       -26.5217
  14   2.0000      -0.949564       -25.8389
  15   2.0000      -0.862812       -23.4783
  16   2.0000      -0.783863       -21.3300
  17   2.0000      -0.766720       -20.8635
  18   2.0000      -0.705514       -19.1980
  19   2.0000      -0.662147       -18.0179
  20   2.0000      -0.640437       -17.4272
  21   2.0000      -0.622960       -16.9516
  22   2.0000      -0.600808       -16.3488
  23   2.0000      -0.585926       -15.9439
  24   2.0000      -0.578252       -15.7350
  25   2.0000      -0.557562       -15.1720
  26   2.0000      -0.550742       -14.9864
  27   2.0000      -0.532251       -14.4833
  28   2.0000      -0.509234       -13.8570
  29   2.0000      -0.499335       -13.5876
  30   2.0000      -0.458962       -12.4890
  31   2.0000      -0.427992       -11.6463
  32   2.0000      -0.364927        -9.9302
  33   2.0000      -0.281263        -7.6536
  34   0.0000       0.126313         3.4372
  35   0.0000       0.146290         3.9807
  36   0.0000       0.155429         4.2294
  37   0.0000       0.159773         4.3476
  38   0.0000       0.177227         4.8226

MULLIKEN ATOMIC CHARGES
-----------------------
   0 C :   -0.375263
   1 C :   -0.051487
   2 C :   -0.398680
   3 N :    0.019644
   4 C :   -0.030433
   5 N :   -0.318699
   6 C :    0.189523
   7 N :   -0.531963
   8 C :   -0.225536
   9 H :    0.131273
  10 H :    0.145528
  11 H :    0.133417
  12 H :    0.109688
  13 H :    0.140598
  14 H :    0.131920
  15 H :    0.152805
  16 H :    0.144571
  17 H :    0.252928
  18 H :    0.240171
  19 H :    0.139996
Sum of atomic charges:    0.0000000

LOEWDIN ATOMIC CHARGES
----------------------
   0 C :   -0.284012
   1 C :   -0.292989
   2 C :   -0.286265
   3 N :    0.262577
   4 C :   -0.313519
   5 N :    0.088746
   6 C :   -0.368588
   7 N :   -0.097760
   8 C :   -0.228734
   9 H :    0.126453
  10 H :    0.127879
  11 H :    0.127714
  12 H :    0.153514
  13 H :    0.130037
  14 H :    0.125698
  15 H :    0.130026
  16 H :    0.131641
  17 H :    0.170657
  18 H :    0.163505
  19 H :    0.133420

  Mayer bond orders larger than 0.1
B(  0-C ,  1-C ) :   0.9284 B(  0-C ,  9-H ) :   0.9336 B(  0-C , 10-H ) :   0.9331
B(  0-C , 11-H ) :   0.9245 B(  1-C ,  2-C ) :   0.9291 B(  1-C ,  3-N ) :   0.8580
B(  1-C , 12-H ) :   0.9314 B(  2-C , 13-H ) :   0.9326 B(  2-C , 14-H ) :   0.9284
B(  2-C , 15-H ) :   0.9359 B(  3-N ,  4-C ) :   1.1918 B(  3-N ,  8-C ) :   1.0967
B(  4-C ,  5-N ) :   1.5364 B(  4-C , 16-H ) :   0.9264 B(  5-N ,  6-C ) :   1.3034
B(  6-C ,  7-N ) :   1.0142 B(  6-C ,  8-C ) :   1.4921 B(  7-N , 17-H ) :   0.8758
B(  7-N , 18-H ) :   0.8831 B(  8-C , 19-H ) :   0.9119

MP2 TOTAL ENERGY:     -398.681170909 Eh
FINAL SINGLE POINT ENERGY      -398.681170909163

DIPOLE MOMENT
-------------
                                X             Y             Z
Electronic contribution:     -7.65137      -4.18805      -0.92011
Nuclear contribution   :      9.10476       4.17528       0.57601
                        -----------------------------------------
Total Dipole Moment    :      1.45339      -0.01277      -0.34410
                        -----------------------------------------
Magnitude (a.u.)       :      1.49363
Magnitude (Debye)      :      3.79650

                             ****ORCA TERMINATED NORMALLY****
TOTAL RUN TIME: 0 days 0 hours 18 minutes 5 seconds 703 msec
