                         Program Version 3.0.3 - RELEASE   -
|  1> ! RI-MP2 RIJK def2-TZVP def2-TZVP/C def2-TZVP/JK TIGHTSCF
|  2> % maxcore 2000
|  3> % mp2 density relaxed end
|  4> *xyz 0 1
|  5>  C        0.0009873864     1.5614174493     0.0309001552
|  6>  C        0.0441443447     0.0588576787     0.0823218424
|  7>  C       -1.2493985304    -0.7972070445     0.2184101219
|  8>  C       -0.3597597673    -1.8659428994     0.8450330717
|  9>  C        0.9811067650    -1.8420949396     0.1009036579
| 10>  C        0.7000676452    -0.8556090476     1.2068927976
| 11>  C        0.9048224711    -0.7439502915    -0.9617561533
| 12>  C        0.3365553830    -1.0241399844    -2.2770236457
| 13>  N       -0.1279915498    -1.2413770001    -3.3137326866
| 14>  H        1.0071666652     1.9941586395     0.0423682159
| 15>  H       -0.5009543742     1.9017478408    -0.8822269667
| 16>  H       -0.5496392508     1.9666858728     0.8861419958
| 17>  H       -1.9239318158    -0.3597701081     0.9598508181
| 18>  H       -1.8030727923    -1.0285144593    -0.6974706025
| 19>  H       -0.6558448173    -2.7428259266     1.4053653836
| 20>  H        1.6556322837    -2.6872817516     0.1122326087
| 21>  H        1.2273207713    -0.6345901565     2.1229935825
| 22>  H        1.8812795020    -0.2661399820    -1.0858193966
| 23> *
| 24>
| 25>                          ****END OF INPUT****

CARTESIAN COORDINATES (ANGSTROEM)
---------------------------------
  C      0.000987    1.561417    0.030900
  C      0.044144    0.058858    0.082322
  C     -1.249399   -0.797207    0.218410
  C     -0.359760   -1.865943    0.845033
  C      0.981107   -1.842095    0.100904
  C      0.700068   -0.855609    1.206893
  C      0.904822   -0.743950   -0.961756
  C      0.336555   -1.024140   -2.277024
  N     -0.127992   -1.241377   -3.313733
  H      1.007167    1.994159    0.042368
  H     -0.500954    1.901748   -0.882227
  H     -0.549639    1.966686    0.886142
  H     -1.923932   -0.359770    0.959851
  H     -1.803073   -1.028514   -0.697471
  H     -0.655845   -2.742826    1.405365
  H      1.655632   -2.687282    0.112233
  H      1.227321   -0.634590    2.122994
  H      1.881280   -0.266140   -1.085819

 Total Charge           Charge          ....    0
 Multiplicity           Mult            ....    1
 Number of Electrons    NEL             ....   64
 Basis Dimension        Dim             ....  333

ORBITAL ENERGIES
----------------

  NO   OCC          E(Eh)            E(eV)
   0   2.0000     -15.563300      -423.4989
   1   2.0000     -11.281022      -306.9722
   2   2.0000     -11.271777      -306.7206
   3   2.0000     -11.264645      -306.5266
   4   2.0000     -11.258408      -306.3569
   5   2.0000     -11.251103      -306.1581
   6   2.0000     -11.249376      -306.1111
   7   2.0000     -11.237282      -305.7820
   8   2.0000     -11.232159      -305.6426
   9   2.0000      -1.257787       -34.2261
  10   2.0000      -1.208336       -32.8805
  11   2.0000      -1.037800       -28.2400
  12   2.0000      -1.015330       -27.6285
  13   2.0000      -0.949623       -25.8406
  14   2.0000      -0.860078       -23.4039
  15   2.0000      -0.792326       -21.5603
  16   2.0000      -0.748954       -20.3801
  17   2.0000      -0.691933       -18.8285
  18   2.0000      -0.677170       -18.4267
  19   2.0000      -0.639932       -17.4134
  20   2.0000      -0.606509       -16.5040
  21   2.0000      -0.580215       -15.7885
  22   2.0000      -0.569856       -15.5066
  23   2.0000      -0.556383       -15.1399
  24   2.0000      -0.548028       -14.9126
  25   2.0000      -0.514571       -14.0022
  26   2.0000      -0.474418       -12.9096
  27   2.0000      -0.464645       -12.6436
  28   2.0000      -0.458183       -12.4678
  29   2.0000      -0.431173       -11.7328
  30   2.0000      -0.411273       -11.1913
  31   2.0000      -0.391001       -10.6397
  32   0.0000       0.126343         3.4380
  33   0.0000       0.147417         4.0114
  34   0.0000       0.158097         4.3020
  35   0.0000       0.168712         4.5909
  36   0.0000       0.178045         4.8448

MULLIKEN ATOMIC CHARGES
-----------------------
   0 C :   -0.397493
   1 C :    0.066823
   2 C :   -0.187207
   3 C :   -0.180878
   4 C :   -0.147518
   5 C :   -0.183402
   6 C :    0.065486
   7 C :   -0.244363
   8 N :   -0.049497
   9 H :    0.134925
  10 H :    0.152365
  11 H :    0.138905
  12 H :    0.116208
  13 H :    0.135465
  14 H :    0.139745
  15 H :    0.148449
  16 H :    0.154805
  17 H :    0.137182
Sum of atomic charges:    0.0000000

LOEWDIN ATOMIC CHARGES
----------------------
   0 C :   -0.270193
   1 C :   -0.178582
   2 C :   -0.167884
   3 C :   -0.156182
   4 C :   -0.128121
   5 C :   -0.100325
   6 C :   -0.165765
   7 C :   -0.167446
   8 N :    0.059712
   9 H :    0.129834
  10 H :    0.137027
  11 H :    0.131689
  12 H :    0.143455
  13 H :    0.134355
  14 H :    0.140314
  15 H :    0.143140
  16 H :    0.136422
  17 H :    0.178551

  Mayer bond orders larger than 0.1
B(  0-C ,  1-C ) :   0.8749 B(  0-C ,  9-H ) :   0.9360 B(  0-C , 10-H ) :   0.9367
B(  0-C , 11-H ) :   0.9359 B(  1-C ,  2-C ) :   0.9497 B(  1-C ,  5-C ) :   0.8946
B(  1-C ,  6-C ) :   0.9115 B(  2-C ,  3-C ) :   0.9553 B(  2-C , 12-H ) :   0.9285
B(  2-C , 13-H ) :   0.9064 B(  3-C ,  4-C ) :   0.8422 B(  3-C ,  5-C ) :   0.8560
B(  3-C , 14-H ) :   0.9355 B(  4-C ,  5-C ) :   0.8377 B(  4-C ,  6-C ) :   0.9184
B(  4-C , 15-H ) :   0.9264 B(  5-C , 16-H ) :   0.9052 B(  6-C ,  7-C ) :   0.9289
B(  6-C , 17-H ) :   0.9029 B(  7-C ,  8-N ) :   2.8712

MP2 TOTAL ENERGY:     -364.121891222 Eh
FINAL SINGLE POINT ENERGY      -364.121891221592

DIPOLE MOMENT
-------------
                                X             Y             Z
Electronic contribution:      1.18597      -3.92828      -4.80520
Nuclear contribution   :     -0.73760       4.30808       6.39680
                        -----------------------------------------
Total Dipole Moment    :      0.44837       0.37980       1.59160
                        -----------------------------------------
Magnitude (a.u.)       :      1.69661
Magnitude (Debye)      :      4.31244

                             ****ORCA TERMINATED NORMALLY****
TOTAL RUN TIME: 0 days 0 hours 20 minutes 24 seconds 717 msec
