                         Program Version 3.0.3 - RELEASE   -
|  1> ! RI-MP2 RIJK def2-TZVP def2-TZVP/C def2-TZVP/JK TIGHTSCF
|  2> % maxcore 2000
|  3> % mp2 density relaxed end
|  4> *xyz 0 1
|  5>  C       -4.3293038416     2.3922838484    -0.3456315913
|  6>  C       -3.3282887724     1.8291105424     0.6678856710
|  7>  C       -3.9246005353     1.7773120779     2.0779364706
|  8>  N       -2.9767537922     0.4675739125     0.2589485401
|  9>  C       -1.9345182705     0.1975708375    -0.7323602758
| 10>  C       -1.1061319687     1.2676323580    -1.4183878788
| 11>  C       -1.7450772375    -0.1886517967     0.7017591921
| 12>  C       -0.6959570584     0.4547488177     1.5766174995
| 13>  O       -1.0384583143     0.1802380197     2.9326366657
| 14>  H       -4.6378229049     3.4031345201    -0.0603545902
| 15>  H       -3.8983216333     2.4410729946    -1.3501656217
| 16>  H       -5.2182565795     1.7554012616    -0.3902167953
| 17>  H       -2.4572101003     2.5049347655     0.6914619315
| 18>  H       -3.2037142758     1.3654543350     2.7884048725
| 19>  H       -4.2118365973     2.7809039813     2.4085336527
| 20>  H       -4.8157240320     1.1413963882     2.0860865962
| 21>  H       -2.2099632070    -0.6073709536    -1.4150461408
| 22>  H       -0.8226098895     2.0901813359    -0.7597530904
| 23>  H       -0.1846015109     0.8265738492    -1.8143454712
| 24>  H       -1.6524431275     1.6932072178    -2.2667530794
| 25>  H       -1.8902512654    -1.2346303627     0.9733506137
| 26>  H        0.2837696878     0.0146858766     1.3287902642
| 27>  H       -0.6224506727     1.5353187505     1.4013374682
| 28>  H       -0.3563662406     0.5581970926     3.4958828171
| 29> *
| 30>
| 31>                          ****END OF INPUT****

CARTESIAN COORDINATES (ANGSTROEM)
---------------------------------
  C     -4.329304    2.392284   -0.345632
  C     -3.328289    1.829111    0.667886
  C     -3.924601    1.777312    2.077936
  N     -2.976754    0.467574    0.258949
  C     -1.934518    0.197571   -0.732360
  C     -1.106132    1.267632   -1.418388
  C     -1.745077   -0.188652    0.701759
  C     -0.695957    0.454749    1.576617
  O     -1.038458    0.180238    2.932637
  H     -4.637823    3.403135   -0.060355
  H     -3.898322    2.441073   -1.350166
  H     -5.218257    1.755401   -0.390217
  H     -2.457210    2.504935    0.691462
  H     -3.203714    1.365454    2.788405
  H     -4.211837    2.780904    2.408534
  H     -4.815724    1.141396    2.086087
  H     -2.209963   -0.607371   -1.415046
  H     -0.822610    2.090181   -0.759753
  H     -0.184602    0.826574   -1.814345
  H     -1.652443    1.693207   -2.266753
  H     -1.890251   -1.234630    0.973351
  H      0.283770    0.014686    1.328790
  H     -0.622451    1.535319    1.401337
  H     -0.356366    0.558197    3.495883

 Total Charge           Charge          ....    0
 Multiplicity           Mult            ....    1
 Number of Electrons    NEL             ....   72
 Basis Dimension        Dim             ....  369

ORBITAL ENERGIES
----------------

  NO   OCC          E(Eh)            E(eV)
   0   2.0000     -20.559443      -559.4509
   1   2.0000     -15.544195      -422.9790
   2   2.0000     -11.282673      -307.0171
   3   2.0000     -11.255431      -306.2758
   4   2.0000     -11.249630      -306.1180
   5   2.0000     -11.249444      -306.1129
   6   2.0000     -11.224618      -305.4374
   7   2.0000     -11.204374      -304.8865
   8   2.0000     -11.196241      -304.6652
   9   2.0000      -1.363473       -37.1020
  10   2.0000      -1.263232       -34.3743
  11   2.0000      -1.063499       -28.9393
  12   2.0000      -0.987017       -26.8581
  13   2.0000      -0.966337       -26.2954
  14   2.0000      -0.920094       -25.0370
  15   2.0000      -0.860628       -23.4189
  16   2.0000      -0.769870       -20.9492
  17   2.0000      -0.738855       -20.1053
  18   2.0000      -0.707309       -19.2468
  19   2.0000      -0.677151       -18.4262
  20   2.0000      -0.633229       -17.2310
  21   2.0000      -0.623774       -16.9738
  22   2.0000      -0.597772       -16.2662
  23   2.0000      -0.574619       -15.6362
  24   2.0000      -0.560433       -15.2502
  25   2.0000      -0.549838       -14.9618
  26   2.0000      -0.544125       -14.8064
  27   2.0000      -0.526718       -14.3327
  28   2.0000      -0.524020       -14.2593
  29   2.0000      -0.493323       -13.4240
  30   2.0000      -0.484895       -13.1947
  31   2.0000      -0.478334       -13.0161
  32   2.0000      -0.452702       -12.3186
  33   2.0000      -0.433045       -11.7837
  34   2.0000      -0.423068       -11.5123
  35   2.0000      -0.353000        -9.6056
  36   0.0000       0.128190         3.4882
  37   0.0000       0.143780         3.9124
  38   0.0000       0.162732         4.4282
  39   0.0000       0.168033         4.5724
  40   0.0000       0.188702         5.1348

MULLIKEN ATOMIC CHARGES
-----------------------
   0 C :   -0.383313
   1 C :    0.049232
   2 C :   -0.398405
   3 N :   -0.217169
   4 C :   -0.055318
   5 C :   -0.397836
   6 C :   -0.044532
   7 C :   -0.076042
   8 O :   -0.463861
   9 H :    0.122552
  10 H :    0.121630
  11 H :    0.129268
  12 H :    0.058372
  13 H :    0.158664
  14 H :    0.115879
  15 H :    0.123000
  16 H :    0.115105
  17 H :    0.123514
  18 H :    0.141612
  19 H :    0.138590
  20 H :    0.116907
  21 H :    0.109842
  22 H :    0.097311
  23 H :    0.314997
Sum of atomic charges:   -0.0000000

LOEWDIN ATOMIC CHARGES
----------------------
   0 C :   -0.291298
   1 C :   -0.344049
   2 C :   -0.292495
   3 N :    0.152995
   4 C :   -0.256296
   5 C :   -0.300174
   6 C :   -0.240906
   7 C :   -0.333936
   8 O :   -0.046494
   9 H :    0.122891
  10 H :    0.119551
  11 H :    0.126432
  12 H :    0.130161
  13 H :    0.127294
  14 H :    0.120852
  15 H :    0.125579
  16 H :    0.141967
  17 H :    0.121733
  18 H :    0.130477
  19 H :    0.126413
  20 H :    0.146662
  21 H :    0.124218
  22 H :    0.117250
  23 H :    0.171174

  Mayer bond orders larger than 0.1
B(  0-C ,  1-C ) :   0.9035 B(  0-C ,  9-H ) :   0.9387 B(  0-C , 10-H ) :   0.9404
B(  0-C , 11-H ) :   0.9343 B(  1-C ,  2-C ) :   0.9113 B(  1-C ,  3-N ) :   0.8650
B(  1-C , 12-H ) :   0.9287 B(  2-C , 13-H ) :   0.9298 B(  2-C , 14-H ) :   0.9367
B(  2-C , 15-H ) :   0.9324 B(  3-N ,  4-C ) :   0.9118 B(  3-N ,  6-C ) :   0.9017
B(  4-C ,  5-C ) :   0.8958 B(  4-C ,  6-C ) :   0.9179 B(  4-C , 16-H ) :   0.9190
B(  5-C , 17-H ) :   0.9384 B(  5-C , 18-H ) :   0.9309 B(  5-C , 19-H ) :   0.9366
B(  6-C ,  7-C ) :   0.9193 B(  6-C , 20-H ) :   0.9203 B(  7-C ,  8-O ) :   1.0007
B(  7-C , 21-H ) :   0.9210 B(  7-C , 22-H ) :   0.9257 B(  8-O , 23-H ) :   0.8463

MP2 TOTAL ENERGY:     -404.829863334 Eh
FINAL SINGLE POINT ENERGY      -404.829863333992

DIPOLE MOMENT
-------------
                                X             Y             Z
Electronic contribution:      2.04206      -5.09876       2.72882
Nuclear contribution   :     -1.04754       5.63607      -2.88564
                        -----------------------------------------
Total Dipole Moment    :      0.99452       0.53731      -0.15682
                        -----------------------------------------
Magnitude (a.u.)       :      1.14121
Magnitude (Debye)      :      2.90072

                             ****ORCA TERMINATED NORMALLY****
TOTAL RUN TIME: 0 days 0 hours 20 minutes 15 seconds 610 msec
