                         Program Version 3.0.3 - RELEASE   -
|  1> ! RI-MP2 RIJK def2-TZVP def2-TZVP/C def2-TZVP/JK TIGHTSCF
|  2> % maxcore 2000
|  3> % mp2 density relaxed end
|  4> *xyz 0 1
|  5>  O       -0.7841513667     0.8239651550     0.4168968515
|  6>  C        0.2361222424     0.7464266772    -0.2173328264
|  7>  C        1.3949677962     1.7074479657    -0.0725178382
|  8>  N        2.6913705906     1.2130861357    -0.5801957889
|  9>  C        2.9532631620     2.4668844153    -1.3322338823
| 10>  C        3.0714111085     2.2694735590    -2.8423601101
| 11>  C        1.6208936629     1.9475268614    -3.2304577092
| 12>  O        0.8005631795     2.7136680728    -2.3383543319
| 13>  C        1.4726216300     2.8857572985    -1.1150254475
| 14>  H        0.4020926027    -0.0480365812    -0.9791153284
| 15>  H        1.4001508894     2.1028926020     0.9512842676
| 16>  H        3.3757252292     0.9699147684     0.1254589104
| 17>  H        3.7173636650     3.1214958285    -0.9030150585
| 18>  H        3.4036227352     3.1987323273    -3.3171998478
| 19>  H        3.7657742009     1.4683223931    -3.1060334417
| 20>  H        1.3568864162     2.2407667067    -4.2492587776
| 21>  H        1.4184935081     0.8752165892    -3.1085830238
| 22>  H        1.2233400779     3.8692362456    -0.7161195273
| 23> *
| 24>
| 25>                          ****END OF INPUT****

CARTESIAN COORDINATES (ANGSTROEM)
---------------------------------
  O     -0.784151    0.823965    0.416897
  C      0.236122    0.746427   -0.217333
  C      1.394968    1.707448   -0.072518
  N      2.691371    1.213086   -0.580196
  C      2.953263    2.466884   -1.332234
  C      3.071411    2.269474   -2.842360
  C      1.620894    1.947527   -3.230458
  O      0.800563    2.713668   -2.338354
  C      1.472622    2.885757   -1.115025
  H      0.402093   -0.048037   -0.979115
  H      1.400151    2.102893    0.951284
  H      3.375725    0.969915    0.125459
  H      3.717364    3.121496   -0.903015
  H      3.403623    3.198732   -3.317200
  H      3.765774    1.468322   -3.106033
  H      1.356886    2.240767   -4.249259
  H      1.418494    0.875217   -3.108583
  H      1.223340    3.869236   -0.716120

 Total Charge           Charge          ....    0
 Multiplicity           Mult            ....    1
 Number of Electrons    NEL             ....   68
 Basis Dimension        Dim             ....  333

ORBITAL ENERGIES
----------------

  NO   OCC          E(Eh)            E(eV)
   0   2.0000     -20.566865      -559.6529
   1   2.0000     -20.553636      -559.2929
   2   2.0000     -15.563346      -423.5002
   3   2.0000     -11.325135      -308.1726
   4   2.0000     -11.298180      -307.4391
   5   2.0000     -11.282007      -306.9990
   6   2.0000     -11.274707      -306.8004
   7   2.0000     -11.273115      -306.7571
   8   2.0000     -11.234437      -305.7046
   9   2.0000      -1.397603       -38.0307
  10   2.0000      -1.390236       -37.8302
  11   2.0000      -1.247424       -33.9441
  12   2.0000      -1.053951       -28.6795
  13   2.0000      -0.987209       -26.8633
  14   2.0000      -0.959041       -26.0968
  15   2.0000      -0.840839       -22.8804
  16   2.0000      -0.801926       -21.8215
  17   2.0000      -0.759906       -20.6781
  18   2.0000      -0.735442       -20.0124
  19   2.0000      -0.679154       -18.4807
  20   2.0000      -0.673560       -18.3285
  21   2.0000      -0.643833       -17.5196
  22   2.0000      -0.625679       -17.0256
  23   2.0000      -0.598109       -16.2754
  24   2.0000      -0.581849       -15.8329
  25   2.0000      -0.563718       -15.3396
  26   2.0000      -0.536289       -14.5932
  27   2.0000      -0.520198       -14.1553
  28   2.0000      -0.502553       -13.6752
  29   2.0000      -0.484243       -13.1769
  30   2.0000      -0.482172       -13.1206
  31   2.0000      -0.429093       -11.6762
  32   2.0000      -0.407719       -11.0946
  33   2.0000      -0.392452       -10.6792
  34   0.0000       0.121656         3.3104
  35   0.0000       0.123267         3.3543
  36   0.0000       0.152825         4.1586
  37   0.0000       0.164515         4.4767
  38   0.0000       0.180094         4.9006

MULLIKEN ATOMIC CHARGES
-----------------------
   0 O :   -0.258203
   1 C :    0.060870
   2 C :    0.025170
   3 N :   -0.398209
   4 C :   -0.030150
   5 C :   -0.226131
   6 C :   -0.069985
   7 O :   -0.322447
   8 C :    0.094411
   9 H :    0.079081
  10 H :    0.109902
  11 H :    0.211409
  12 H :    0.120720
  13 H :    0.116779
  14 H :    0.122365
  15 H :    0.127992
  16 H :    0.104042
  17 H :    0.132386
Sum of atomic charges:   -0.0000000

LOEWDIN ATOMIC CHARGES
----------------------
   0 O :    0.138226
   1 C :   -0.276952
   2 C :   -0.256612
   3 N :    0.023868
   4 C :   -0.249418
   5 C :   -0.246288
   6 C :   -0.289509
   7 O :    0.179880
   8 C :   -0.245550
   9 H :    0.111987
  10 H :    0.146905
  11 H :    0.159683
  12 H :    0.136266
  13 H :    0.140736
  14 H :    0.142660
  15 H :    0.126846
  16 H :    0.120759
  17 H :    0.136512

  Mayer bond orders larger than 0.1
B(  0-O ,  1-C ) :   2.0037 B(  1-C ,  2-C ) :   0.8341 B(  1-C ,  9-H ) :   0.9399
B(  2-C ,  3-N ) :   0.9292 B(  2-C ,  8-C ) :   0.8656 B(  2-C , 10-H ) :   0.8966
B(  3-N ,  4-C ) :   1.0094 B(  3-N , 11-H ) :   0.8816 B(  4-C ,  5-C ) :   0.9085
B(  4-C ,  8-C ) :   0.9010 B(  4-C , 12-H ) :   0.9201 B(  5-C ,  6-C ) :   0.9706
B(  5-C , 13-H ) :   0.9204 B(  5-C , 14-H ) :   0.9171 B(  6-C ,  7-O ) :   0.8935
B(  6-C , 15-H ) :   0.9332 B(  6-C , 16-H ) :   0.9248 B(  7-O ,  8-C ) :   0.9851
B(  8-C , 17-H ) :   0.9297

MP2 TOTAL ENERGY:     -438.350805503 Eh
FINAL SINGLE POINT ENERGY      -438.350805502919

DIPOLE MOMENT
-------------
                                X             Y             Z
Electronic contribution:     -4.71569      -0.69547       3.50643
Nuclear contribution   :      6.34820       1.02287      -3.71107
                        -----------------------------------------
Total Dipole Moment    :      1.63250       0.32740      -0.20464
                        -----------------------------------------
Magnitude (a.u.)       :      1.67754
Magnitude (Debye)      :      4.26397

                             ****ORCA TERMINATED NORMALLY****
TOTAL RUN TIME: 0 days 0 hours 17 minutes 6 seconds 877 msec
