                         Program Version 3.0.3 - RELEASE   -
|  1> ! RI-MP2 RIJK def2-TZVP def2-TZVP/C def2-TZVP/JK TIGHTSCF
|  2> % maxcore 2000
|  3> % mp2 density relaxed end
|  4> *xyz 0 1
|  5>  C       -0.0050062202     1.5846042068    -0.0330166470
|  6>  C        0.0296293610     0.0442381843    -0.0381805625
|  7>  C        0.7667433363    -0.5004803344     1.2196709679
|  8>  N        2.1493921292    -0.0464971886     1.2550355047
|  9>  C       -1.4072150293    -0.5555154847    -0.0429156505
| 10>  C       -2.2384646516    -0.0893381931    -1.1495686609
| 11>  N       -2.8988220658     0.2885089621    -2.0187431752
| 12>  C        0.7553757705    -0.4360153131    -1.2258811997
| 13>  N        1.3571326346    -0.8354370214    -2.1282876548
| 14>  H        1.0092189298     1.9726942707     0.0628946265
| 15>  H       -0.4603131494     1.9725485619    -0.9465263243
| 16>  H       -0.5928265895     1.9314525485     0.8232031874
| 17>  H        0.2491933868    -0.0970516296     2.0974929573
| 18>  H        0.6451385977    -1.5964219999     1.2437583954
| 19>  H        2.5558978235    -0.2245867515     2.1663283311
| 20>  H        2.7070035310    -0.5538318562     0.5745601770
| 21>  H       -1.3578660487    -1.6488537057    -0.0761540649
| 22>  H       -1.8972326159    -0.2807819262     0.8981422424
| 23> *
| 24>
| 25>                          ****END OF INPUT****

CARTESIAN COORDINATES (ANGSTROEM)
---------------------------------
  C     -0.005006    1.584604   -0.033017
  C      0.029629    0.044238   -0.038181
  C      0.766743   -0.500480    1.219671
  N      2.149392   -0.046497    1.255036
  C     -1.407215   -0.555515   -0.042916
  C     -2.238465   -0.089338   -1.149569
  N     -2.898822    0.288509   -2.018743
  C      0.755376   -0.436015   -1.225881
  N      1.357133   -0.835437   -2.128288
  H      1.009219    1.972694    0.062895
  H     -0.460313    1.972549   -0.946526
  H     -0.592827    1.931453    0.823203
  H      0.249193   -0.097052    2.097493
  H      0.645139   -1.596422    1.243758
  H      2.555898   -0.224587    2.166328
  H      2.707004   -0.553832    0.574560
  H     -1.357866   -1.648854   -0.076154
  H     -1.897233   -0.280782    0.898142

 Total Charge           Charge          ....    0
 Multiplicity           Mult            ....    1
 Number of Electrons    NEL             ....   66
 Basis Dimension        Dim             ....  333

ORBITAL ENERGIES
----------------

  NO   OCC          E(Eh)            E(eV)
   0   2.0000     -15.581767      -424.0014
   1   2.0000     -15.581552      -423.9956
   2   2.0000     -15.568784      -423.6481
   3   2.0000     -11.317554      -307.9663
   4   2.0000     -11.308632      -307.7235
   5   2.0000     -11.296340      -307.3891
   6   2.0000     -11.284764      -307.0740
   7   2.0000     -11.281478      -306.9846
   8   2.0000     -11.246255      -306.0261
   9   2.0000      -1.243460       -33.8363
  10   2.0000      -1.228500       -33.4292
  11   2.0000      -1.212131       -32.9838
  12   2.0000      -1.136601       -30.9285
  13   2.0000      -1.013015       -27.5655
  14   2.0000      -0.949540       -25.8383
  15   2.0000      -0.876517       -23.8512
  16   2.0000      -0.735285       -20.0081
  17   2.0000      -0.706606       -19.2277
  18   2.0000      -0.692424       -18.8418
  19   2.0000      -0.667915       -18.1749
  20   2.0000      -0.632395       -17.2083
  21   2.0000      -0.609015       -16.5721
  22   2.0000      -0.587085       -15.9754
  23   2.0000      -0.575808       -15.6685
  24   2.0000      -0.565043       -15.3756
  25   2.0000      -0.549932       -14.9644
  26   2.0000      -0.544279       -14.8106
  27   2.0000      -0.533329       -14.5126
  28   2.0000      -0.482137       -13.1196
  29   2.0000      -0.470325       -12.7982
  30   2.0000      -0.469883       -12.7862
  31   2.0000      -0.459477       -12.5030
  32   2.0000      -0.423430       -11.5221
  33   0.0000       0.104146         2.8340
  34   0.0000       0.128162         3.4875
  35   0.0000       0.143049         3.8926
  36   0.0000       0.152579         4.1519
  37   0.0000       0.160388         4.3644

MULLIKEN ATOMIC CHARGES
-----------------------
   0 C :   -0.440181
   1 C :    0.245335
   2 C :   -0.134006
   3 N :   -0.553199
   4 C :   -0.128738
   5 C :   -0.189614
   6 N :   -0.039832
   7 C :   -0.283125
   8 N :   -0.037342
   9 H :    0.176734
  10 H :    0.172299
  11 H :    0.135097
  12 H :    0.124858
  13 H :    0.124849
  14 H :    0.239576
  15 H :    0.249737
  16 H :    0.170110
  17 H :    0.167443
Sum of atomic charges:   -0.0000000

LOEWDIN ATOMIC CHARGES
----------------------
   0 C :   -0.236890
   1 C :   -0.284845
   2 C :   -0.281002
   3 N :   -0.161383
   4 C :   -0.190064
   5 C :   -0.186836
   6 N :    0.072963
   7 C :   -0.152946
   8 N :    0.076130
   9 H :    0.140437
  10 H :    0.138910
  11 H :    0.132292
  12 H :    0.139845
  13 H :    0.127743
  14 H :    0.158186
  15 H :    0.163022
  16 H :    0.172540
  17 H :    0.171899

  Mayer bond orders larger than 0.1
B(  0-C ,  1-C ) :   0.8958 B(  0-C ,  9-H ) :   0.9227 B(  0-C , 10-H ) :   0.9217
B(  0-C , 11-H ) :   0.9273 B(  1-C ,  2-C ) :   0.8618 B(  1-C ,  4-C ) :   0.8679
B(  1-C ,  7-C ) :   0.8958 B(  2-C ,  3-N ) :   1.0355 B(  2-C , 12-H ) :   0.9177
B(  2-C , 13-H ) :   0.9267 B(  3-N , 14-H ) :   0.8864 B(  3-N , 15-H ) :   0.8783
B(  4-C ,  5-C ) :   0.9537 B(  4-C , 16-H ) :   0.8931 B(  4-C , 17-H ) :   0.9016
B(  5-C ,  6-N ) :   2.8649 B(  7-C ,  8-N ) :   2.8712

MP2 TOTAL ENERGY:     -397.471298986 Eh
FINAL SINGLE POINT ENERGY      -397.471298986213

DIPOLE MOMENT
-------------
                                X             Y             Z
Electronic contribution:     -3.25813      -2.15838      -7.32083
Nuclear contribution   :      3.63399       1.81035       9.76116
                        -----------------------------------------
Total Dipole Moment    :      0.37586      -0.34803       2.44033
                        -----------------------------------------
Magnitude (a.u.)       :      2.49351
Magnitude (Debye)      :      6.33800

                             ****ORCA TERMINATED NORMALLY****
TOTAL RUN TIME: 0 days 0 hours 16 minutes 57 seconds 987 msec
