                         Program Version 3.0.3 - RELEASE   -
|  1> ! RI-MP2 RIJK def2-TZVP def2-TZVP/C def2-TZVP/JK TIGHTSCF
|  2> % maxcore 2000
|  3> % mp2 density relaxed end
|  4> *xyz 0 1
|  5>  C        0.0836327843     1.2271779017     0.2619384201
|  6>  O       -0.0267709996    -0.0640963614    -0.2954089041
|  7>  C       -1.2869550321    -0.6352142478    -0.1320268366
|  8>  C       -1.4449293181    -2.0621436712    -0.6124415084
|  9>  C       -1.0556309733    -2.9324428712     0.6180480088
| 10>  O       -0.6393134874    -2.0572238908     1.6590563484
| 11>  C       -1.7163040214    -1.1739139055     1.2747230862
| 12>  C       -2.4340831652    -2.3686394490     0.4927949651
| 13>  O       -3.7093188869    -2.8430310709     0.3842610326
| 14>  H        1.0854634141     1.5955807275     0.0305920379
| 15>  H       -0.6576609060     1.9200943459    -0.1671556630
| 16>  H       -0.0434523340     1.2159818620     1.3541958309
| 17>  H       -2.0837042821     0.0085356472    -0.5372718964
| 18>  H       -1.4244223064    -2.4496165062    -1.6220510636
| 19>  H       -0.6361401458    -3.9266930775     0.5492336733
| 20>  H       -2.0827497030    -0.5436739545     2.0820302051
| 21>  H       -3.9426780570    -3.2867522581     1.2084428036
| 22> *
| 23>
| 24>                          ****END OF INPUT****

CARTESIAN COORDINATES (ANGSTROEM)
---------------------------------
  C      0.083633    1.227178    0.261938
  O     -0.026771   -0.064096   -0.295409
  C     -1.286955   -0.635214   -0.132027
  C     -1.444929   -2.062144   -0.612442
  C     -1.055631   -2.932443    0.618048
  O     -0.639313   -2.057224    1.659056
  C     -1.716304   -1.173914    1.274723
  C     -2.434083   -2.368639    0.492795
  O     -3.709319   -2.843031    0.384261
  H      1.085463    1.595581    0.030592
  H     -0.657661    1.920094   -0.167156
  H     -0.043452    1.215982    1.354196
  H     -2.083704    0.008536   -0.537272
  H     -1.424422   -2.449617   -1.622051
  H     -0.636140   -3.926693    0.549234
  H     -2.082750   -0.543674    2.082030
  H     -3.942678   -3.286752    1.208443

 Total Charge           Charge          ....    0
 Multiplicity           Mult            ....    1
 Number of Electrons    NEL             ....   68
 Basis Dimension        Dim             ....  327

ORBITAL ENERGIES
----------------

  NO   OCC          E(Eh)            E(eV)
   0   2.0000     -20.591568      -560.3250
   1   2.0000     -20.559185      -559.4439
   2   2.0000     -20.555577      -559.3457
   3   2.0000     -11.304865      -307.6210
   4   2.0000     -11.296628      -307.3969
   5   2.0000     -11.293458      -307.3106
   6   2.0000     -11.291086      -307.2461
   7   2.0000     -11.271100      -306.7022
   8   2.0000     -11.240190      -305.8611
   9   2.0000      -1.423503       -38.7355
  10   2.0000      -1.392965       -37.9045
  11   2.0000      -1.374382       -37.3988
  12   2.0000      -1.150762       -31.3138
  13   2.0000      -0.987628       -26.8747
  14   2.0000      -0.933891       -25.4125
  15   2.0000      -0.861163       -23.4334
  16   2.0000      -0.796125       -21.6637
  17   2.0000      -0.772128       -21.0107
  18   2.0000      -0.734821       -19.9955
  19   2.0000      -0.688863       -18.7449
  20   2.0000      -0.676046       -18.3961
  21   2.0000      -0.646532       -17.5930
  22   2.0000      -0.626523       -17.0486
  23   2.0000      -0.608035       -16.5455
  24   2.0000      -0.592745       -16.1294
  25   2.0000      -0.575335       -15.6556
  26   2.0000      -0.555084       -15.1046
  27   2.0000      -0.530763       -14.4428
  28   2.0000      -0.505599       -13.7580
  29   2.0000      -0.483259       -13.1501
  30   2.0000      -0.448325       -12.1995
  31   2.0000      -0.404492       -11.0068
  32   2.0000      -0.402176       -10.9438
  33   2.0000      -0.376608       -10.2480
  34   0.0000       0.132252         3.5988
  35   0.0000       0.144664         3.9365
  36   0.0000       0.173408         4.7187
  37   0.0000       0.180388         4.9086
  38   0.0000       0.189122         5.1463

MULLIKEN ATOMIC CHARGES
-----------------------
   0 C :   -0.223822
   1 O :   -0.296316
   2 C :    0.071808
   3 C :   -0.113252
   4 C :   -0.040794
   5 O :   -0.307098
   6 C :    0.031325
   7 C :    0.064277
   8 O :   -0.434131
   9 H :    0.143839
  10 H :    0.108868
  11 H :    0.116996
  12 H :    0.089990
  13 H :    0.149219
  14 H :    0.149863
  15 H :    0.150065
  16 H :    0.339163
Sum of atomic charges:   -0.0000000

LOEWDIN ATOMIC CHARGES
----------------------
   0 C :   -0.350526
   1 O :    0.172838
   2 C :   -0.299580
   3 C :   -0.123567
   4 C :   -0.219521
   5 O :    0.182805
   6 C :   -0.186850
   7 C :   -0.290986
   8 O :    0.047486
   9 H :    0.115044
  10 H :    0.101526
  11 H :    0.104029
  12 H :    0.144831
  13 H :    0.143864
  14 H :    0.136699
  15 H :    0.127711
  16 H :    0.194198

  Mayer bond orders larger than 0.1
B(  0-C ,  1-O ) :   0.9100 B(  0-C ,  9-H ) :   0.9422 B(  0-C , 10-H ) :   0.9336
B(  0-C , 11-H ) :   0.9327 B(  1-O ,  2-C ) :   1.0385 B(  2-C ,  3-C ) :   0.8969
B(  2-C ,  6-C ) :   0.9230 B(  2-C , 12-H ) :   0.9523 B(  3-C ,  4-C ) :   0.8197
B(  3-C ,  7-C ) :   0.8108 B(  3-C , 13-H ) :   0.9058 B(  4-C ,  5-O ) :   0.9705
B(  4-C ,  7-C ) :   0.9324 B(  4-C , 14-H ) :   0.9135 B(  5-O ,  6-C ) :   0.8923
B(  6-C ,  7-C ) :   0.8990 B(  6-C , 15-H ) :   0.8998 B(  7-C ,  8-O ) :   1.0657
B(  8-O , 16-H ) :   0.8296

MP2 TOTAL ENERGY:     -458.132806586 Eh
FINAL SINGLE POINT ENERGY      -458.132806585625

DIPOLE MOMENT
-------------
                                X             Y             Z
Electronic contribution:     -1.63342      -5.35260       0.69329
Nuclear contribution   :      1.01970       5.42583      -0.42208
                        -----------------------------------------
Total Dipole Moment    :     -0.61372       0.07323       0.27121
                        -----------------------------------------
Magnitude (a.u.)       :      0.67496
Magnitude (Debye)      :      1.71562

                             ****ORCA TERMINATED NORMALLY****
TOTAL RUN TIME: 0 days 0 hours 15 minutes 51 seconds 202 msec
