                         Program Version 3.0.3 - RELEASE   -
|  1> ! RI-MP2 RIJK def2-TZVP def2-TZVP/C def2-TZVP/JK TIGHTSCF
|  2> % maxcore 2000
|  3> % mp2 density relaxed end
|  4> *xyz 0 1
|  5>  O        0.0439457680     0.0019630355    -0.3582863278
|  6>  C       -0.0037160590     1.1541866480    -0.0395776279
|  7>  C       -1.1439301591     2.1135516109     0.3322824456
|  8>  C       -0.0653729896     3.1387304122     0.8021015141
|  9>  C       -0.0921494482     4.6553916217     0.4315160115
| 10>  C        0.0304794794     5.0068717088     1.9190103144
| 11>  C       -1.1097321972     4.3996578155     2.6848786583
| 12>  C        0.0429954885     3.5210958435     2.2826265661
| 13>  C        1.0614311289     2.2318242564     0.2204091099
| 14>  H       -1.7117287974     2.4345409267    -0.5485507445
| 15>  H       -1.8493790399     1.7475378049     1.0841581497
| 16>  H        0.7831502164     4.9435221748    -0.1565085463
| 17>  H       -0.9917104766     5.0229139311    -0.0753975131
| 18>  H        0.6306686629     5.8108173543     2.3262430142
| 19>  H       -1.1521299971     4.6511008237     3.7398406118
| 20>  H       -2.0852516301     4.2793372003     2.2175383759
| 21>  H        0.6481830447     2.9971550312     3.0142156999
| 22>  H        1.8751192919     1.9457604195     0.8937448288
| 23>  H        1.5002854335     2.6073544108    -0.7111001506
| 24> *
| 25>
| 26>                          ****END OF INPUT****

CARTESIAN COORDINATES (ANGSTROEM)
---------------------------------
  O      0.043946    0.001963   -0.358286
  C     -0.003716    1.154187   -0.039578
  C     -1.143930    2.113552    0.332282
  C     -0.065373    3.138730    0.802102
  C     -0.092149    4.655392    0.431516
  C      0.030479    5.006872    1.919010
  C     -1.109732    4.399658    2.684879
  C      0.042995    3.521096    2.282627
  C      1.061431    2.231824    0.220409
  H     -1.711729    2.434541   -0.548551
  H     -1.849379    1.747538    1.084158
  H      0.783150    4.943522   -0.156509
  H     -0.991710    5.022914   -0.075398
  H      0.630669    5.810817    2.326243
  H     -1.152130    4.651101    3.739841
  H     -2.085252    4.279337    2.217538
  H      0.648183    2.997155    3.014216
  H      1.875119    1.945760    0.893745
  H      1.500285    2.607354   -0.711100

 Total Charge           Charge          ....    0
 Multiplicity           Mult            ....    1
 Number of Electrons    NEL             ....   66
 Basis Dimension        Dim             ....  339

ORBITAL ENERGIES
----------------

  NO   OCC          E(Eh)            E(eV)
   0   2.0000     -20.548924      -559.1646
   1   2.0000     -11.329334      -308.2869
   2   2.0000     -11.255331      -306.2731
   3   2.0000     -11.241454      -305.8955
   4   2.0000     -11.240326      -305.8648
   5   2.0000     -11.238309      -305.8099
   6   2.0000     -11.235770      -305.7408
   7   2.0000     -11.235583      -305.7358
   8   2.0000     -11.235575      -305.7355
   9   2.0000      -1.391716       -37.8705
  10   2.0000      -1.206747       -32.8373
  11   2.0000      -1.114386       -30.3240
  12   2.0000      -0.970245       -26.4017
  13   2.0000      -0.932387       -25.3715
  14   2.0000      -0.870205       -23.6795
  15   2.0000      -0.803547       -21.8656
  16   2.0000      -0.732718       -19.9383
  17   2.0000      -0.720409       -19.6033
  18   2.0000      -0.692961       -18.8564
  19   2.0000      -0.653164       -17.7735
  20   2.0000      -0.641323       -17.4513
  21   2.0000      -0.620177       -16.8759
  22   2.0000      -0.591972       -16.1084
  23   2.0000      -0.584125       -15.8948
  24   2.0000      -0.566142       -15.4055
  25   2.0000      -0.533307       -14.5120
  26   2.0000      -0.508546       -13.8382
  27   2.0000      -0.491005       -13.3609
  28   2.0000      -0.464237       -12.6325
  29   2.0000      -0.453226       -12.3329
  30   2.0000      -0.416471       -11.3328
  31   2.0000      -0.394423       -10.7328
  32   2.0000      -0.383935       -10.4474
  33   0.0000       0.125807         3.4234
  34   0.0000       0.137128         3.7315
  35   0.0000       0.152151         4.1402
  36   0.0000       0.156262         4.2521
  37   0.0000       0.166144         4.5210

MULLIKEN ATOMIC CHARGES
-----------------------
   0 O :   -0.248839
   1 C :    0.104105
   2 C :   -0.225202
   3 C :    0.088781
   4 C :   -0.242360
   5 C :   -0.116389
   6 C :   -0.256093
   7 C :   -0.182850
   8 C :   -0.234847
   9 H :    0.135889
  10 H :    0.140975
  11 H :    0.120567
  12 H :    0.115367
  13 H :    0.132393
  14 H :    0.133707
  15 H :    0.130237
  16 H :    0.132044
  17 H :    0.138714
  18 H :    0.133800
Sum of atomic charges:    0.0000000

LOEWDIN ATOMIC CHARGES
----------------------
   0 O :    0.160091
   1 C :   -0.308313
   2 C :   -0.174715
   3 C :   -0.197460
   4 C :   -0.177562
   5 C :   -0.178118
   6 C :   -0.204774
   7 C :   -0.151020
   8 C :   -0.168066
   9 H :    0.149529
  10 H :    0.145263
  11 H :    0.137531
  12 H :    0.129966
  13 H :    0.134041
  14 H :    0.140569
  15 H :    0.132638
  16 H :    0.137472
  17 H :    0.143813
  18 H :    0.149114

  Mayer bond orders larger than 0.1
B(  0-O ,  1-C ) :   2.0479 B(  1-C ,  2-C ) :   0.9007 B(  1-C ,  8-C ) :   0.8980
B(  2-C ,  3-C ) :   0.9189 B(  2-C ,  8-C ) :  -0.1414 B(  2-C ,  9-H ) :   0.8986
B(  2-C , 10-H ) :   0.8920 B(  3-C ,  4-C ) :   0.9308 B(  3-C ,  7-C ) :   0.9037
B(  3-C ,  8-C ) :   0.9115 B(  4-C ,  5-C ) :   0.9443 B(  4-C , 11-H ) :   0.9273
B(  4-C , 12-H ) :   0.9124 B(  5-C ,  6-C ) :   0.8838 B(  5-C ,  7-C ) :   0.8574
B(  5-C , 13-H ) :   0.9287 B(  6-C ,  7-C ) :   0.8870 B(  6-C , 14-H ) :   0.9324
B(  6-C , 15-H ) :   0.9207 B(  7-C , 16-H ) :   0.9182 B(  8-C , 17-H ) :   0.8955
B(  8-C , 18-H ) :   0.8976

MP2 TOTAL ENERGY:     -385.179488110 Eh
FINAL SINGLE POINT ENERGY      -385.179488110088

DIPOLE MOMENT
-------------
                                X             Y             Z
Electronic contribution:      0.92075      -5.99291      -2.23404
Nuclear contribution   :     -0.89585       7.13544       2.60192
                        -----------------------------------------
Total Dipole Moment    :      0.02490       1.14252       0.36788
                        -----------------------------------------
Magnitude (a.u.)       :      1.20055
Magnitude (Debye)      :      3.05155

                             ****ORCA TERMINATED NORMALLY****
TOTAL RUN TIME: 0 days 0 hours 18 minutes 19 seconds 561 msec
