                         Program Version 3.0.3 - RELEASE   -
|  1> ! RI-MP2 RIJK def2-TZVP def2-TZVP/C def2-TZVP/JK TIGHTSCF
|  2> % maxcore 2000
|  3> % mp2 density relaxed end
|  4> *xyz 0 1
|  5>  C       -0.4564691166     1.4139404718     0.0073423225
|  6>  C        0.2093372052     0.0589602813    -0.0602320739
|  7>  O        1.5203938538     0.0927942366    -0.6647976404
|  8>  C        2.0427555391    -0.8269425057     0.3063399964
|  9>  C        0.8047258265    -0.6202100088     1.2271094458
| 10>  C        1.0749453140     0.3104490632     2.4141954239
| 11>  C        0.1174179631    -1.8314164775     1.6554028762
| 12>  N       -0.4338270059    -2.7913631657     1.9896623091
| 13>  H        0.1530098514     2.1428764565     0.5459399292
| 14>  H       -0.6138395591     1.7873607503    -1.0092568772
| 15>  H       -1.4340954982     1.3356449632     0.4940298945
| 16>  H       -0.4372514042    -0.6508014227    -0.5954177142
| 17>  H        2.1377714448    -1.8451238183    -0.0904364695
| 18>  H        3.0022855057    -0.4985713774     0.7188629588
| 19>  H        1.6352203233     1.1879777461     2.0826267431
| 20>  H        0.1435166241     0.6434871978     2.8795325457
| 21>  H        1.6673759031    -0.2084640707     3.1729457396
| 22> *
| 23>
| 24>                          ****END OF INPUT****

CARTESIAN COORDINATES (ANGSTROEM)
---------------------------------
  C     -0.456469    1.413940    0.007342
  C      0.209337    0.058960   -0.060232
  O      1.520394    0.092794   -0.664798
  C      2.042756   -0.826943    0.306340
  C      0.804726   -0.620210    1.227109
  C      1.074945    0.310449    2.414195
  C      0.117418   -1.831416    1.655403
  N     -0.433827   -2.791363    1.989662
  H      0.153010    2.142876    0.545940
  H     -0.613840    1.787361   -1.009257
  H     -1.434095    1.335645    0.494030
  H     -0.437251   -0.650801   -0.595418
  H      2.137771   -1.845124   -0.090436
  H      3.002286   -0.498571    0.718863
  H      1.635220    1.187978    2.082627
  H      0.143517    0.643487    2.879533
  H      1.667376   -0.208464    3.172946

 Total Charge           Charge          ....    0
 Multiplicity           Mult            ....    1
 Number of Electrons    NEL             ....   60
 Basis Dimension        Dim             ....  302

ORBITAL ENERGIES
----------------

  NO   OCC          E(Eh)            E(eV)
   0   2.0000     -20.570604      -559.7546
   1   2.0000     -15.575251      -423.8241
   2   2.0000     -11.312770      -307.8361
   3   2.0000     -11.306393      -307.6626
   4   2.0000     -11.296683      -307.3984
   5   2.0000     -11.275923      -306.8335
   6   2.0000     -11.250786      -306.1495
   7   2.0000     -11.235707      -305.7391
   8   2.0000      -1.406100       -38.2619
   9   2.0000      -1.224321       -33.3155
  10   2.0000      -1.103061       -30.0158
  11   2.0000      -1.032765       -28.1030
  12   2.0000      -0.948188       -25.8015
  13   2.0000      -0.901666       -24.5356
  14   2.0000      -0.810529       -22.0556
  15   2.0000      -0.737866       -20.0783
  16   2.0000      -0.672876       -18.3099
  17   2.0000      -0.658045       -17.9063
  18   2.0000      -0.621787       -16.9197
  19   2.0000      -0.594464       -16.1762
  20   2.0000      -0.586158       -15.9502
  21   2.0000      -0.567922       -15.4539
  22   2.0000      -0.558884       -15.2080
  23   2.0000      -0.549768       -14.9600
  24   2.0000      -0.544174       -14.8077
  25   2.0000      -0.506423       -13.7805
  26   2.0000      -0.504114       -13.7176
  27   2.0000      -0.456714       -12.4278
  28   2.0000      -0.441830       -12.0228
  29   2.0000      -0.433892       -11.8068
  30   0.0000       0.119199         3.2436
  31   0.0000       0.148984         4.0541
  32   0.0000       0.155104         4.2206
  33   0.0000       0.166730         4.5370
  34   0.0000       0.172933         4.7058

MULLIKEN ATOMIC CHARGES
-----------------------
   0 C :   -0.391690
   1 C :    0.037186
   2 O :   -0.312233
   3 C :   -0.051491
   4 C :    0.231285
   5 C :   -0.448936
   6 C :   -0.241011
   7 N :   -0.049318
   8 H :    0.131039
   9 H :    0.152865
  10 H :    0.140893
  11 H :    0.102494
  12 H :    0.116608
  13 H :    0.115438
  14 H :    0.157549
  15 H :    0.151590
  16 H :    0.157730
Sum of atomic charges:   -0.0000000

LOEWDIN ATOMIC CHARGES
----------------------
   0 C :   -0.287301
   1 C :   -0.254781
   2 O :    0.146679
   3 C :   -0.214668
   4 C :   -0.254645
   5 C :   -0.245850
   6 C :   -0.158495
   7 N :    0.067505
   8 H :    0.127069
   9 H :    0.136142
  10 H :    0.133978
  11 H :    0.146062
  12 H :    0.127899
  13 H :    0.124954
  14 H :    0.134730
  15 H :    0.134545
  16 H :    0.136176

  Mayer bond orders larger than 0.1
B(  0-C ,  1-C ) :   0.9210 B(  0-C ,  8-H ) :   0.9306 B(  0-C ,  9-H ) :   0.9304
B(  0-C , 10-H ) :   0.9289 B(  1-C ,  2-O ) :   0.9616 B(  1-C ,  4-C ) :   0.8818
B(  1-C , 11-H ) :   0.9108 B(  2-O ,  3-C ) :   0.9507 B(  3-C ,  4-C ) :   0.9229
B(  3-C , 12-H ) :   0.9065 B(  3-C , 13-H ) :   0.9108 B(  4-C ,  5-C ) :   0.8828
B(  4-C ,  6-C ) :   0.9136 B(  5-C , 14-H ) :   0.9342 B(  5-C , 15-H ) :   0.9289
B(  5-C , 16-H ) :   0.9265 B(  6-C ,  7-N ) :   2.8708

MP2 TOTAL ENERGY:     -363.244305970 Eh
FINAL SINGLE POINT ENERGY      -363.244305970393

DIPOLE MOMENT
-------------
                                X             Y             Z
Electronic contribution:     -0.15537      -6.48010      -0.59921
Nuclear contribution   :      0.54867       7.57271       0.67483
                        -----------------------------------------
Total Dipole Moment    :      0.39330       1.09260       0.07562
                        -----------------------------------------
Magnitude (a.u.)       :      1.16370
Magnitude (Debye)      :      2.95788

                             ****ORCA TERMINATED NORMALLY****
TOTAL RUN TIME: 0 days 0 hours 13 minutes 5 seconds 865 msec
