                         Program Version 3.0.3 - RELEASE   -
|  1> ! RI-MP2 RIJK def2-TZVP def2-TZVP/C def2-TZVP/JK TIGHTSCF
|  2> % maxcore 2000
|  3> % mp2 density relaxed end
|  4> *xyz 0 1
|  5>  N       -0.0026808178     1.2890488451     0.3532988543
|  6>  C        0.0326649772     0.0590568207     0.0723492946
|  7>  O        1.2260804606    -0.6461692138    -0.0413448132
|  8>  C        1.6449657104    -0.9576399026    -1.3635551270
|  9>  O        0.9228829341    -1.9887313146    -1.9582164731
| 10>  C       -0.3847852689    -1.6315563024    -2.3759608463
| 11>  C       -1.3982318057    -1.5069919862    -1.2535455946
| 12>  C       -1.1643274136    -2.1302495814     0.0683352710
| 13>  N       -1.1740100837    -0.6624505512    -0.0622507277
| 14>  H        0.9523326521     1.6458591807     0.4149356728
| 15>  H        1.5980557744    -0.0441011801    -1.9789577002
| 16>  H        2.6728573885    -1.3091985886    -1.2676388433
| 17>  H       -0.3531856249    -0.6950186294    -2.9560885133
| 18>  H       -0.7150855694    -2.4276905675    -3.0512048226
| 19>  H       -2.4176605430    -1.4246934963    -1.6276406959
| 20>  H       -1.9949461363    -2.5263009833     0.6444580110
| 21>  H       -0.2062566742    -2.6158525091     0.2164655536
| 22> *
| 23>
| 24>                          ****END OF INPUT****

CARTESIAN COORDINATES (ANGSTROEM)
---------------------------------
  N     -0.002681    1.289049    0.353299
  C      0.032665    0.059057    0.072349
  O      1.226080   -0.646169   -0.041345
  C      1.644966   -0.957640   -1.363555
  O      0.922883   -1.988731   -1.958216
  C     -0.384785   -1.631556   -2.375961
  C     -1.398232   -1.506992   -1.253546
  C     -1.164327   -2.130250    0.068335
  N     -1.174010   -0.662451   -0.062251
  H      0.952333    1.645859    0.414936
  H      1.598056   -0.044101   -1.978958
  H      2.672857   -1.309199   -1.267639
  H     -0.353186   -0.695019   -2.956089
  H     -0.715086   -2.427691   -3.051205
  H     -2.417661   -1.424693   -1.627641
  H     -1.994946   -2.526301    0.644458
  H     -0.206257   -2.615853    0.216466

 Total Charge           Charge          ....    0
 Multiplicity           Mult            ....    1
 Number of Electrons    NEL             ....   68
 Basis Dimension        Dim             ....  327

ORBITAL ENERGIES
----------------

  NO   OCC          E(Eh)            E(eV)
   0   2.0000     -20.594140      -560.3950
   1   2.0000     -20.588298      -560.2361
   2   2.0000     -15.578740      -423.9191
   3   2.0000     -15.543335      -422.9556
   4   2.0000     -11.364831      -309.2528
   5   2.0000     -11.356514      -309.0265
   6   2.0000     -11.305768      -307.6456
   7   2.0000     -11.285040      -307.0815
   8   2.0000     -11.269558      -306.6603
   9   2.0000      -1.455741       -39.6127
  10   2.0000      -1.389968       -37.8230
  11   2.0000      -1.293083       -35.1866
  12   2.0000      -1.197493       -32.5854
  13   2.0000      -1.021054       -27.7843
  14   2.0000      -0.970377       -26.4053
  15   2.0000      -0.912486       -24.8300
  16   2.0000      -0.814320       -22.1588
  17   2.0000      -0.773509       -21.0482
  18   2.0000      -0.748066       -20.3559
  19   2.0000      -0.725977       -19.7548
  20   2.0000      -0.699799       -19.0425
  21   2.0000      -0.677193       -18.4273
  22   2.0000      -0.642497       -17.4832
  23   2.0000      -0.612567       -16.6688
  24   2.0000      -0.583243       -15.8709
  25   2.0000      -0.576199       -15.6792
  26   2.0000      -0.548111       -14.9148
  27   2.0000      -0.522460       -14.2168
  28   2.0000      -0.499969       -13.6048
  29   2.0000      -0.492448       -13.4002
  30   2.0000      -0.458691       -12.4816
  31   2.0000      -0.440814       -11.9951
  32   2.0000      -0.417314       -11.3557
  33   2.0000      -0.394179       -10.7262
  34   0.0000       0.137032         3.7288
  35   0.0000       0.155310         4.2262
  36   0.0000       0.164114         4.4658
  37   0.0000       0.174931         4.7601
  38   0.0000       0.180765         4.9189

MULLIKEN ATOMIC CHARGES
-----------------------
   0 N :   -0.305147
   1 C :    0.165956
   2 O :   -0.298969
   3 C :    0.049598
   4 O :   -0.297251
   5 C :   -0.061095
   6 C :   -0.056803
   7 C :   -0.178558
   8 N :   -0.179562
   9 H :    0.225220
  10 H :    0.107842
  11 H :    0.138469
  12 H :    0.121346
  13 H :    0.138010
  14 H :    0.134828
  15 H :    0.139352
  16 H :    0.156765
Sum of atomic charges:   -0.0000000

LOEWDIN ATOMIC CHARGES
----------------------
   0 N :   -0.022487
   1 C :   -0.469852
   2 O :    0.197958
   3 C :   -0.386136
   4 O :    0.175778
   5 C :   -0.299082
   6 C :   -0.245850
   7 C :   -0.213512
   8 N :    0.161719
   9 H :    0.170774
  10 H :    0.112337
  11 H :    0.128151
  12 H :    0.131878
  13 H :    0.142395
  14 H :    0.151566
  15 H :    0.129447
  16 H :    0.134916

  Mayer bond orders larger than 0.1
B(  0-N ,  1-C ) :   2.0427 B(  0-N ,  9-H ) :   0.8508 B(  1-C ,  2-O ) :   1.0077
B(  1-C ,  8-N ) :   1.0542 B(  2-O ,  3-C ) :   0.9166 B(  3-C ,  4-O ) :   0.9903
B(  3-C , 10-H ) :   0.9326 B(  3-C , 11-H ) :   0.9303 B(  4-O ,  5-C ) :   0.9038
B(  5-C ,  6-C ) :   0.9369 B(  5-C , 12-H ) :   0.9382 B(  5-C , 13-H ) :   0.9197
B(  6-C ,  7-C ) :   0.9395 B(  6-C ,  8-N ) :   0.8620 B(  6-C , 14-H ) :   0.9086
B(  7-C ,  8-N ) :   0.8509 B(  7-C , 15-H ) :   0.9223 B(  7-C , 16-H ) :   0.9105

MP2 TOTAL ENERGY:     -454.373380211 Eh
FINAL SINGLE POINT ENERGY      -454.373380210550

DIPOLE MOMENT
-------------
                                X             Y             Z
Electronic contribution:      0.92579       1.31431       2.47034
Nuclear contribution   :     -0.53837      -1.96536      -3.39321
                        -----------------------------------------
Total Dipole Moment    :      0.38743      -0.65105      -0.92287
                        -----------------------------------------
Magnitude (a.u.)       :      1.19401
Magnitude (Debye)      :      3.03492

                             ****ORCA TERMINATED NORMALLY****
TOTAL RUN TIME: 0 days 0 hours 15 minutes 33 seconds 545 msec
