                         Program Version 3.0.3 - RELEASE   -
|  1> ! RI-MP2 RIJK def2-TZVP def2-TZVP/C def2-TZVP/JK TIGHTSCF
|  2> % maxcore 2000
|  3> % mp2 density relaxed end
|  4> *xyz 0 1
|  5>  O       -0.6445928647     0.5771440384     0.5627234929
|  6>  C        0.1127725298     0.8783973303    -0.3225180838
|  7>  C        1.3046653389     1.7942155603    -0.1762016058
|  8>  C        1.2246407143     2.9895245539    -1.1484445277
|  9>  C        0.2753097718     4.0993064604    -0.7728913195
| 10>  C        0.8643452824     5.2963749094    -0.7536948869
| 11>  C        2.3255618686     5.2315554240    -1.1076172139
| 12>  C        2.5793807413     3.7254118498    -1.2555366678
| 13>  O        3.6453150167     3.1888412672    -1.3996127002
| 14>  H       -0.0310199149     0.4871294239    -1.3585458383
| 15>  H        1.3789419282     2.1263119099     0.8626275342
| 16>  H        2.2107222546     1.2278940085    -0.4331173751
| 17>  H        0.9934537412     2.5925640602    -2.1506149549
| 18>  H       -0.7691958701     3.9166285876    -0.5475831212
| 19>  H        0.3650149632     6.2281481587    -0.5154349375
| 20>  H        2.5683087915     5.7410193268    -2.0502324619
| 21>  H        2.9943146773     5.6588760509    -0.3507231626
| 22> *
| 23>
| 24>                          ****END OF INPUT****

CARTESIAN COORDINATES (ANGSTROEM)
---------------------------------
  O     -0.644593    0.577144    0.562723
  C      0.112773    0.878397   -0.322518
  C      1.304665    1.794216   -0.176202
  C      1.224641    2.989525   -1.148445
  C      0.275310    4.099306   -0.772891
  C      0.864345    5.296375   -0.753695
  C      2.325562    5.231555   -1.107617
  C      2.579381    3.725412   -1.255537
  O      3.645315    3.188841   -1.399613
  H     -0.031020    0.487129   -1.358546
  H      1.378942    2.126312    0.862628
  H      2.210722    1.227894   -0.433117
  H      0.993454    2.592564   -2.150615
  H     -0.769196    3.916629   -0.547583
  H      0.365015    6.228148   -0.515435
  H      2.568309    5.741019   -2.050232
  H      2.994315    5.658876   -0.350723

 Total Charge           Charge          ....    0
 Multiplicity           Mult            ....    1
 Number of Electrons    NEL             ....   66
 Basis Dimension        Dim             ....  327

ORBITAL ENERGIES
----------------

  NO   OCC          E(Eh)            E(eV)
   0   2.0000     -20.564455      -559.5873
   1   2.0000     -20.562426      -559.5321
   2   2.0000     -11.346147      -308.7444
   3   2.0000     -11.339517      -308.5640
   4   2.0000     -11.269048      -306.6464
   5   2.0000     -11.255894      -306.2885
   6   2.0000     -11.254931      -306.2622
   7   2.0000     -11.252863      -306.2060
   8   2.0000     -11.251773      -306.1763
   9   2.0000      -1.407596       -38.3026
  10   2.0000      -1.403228       -38.1838
  11   2.0000      -1.163378       -31.6571
  12   2.0000      -1.066208       -29.0130
  13   2.0000      -0.972308       -26.4578
  14   2.0000      -0.935297       -25.4507
  15   2.0000      -0.806980       -21.9590
  16   2.0000      -0.773674       -21.0527
  17   2.0000      -0.754659       -20.5353
  18   2.0000      -0.697114       -18.9694
  19   2.0000      -0.672503       -18.2997
  20   2.0000      -0.656899       -17.8751
  21   2.0000      -0.637029       -17.3344
  22   2.0000      -0.607952       -16.5432
  23   2.0000      -0.604488       -16.4489
  24   2.0000      -0.590363       -16.0646
  25   2.0000      -0.563969       -15.3464
  26   2.0000      -0.548903       -14.9364
  27   2.0000      -0.536631       -14.6025
  28   2.0000      -0.511580       -13.9208
  29   2.0000      -0.498798       -13.5730
  30   2.0000      -0.436262       -11.8713
  31   2.0000      -0.408482       -11.1153
  32   2.0000      -0.376769       -10.2524
  33   0.0000       0.116124         3.1599
  34   0.0000       0.122397         3.3306
  35   0.0000       0.129448         3.5225
  36   0.0000       0.143930         3.9165
  37   0.0000       0.156405         4.2560

MULLIKEN ATOMIC CHARGES
-----------------------
   0 O :   -0.257731
   1 C :    0.076596
   2 C :   -0.164568
   3 C :   -0.024566
   4 C :   -0.221605
   5 C :   -0.174414
   6 C :   -0.147345
   7 C :    0.106757
   8 O :   -0.260320
   9 H :    0.074131
  10 H :    0.130469
  11 H :    0.154440
  12 H :    0.127607
  13 H :    0.148961
  14 H :    0.141179
  15 H :    0.143926
  16 H :    0.146481
Sum of atomic charges:    0.0000000

LOEWDIN ATOMIC CHARGES
----------------------
   0 O :    0.135080
   1 C :   -0.298360
   2 C :   -0.227262
   3 C :   -0.206317
   4 C :   -0.133725
   5 C :   -0.149197
   6 C :   -0.210467
   7 C :   -0.268234
   8 O :    0.164518
   9 H :    0.110597
  10 H :    0.150381
  11 H :    0.162775
  12 H :    0.172032
  13 H :    0.144510
  14 H :    0.140362
  15 H :    0.158076
  16 H :    0.155229

  Mayer bond orders larger than 0.1
B(  0-O ,  1-C ) :   2.0067 B(  1-C ,  2-C ) :   0.8728 B(  1-C ,  9-H ) :   0.9369
B(  2-C ,  3-C ) :   0.8694 B(  2-C , 10-H ) :   0.8999 B(  2-C , 11-H ) :   0.9069
B(  3-C ,  4-C ) :   0.9057 B(  3-C ,  6-C ) :  -0.1191 B(  3-C ,  7-C ) :   0.8583
B(  3-C , 12-H ) :   0.8885 B(  4-C ,  5-C ) :   1.7509 B(  4-C , 13-H ) :   0.9111
B(  5-C ,  6-C ) :   0.9271 B(  5-C , 14-H ) :   0.9204 B(  6-C ,  7-C ) :   0.9482
B(  6-C , 15-H ) :   0.8891 B(  6-C , 16-H ) :   0.9015 B(  7-C ,  8-O ) :   2.0599

MP2 TOTAL ENERGY:     -421.144056680 Eh
FINAL SINGLE POINT ENERGY      -421.144056680176

DIPOLE MOMENT
-------------
                                X             Y             Z
Electronic contribution:      0.56756      -2.50698       0.37499
Nuclear contribution   :     -0.68654       3.42770      -0.90173
                        -----------------------------------------
Total Dipole Moment    :     -0.11898       0.92072      -0.52674
                        -----------------------------------------
Magnitude (a.u.)       :      1.06740
Magnitude (Debye)      :      2.71311

                             ****ORCA TERMINATED NORMALLY****
TOTAL RUN TIME: 0 days 0 hours 15 minutes 46 seconds 409 msec
