                         Program Version 3.0.3 - RELEASE   -
|  1> ! RI-MP2 RIJK def2-TZVP def2-TZVP/C def2-TZVP/JK TIGHTSCF
|  2> % maxcore 2000
|  3> % mp2 density relaxed end
|  4> *xyz 0 1
|  5>  C       -0.1260001785     1.5962991454     0.0574081327
|  6>  C        0.0406521612     0.0874024501    -0.0182031245
|  7>  C        0.8577085851    -0.5923720699    -1.1677579000
|  8>  C        2.2473008581     0.0269958560    -0.9885248067
|  9>  C        3.1653048031    -0.9494437123    -0.3403339316
| 10>  C        2.5020909472    -2.3098996539    -0.3221726660
| 11>  C        1.0764977823    -1.8031961824    -0.1900160734
| 12>  C        1.0935141392    -0.6477070563     0.8546811518
| 13>  N        2.3947533981     0.0149620849     0.4982306651
| 14>  H        0.8383753535     2.1087369284     0.0237909010
| 15>  H       -0.7421873847     1.9640023331    -0.7708751282
| 16>  H       -0.6233084733     1.8840091221     0.9902760646
| 17>  H       -0.9299975931    -0.4107915956     0.0851006485
| 18>  H        0.4676081419    -0.7098737608    -2.1787574814
| 19>  H        2.5800049087     0.9068660866    -1.5267690897
| 20>  H        4.2422974375    -0.8228214541    -0.3380360842
| 21>  H        2.6803321045    -2.8717175604    -1.2454484911
| 22>  H        2.8153093486    -2.9250099222     0.5286960344
| 23>  H        0.2605211125    -2.5191258501    -0.1219269145
| 24>  H        0.9801751183    -0.7992495085     1.9281747631
| 25> *
| 26>
| 27>                          ****END OF INPUT****

CARTESIAN COORDINATES (ANGSTROEM)
---------------------------------
  C     -0.126000    1.596299    0.057408
  C      0.040652    0.087402   -0.018203
  C      0.857709   -0.592372   -1.167758
  C      2.247301    0.026996   -0.988525
  C      3.165305   -0.949444   -0.340334
  C      2.502091   -2.309900   -0.322173
  C      1.076498   -1.803196   -0.190016
  C      1.093514   -0.647707    0.854681
  N      2.394753    0.014962    0.498231
  H      0.838375    2.108737    0.023791
  H     -0.742187    1.964002   -0.770875
  H     -0.623308    1.884009    0.990276
  H     -0.929998   -0.410792    0.085101
  H      0.467608   -0.709874   -2.178757
  H      2.580005    0.906866   -1.526769
  H      4.242297   -0.822821   -0.338036
  H      2.680332   -2.871718   -1.245448
  H      2.815309   -2.925010    0.528696
  H      0.260521   -2.519126   -0.121927
  H      0.980175   -0.799250    1.928175

 Total Charge           Charge          ....    0
 Multiplicity           Mult            ....    1
 Number of Electrons    NEL             ....   66
 Basis Dimension        Dim             ....  345

ORBITAL ENERGIES
----------------

  NO   OCC          E(Eh)            E(eV)
   0   2.0000     -15.550316      -423.1456
   1   2.0000     -11.252961      -306.2086
   2   2.0000     -11.251682      -306.1738
   3   2.0000     -11.248870      -306.0973
   4   2.0000     -11.234457      -305.7051
   5   2.0000     -11.229443      -305.5687
   6   2.0000     -11.229295      -305.5647
   7   2.0000     -11.223064      -305.3951
   8   2.0000     -11.206564      -304.9461
   9   2.0000      -1.304878       -35.5075
  10   2.0000      -1.103921       -30.0392
  11   2.0000      -1.032007       -28.0823
  12   2.0000      -0.964597       -26.2480
  13   2.0000      -0.952561       -25.9205
  14   2.0000      -0.819588       -22.3021
  15   2.0000      -0.784032       -21.3346
  16   2.0000      -0.754664       -20.5355
  17   2.0000      -0.733140       -19.9498
  18   2.0000      -0.701487       -19.0884
  19   2.0000      -0.646490       -17.5919
  20   2.0000      -0.610207       -16.6046
  21   2.0000      -0.578177       -15.7330
  22   2.0000      -0.559786       -15.2325
  23   2.0000      -0.557165       -15.1612
  24   2.0000      -0.531953       -14.4752
  25   2.0000      -0.502254       -13.6670
  26   2.0000      -0.476928       -12.9779
  27   2.0000      -0.461720       -12.5640
  28   2.0000      -0.456203       -12.4139
  29   2.0000      -0.440692       -11.9918
  30   2.0000      -0.418926       -11.3996
  31   2.0000      -0.412176       -11.2159
  32   2.0000      -0.366299        -9.9675
  33   0.0000       0.139016         3.7828
  34   0.0000       0.154022         4.1912
  35   0.0000       0.166517         4.5312
  36   0.0000       0.180600         4.9144
  37   0.0000       0.188483         5.1289

MULLIKEN ATOMIC CHARGES
-----------------------
   0 C :   -0.427549
   1 C :   -0.151822
   2 C :   -0.006902
   3 C :   -0.102095
   4 C :   -0.148026
   5 C :   -0.176057
   6 C :   -0.206087
   7 C :    0.088839
   8 N :   -0.257385
   9 H :    0.151920
  10 H :    0.128718
  11 H :    0.129445
  12 H :    0.098857
  13 H :    0.131646
  14 H :    0.136853
  15 H :    0.124128
  16 H :    0.117478
  17 H :    0.116986
  18 H :    0.126694
  19 H :    0.124358
Sum of atomic charges:   -0.0000000

LOEWDIN ATOMIC CHARGES
----------------------
   0 C :   -0.295638
   1 C :   -0.214680
   2 C :   -0.149772
   3 C :   -0.193396
   4 C :   -0.217756
   5 C :   -0.221211
   6 C :   -0.179438
   7 C :   -0.185146
   8 N :    0.145514
   9 H :    0.130785
  10 H :    0.124145
  11 H :    0.125925
  12 H :    0.153807
  13 H :    0.135959
  14 H :    0.136728
  15 H :    0.138998
  16 H :    0.144492
  17 H :    0.142576
  18 H :    0.146855
  19 H :    0.131252

  Mayer bond orders larger than 0.1
B(  0-C ,  1-C ) :   0.9044 B(  0-C ,  9-H ) :   0.9357 B(  0-C , 10-H ) :   0.9378
B(  0-C , 11-H ) :   0.9375 B(  1-C ,  2-C ) :   0.8930 B(  1-C ,  7-C ) :   0.8910
B(  1-C , 12-H ) :   0.9210 B(  2-C ,  3-C ) :   0.8735 B(  2-C ,  6-C ) :   0.8956
B(  2-C , 13-H ) :   0.8972 B(  3-C ,  4-C ) :   0.9236 B(  3-C ,  8-N ) :   0.8458
B(  3-C , 14-H ) :   0.9228 B(  4-C ,  5-C ) :   0.9590 B(  4-C ,  8-N ) :   0.9403
B(  4-C , 15-H ) :   0.9315 B(  5-C ,  6-C ) :   0.9684 B(  5-C , 16-H ) :   0.9055
B(  5-C , 17-H ) :   0.9094 B(  6-C ,  7-C ) :   0.9146 B(  6-C , 18-H ) :   0.9209
B(  7-C ,  8-N ) :   0.8777 B(  7-C , 19-H ) :   0.9091

MP2 TOTAL ENERGY:     -365.339643038 Eh
FINAL SINGLE POINT ENERGY      -365.339643038257

DIPOLE MOMENT
-------------
                                X             Y             Z
Electronic contribution:      2.92698      -1.57948       0.28523
Nuclear contribution   :     -3.24350       1.10628      -0.66539
                        -----------------------------------------
Total Dipole Moment    :     -0.31652      -0.47320      -0.38016
                        -----------------------------------------
Magnitude (a.u.)       :      0.68456
Magnitude (Debye)      :      1.74002

                             ****ORCA TERMINATED NORMALLY****
TOTAL RUN TIME: 0 days 0 hours 20 minutes 23 seconds 17 msec
