                         Program Version 3.0.3 - RELEASE   -
|  1> ! RI-MP2 RIJK def2-TZVP def2-TZVP/C def2-TZVP/JK TIGHTSCF
|  2> % maxcore 2000
|  3> % mp2 density relaxed end
|  4> *xyz 0 1
|  5>  C       -0.4937422088     1.4932343550     0.2376065200
|  6>  C       -0.0442403286     0.0669540123     0.0075437972
|  7>  N        0.0291055023    -0.7057184074     1.1366162395
|  8>  N        0.2326981866    -0.5009676689    -1.1148501135
|  9>  C        0.1472251705     0.0618194956    -2.3424852554
| 10>  C        0.4269580907    -0.4577050668    -3.5739040208
| 11>  N        0.1930381849     0.4910697647    -4.5567180412
| 12>  C       -0.2119814011     1.5300477103    -3.9052938468
| 13>  O       -0.2740720744     1.3717612178    -2.5604289083
| 14>  H        0.2373823822     2.1934185032    -0.1722012127
| 15>  H       -1.4360237831     1.6806554425    -0.2824006259
| 16>  H       -0.6343975818     1.7018512250     1.3007825026
| 17>  H        0.1310619253    -0.2605405809     2.0322214008
| 18>  H        0.4613877485    -1.6102661288     1.0271271527
| 19>  H        0.7784012308    -1.4503320046    -3.8019882664
| 20>  H       -0.5034546643     2.4938988510    -4.2929973517
| 21> *
| 22>
| 23>                          ****END OF INPUT****

CARTESIAN COORDINATES (ANGSTROEM)
---------------------------------
  C     -0.493742    1.493234    0.237607
  C     -0.044240    0.066954    0.007544
  N      0.029106   -0.705718    1.136616
  N      0.232698   -0.500968   -1.114850
  C      0.147225    0.061819   -2.342485
  C      0.426958   -0.457705   -3.573904
  N      0.193038    0.491070   -4.556718
  C     -0.211981    1.530048   -3.905294
  O     -0.274072    1.371761   -2.560429
  H      0.237382    2.193419   -0.172201
  H     -1.436024    1.680655   -0.282401
  H     -0.634398    1.701851    1.300783
  H      0.131062   -0.260541    2.032221
  H      0.461388   -1.610266    1.027127
  H      0.778401   -1.450332   -3.801988
  H     -0.503455    2.493899   -4.292997

 Total Charge           Charge          ....    0
 Multiplicity           Mult            ....    1
 Number of Electrons    NEL             ....   66
 Basis Dimension        Dim             ....  321

ORBITAL ENERGIES
----------------

  NO   OCC          E(Eh)            E(eV)
   0   2.0000     -20.623555      -561.1955
   1   2.0000     -15.587214      -424.1497
   2   2.0000     -15.553583      -423.2345
   3   2.0000     -15.545013      -423.0013
   4   2.0000     -11.343561      -308.6740
   5   2.0000     -11.316638      -307.9414
   6   2.0000     -11.314751      -307.8900
   7   2.0000     -11.247180      -306.0513
   8   2.0000     -11.234295      -305.7007
   9   2.0000      -1.470966       -40.0270
  10   2.0000      -1.288810       -35.0703
  11   2.0000      -1.218520       -33.1576
  12   2.0000      -1.186193       -32.2780
  13   2.0000      -1.022276       -27.8175
  14   2.0000      -0.990784       -26.9606
  15   2.0000      -0.854438       -23.2504
  16   2.0000      -0.827517       -22.5179
  17   2.0000      -0.774257       -21.0686
  18   2.0000      -0.737612       -20.0714
  19   2.0000      -0.701232       -19.0815
  20   2.0000      -0.669407       -18.2155
  21   2.0000      -0.655868       -17.8471
  22   2.0000      -0.616068       -16.7640
  23   2.0000      -0.605925       -16.4880
  24   2.0000      -0.585840       -15.9415
  25   2.0000      -0.573873       -15.6159
  26   2.0000      -0.549390       -14.9497
  27   2.0000      -0.521886       -14.2012
  28   2.0000      -0.455399       -12.3920
  29   2.0000      -0.441897       -12.0246
  30   2.0000      -0.433335       -11.7916
  31   2.0000      -0.421988       -11.4829
  32   2.0000      -0.283326        -7.7097
  33   0.0000       0.117680         3.2022
  34   0.0000       0.122325         3.3286
  35   0.0000       0.157387         4.2827
  36   0.0000       0.174443         4.7468
  37   0.0000       0.186310         5.0697

MULLIKEN ATOMIC CHARGES
-----------------------
   0 C :   -0.370811
   1 C :    0.231372
   2 N :   -0.481223
   3 N :   -0.311553
   4 C :    0.246107
   5 C :   -0.151343
   6 N :   -0.267941
   7 C :    0.090884
   8 O :   -0.219964
   9 H :    0.154148
  10 H :    0.156389
  11 H :    0.121683
  12 H :    0.254566
  13 H :    0.260423
  14 H :    0.137439
  15 H :    0.149825
Sum of atomic charges:   -0.0000000

LOEWDIN ATOMIC CHARGES
----------------------
   0 C :   -0.274979
   1 C :   -0.357093
   2 N :   -0.022328
   3 N :    0.129613
   4 C :   -0.337780
   5 C :   -0.227022
   6 N :    0.091246
   7 C :   -0.339510
   8 O :    0.320994
   9 H :    0.139746
  10 H :    0.141983
  11 H :    0.125063
  12 H :    0.168357
  13 H :    0.174250
  14 H :    0.138330
  15 H :    0.129131

  Mayer bond orders larger than 0.1
B(  0-C ,  1-C ) :   0.9345 B(  0-C ,  9-H ) :   0.9219 B(  0-C , 10-H ) :   0.9179
B(  0-C , 11-H ) :   0.9237 B(  1-C ,  2-N ) :   1.1376 B(  1-C ,  3-N ) :   1.6564
B(  2-N , 12-H ) :   0.8713 B(  2-N , 13-H ) :   0.8603 B(  3-N ,  4-C ) :   1.2014
B(  4-C ,  5-C ) :   1.5161 B(  4-C ,  8-O ) :   0.9616 B(  5-C ,  6-N ) :   1.2069
B(  5-C , 14-H ) :   0.9351 B(  6-N ,  7-C ) :   1.6433 B(  7-C ,  8-O ) :   1.0756
B(  7-C , 15-H ) :   0.9277

MP2 TOTAL ENERGY:     -433.381434401 Eh
FINAL SINGLE POINT ENERGY      -433.381434401049

DIPOLE MOMENT
-------------
                                X             Y             Z
Electronic contribution:      0.79845      -1.40226      -5.94230
Nuclear contribution   :     -0.84956       1.88375       7.80480
                        -----------------------------------------
Total Dipole Moment    :     -0.05111       0.48149       1.86250
                        -----------------------------------------
Magnitude (a.u.)       :      1.92441
Magnitude (Debye)      :      4.89145

                             ****ORCA TERMINATED NORMALLY****
TOTAL RUN TIME: 0 days 0 hours 15 minutes 32 seconds 425 msec
