                         Program Version 3.0.3 - RELEASE   -
|  1> ! RI-MP2 RIJK def2-TZVP def2-TZVP/C def2-TZVP/JK TIGHTSCF
|  2> % maxcore 2000
|  3> % mp2 density relaxed end
|  4> *xyz 0 1
|  5>  C       -0.0717591033     1.4685453680    -0.2990979634
|  6>  O        1.1290576414     1.7089900945     0.4629100825
|  7>  C        1.3717466791     0.2924892161     0.6314439506
|  8>  C        1.3535433625    -0.1473810868     2.1031292071
|  9>  C       -0.0930875629    -0.5276201846     2.3267312088
| 10>  C       -0.8188812328    -0.4911391042     1.2080364102
| 11>  C       -0.0152348964    -0.0460822810     0.0175979939
| 12>  H       -0.9303240456     2.0243623729     0.0952445257
| 13>  H        0.0643035668     1.7151838412    -1.3609123742
| 14>  H        2.2668877828    -0.0227254431     0.0842105282
| 15>  H        2.0316696878    -0.9897011717     2.2955677820
| 16>  H        1.6822041926     0.6803770083     2.7429372414
| 17>  H       -0.4751260155    -0.8039334866     3.3037335546
| 18>  H       -1.8750424860    -0.7294213035     1.1420304274
| 19>  H       -0.0715435204    -0.7172734994    -0.8427651248
| 20> *
| 21>
| 22>                          ****END OF INPUT****

CARTESIAN COORDINATES (ANGSTROEM)
---------------------------------
  C     -0.071759    1.468545   -0.299098
  O      1.129058    1.708990    0.462910
  C      1.371747    0.292489    0.631444
  C      1.353543   -0.147381    2.103129
  C     -0.093088   -0.527620    2.326731
  C     -0.818881   -0.491139    1.208036
  C     -0.015235   -0.046082    0.017598
  H     -0.930324    2.024362    0.095245
  H      0.064304    1.715184   -1.360912
  H      2.266888   -0.022725    0.084211
  H      2.031670   -0.989701    2.295568
  H      1.682204    0.680377    2.742937
  H     -0.475126   -0.803933    3.303734
  H     -1.875042   -0.729421    1.142030
  H     -0.071544   -0.717273   -0.842765

 Total Charge           Charge          ....    0
 Multiplicity           Mult            ....    1
 Number of Electrons    NEL             ....   52
 Basis Dimension        Dim             ....  265

ORBITAL ENERGIES
----------------

  NO   OCC          E(Eh)            E(eV)
   0   2.0000     -20.543259      -559.0105
   1   2.0000     -11.280143      -306.9483
   2   2.0000     -11.275691      -306.8271
   3   2.0000     -11.235425      -305.7314
   4   2.0000     -11.231256      -305.6180
   5   2.0000     -11.227431      -305.5139
   6   2.0000     -11.226280      -305.4826
   7   2.0000      -1.375203       -37.4212
   8   2.0000      -1.121464       -30.5166
   9   2.0000      -0.999467       -27.1969
  10   2.0000      -0.949949       -25.8494
  11   2.0000      -0.885362       -24.0919
  12   2.0000      -0.759010       -20.6537
  13   2.0000      -0.729590       -19.8532
  14   2.0000      -0.702112       -19.1054
  15   2.0000      -0.653445       -17.7811
  16   2.0000      -0.622837       -16.9483
  17   2.0000      -0.602323       -16.3900
  18   2.0000      -0.546582       -14.8732
  19   2.0000      -0.535613       -14.5748
  20   2.0000      -0.532352       -14.4860
  21   2.0000      -0.493464       -13.4278
  22   2.0000      -0.470942       -12.8150
  23   2.0000      -0.442957       -12.0535
  24   2.0000      -0.412893       -11.2354
  25   2.0000      -0.351150        -9.5553
  26   0.0000       0.146116         3.9760
  27   0.0000       0.150119         4.0849
  28   0.0000       0.171524         4.6674
  29   0.0000       0.177565         4.8318
  30   0.0000       0.192025         5.2253

MULLIKEN ATOMIC CHARGES
-----------------------
   0 C :   -0.027064
   1 O :   -0.338960
   2 C :    0.069867
   3 C :   -0.158970
   4 C :   -0.204709
   5 C :   -0.204047
   6 C :   -0.044761
   7 H :    0.100119
   8 H :    0.091891
   9 H :    0.092874
  10 H :    0.114179
  11 H :    0.129565
  12 H :    0.127110
  13 H :    0.129266
  14 H :    0.123639
Sum of atomic charges:   -0.0000000

LOEWDIN ATOMIC CHARGES
----------------------
   0 C :   -0.248676
   1 O :    0.132791
   2 C :   -0.231066
   3 C :   -0.226334
   4 C :   -0.149838
   5 C :   -0.149082
   6 C :   -0.199709
   7 H :    0.118162
   8 H :    0.115763
   9 H :    0.130519
  10 H :    0.139990
  11 H :    0.148979
  12 H :    0.136647
  13 H :    0.138426
  14 H :    0.143428

  Mayer bond orders larger than 0.1
B(  0-C ,  1-O ) :   0.9470 B(  0-C ,  6-C ) :   0.9511 B(  0-C ,  7-H ) :   0.9064
B(  0-C ,  8-H ) :   0.9171 B(  1-O ,  2-C ) :   0.9751 B(  2-C ,  3-C ) :   0.9133
B(  2-C ,  6-C ) :   0.9377 B(  2-C ,  9-H ) :   0.9285 B(  3-C ,  4-C ) :   0.9562
B(  3-C , 10-H ) :   0.9087 B(  3-C , 11-H ) :   0.9080 B(  4-C ,  5-C ) :   1.7961
B(  4-C , 12-H ) :   0.9246 B(  5-C ,  6-C ) :   0.9135 B(  5-C , 13-H ) :   0.9247
B(  6-C , 14-H ) :   0.9119

MP2 TOTAL ENERGY:     -307.967855508 Eh
FINAL SINGLE POINT ENERGY      -307.967855507809

DIPOLE MOMENT
-------------
                                X             Y             Z
Electronic contribution:      0.41223       1.04884      -0.34573
Nuclear contribution   :     -0.70436      -1.63527       0.21171
                        -----------------------------------------
Total Dipole Moment    :     -0.29213      -0.58642      -0.13401
                        -----------------------------------------
Magnitude (a.u.)       :      0.66872
Magnitude (Debye)      :      1.69976

                             ****ORCA TERMINATED NORMALLY****
TOTAL RUN TIME: 0 days 0 hours 7 minutes 55 seconds 793 msec
