                         Program Version 3.0.3 - RELEASE   -
|  1> ! RI-MP2 RIJK def2-TZVP def2-TZVP/C def2-TZVP/JK TIGHTSCF
|  2> % maxcore 2000
|  3> % mp2 density relaxed end
|  4> *xyz 0 1
|  5>  C        0.6322429023     1.4661234248    -0.0067357668
|  6>  O        0.6421855685     0.0609404134     0.0483905249
|  7>  C        0.1196733568    -0.5361242338    -1.1174217650
|  8>  C        0.1683712706    -2.0223012972    -0.9725618890
|  9>  C        0.6323940343    -2.7236682930     0.0925896652
| 10>  O        0.5195313508    -4.0646726052    -0.1309021742
| 11>  C       -0.0296099055    -4.2251926813    -1.3679919971
| 12>  C       -0.2485928847    -5.6210271126    -1.8300139019
| 13>  C       -0.2641507441    -3.0070402552    -1.9266943551
| 14>  H        1.2417106451     1.8474169977    -0.8417266415
| 15>  H       -0.3889650382     1.8642128522    -0.1194580305
| 16>  H        1.0521414978     1.8332772185     0.9327377045
| 17>  H       -0.9189616751    -0.1989717792    -1.2887228892
| 18>  H        0.6965538969    -0.2158121332    -2.0042041904
| 19>  H        1.0535314805    -2.4289669952     1.0373598959
| 20>  H        0.6915316241    -6.1828129851    -1.8732954617
| 21>  H       -0.9231888744    -6.1658560763    -1.1596374344
| 22>  H       -0.6900838427    -5.6164706336    -2.8290275083
| 23>  H       -0.6934387128    -2.8275545659    -2.9009642751
| 24> *
| 25>
| 26>                          ****END OF INPUT****

CARTESIAN COORDINATES (ANGSTROEM)
---------------------------------
  C      0.632243    1.466123   -0.006736
  O      0.642186    0.060940    0.048391
  C      0.119673   -0.536124   -1.117422
  C      0.168371   -2.022301   -0.972562
  C      0.632394   -2.723668    0.092590
  O      0.519531   -4.064673   -0.130902
  C     -0.029610   -4.225193   -1.367992
  C     -0.248593   -5.621027   -1.830014
  C     -0.264151   -3.007040   -1.926694
  H      1.241711    1.847417   -0.841727
  H     -0.388965    1.864213   -0.119458
  H      1.052141    1.833277    0.932738
  H     -0.918962   -0.198972   -1.288723
  H      0.696554   -0.215812   -2.004204
  H      1.053531   -2.428967    1.037360
  H      0.691532   -6.182813   -1.873295
  H     -0.923189   -6.165856   -1.159637
  H     -0.690084   -5.616471   -2.829028
  H     -0.693439   -2.827555   -2.900964

 Total Charge           Charge          ....    0
 Multiplicity           Mult            ....    1
 Number of Electrons    NEL             ....   68
 Basis Dimension        Dim             ....  339

ORBITAL ENERGIES
----------------

  NO   OCC          E(Eh)            E(eV)
   0   2.0000     -20.607202      -560.7505
   1   2.0000     -20.559249      -559.4456
   2   2.0000     -11.286897      -307.1321
   3   2.0000     -11.285437      -307.0924
   4   2.0000     -11.273366      -306.7639
   5   2.0000     -11.267873      -306.6144
   6   2.0000     -11.231785      -305.6324
   7   2.0000     -11.224269      -305.4279
   8   2.0000     -11.216481      -305.2160
   9   2.0000      -1.445599       -39.3367
  10   2.0000      -1.381302       -37.5872
  11   2.0000      -1.090264       -29.6676
  12   2.0000      -1.046817       -28.4853
  13   2.0000      -0.972110       -26.4524
  14   2.0000      -0.920905       -25.0591
  15   2.0000      -0.887027       -24.1372
  16   2.0000      -0.786354       -21.3978
  17   2.0000      -0.741160       -20.1680
  18   2.0000      -0.701973       -19.1016
  19   2.0000      -0.669718       -18.2239
  20   2.0000      -0.648260       -17.6401
  21   2.0000      -0.634662       -17.2700
  22   2.0000      -0.627732       -17.0815
  23   2.0000      -0.584555       -15.9066
  24   2.0000      -0.564244       -15.3539
  25   2.0000      -0.556482       -15.1426
  26   2.0000      -0.553385       -15.0584
  27   2.0000      -0.552265       -15.0279
  28   2.0000      -0.528741       -14.3878
  29   2.0000      -0.510071       -13.8797
  30   2.0000      -0.486042       -13.2259
  31   2.0000      -0.433214       -11.7884
  32   2.0000      -0.377705       -10.2779
  33   2.0000      -0.300046        -8.1647
  34   0.0000       0.141702         3.8559
  35   0.0000       0.148379         4.0376
  36   0.0000       0.156938         4.2705
  37   0.0000       0.172364         4.6903
  38   0.0000       0.191402         5.2083

MULLIKEN ATOMIC CHARGES
-----------------------
   0 C :   -0.219711
   1 O :   -0.300298
   2 C :   -0.079056
   3 C :    0.138684
   4 C :   -0.066956
   5 O :   -0.222887
   6 C :    0.252479
   7 C :   -0.438841
   8 C :   -0.360310
   9 H :    0.112027
  10 H :    0.112028
  11 H :    0.140339
  12 H :    0.104697
  13 H :    0.104698
  14 H :    0.151883
  15 H :    0.147797
  16 H :    0.147791
  17 H :    0.143954
  18 H :    0.131683
Sum of atomic charges:   -0.0000000

LOEWDIN ATOMIC CHARGES
----------------------
   0 C :   -0.359929
   1 O :    0.143852
   2 C :   -0.285857
   3 C :   -0.193311
   4 C :   -0.212639
   5 O :    0.350661
   6 C :   -0.277298
   7 C :   -0.275428
   8 C :   -0.148546
   9 H :    0.101810
  10 H :    0.101809
  11 H :    0.114092
  12 H :    0.127585
  13 H :    0.127585
  14 H :    0.136472
  15 H :    0.134121
  16 H :    0.134112
  17 H :    0.136836
  18 H :    0.144075

  Mayer bond orders larger than 0.1
B(  0-C ,  1-O ) :   0.9177 B(  0-C ,  9-H ) :   0.9366 B(  0-C , 10-H ) :   0.9366
B(  0-C , 11-H ) :   0.9397 B(  1-O ,  2-C ) :   0.9844 B(  2-C ,  3-C ) :   0.9189
B(  2-C , 12-H ) :   0.9217 B(  2-C , 13-H ) :   0.9217 B(  3-C ,  4-C ) :   1.5405
B(  3-C ,  8-C ) :   1.1294 B(  4-C ,  5-O ) :   1.0437 B(  4-C , 14-H ) :   0.9218
B(  5-O ,  6-C ) :   1.0307 B(  6-C ,  7-C ) :   0.8716 B(  6-C ,  8-C ) :   1.5366
B(  7-C , 15-H ) :   0.9333 B(  7-C , 16-H ) :   0.9332 B(  7-C , 17-H ) :   0.9539
B(  8-C , 18-H ) :   0.9196

MP2 TOTAL ENERGY:     -422.329643334 Eh
FINAL SINGLE POINT ENERGY      -422.329643334490

DIPOLE MOMENT
-------------
                                X             Y             Z
Electronic contribution:      1.07528      -3.68993       2.51585
Nuclear contribution   :     -1.30742       4.04309      -3.04831
                        -----------------------------------------
Total Dipole Moment    :     -0.23214       0.35316      -0.53246
                        -----------------------------------------
Magnitude (a.u.)       :      0.67979
Magnitude (Debye)      :      1.72790

                             ****ORCA TERMINATED NORMALLY****
TOTAL RUN TIME: 0 days 0 hours 15 minutes 49 seconds 849 msec
