                         Program Version 3.0.3 - RELEASE   -
|  1> ! RI-MP2 RIJK def2-TZVP def2-TZVP/C def2-TZVP/JK TIGHTSCF
|  2> % maxcore 2000
|  3> % mp2 density relaxed end
|  4> *xyz 0 1
|  5>  C       -0.1818836840     1.5135883141    -0.0593727768
|  6>  C        0.0526243357     0.0216251132     0.0794570018
|  7>  N        1.2087059028    -0.6249186197    -0.7266802476
|  8>  C        2.1598088192    -0.0963254137     0.3631732651
|  9>  C        0.9506567643    -0.6299199665     1.1807628347
| 10>  O        0.7617255010    -0.7499520846     2.5460640249
| 11>  C        1.0175685831    -1.8020629821     0.2163862642
| 12>  C        0.2137122903    -3.0229704886    -0.0234063069
| 13>  C        1.7326418578    -3.0981170953     0.1795677666
| 14>  H        0.6844207110     2.1301815934     0.1908040506
| 15>  H       -0.4741936763     1.7499740864    -1.0877615618
| 16>  H       -1.0070397300     1.8159301884     0.5949824456
| 17>  H       -0.8797890104    -0.5198267569    -0.1071266362
| 18>  H        3.0930051637    -0.6588730846     0.4246892919
| 19>  H        2.3442238012     0.9768085455     0.3107205623
| 20>  H        0.7645074638     0.1293519816     2.9397267664
| 21>  H       -0.4239770940    -3.3900056543     0.7743707965
| 22>  H       -0.1615250331    -3.2005420449    -1.0259651482
| 23>  H        2.3380780153    -3.3237209537    -0.6922267654
| 24>  H        2.1005323587    -3.5156424575     1.1113296921
| 25> *
| 26>
| 27>                          ****END OF INPUT****

CARTESIAN COORDINATES (ANGSTROEM)
---------------------------------
  C     -0.181884    1.513588   -0.059373
  C      0.052624    0.021625    0.079457
  N      1.208706   -0.624919   -0.726680
  C      2.159809   -0.096325    0.363173
  C      0.950657   -0.629920    1.180763
  O      0.761726   -0.749952    2.546064
  C      1.017569   -1.802063    0.216386
  C      0.213712   -3.022970   -0.023406
  C      1.732642   -3.098117    0.179568
  H      0.684421    2.130182    0.190804
  H     -0.474194    1.749974   -1.087762
  H     -1.007040    1.815930    0.594982
  H     -0.879789   -0.519827   -0.107127
  H      3.093005   -0.658873    0.424689
  H      2.344224    0.976809    0.310721
  H      0.764507    0.129352    2.939727
  H     -0.423977   -3.390006    0.774371
  H     -0.161525   -3.200542   -1.025965
  H      2.338078   -3.323721   -0.692227
  H      2.100532   -3.515642    1.111330

 Total Charge           Charge          ....    0
 Multiplicity           Mult            ....    1
 Number of Electrons    NEL             ....   68
 Basis Dimension        Dim             ....  345

ORBITAL ENERGIES
----------------

  NO   OCC          E(Eh)            E(eV)
   0   2.0000     -20.573622      -559.8367
   1   2.0000     -15.570047      -423.6825
   2   2.0000     -11.304516      -307.6115
   3   2.0000     -11.265224      -306.5423
   4   2.0000     -11.264526      -306.5233
   5   2.0000     -11.256381      -306.3017
   6   2.0000     -11.223335      -305.4025
   7   2.0000     -11.223181      -305.3983
   8   2.0000     -11.222598      -305.3824
   9   2.0000      -1.387252       -37.7490
  10   2.0000      -1.294563       -35.2268
  11   2.0000      -1.120838       -30.4996
  12   2.0000      -1.006996       -27.4017
  13   2.0000      -0.915202       -24.9039
  14   2.0000      -0.902462       -24.5572
  15   2.0000      -0.827085       -22.5061
  16   2.0000      -0.803174       -21.8555
  17   2.0000      -0.726814       -19.7776
  18   2.0000      -0.706559       -19.2264
  19   2.0000      -0.665469       -18.1083
  20   2.0000      -0.650979       -17.7140
  21   2.0000      -0.612521       -16.6676
  22   2.0000      -0.599331       -16.3086
  23   2.0000      -0.583231       -15.8705
  24   2.0000      -0.554319       -15.0838
  25   2.0000      -0.546891       -14.8816
  26   2.0000      -0.515639       -14.0313
  27   2.0000      -0.501676       -13.6513
  28   2.0000      -0.480219       -13.0674
  29   2.0000      -0.456367       -12.4184
  30   2.0000      -0.434411       -11.8209
  31   2.0000      -0.409891       -11.1537
  32   2.0000      -0.397105       -10.8058
  33   2.0000      -0.390106       -10.6153
  34   0.0000       0.126297         3.4367
  35   0.0000       0.158389         4.3100
  36   0.0000       0.163536         4.4500
  37   0.0000       0.164711         4.4820
  38   0.0000       0.190415         5.1815

MULLIKEN ATOMIC CHARGES
-----------------------
   0 C :   -0.420367
   1 C :    0.003884
   2 N :   -0.195231
   3 C :   -0.175933
   4 C :    0.157132
   5 O :   -0.448958
   6 C :    0.049734
   7 C :   -0.290911
   8 C :   -0.298454
   9 H :    0.121764
  10 H :    0.148981
  11 H :    0.136828
  12 H :    0.109230
  13 H :    0.119423
  14 H :    0.118177
  15 H :    0.324775
  16 H :    0.135410
  17 H :    0.133993
  18 H :    0.134604
  19 H :    0.135918
Sum of atomic charges:    0.0000000

LOEWDIN ATOMIC CHARGES
----------------------
   0 C :   -0.300365
   1 C :   -0.219863
   2 N :    0.153181
   3 C :   -0.199485
   4 C :   -0.322632
   5 O :    0.022932
   6 C :   -0.250529
   7 C :   -0.199703
   8 C :   -0.198798
   9 H :    0.120780
  10 H :    0.133673
  11 H :    0.129448
  12 H :    0.147832
  13 H :    0.128959
  14 H :    0.118345
  15 H :    0.182037
  16 H :    0.138047
  17 H :    0.138971
  18 H :    0.139109
  19 H :    0.138060

  Mayer bond orders larger than 0.1
B(  0-C ,  1-C ) :   0.8854 B(  0-C ,  9-H ) :   0.9351 B(  0-C , 10-H ) :   0.9362
B(  0-C , 11-H ) :   0.9380 B(  1-C ,  2-N ) :   0.8887 B(  1-C ,  4-C ) :   0.9098
B(  1-C , 12-H ) :   0.9207 B(  2-N ,  3-C ) :   0.9107 B(  2-N ,  6-C ) :   0.9181
B(  3-C ,  4-C ) :   0.9344 B(  3-C , 13-H ) :   0.9219 B(  3-C , 14-H ) :   0.9180
B(  4-C ,  5-O ) :   1.0177 B(  4-C ,  6-C ) :   0.8450 B(  5-O , 15-H ) :   0.8343
B(  6-C ,  7-C ) :   0.8899 B(  6-C ,  8-C ) :   0.8947 B(  7-C ,  8-C ) :   0.9765
B(  7-C , 16-H ) :   0.9135 B(  7-C , 17-H ) :   0.9112 B(  8-C , 18-H ) :   0.9114
B(  8-C , 19-H ) :   0.9139

MP2 TOTAL ENERGY:     -402.369442635 Eh
FINAL SINGLE POINT ENERGY      -402.369442634970

DIPOLE MOMENT
-------------
                                X             Y             Z
Electronic contribution:      1.02649      -1.50691       1.92834
Nuclear contribution   :     -1.12365       2.08483      -1.47667
                        -----------------------------------------
Total Dipole Moment    :     -0.09716       0.57792       0.45168
                        -----------------------------------------
Magnitude (a.u.)       :      0.73989
Magnitude (Debye)      :      1.88066

                             ****ORCA TERMINATED NORMALLY****
TOTAL RUN TIME: 0 days 0 hours 19 minutes 43 seconds 149 msec
