                         Program Version 3.0.3 - RELEASE   -
|  1> ! RI-MP2 RIJK def2-TZVP def2-TZVP/C def2-TZVP/JK TIGHTSCF
|  2> % maxcore 2000
|  3> % mp2 density relaxed end
|  4> *xyz 0 1
|  5>  C       -0.2710562704     1.5991532025    -0.0009972658
|  6>  C       -0.0422885044     0.1007872984    -0.0632811297
|  7>  C       -1.1302838247    -0.6739517428     0.6660427317
|  8>  C        0.6237639926    -0.6285937705    -1.1925756187
|  9>  C        1.5194904462     0.0163820935    -2.2190230052
| 10>  O        1.7526109149     1.4277635996    -2.1064855612
| 11>  C        2.7086079163     0.5350575087    -1.5230422167
| 12>  C        2.5137359963     0.2764218962    -0.0321961807
| 13>  N        1.2815316383    -0.5289885404     0.1401815480
| 14>  H        0.4836413698     2.1764573291    -0.5246551906
| 15>  H       -1.2441603142     1.8382726706    -0.4434728707
| 16>  H       -0.3083511901     1.9130290635     1.0495360024
| 17>  H       -2.1066689945    -0.5054554157     0.1981963945
| 18>  H       -0.9182283822    -1.7455500594     0.6622970776
| 19>  H       -1.1945081064    -0.3453327972     1.7093127615
| 20>  H        0.2494928054    -1.6117513673    -1.4748111082
| 21>  H        1.5371384100    -0.3760523305    -3.2318597944
| 22>  H        3.7052084075     0.5728152319    -1.9577477380
| 23>  H        3.3550012051    -0.3147816037     0.3470273594
| 24>  H        2.4775628643     1.2066556134     0.5454866049
| 25> *
| 26>
| 27>                          ****END OF INPUT****

CARTESIAN COORDINATES (ANGSTROEM)
---------------------------------
  C     -0.271056    1.599153   -0.000997
  C     -0.042289    0.100787   -0.063281
  C     -1.130284   -0.673952    0.666043
  C      0.623764   -0.628594   -1.192576
  C      1.519490    0.016382   -2.219023
  O      1.752611    1.427764   -2.106486
  C      2.708608    0.535058   -1.523042
  C      2.513736    0.276422   -0.032196
  N      1.281532   -0.528989    0.140182
  H      0.483641    2.176457   -0.524655
  H     -1.244160    1.838273   -0.443473
  H     -0.308351    1.913029    1.049536
  H     -2.106669   -0.505455    0.198196
  H     -0.918228   -1.745550    0.662297
  H     -1.194508   -0.345333    1.709313
  H      0.249493   -1.611751   -1.474811
  H      1.537138   -0.376052   -3.231860
  H      3.705208    0.572815   -1.957748
  H      3.355001   -0.314782    0.347027
  H      2.477563    1.206656    0.545487

 Total Charge           Charge          ....    0
 Multiplicity           Mult            ....    1
 Number of Electrons    NEL             ....   68
 Basis Dimension        Dim             ....  345

ORBITAL ENERGIES
----------------

  NO   OCC          E(Eh)            E(eV)
   0   2.0000     -20.571587      -559.7813
   1   2.0000     -15.553690      -423.2374
   2   2.0000     -11.293015      -307.2986
   3   2.0000     -11.288806      -307.1840
   4   2.0000     -11.271073      -306.7015
   5   2.0000     -11.259870      -306.3967
   6   2.0000     -11.258647      -306.3634
   7   2.0000     -11.212510      -305.1079
   8   2.0000     -11.209848      -305.0355
   9   2.0000      -1.420466       -38.6529
  10   2.0000      -1.269847       -34.5543
  11   2.0000      -1.050159       -28.5763
  12   2.0000      -0.985583       -26.8191
  13   2.0000      -0.958300       -26.0767
  14   2.0000      -0.934041       -25.4165
  15   2.0000      -0.828644       -22.5486
  16   2.0000      -0.798367       -21.7247
  17   2.0000      -0.732980       -19.9454
  18   2.0000      -0.723060       -19.6755
  19   2.0000      -0.634915       -17.2769
  20   2.0000      -0.628253       -17.0956
  21   2.0000      -0.616421       -16.7737
  22   2.0000      -0.592331       -16.1181
  23   2.0000      -0.564569       -15.3627
  24   2.0000      -0.555505       -15.1161
  25   2.0000      -0.533800       -14.5254
  26   2.0000      -0.526521       -14.3274
  27   2.0000      -0.520136       -14.1536
  28   2.0000      -0.512752       -13.9527
  29   2.0000      -0.477447       -12.9920
  30   2.0000      -0.456572       -12.4239
  31   2.0000      -0.427335       -11.6284
  32   2.0000      -0.417895       -11.3715
  33   2.0000      -0.354034        -9.6338
  34   0.0000       0.142241         3.8706
  35   0.0000       0.161813         4.4031
  36   0.0000       0.168728         4.5913
  37   0.0000       0.180982         4.9248
  38   0.0000       0.189488         5.1562

MULLIKEN ATOMIC CHARGES
-----------------------
   0 C :   -0.384674
   1 C :    0.188047
   2 C :   -0.415964
   3 C :   -0.094337
   4 C :   -0.028038
   5 O :   -0.325137
   6 C :   -0.016606
   7 C :   -0.132740
   8 N :   -0.258696
   9 H :    0.169742
  10 H :    0.132564
  11 H :    0.125384
  12 H :    0.124121
  13 H :    0.138888
  14 H :    0.126839
  15 H :    0.123529
  16 H :    0.139248
  17 H :    0.129329
  18 H :    0.134473
  19 H :    0.124028
Sum of atomic charges:    0.0000000

LOEWDIN ATOMIC CHARGES
----------------------
   0 C :   -0.272635
   1 C :   -0.301566
   2 C :   -0.265157
   3 C :   -0.191647
   4 C :   -0.243577
   5 O :    0.169191
   6 C :   -0.256494
   7 C :   -0.253172
   8 N :    0.142839
   9 H :    0.130257
  10 H :    0.133329
  11 H :    0.128635
  12 H :    0.125577
  13 H :    0.129235
  14 H :    0.127194
  15 H :    0.145566
  16 H :    0.139381
  17 H :    0.134422
  18 H :    0.139883
  19 H :    0.138739

  Mayer bond orders larger than 0.1
B(  0-C ,  1-C ) :   0.8741 B(  0-C ,  9-H ) :   0.9290 B(  0-C , 10-H ) :   0.9301
B(  0-C , 11-H ) :   0.9326 B(  1-C ,  2-C ) :   0.8786 B(  1-C ,  3-C ) :   0.9223
B(  1-C ,  8-N ) :   0.8143 B(  2-C , 12-H ) :   0.9357 B(  2-C , 13-H ) :   0.9393
B(  2-C , 14-H ) :   0.9385 B(  3-C ,  4-C ) :   0.9348 B(  3-C ,  8-N ) :   0.9209
B(  3-C , 15-H ) :   0.8867 B(  4-C ,  5-O ) :   0.9019 B(  4-C ,  6-C ) :   0.9492
B(  4-C , 16-H ) :   0.9235 B(  5-O ,  6-C ) :   0.8941 B(  6-C ,  7-C ) :   0.9447
B(  6-C , 17-H ) :   0.9224 B(  7-C ,  8-N ) :   0.9410 B(  7-C , 18-H ) :   0.9209
B(  7-C , 19-H ) :   0.9182

MP2 TOTAL ENERGY:     -402.415701162 Eh
FINAL SINGLE POINT ENERGY      -402.415701162261

DIPOLE MOMENT
-------------
                                X             Y             Z
Electronic contribution:      4.63266      -0.10871      -4.42498
Nuclear contribution   :     -4.48178      -0.07160       4.25466
                        -----------------------------------------
Total Dipole Moment    :      0.15088      -0.18031      -0.17032
                        -----------------------------------------
Magnitude (a.u.)       :      0.29032
Magnitude (Debye)      :      0.73793

                             ****ORCA TERMINATED NORMALLY****
TOTAL RUN TIME: 0 days 0 hours 21 minutes 47 seconds 88 msec
