                         Program Version 3.0.3 - RELEASE   -
|  1> ! RI-MP2 RIJK def2-TZVP def2-TZVP/C def2-TZVP/JK TIGHTSCF
|  2> % maxcore 2000
|  3> % mp2 density relaxed end
|  4> *xyz 0 1
|  5>  C       -0.0339269207     1.5540094631    -0.0266658668
|  6>  C        0.0384436010     0.0353099694    -0.0077218338
|  7>  O        0.8195013773    -0.4692411352    -1.1099067925
|  8>  C        1.8460239178    -1.2402464523    -0.6533274419
|  9>  N        2.7182641022    -1.8426159708    -1.3336323514
| 10>  N        1.7825066604    -1.2571618299     0.7362699697
| 11>  C        0.7399819752    -0.5156501892     1.2373064355
| 12>  O        0.4460194138    -0.3314632033     2.3910290733
| 13>  H        0.9685461202     1.9897490448     0.0054821116
| 14>  H       -0.5400184105     1.9016011113    -0.9302244014
| 15>  H       -0.5919061617     1.8942219569     0.8495874145
| 16>  H       -0.9653055368    -0.4006698968    -0.0750757520
| 17>  H        2.5673762306    -1.6869996590    -2.3280776463
| 18>  H        2.4555778012    -1.7564796189     1.2955572614
| 19> *
| 20>
| 21>                          ****END OF INPUT****

CARTESIAN COORDINATES (ANGSTROEM)
---------------------------------
  C     -0.033927    1.554009   -0.026666
  C      0.038444    0.035310   -0.007722
  O      0.819501   -0.469241   -1.109907
  C      1.846024   -1.240246   -0.653327
  N      2.718264   -1.842616   -1.333632
  N      1.782507   -1.257162    0.736270
  C      0.739982   -0.515650    1.237306
  O      0.446019   -0.331463    2.391029
  H      0.968546    1.989749    0.005482
  H     -0.540018    1.901601   -0.930224
  H     -0.591906    1.894222    0.849587
  H     -0.965306   -0.400670   -0.075076
  H      2.567376   -1.687000   -2.328078
  H      2.455578   -1.756480    1.295557

 Total Charge           Charge          ....    0
 Multiplicity           Mult            ....    1
 Number of Electrons    NEL             ....   60
 Basis Dimension        Dim             ....  284

ORBITAL ENERGIES
----------------

  NO   OCC          E(Eh)            E(eV)
   0   2.0000     -20.623553      -561.1954
   1   2.0000     -20.557596      -559.4006
   2   2.0000     -15.628788      -425.2809
   3   2.0000     -15.541994      -422.9192
   4   2.0000     -11.394585      -310.0624
   5   2.0000     -11.385063      -309.8033
   6   2.0000     -11.331365      -308.3421
   7   2.0000     -11.248392      -306.0843
   8   2.0000      -1.480357       -40.2825
   9   2.0000      -1.413886       -38.4738
  10   2.0000      -1.279670       -34.8216
  11   2.0000      -1.206402       -32.8279
  12   2.0000      -1.067956       -29.0606
  13   2.0000      -0.929789       -25.3009
  14   2.0000      -0.868595       -23.6357
  15   2.0000      -0.846926       -23.0460
  16   2.0000      -0.737191       -20.0600
  17   2.0000      -0.711746       -19.3676
  18   2.0000      -0.692721       -18.8499
  19   2.0000      -0.657826       -17.9003
  20   2.0000      -0.634970       -17.2784
  21   2.0000      -0.606138       -16.4939
  22   2.0000      -0.591614       -16.0986
  23   2.0000      -0.573345       -15.6015
  24   2.0000      -0.564061       -15.3489
  25   2.0000      -0.549966       -14.9653
  26   2.0000      -0.468079       -12.7371
  27   2.0000      -0.466087       -12.6829
  28   2.0000      -0.445952       -12.1350
  29   2.0000      -0.398080       -10.8323
  30   0.0000       0.120866         3.2889
  31   0.0000       0.141957         3.8629
  32   0.0000       0.162605         4.4247
  33   0.0000       0.165699         4.5089
  34   0.0000       0.172637         4.6977

MULLIKEN ATOMIC CHARGES
-----------------------
   0 C :   -0.391701
   1 C :    0.102062
   2 O :   -0.261670
   3 C :    0.255185
   4 N :   -0.397569
   5 N :   -0.262320
   6 C :    0.185923
   7 O :   -0.305687
   8 H :    0.137470
   9 H :    0.149636
  10 H :    0.154344
  11 H :    0.128845
  12 H :    0.236941
  13 H :    0.268540
Sum of atomic charges:    0.0000000

LOEWDIN ATOMIC CHARGES
----------------------
   0 C :   -0.275705
   1 C :   -0.261588
   2 O :    0.256282
   3 C :   -0.479013
   4 N :   -0.078279
   5 N :    0.186148
   6 C :   -0.413236
   7 O :    0.123441
   8 H :    0.132186
   9 H :    0.131063
  10 H :    0.140425
  11 H :    0.157448
  12 H :    0.175151
  13 H :    0.205677

  Mayer bond orders larger than 0.1
B(  0-C ,  1-C ) :   0.9326 B(  0-C ,  8-H ) :   0.9236 B(  0-C ,  9-H ) :   0.9346
B(  0-C , 10-H ) :   0.9229 B(  1-C ,  2-O ) :   0.8741 B(  1-C ,  6-C ) :   0.8889
B(  1-C , 11-H ) :   0.9053 B(  2-O ,  3-C ) :   1.0914 B(  3-C ,  4-N ) :   2.0105
B(  3-C ,  5-N ) :   1.0194 B(  4-N , 12-H ) :   0.8506 B(  5-N ,  6-C ) :   1.1174
B(  5-N , 13-H ) :   0.8525 B(  6-C ,  7-O ) :   2.0292

MP2 TOTAL ENERGY:     -415.259171653 Eh
FINAL SINGLE POINT ENERGY      -415.259171652764

DIPOLE MOMENT
-------------
                                X             Y             Z
Electronic contribution:      1.79424      -4.18746       1.52963
Nuclear contribution   :     -2.18260       4.58860      -1.96542
                        -----------------------------------------
Total Dipole Moment    :     -0.38836       0.40114      -0.43579
                        -----------------------------------------
Magnitude (a.u.)       :      0.70827
Magnitude (Debye)      :      1.80028

                             ****ORCA TERMINATED NORMALLY****
TOTAL RUN TIME: 0 days 0 hours 9 minutes 39 seconds 487 msec
