                         Program Version 3.0.3 - RELEASE   -
|  1> ! RI-MP2 RIJK def2-TZVP def2-TZVP/C def2-TZVP/JK TIGHTSCF
|  2> % maxcore 2000
|  3> % mp2 density relaxed end
|  4> *xyz 0 1
|  5>  C        0.4252567959     0.9387547160    -0.5200748845
|  6>  N        0.0334983167    -0.2358621186     0.2522517924
|  7>  C        0.4546368757    -0.1448732003     1.6398462473
|  8>  C       -1.2928570778    -0.6646156114     0.0735432018
|  9>  C       -2.2588400687    -0.8196221416     1.0276442834
| 10>  O       -3.3909823093    -1.3497534135     0.4805613518
| 11>  C       -3.1404871632    -1.5186587689    -0.8408080852
| 12>  C       -1.8805054760    -1.1289722317    -1.1679340437
| 13>  C       -1.2314517708    -1.2318454925    -2.5132738366
| 14>  H        1.5110031782     1.0647568545    -0.4592920056
| 15>  H        0.1580251324     0.8126393983    -1.5697209898
| 16>  H       -0.0505055325     1.8655052922    -0.1539696258
| 17>  H       -0.0537265819     0.6642557110     2.1957817128
| 18>  H        0.2515488856    -1.0912327963     2.1483801411
| 19>  H        1.5309436563     0.0481055125     1.6789550674
| 20>  H       -2.2903147947    -0.6397819519     2.0878699199
| 21>  H       -3.9442092119    -1.9408252985    -1.4228476431
| 22>  H       -1.8019231106    -1.8953227465    -3.1694877632
| 23>  H       -1.1546201798    -0.2622546164    -3.0204349474
| 24>  H       -0.2158313036    -1.6327027361    -2.4266654829
| 25> *
| 26>
| 27>                          ****END OF INPUT****

CARTESIAN COORDINATES (ANGSTROEM)
---------------------------------
  C      0.425257    0.938755   -0.520075
  N      0.033498   -0.235862    0.252252
  C      0.454637   -0.144873    1.639846
  C     -1.292857   -0.664616    0.073543
  C     -2.258840   -0.819622    1.027644
  O     -3.390982   -1.349753    0.480561
  C     -3.140487   -1.518659   -0.840808
  C     -1.880505   -1.128972   -1.167934
  C     -1.231452   -1.231845   -2.513274
  H      1.511003    1.064757   -0.459292
  H      0.158025    0.812639   -1.569721
  H     -0.050506    1.865505   -0.153970
  H     -0.053727    0.664256    2.195782
  H      0.251549   -1.091233    2.148380
  H      1.530944    0.048106    1.678955
  H     -2.290315   -0.639782    2.087870
  H     -3.944209   -1.940825   -1.422848
  H     -1.801923   -1.895323   -3.169488
  H     -1.154620   -0.262255   -3.020435
  H     -0.215831   -1.632703   -2.426665

 Total Charge           Charge          ....    0
 Multiplicity           Mult            ....    1
 Number of Electrons    NEL             ....   68
 Basis Dimension        Dim             ....  345

ORBITAL ENERGIES
----------------

  NO   OCC          E(Eh)            E(eV)
   0   2.0000     -20.606608      -560.7343
   1   2.0000     -15.563145      -423.4947
   2   2.0000     -11.275004      -306.8084
   3   2.0000     -11.265991      -306.5632
   4   2.0000     -11.256275      -306.2988
   5   2.0000     -11.250820      -306.1504
   6   2.0000     -11.249518      -306.1150
   7   2.0000     -11.227508      -305.5160
   8   2.0000     -11.226581      -305.4908
   9   2.0000      -1.444282       -39.3009
  10   2.0000      -1.244398       -33.8618
  11   2.0000      -1.083463       -29.4825
  12   2.0000      -1.005443       -27.3595
  13   2.0000      -0.957658       -26.0592
  14   2.0000      -0.941936       -25.6314
  15   2.0000      -0.882718       -24.0200
  16   2.0000      -0.769689       -20.9443
  17   2.0000      -0.755224       -20.5507
  18   2.0000      -0.704899       -19.1813
  19   2.0000      -0.641913       -17.4673
  20   2.0000      -0.629943       -17.1416
  21   2.0000      -0.621258       -16.9053
  22   2.0000      -0.610513       -16.6129
  23   2.0000      -0.595158       -16.1951
  24   2.0000      -0.568185       -15.4611
  25   2.0000      -0.566012       -15.4020
  26   2.0000      -0.546341       -14.8667
  27   2.0000      -0.538019       -14.6402
  28   2.0000      -0.532253       -14.4833
  29   2.0000      -0.521708       -14.1964
  30   2.0000      -0.493391       -13.4258
  31   2.0000      -0.419414       -11.4128
  32   2.0000      -0.340468        -9.2646
  33   2.0000      -0.296400        -8.0655
  34   0.0000       0.135225         3.6797
  35   0.0000       0.153208         4.1690
  36   0.0000       0.153520         4.1775
  37   0.0000       0.173464         4.7202
  38   0.0000       0.187021         5.0891

MULLIKEN ATOMIC CHARGES
-----------------------
   0 C :   -0.285581
   1 N :   -0.129262
   2 C :   -0.337728
   3 C :    0.096365
   4 C :   -0.113153
   5 O :   -0.211221
   6 C :   -0.014084
   7 C :   -0.058541
   8 C :   -0.457649
   9 H :    0.131291
  10 H :    0.133020
  11 H :    0.114214
  12 H :    0.117673
  13 H :    0.148015
  14 H :    0.137291
  15 H :    0.145913
  16 H :    0.139657
  17 H :    0.141883
  18 H :    0.142935
  19 H :    0.158963
Sum of atomic charges:   -0.0000000

LOEWDIN ATOMIC CHARGES
----------------------
   0 C :   -0.304429
   1 N :    0.098847
   2 C :   -0.312686
   3 C :   -0.223689
   4 C :   -0.246347
   5 O :    0.331066
   6 C :   -0.233388
   7 C :   -0.186820
   8 C :   -0.274693
   9 H :    0.118052
  10 H :    0.120306
  11 H :    0.106784
  12 H :    0.105279
  13 H :    0.123878
  14 H :    0.119312
  15 H :    0.132360
  16 H :    0.132855
  17 H :    0.132358
  18 H :    0.126033
  19 H :    0.134924

  Mayer bond orders larger than 0.1
B(  0-C ,  1-N ) :   0.8921 B(  0-C ,  9-H ) :   0.9375 B(  0-C , 10-H ) :   0.9410
B(  0-C , 11-H ) :   0.9236 B(  1-N ,  2-C ) :   0.9137 B(  1-N ,  3-C ) :   1.0763
B(  2-C , 12-H ) :   0.9264 B(  2-C , 13-H ) :   0.9353 B(  2-C , 14-H ) :   0.9357
B(  3-C ,  4-C ) :   1.4652 B(  3-C ,  7-C ) :   1.1571 B(  4-C ,  5-O ) :   1.0268
B(  4-C , 15-H ) :   0.9397 B(  5-O ,  6-C ) :   1.0487 B(  6-C ,  7-C ) :   1.5490
B(  6-C , 16-H ) :   0.9425 B(  7-C ,  8-C ) :   0.8359 B(  8-C , 17-H ) :   0.9421
B(  8-C , 18-H ) :   0.9351 B(  8-C , 19-H ) :   0.9466

MP2 TOTAL ENERGY:     -402.461861803 Eh
FINAL SINGLE POINT ENERGY      -402.461861802603

DIPOLE MOMENT
-------------
                                X             Y             Z
Electronic contribution:     -7.63764      -3.71257       2.01085
Nuclear contribution   :      8.06737       3.99925      -2.15027
                        -----------------------------------------
Total Dipole Moment    :      0.42973       0.28668      -0.13942
                        -----------------------------------------
Magnitude (a.u.)       :      0.53506
Magnitude (Debye)      :      1.36001

                             ****ORCA TERMINATED NORMALLY****
TOTAL RUN TIME: 0 days 0 hours 19 minutes 6 seconds 371 msec
