                         Program Version 3.0.3 - RELEASE   -
|  1> ! RI-MP2 RIJK def2-TZVP def2-TZVP/C def2-TZVP/JK TIGHTSCF
|  2> % maxcore 2000
|  3> % mp2 density relaxed end
|  4> *xyz 0 1
|  5>  C       -0.0496954368     1.5238088286    -0.0334665023
|  6>  C       -0.0367674124     0.0003400433    -0.0306119739
|  7>  C       -1.2790730526    -0.7145069855     0.5557021860
|  8>  O       -0.4627102048    -1.5276870664     1.4228170338
|  9>  C        0.6966253854    -0.6898969755     1.1507531573
| 10>  C        1.9632338208    -1.4237413119     0.8591238133
| 11>  C        2.5614839709    -1.3484827144    -0.3299371394
| 12>  C        1.9499429562    -0.6264179052    -1.5041502049
| 13>  C        0.4182867519    -0.5856368373    -1.3779798118
| 14>  H        0.9320403907     1.9316382069    -0.2996471896
| 15>  H       -0.7732890233     1.9067320785    -0.7623675587
| 16>  H       -0.3188019129     1.9237834595     0.9496109882
| 17>  H       -1.9459838186    -0.0524078269     1.1270866083
| 18>  H       -1.8801010352    -1.3204624002    -0.1326088170
| 19>  H        0.8547008332    -0.0013172556     1.9969820996
| 20>  H        2.4102299301    -1.9835213148     1.6768299982
| 21>  H        3.5204885354    -1.8371180939    -0.4851272298
| 22>  H        2.3636258193     0.3893305569    -1.5873321476
| 23>  H        2.2314581924    -1.1319412992    -2.4350364877
| 24>  H        0.0526390500    -1.6149077433    -1.4619128996
| 25>  H       -0.0240265397    -0.0173647439    -2.2045100723
| 26> *
| 27>
| 28>                          ****END OF INPUT****

CARTESIAN COORDINATES (ANGSTROEM)
---------------------------------
  C     -0.049695    1.523809   -0.033467
  C     -0.036767    0.000340   -0.030612
  C     -1.279073   -0.714507    0.555702
  O     -0.462710   -1.527687    1.422817
  C      0.696625   -0.689897    1.150753
  C      1.963234   -1.423741    0.859124
  C      2.561484   -1.348483   -0.329937
  C      1.949943   -0.626418   -1.504150
  C      0.418287   -0.585637   -1.377980
  H      0.932040    1.931638   -0.299647
  H     -0.773289    1.906732   -0.762368
  H     -0.318802    1.923783    0.949611
  H     -1.945984   -0.052408    1.127087
  H     -1.880101   -1.320462   -0.132609
  H      0.854701   -0.001317    1.996982
  H      2.410230   -1.983521    1.676830
  H      3.520489   -1.837118   -0.485127
  H      2.363626    0.389331   -1.587332
  H      2.231458   -1.131941   -2.435036
  H      0.052639   -1.614908   -1.461913
  H     -0.024027   -0.017365   -2.204510

 Total Charge           Charge          ....    0
 Multiplicity           Mult            ....    1
 Number of Electrons    NEL             ....   68
 Basis Dimension        Dim             ....  351

ORBITAL ENERGIES
----------------

  NO   OCC          E(Eh)            E(eV)
   0   2.0000     -20.541614      -558.9657
   1   2.0000     -11.278888      -306.9141
   2   2.0000     -11.271151      -306.7036
   3   2.0000     -11.237978      -305.8009
   4   2.0000     -11.232184      -305.6433
   5   2.0000     -11.230162      -305.5883
   6   2.0000     -11.224843      -305.4435
   7   2.0000     -11.222586      -305.3821
   8   2.0000     -11.221333      -305.3480
   9   2.0000      -1.370843       -37.3025
  10   2.0000      -1.119370       -30.4596
  11   2.0000      -1.051465       -28.6118
  12   2.0000      -0.997195       -27.1351
  13   2.0000      -0.922473       -25.1018
  14   2.0000      -0.914696       -24.8901
  15   2.0000      -0.844413       -22.9776
  16   2.0000      -0.773771       -21.0554
  17   2.0000      -0.691654       -18.8209
  18   2.0000      -0.668885       -18.2013
  19   2.0000      -0.654168       -17.8008
  20   2.0000      -0.639575       -17.4037
  21   2.0000      -0.606454       -16.5024
  22   2.0000      -0.592738       -16.1292
  23   2.0000      -0.562668       -15.3110
  24   2.0000      -0.557688       -15.1755
  25   2.0000      -0.549027       -14.9398
  26   2.0000      -0.535574       -14.5737
  27   2.0000      -0.515635       -14.0311
  28   2.0000      -0.500282       -13.6134
  29   2.0000      -0.469840       -12.7850
  30   2.0000      -0.438227       -11.9248
  31   2.0000      -0.422600       -11.4995
  32   2.0000      -0.405313       -11.0291
  33   2.0000      -0.357282        -9.7221
  34   0.0000       0.129234         3.5166
  35   0.0000       0.150371         4.0918
  36   0.0000       0.159918         4.3516
  37   0.0000       0.170649         4.6436
  38   0.0000       0.176391         4.7998

MULLIKEN ATOMIC CHARGES
-----------------------
   0 C :   -0.441864
   1 C :    0.112755
   2 C :   -0.043611
   3 O :   -0.330468
   4 C :    0.125906
   5 C :   -0.244261
   6 C :   -0.142266
   7 C :   -0.199872
   8 C :   -0.260117
   9 H :    0.136241
  10 H :    0.135225
  11 H :    0.134379
  12 H :    0.086746
  13 H :    0.100125
  14 H :    0.078840
  15 H :    0.125012
  16 H :    0.124377
  17 H :    0.121638
  18 H :    0.131740
  19 H :    0.127512
  20 H :    0.121964
Sum of atomic charges:   -0.0000000

LOEWDIN ATOMIC CHARGES
----------------------
   0 C :   -0.272416
   1 C :   -0.260990
   2 C :   -0.235329
   3 O :    0.131052
   4 C :   -0.226354
   5 C :   -0.150016
   6 C :   -0.153932
   7 C :   -0.248490
   8 C :   -0.210555
   9 H :    0.128000
  10 H :    0.127578
  11 H :    0.126231
  12 H :    0.118153
  13 H :    0.117671
  14 H :    0.143938
  15 H :    0.145497
  16 H :    0.141914
  17 H :    0.143629
  18 H :    0.143616
  19 H :    0.150630
  20 H :    0.140172

  Mayer bond orders larger than 0.1
B(  0-C ,  1-C ) :   0.9131 B(  0-C ,  9-H ) :   0.9340 B(  0-C , 10-H ) :   0.9351
B(  0-C , 11-H ) :   0.9355 B(  1-C ,  2-C ) :   0.9604 B(  1-C ,  4-C ) :   0.9590
B(  1-C ,  8-C ) :   0.8891 B(  2-C ,  3-O ) :   0.9547 B(  2-C , 12-H ) :   0.9077
B(  2-C , 13-H ) :   0.9046 B(  3-O ,  4-C ) :   0.9522 B(  4-C ,  5-C ) :   0.9331
B(  4-C , 14-H ) :   0.9144 B(  5-C ,  6-C ) :   1.7869 B(  5-C , 15-H ) :   0.9270
B(  6-C ,  7-C ) :   0.9306 B(  6-C , 16-H ) :   0.9267 B(  7-C ,  8-C ) :   0.9407
B(  7-C , 17-H ) :   0.9129 B(  7-C , 18-H ) :   0.9304 B(  8-C , 19-H ) :   0.9232
B(  8-C , 20-H ) :   0.9313

MP2 TOTAL ENERGY:     -386.409461306 Eh
FINAL SINGLE POINT ENERGY      -386.409461306367

DIPOLE MOMENT
-------------
                                X             Y             Z
Electronic contribution:      0.04660      -4.27433       3.74510
Nuclear contribution   :      0.16383       4.87928      -4.33391
                        -----------------------------------------
Total Dipole Moment    :      0.21043       0.60494      -0.58881
                        -----------------------------------------
Magnitude (a.u.)       :      0.87002
Magnitude (Debye)      :      2.21142

                             ****ORCA TERMINATED NORMALLY****
TOTAL RUN TIME: 0 days 0 hours 19 minutes 31 seconds 618 msec
