                         Program Version 3.0.3 - RELEASE   -
|  1> ! RI-MP2 RIJK def2-TZVP def2-TZVP/C def2-TZVP/JK TIGHTSCF
|  2> % maxcore 2000
|  3> % mp2 density relaxed end
|  4> *xyz 0 1
|  5>  C       -0.0785268104     1.5660552664     0.1104149303
|  6>  C        0.0575814362     0.0496528121     0.0844662814
|  7>  O       -1.2353475846    -0.5568730699    -0.0168720706
|  8>  C        1.0933231711    -0.5948316339    -0.9043121000
|  9>  C        1.7768803277    -1.2773927968     0.2868728986
| 10>  C        2.2226227904    -0.2485033634     1.2901658630
| 11>  C        0.7739145420    -0.6481061997     1.2580493447
| 12>  C       -0.0102017197    -1.2436459293     2.4040388663
| 13>  O       -0.9872405957    -0.3315383037     2.8910820174
| 14>  H        0.8931218393     2.0589202801     0.1950498994
| 15>  H       -0.5461178784     1.9268470671    -0.8152575303
| 16>  H       -0.6950568815     1.8745149029     0.9592867676
| 17>  H       -1.6915216917    -0.1625642650    -0.7681763017
| 18>  H        0.5869555639    -1.2970771970    -1.5699384323
| 19>  H        1.7131719264     0.0878814191    -1.4966944750
| 20>  H        2.1741538871    -2.2853866180     0.2875819721
| 21>  H        2.7751119675    -0.6378700682     2.1403397474
| 22>  H        2.5560727423     0.7349853309     0.9667696773
| 23>  H       -0.4868775597    -2.1808102684     2.0828808093
| 24>  H        0.6500857504    -1.4803603475     3.2450455522
| 25>  H       -1.6239628127    -0.2418943576     2.1711597130
| 26> *
| 27>
| 28>                          ****END OF INPUT****

CARTESIAN COORDINATES (ANGSTROEM)
---------------------------------
  C     -0.078527    1.566055    0.110415
  C      0.057581    0.049653    0.084466
  O     -1.235348   -0.556873   -0.016872
  C      1.093323   -0.594832   -0.904312
  C      1.776880   -1.277393    0.286873
  C      2.222623   -0.248503    1.290166
  C      0.773915   -0.648106    1.258049
  C     -0.010202   -1.243646    2.404039
  O     -0.987241   -0.331538    2.891082
  H      0.893122    2.058920    0.195050
  H     -0.546118    1.926847   -0.815258
  H     -0.695057    1.874515    0.959287
  H     -1.691522   -0.162564   -0.768176
  H      0.586956   -1.297077   -1.569938
  H      1.713172    0.087881   -1.496694
  H      2.174154   -2.285387    0.287582
  H      2.775112   -0.637870    2.140340
  H      2.556073    0.734985    0.966770
  H     -0.486878   -2.180810    2.082881
  H      0.650086   -1.480360    3.245046
  H     -1.623963   -0.241894    2.171160

 Total Charge           Charge          ....    0
 Multiplicity           Mult            ....    1
 Number of Electrons    NEL             ....   70
 Basis Dimension        Dim             ....  351

ORBITAL ENERGIES
----------------

  NO   OCC          E(Eh)            E(eV)
   0   2.0000     -20.567236      -559.6629
   1   2.0000     -20.539557      -558.9098
   2   2.0000     -11.294811      -307.3474
   3   2.0000     -11.268023      -306.6185
   4   2.0000     -11.234113      -305.6958
   5   2.0000     -11.233384      -305.6759
   6   2.0000     -11.229482      -305.5697
   7   2.0000     -11.227762      -305.5229
   8   2.0000     -11.220409      -305.3228
   9   2.0000      -1.376526       -37.4572
  10   2.0000      -1.343324       -36.5537
  11   2.0000      -1.189366       -32.3643
  12   2.0000      -1.013173       -27.5698
  13   2.0000      -0.963802       -26.2264
  14   2.0000      -0.932058       -25.3626
  15   2.0000      -0.847481       -23.0611
  16   2.0000      -0.793536       -21.5932
  17   2.0000      -0.723944       -19.6995
  18   2.0000      -0.699722       -19.0404
  19   2.0000      -0.664816       -18.0905
  20   2.0000      -0.652595       -17.7580
  21   2.0000      -0.635384       -17.2897
  22   2.0000      -0.610682       -16.6175
  23   2.0000      -0.583126       -15.8677
  24   2.0000      -0.580084       -15.7849
  25   2.0000      -0.563903       -15.3446
  26   2.0000      -0.539940       -14.6925
  27   2.0000      -0.526916       -14.3381
  28   2.0000      -0.518548       -14.1104
  29   2.0000      -0.501454       -13.6453
  30   2.0000      -0.473541       -12.8857
  31   2.0000      -0.443396       -12.0654
  32   2.0000      -0.424934       -11.5631
  33   2.0000      -0.407275       -11.0825
  34   2.0000      -0.369840       -10.0639
  35   0.0000       0.126320         3.4373
  36   0.0000       0.156999         4.2722
  37   0.0000       0.166378         4.5274
  38   0.0000       0.172880         4.7043
  39   0.0000       0.185661         5.0521

MULLIKEN ATOMIC CHARGES
-----------------------
   0 C :   -0.412256
   1 C :    0.134556
   2 O :   -0.486505
   3 C :   -0.229612
   4 C :   -0.134470
   5 C :   -0.299976
   6 C :    0.068655
   7 C :   -0.024988
   8 O :   -0.481267
   9 H :    0.121584
  10 H :    0.121851
  11 H :    0.146064
  12 H :    0.316633
  13 H :    0.111340
  14 H :    0.112252
  15 H :    0.131708
  16 H :    0.131443
  17 H :    0.124671
  18 H :    0.115580
  19 H :    0.105401
  20 H :    0.327335
Sum of atomic charges:    0.0000000

LOEWDIN ATOMIC CHARGES
----------------------
   0 C :   -0.279486
   1 C :   -0.330684
   2 O :    0.003908
   3 C :   -0.181253
   4 C :   -0.160493
   5 C :   -0.181331
   6 C :   -0.177606
   7 C :   -0.304735
   8 O :   -0.047138
   9 H :    0.128039
  10 H :    0.122540
  11 H :    0.130651
  12 H :    0.175882
  13 H :    0.138524
  14 H :    0.128123
  15 H :    0.135174
  16 H :    0.142647
  17 H :    0.129812
  18 H :    0.124562
  19 H :    0.131215
  20 H :    0.171647

  Mayer bond orders larger than 0.1
B(  0-C ,  1-C ) :   0.9560 B(  0-C ,  9-H ) :   0.9278 B(  0-C , 10-H ) :   0.9235
B(  0-C , 11-H ) :   0.9338 B(  1-C ,  2-O ) :   0.9617 B(  1-C ,  3-C ) :   0.9643
B(  1-C ,  6-C ) :   0.9026 B(  2-O , 12-H ) :   0.8389 B(  3-C ,  4-C ) :   0.9309
B(  3-C , 13-H ) :   0.9182 B(  3-C , 14-H ) :   0.9018 B(  4-C ,  5-C ) :   0.8877
B(  4-C ,  6-C ) :   0.7949 B(  4-C , 15-H ) :   0.9130 B(  5-C ,  6-C ) :   0.8742
B(  5-C , 16-H ) :   0.9282 B(  5-C , 17-H ) :   0.9116 B(  6-C ,  7-C ) :   0.8938
B(  7-C ,  8-O ) :   0.9473 B(  7-C , 18-H ) :   0.9580 B(  7-C , 19-H ) :   0.9185
B(  8-O , 20-H ) :   0.8307

MP2 TOTAL ENERGY:     -423.497640925 Eh
FINAL SINGLE POINT ENERGY      -423.497640924594

DIPOLE MOMENT
-------------
                                X             Y             Z
Electronic contribution:     -2.08369      -2.28306       1.50073
Nuclear contribution   :      2.28158       2.41244      -2.51471
                        -----------------------------------------
Total Dipole Moment    :      0.19790       0.12938      -1.01398
                        -----------------------------------------
Magnitude (a.u.)       :      1.04118
Magnitude (Debye)      :      2.64648

                             ****ORCA TERMINATED NORMALLY****
TOTAL RUN TIME: 0 days 0 hours 19 minutes 30 seconds 408 msec
