                         Program Version 3.0.3 - RELEASE   -
|  1> ! RI-MP2 RIJK def2-TZVP def2-TZVP/C def2-TZVP/JK TIGHTSCF
|  2> % maxcore 2000
|  3> % mp2 density relaxed end
|  4> *xyz 0 1
|  5>  C       -0.6709172069     1.2721297723     0.1685272284
|  6>  C        0.3326242105     0.1759385567    -0.0911242558
|  7>  O        1.2154983030    -0.1041663933     0.6827586382
|  8>  C        0.2176697404    -0.6615266925    -1.3978964809
|  9>  C        1.5704661104    -0.6588317360    -2.1437054815
| 10>  C       -0.1464348939    -2.1240752275    -0.9646814932
| 11>  O       -0.2586431223    -3.0005056384    -2.0568695738
| 12>  C       -0.8489308908    -0.1883558212    -2.2843346973
| 13>  N       -1.7064446425     0.1308123142    -2.9922035990
| 14>  H       -0.6158028754     2.0297756776    -0.6209456685
| 15>  H       -1.6911287234     0.8740722579     0.1380774201
| 16>  H       -0.4723194089     1.7264771186     1.1392593663
| 17>  H        2.3571260490    -0.9118153360    -1.4303802270
| 18>  H        1.5474402926    -1.4031775516    -2.9411947576
| 19>  H        1.7852045804     0.3215877097    -2.5757635702
| 20>  H        0.6731524469    -2.4853259267    -0.3398574802
| 21>  H       -1.0623756988    -2.1064748732    -0.3567458781
| 22>  H       -1.0521607403    -2.7697997905    -2.5539730699
| 23> *
| 24>
| 25>                          ****END OF INPUT****

CARTESIAN COORDINATES (ANGSTROEM)
---------------------------------
  C     -0.670917    1.272130    0.168527
  C      0.332624    0.175939   -0.091124
  O      1.215498   -0.104166    0.682759
  C      0.217670   -0.661527   -1.397896
  C      1.570466   -0.658832   -2.143705
  C     -0.146435   -2.124075   -0.964681
  O     -0.258643   -3.000506   -2.056870
  C     -0.848931   -0.188356   -2.284335
  N     -1.706445    0.130812   -2.992204
  H     -0.615803    2.029776   -0.620946
  H     -1.691129    0.874072    0.138077
  H     -0.472319    1.726477    1.139259
  H      2.357126   -0.911815   -1.430380
  H      1.547440   -1.403178   -2.941195
  H      1.785205    0.321588   -2.575764
  H      0.673152   -2.485326   -0.339857
  H     -1.062376   -2.106475   -0.356746
  H     -1.052161   -2.769800   -2.553973

 Total Charge           Charge          ....    0
 Multiplicity           Mult            ....    1
 Number of Electrons    NEL             ....   68
 Basis Dimension        Dim             ....  333

ORBITAL ENERGIES
----------------

  NO   OCC          E(Eh)            E(eV)
   0   2.0000     -20.582888      -560.0889
   1   2.0000     -20.573759      -559.8405
   2   2.0000     -15.590113      -424.2285
   3   2.0000     -11.363909      -309.2277
   4   2.0000     -11.314325      -307.8784
   5   2.0000     -11.307952      -307.7050
   6   2.0000     -11.290162      -307.2209
   7   2.0000     -11.254371      -306.2470
   8   2.0000     -11.247231      -306.0527
   9   2.0000      -1.421203       -38.6729
  10   2.0000      -1.392283       -37.8859
  11   2.0000      -1.240577       -33.7578
  12   2.0000      -1.124766       -30.6065
  13   2.0000      -1.029746       -28.0208
  14   2.0000      -0.957586       -26.0572
  15   2.0000      -0.895224       -24.3603
  16   2.0000      -0.802464       -21.8362
  17   2.0000      -0.723636       -19.6911
  18   2.0000      -0.711690       -19.3661
  19   2.0000      -0.687792       -18.7158
  20   2.0000      -0.642681       -17.4882
  21   2.0000      -0.626632       -17.0515
  22   2.0000      -0.622736       -16.9455
  23   2.0000      -0.598886       -16.2965
  24   2.0000      -0.586794       -15.9675
  25   2.0000      -0.569253       -15.4902
  26   2.0000      -0.561061       -15.2672
  27   2.0000      -0.552428       -15.0323
  28   2.0000      -0.523691       -14.2504
  29   2.0000      -0.520980       -14.1766
  30   2.0000      -0.498798       -13.5730
  31   2.0000      -0.494062       -13.4441
  32   2.0000      -0.456912       -12.4332
  33   2.0000      -0.427189       -11.6244
  34   0.0000       0.112767         3.0685
  35   0.0000       0.117984         3.2105
  36   0.0000       0.149887         4.0786
  37   0.0000       0.155760         4.2385
  38   0.0000       0.161913         4.4059

MULLIKEN ATOMIC CHARGES
-----------------------
   0 C :   -0.396700
   1 C :    0.163347
   2 O :   -0.267940
   3 C :    0.221488
   4 C :   -0.414469
   5 C :   -0.050954
   6 O :   -0.462717
   7 C :   -0.321882
   8 N :   -0.036216
   9 H :    0.163729
  10 H :    0.158834
  11 H :    0.161335
  12 H :    0.164576
  13 H :    0.163392
  14 H :    0.146423
  15 H :    0.149327
  16 H :    0.125626
  17 H :    0.332802
Sum of atomic charges:    0.0000000

LOEWDIN ATOMIC CHARGES
----------------------
   0 C :   -0.265839
   1 C :   -0.297519
   2 O :    0.176005
   3 C :   -0.270346
   4 C :   -0.236146
   5 C :   -0.286156
   6 O :   -0.014809
   7 C :   -0.170071
   8 N :    0.068157
   9 H :    0.147784
  10 H :    0.145989
  11 H :    0.137203
  12 H :    0.138793
  13 H :    0.137766
  14 H :    0.132394
  15 H :    0.144782
  16 H :    0.128360
  17 H :    0.183654

  Mayer bond orders larger than 0.1
B(  0-C ,  1-C ) :   0.9338 B(  0-C ,  9-H ) :   0.9062 B(  0-C , 10-H ) :   0.9103
B(  0-C , 11-H ) :   0.9342 B(  1-C ,  2-O ) :   1.9811 B(  1-C ,  3-C ) :   0.8007
B(  3-C ,  4-C ) :   0.8843 B(  3-C ,  5-C ) :   0.8473 B(  3-C ,  7-C ) :   0.8436
B(  4-C , 12-H ) :   0.9238 B(  4-C , 13-H ) :   0.9246 B(  4-C , 14-H ) :   0.9278
B(  5-C ,  6-O ) :   0.9627 B(  5-C , 15-H ) :   0.9226 B(  5-C , 16-H ) :   0.9200
B(  6-O , 17-H ) :   0.8343 B(  7-C ,  8-N ) :   2.8714

MP2 TOTAL ENERGY:     -438.399505562 Eh
FINAL SINGLE POINT ENERGY      -438.399505561738

DIPOLE MOMENT
-------------
                                X             Y             Z
Electronic contribution:     -1.53411      -0.55644      -0.90677
Nuclear contribution   :      1.49335       0.77992       1.29100
                        -----------------------------------------
Total Dipole Moment    :     -0.04076       0.22349       0.38423
                        -----------------------------------------
Magnitude (a.u.)       :      0.44636
Magnitude (Debye)      :      1.13456

                             ****ORCA TERMINATED NORMALLY****
TOTAL RUN TIME: 0 days 0 hours 17 minutes 23 seconds 907 msec
