                         Program Version 3.0.3 - RELEASE   -
|  1> ! RI-MP2 RIJK def2-TZVP def2-TZVP/C def2-TZVP/JK TIGHTSCF
|  2> % maxcore 2000
|  3> % mp2 density relaxed end
|  4> *xyz 0 1
|  5>  C        0.9442816376     1.9473059025    -0.0398581564
|  6>  C        0.2029486605     0.6173479532    -0.0548944518
|  7>  N        0.4540610198    -0.0892086205    -1.3157030141
|  8>  C       -0.3902414872    -1.0055034381    -1.8366500370
|  9>  O       -1.4233970364    -1.3829348264    -1.3067397393
| 10>  C        0.6143836074    -0.2656686899     1.1529134062
| 11>  N       -0.2293226885    -1.3065857956     1.3705280253
| 12>  O        1.5944310850    -0.0222501069     1.8305046047
| 13>  H        2.0254003632     1.7838517078    -0.0385295022
| 14>  H        0.6631071113     2.5539537929    -0.9051699015
| 15>  H        0.7040583517     2.4994714697     0.8707046204
| 16>  H       -0.8794207520     0.7756924094    -0.0062704631
| 17>  H        1.3152055635     0.1056965284    -1.8030893959
| 18>  H       -0.0516759552    -1.3862439270    -2.8177789640
| 19>  H       -0.9353243040    -1.5378072522     0.6815529679
| 20>  H        0.0315634035    -1.9844671772     2.0687815407
| 21> *
| 22>
| 23>                          ****END OF INPUT****

CARTESIAN COORDINATES (ANGSTROEM)
---------------------------------
  C      0.944282    1.947306   -0.039858
  C      0.202949    0.617348   -0.054894
  N      0.454061   -0.089209   -1.315703
  C     -0.390241   -1.005503   -1.836650
  O     -1.423397   -1.382935   -1.306740
  C      0.614384   -0.265669    1.152913
  N     -0.229323   -1.306586    1.370528
  O      1.594431   -0.022250    1.830505
  H      2.025400    1.783852   -0.038530
  H      0.663107    2.553954   -0.905170
  H      0.704058    2.499471    0.870705
  H     -0.879421    0.775692   -0.006270
  H      1.315206    0.105697   -1.803089
  H     -0.051676   -1.386244   -2.817779
  H     -0.935324   -1.537807    0.681553
  H      0.031563   -1.984467    2.068782

 Total Charge           Charge          ....    0
 Multiplicity           Mult            ....    1
 Number of Electrons    NEL             ....   62
 Basis Dimension        Dim             ....  296

ORBITAL ENERGIES
----------------

  NO   OCC          E(Eh)            E(eV)
   0   2.0000     -20.543845      -559.0264
   1   2.0000     -20.519985      -558.3772
   2   2.0000     -15.612296      -424.8322
   3   2.0000     -15.572809      -423.7577
   4   2.0000     -11.370486      -309.4067
   5   2.0000     -11.349731      -308.8419
   6   2.0000     -11.295053      -307.3540
   7   2.0000     -11.232798      -305.6600
   8   2.0000      -1.404547       -38.2197
   9   2.0000      -1.382712       -37.6255
  10   2.0000      -1.260273       -34.2938
  11   2.0000      -1.205340       -32.7990
  12   2.0000      -1.051943       -28.6248
  13   2.0000      -0.909391       -24.7458
  14   2.0000      -0.849821       -23.1248
  15   2.0000      -0.788987       -21.4694
  16   2.0000      -0.743425       -20.2296
  17   2.0000      -0.730356       -19.8740
  18   2.0000      -0.681154       -18.5351
  19   2.0000      -0.670868       -18.2553
  20   2.0000      -0.619853       -16.8671
  21   2.0000      -0.613955       -16.7066
  22   2.0000      -0.586342       -15.9552
  23   2.0000      -0.554790       -15.0966
  24   2.0000      -0.553066       -15.0497
  25   2.0000      -0.541808       -14.7433
  26   2.0000      -0.523437       -14.2434
  27   2.0000      -0.458955       -12.4888
  28   2.0000      -0.448513       -12.2047
  29   2.0000      -0.412428       -11.2227
  30   2.0000      -0.400021       -10.8851
  31   0.0000       0.121706         3.3118
  32   0.0000       0.144101         3.9212
  33   0.0000       0.150741         4.1019
  34   0.0000       0.162078         4.4104
  35   0.0000       0.179654         4.8886

MULLIKEN ATOMIC CHARGES
-----------------------
   0 C :   -0.395823
   1 C :    0.000336
   2 N :   -0.317763
   3 C :    0.219142
   4 O :   -0.416070
   5 C :    0.258031
   6 N :   -0.473034
   7 O :   -0.352759
   8 H :    0.146185
   9 H :    0.143329
  10 H :    0.146871
  11 H :    0.146652
  12 H :    0.250233
  13 H :    0.101350
  14 H :    0.290854
  15 H :    0.252466
Sum of atomic charges:    0.0000000

LOEWDIN ATOMIC CHARGES
----------------------
   0 C :   -0.286494
   1 C :   -0.264251
   2 N :    0.118649
   3 C :   -0.431116
   4 O :    0.032838
   5 C :   -0.466329
   6 N :   -0.003873
   7 O :    0.084387
   8 H :    0.132400
   9 H :    0.125293
  10 H :    0.137169
  11 H :    0.161354
  12 H :    0.193701
  13 H :    0.116816
  14 H :    0.176584
  15 H :    0.172874

  Mayer bond orders larger than 0.1
B(  0-C ,  1-C ) :   0.9305 B(  0-C ,  8-H ) :   0.9166 B(  0-C ,  9-H ) :   0.9427
B(  0-C , 10-H ) :   0.9340 B(  1-C ,  2-N ) :   0.8119 B(  1-C ,  5-C ) :   0.8743
B(  1-C , 11-H ) :   0.9279 B(  2-N ,  3-C ) :   1.2046 B(  2-N , 12-H ) :   0.8659
B(  3-C ,  4-O ) :   1.7761 B(  3-C , 13-H ) :   0.9267 B(  5-C ,  6-N ) :   1.2258
B(  5-C ,  7-O ) :   1.9627 B(  6-N , 14-H ) :   0.8277 B(  6-N , 15-H ) :   0.8620

MP2 TOTAL ENERGY:     -416.464858326 Eh
FINAL SINGLE POINT ENERGY      -416.464858325555

DIPOLE MOMENT
-------------
                                X             Y             Z
Electronic contribution:     -0.85071      -3.96765       0.75678
Nuclear contribution   :      1.05809       4.14573      -1.68031
                        -----------------------------------------
Total Dipole Moment    :      0.20738       0.17808      -0.92353
                        -----------------------------------------
Magnitude (a.u.)       :      0.96314
Magnitude (Debye)      :      2.44810

                             ****ORCA TERMINATED NORMALLY****
TOTAL RUN TIME: 0 days 0 hours 11 minutes 22 seconds 764 msec
