                         Program Version 3.0.3 - RELEASE   -
|  1> ! RI-MP2 RIJK def2-TZVP def2-TZVP/C def2-TZVP/JK TIGHTSCF
|  2> % maxcore 2000
|  3> % mp2 density relaxed end
|  4> *xyz 0 1
|  5>  O       -0.1300074531     1.4572129977     0.0388659703
|  6>  C       -0.0274229978     0.0285472366     0.0551842434
|  7>  C        0.8820955964    -0.5019551737     1.1825745136
|  8>  C        2.2552489965    -0.7558858206     0.4911686356
|  9>  C        1.8835874647    -0.9051222356    -0.9744842395
| 10>  C        0.6389783920    -0.4952556748    -1.1989323281
| 11>  C       -0.4031520541    -0.5535589806    -2.2699891478
| 12>  O       -1.6543572169    -0.4835199858    -1.5712290870
| 13>  C       -1.4432567515    -0.5053015994    -0.1539894463
| 14>  H        0.7399817342     1.8111850776    -0.1759741219
| 15>  H        0.9346463046     0.2038878941     2.0145071924
| 16>  H        0.4926184755    -1.4486046554     1.5698586355
| 17>  H        2.9636012387     0.0689860854     0.6512184195
| 18>  H        2.7505744835    -1.6532976053     0.8779611131
| 19>  H        2.5643063403    -1.3228537213    -1.7089835877
| 20>  H       -0.3524611633     0.2916814375    -2.9693155512
| 21>  H       -0.3457274036    -1.4799415750    -2.8577844244
| 22>  H       -1.5323608939    -1.5297407854     0.2373370961
| 23>  H       -2.2073564123     0.1265286440     0.3058438343
| 24> *
| 25>
| 26>                          ****END OF INPUT****

CARTESIAN COORDINATES (ANGSTROEM)
---------------------------------
  O     -0.130007    1.457213    0.038866
  C     -0.027423    0.028547    0.055184
  C      0.882096   -0.501955    1.182575
  C      2.255249   -0.755886    0.491169
  C      1.883587   -0.905122   -0.974484
  C      0.638978   -0.495256   -1.198932
  C     -0.403152   -0.553559   -2.269989
  O     -1.654357   -0.483520   -1.571229
  C     -1.443257   -0.505302   -0.153989
  H      0.739982    1.811185   -0.175974
  H      0.934646    0.203888    2.014507
  H      0.492618   -1.448605    1.569859
  H      2.963601    0.068986    0.651218
  H      2.750574   -1.653298    0.877961
  H      2.564306   -1.322854   -1.708984
  H     -0.352461    0.291681   -2.969316
  H     -0.345727   -1.479942   -2.857784
  H     -1.532361   -1.529741    0.237337
  H     -2.207356    0.126529    0.305844

 Total Charge           Charge          ....    0
 Multiplicity           Mult            ....    1
 Number of Electrons    NEL             ....   68
 Basis Dimension        Dim             ....  339

ORBITAL ENERGIES
----------------

  NO   OCC          E(Eh)            E(eV)
   0   2.0000     -20.555885      -559.3541
   1   2.0000     -20.548227      -559.1457
   2   2.0000     -11.285856      -307.1038
   3   2.0000     -11.280581      -306.9602
   4   2.0000     -11.270576      -306.6880
   5   2.0000     -11.240121      -305.8592
   6   2.0000     -11.238947      -305.8273
   7   2.0000     -11.232921      -305.6633
   8   2.0000     -11.230612      -305.6005
   9   2.0000      -1.380308       -37.5601
  10   2.0000      -1.350330       -36.7443
  11   2.0000      -1.138634       -30.9838
  12   2.0000      -1.014248       -27.5991
  13   2.0000      -0.991263       -26.9736
  14   2.0000      -0.936390       -25.4805
  15   2.0000      -0.843411       -22.9504
  16   2.0000      -0.791100       -21.5269
  17   2.0000      -0.747863       -20.3504
  18   2.0000      -0.686994       -18.6941
  19   2.0000      -0.674016       -18.3409
  20   2.0000      -0.643740       -17.5170
  21   2.0000      -0.636982       -17.3332
  22   2.0000      -0.596180       -16.2229
  23   2.0000      -0.575206       -15.6522
  24   2.0000      -0.558542       -15.1987
  25   2.0000      -0.553638       -15.0653
  26   2.0000      -0.545013       -14.8306
  27   2.0000      -0.520944       -14.1756
  28   2.0000      -0.503029       -13.6881
  29   2.0000      -0.497983       -13.5508
  30   2.0000      -0.448240       -12.1972
  31   2.0000      -0.433219       -11.7885
  32   2.0000      -0.418543       -11.3891
  33   2.0000      -0.357161        -9.7188
  34   0.0000       0.123737         3.3671
  35   0.0000       0.143256         3.8982
  36   0.0000       0.163300         4.4436
  37   0.0000       0.163617         4.4522
  38   0.0000       0.167535         4.5589

MULLIKEN ATOMIC CHARGES
-----------------------
   0 O :   -0.462772
   1 C :    0.290996
   2 C :   -0.315385
   3 C :   -0.173505
   4 C :   -0.151024
   5 C :   -0.190263
   6 C :   -0.023298
   7 O :   -0.321916
   8 C :   -0.032323
   9 H :    0.313086
  10 H :    0.140951
  11 H :    0.119313
  12 H :    0.121304
  13 H :    0.126525
  14 H :    0.134652
  15 H :    0.111354
  16 H :    0.108028
  17 H :    0.087472
  18 H :    0.116805
Sum of atomic charges:   -0.0000000

LOEWDIN ATOMIC CHARGES
----------------------
   0 O :    0.011305
   1 C :   -0.330282
   2 C :   -0.200375
   3 C :   -0.236800
   4 C :   -0.122600
   5 C :   -0.146294
   6 C :   -0.256908
   7 O :    0.139756
   8 C :   -0.251949
   9 H :    0.177539
  10 H :    0.138345
  11 H :    0.143122
  12 H :    0.137214
  13 H :    0.138105
  14 H :    0.138591
  15 H :    0.133604
  16 H :    0.130697
  17 H :    0.123363
  18 H :    0.133566

  Mayer bond orders larger than 0.1
B(  0-O ,  1-C ) :   0.9142 B(  0-O ,  9-H ) :   0.8415 B(  1-C ,  2-C ) :   0.8959
B(  1-C ,  5-C ) :   0.9058 B(  1-C ,  8-C ) :   0.9264 B(  2-C ,  3-C ) :   0.9424
B(  2-C , 10-H ) :   0.9418 B(  2-C , 11-H ) :   0.9174 B(  3-C ,  4-C ) :   0.9311
B(  3-C , 12-H ) :   0.9113 B(  3-C , 13-H ) :   0.9292 B(  4-C ,  5-C ) :   1.6884
B(  4-C , 14-H ) :   0.9198 B(  5-C ,  6-C ) :   0.9945 B(  6-C ,  7-O ) :   0.9611
B(  6-C , 15-H ) :   0.9005 B(  6-C , 16-H ) :   0.9218 B(  7-O ,  8-C ) :   0.9402
B(  8-C , 17-H ) :   0.9248 B(  8-C , 18-H ) :   0.9107

MP2 TOTAL ENERGY:     -422.326602318 Eh
FINAL SINGLE POINT ENERGY      -422.326602317594

DIPOLE MOMENT
-------------
                                X             Y             Z
Electronic contribution:     -2.75183       1.71692      -2.39167
Nuclear contribution   :      3.89549      -2.09904       2.60284
                        -----------------------------------------
Total Dipole Moment    :      1.14365      -0.38212       0.21116
                        -----------------------------------------
Magnitude (a.u.)       :      1.22415
Magnitude (Debye)      :      3.11155

                             ****ORCA TERMINATED NORMALLY****
TOTAL RUN TIME: 0 days 0 hours 18 minutes 47 seconds 571 msec
