                         Program Version 3.0.3 - RELEASE   -
|  1> ! RI-MP2 RIJK def2-TZVP def2-TZVP/C def2-TZVP/JK TIGHTSCF
|  2> % maxcore 2000
|  3> % mp2 density relaxed end
|  4> *xyz 0 1
|  5>  C        0.0227079211     1.5194716151    -0.0641645612
|  6>  C       -0.0070007077     0.0053368059     0.0173588013
|  7>  O        0.6594387710    -0.4990064029    -1.1525050277
|  8>  C        0.7502926768    -1.8295097519    -1.2895828495
|  9>  N        0.2418363918    -2.6402993434    -0.3749378899
| 10>  C        0.3851941762    -3.9537427250    -0.6053122898
| 11>  C        1.0260313632    -4.4410848915    -1.7311266412
| 12>  N        1.5405620433    -3.6139084316    -2.6568155328
| 13>  C        1.4050696335    -2.3178426947    -2.4400962189
| 14>  H        1.0517424113     1.8885585783    -0.0903674372
| 15>  H       -0.4926466938     1.8720600455    -0.9618843745
| 16>  H       -0.4757086314     1.9467134011     0.8110029728
| 17>  H        0.5042966181    -0.3664629581     0.9117577975
| 18>  H       -1.0306858261    -0.3831436041     0.0444951642
| 19>  H       -0.0293395415    -4.6270637973     0.1405992966
| 20>  H        1.1337036701    -5.5074021167    -1.9027188656
| 21>  H        1.8102333542    -1.6224394085    -3.1698330941
| 22> *
| 23>
| 24>                          ****END OF INPUT****

CARTESIAN COORDINATES (ANGSTROEM)
---------------------------------
  C      0.022708    1.519472   -0.064165
  C     -0.007001    0.005337    0.017359
  O      0.659439   -0.499006   -1.152505
  C      0.750293   -1.829510   -1.289583
  N      0.241836   -2.640299   -0.374938
  C      0.385194   -3.953743   -0.605312
  C      1.026031   -4.441085   -1.731127
  N      1.540562   -3.613908   -2.656816
  C      1.405070   -2.317843   -2.440096
  H      1.051742    1.888559   -0.090367
  H     -0.492647    1.872060   -0.961884
  H     -0.475709    1.946713    0.811003
  H      0.504297   -0.366463    0.911758
  H     -1.030686   -0.383144    0.044495
  H     -0.029340   -4.627064    0.140599
  H      1.133704   -5.507402   -1.902719
  H      1.810233   -1.622439   -3.169833

 Total Charge           Charge          ....    0
 Multiplicity           Mult            ....    1
 Number of Electrons    NEL             ....   66
 Basis Dimension        Dim             ....  327

ORBITAL ENERGIES
----------------

  NO   OCC          E(Eh)            E(eV)
   0   2.0000     -20.594663      -560.4093
   1   2.0000     -15.591350      -424.2622
   2   2.0000     -15.580260      -423.9604
   3   2.0000     -11.344689      -308.7047
   4   2.0000     -11.288685      -307.1807
   5   2.0000     -11.283039      -307.0271
   6   2.0000     -11.276431      -306.8473
   7   2.0000     -11.266194      -306.5687
   8   2.0000     -11.224471      -305.4334
   9   2.0000      -1.434140       -39.0249
  10   2.0000      -1.298126       -35.3238
  11   2.0000      -1.215350       -33.0714
  12   2.0000      -1.061986       -28.8981
  13   2.0000      -1.014708       -27.6116
  14   2.0000      -0.914201       -24.8767
  15   2.0000      -0.881518       -23.9873
  16   2.0000      -0.835468       -22.7343
  17   2.0000      -0.739811       -20.1313
  18   2.0000      -0.718213       -19.5436
  19   2.0000      -0.695120       -18.9152
  20   2.0000      -0.679037       -18.4775
  21   2.0000      -0.628153       -17.0929
  22   2.0000      -0.591794       -16.1035
  23   2.0000      -0.586463       -15.9585
  24   2.0000      -0.561641       -15.2830
  25   2.0000      -0.546610       -14.8740
  26   2.0000      -0.538804       -14.6616
  27   2.0000      -0.514003       -13.9867
  28   2.0000      -0.491258       -13.3678
  29   2.0000      -0.482251       -13.1227
  30   2.0000      -0.433432       -11.7943
  31   2.0000      -0.412722       -11.2307
  32   2.0000      -0.331881        -9.0309
  33   0.0000       0.088114         2.3977
  34   0.0000       0.129929         3.5356
  35   0.0000       0.138112         3.7582
  36   0.0000       0.169437         4.6106
  37   0.0000       0.182676         4.9709

MULLIKEN ATOMIC CHARGES
-----------------------
   0 C :   -0.360014
   1 C :   -0.049985
   2 O :   -0.252012
   3 C :    0.289152
   4 N :   -0.284099
   5 C :   -0.052861
   6 C :   -0.028103
   7 N :   -0.244206
   8 C :   -0.057292
   9 H :    0.133043
  10 H :    0.133030
  11 H :    0.130812
  12 H :    0.116866
  13 H :    0.116888
  14 H :    0.131665
  15 H :    0.137286
  16 H :    0.139830
Sum of atomic charges:    0.0000000

LOEWDIN ATOMIC CHARGES
----------------------
   0 C :   -0.315303
   1 C :   -0.310736
   2 O :    0.258540
   3 C :   -0.350389
   4 N :    0.153005
   5 C :   -0.220791
   6 C :   -0.229207
   7 N :    0.137881
   8 C :   -0.182106
   9 H :    0.125296
  10 H :    0.125283
  11 H :    0.128048
  12 H :    0.126727
  13 H :    0.126731
  14 H :    0.140930
  15 H :    0.140763
  16 H :    0.145327

  Mayer bond orders larger than 0.1
B(  0-C ,  1-C ) :   0.9402 B(  0-C ,  9-H ) :   0.9338 B(  0-C , 10-H ) :   0.9338
B(  0-C , 11-H ) :   0.9353 B(  1-C ,  2-O ) :   0.8272 B(  1-C , 12-H ) :   0.9273
B(  1-C , 13-H ) :   0.9273 B(  2-O ,  3-C ) :   1.1297 B(  3-C ,  4-N ) :   1.3290
B(  3-C ,  8-C ) :   1.2157 B(  4-N ,  5-C ) :   1.3577 B(  5-C ,  6-C ) :   1.3631
B(  5-C , 14-H ) :   0.9307 B(  6-C ,  7-N ) :   1.3190 B(  6-C , 15-H ) :   0.9307
B(  7-N ,  8-C ) :   1.4677 B(  8-C , 16-H ) :   0.9354

MP2 TOTAL ENERGY:     -417.340482428 Eh
FINAL SINGLE POINT ENERGY      -417.340482428230

DIPOLE MOMENT
-------------
                                X             Y             Z
Electronic contribution:      2.25496      -7.52187      -3.85151
Nuclear contribution   :     -2.57766       7.82179       4.41692
                        -----------------------------------------
Total Dipole Moment    :     -0.32271       0.29992       0.56541
                        -----------------------------------------
Magnitude (a.u.)       :      0.71679
Magnitude (Debye)      :      1.82193

                             ****ORCA TERMINATED NORMALLY****
TOTAL RUN TIME: 0 days 0 hours 15 minutes 18 seconds 227 msec
