                         Program Version 3.0.3 - RELEASE   -
|  1> ! RI-MP2 RIJK def2-TZVP def2-TZVP/C def2-TZVP/JK TIGHTSCF
|  2> % maxcore 2000
|  3> % mp2 density relaxed end
|  4> *xyz 0 1
|  5>  C        0.5390211065     1.0038441711    -0.5703742144
|  6>  C       -0.3400279263     0.3067947673     0.4817009535
|  7>  C        0.4482353406    -0.3076442382     1.5806878964
|  8>  N        0.3915024197    -0.0232662852     2.8344814018
|  9>  N        1.3222927270    -0.8740801435     3.3978950724
| 10>  C        1.9463046129    -1.6725309499     2.4828602556
| 11>  O        2.7907486087    -2.5124127778     2.5933589424
| 12>  O        1.3513607342    -1.2825825909     1.2745615278
| 13>  H        1.2446053034     0.2996594132    -1.0185238853
| 14>  H       -0.0845156439     1.4178617975    -1.3669267768
| 15>  H        1.1105789601     1.8220065320    -0.1228694794
| 16>  H       -1.0360641677     1.0121461916     0.9427625033
| 17>  H       -0.9374686332    -0.4770716492     0.0002474942
| 18>  H        1.4913658181    -0.8668382377     4.3878565285
| 19> *
| 20>
| 21>                          ****END OF INPUT****

CARTESIAN COORDINATES (ANGSTROEM)
---------------------------------
  C      0.539021    1.003844   -0.570374
  C     -0.340028    0.306795    0.481701
  C      0.448235   -0.307644    1.580688
  N      0.391502   -0.023266    2.834481
  N      1.322293   -0.874080    3.397895
  C      1.946305   -1.672531    2.482860
  O      2.790749   -2.512413    2.593359
  O      1.351361   -1.282583    1.274562
  H      1.244605    0.299659   -1.018524
  H     -0.084516    1.417862   -1.366927
  H      1.110579    1.822007   -0.122869
  H     -1.036064    1.012146    0.942763
  H     -0.937469   -0.477072    0.000247
  H      1.491366   -0.866838    4.387857

 Total Charge           Charge          ....    0
 Multiplicity           Mult            ....    1
 Number of Electrons    NEL             ....   60
 Basis Dimension        Dim             ....  284

ORBITAL ENERGIES
----------------

  NO   OCC          E(Eh)            E(eV)
   0   2.0000     -20.647553      -561.8485
   1   2.0000     -20.544309      -559.0391
   2   2.0000     -15.642306      -425.6488
   3   2.0000     -15.620950      -425.0677
   4   2.0000     -11.423288      -310.8435
   5   2.0000     -11.360040      -309.1224
   6   2.0000     -11.265145      -306.5402
   7   2.0000     -11.240954      -305.8819
   8   2.0000      -1.524717       -41.4897
   9   2.0000      -1.396544       -38.0019
  10   2.0000      -1.335139       -36.3310
  11   2.0000      -1.153277       -31.3823
  12   2.0000      -1.061875       -28.8951
  13   2.0000      -0.919529       -25.0217
  14   2.0000      -0.887809       -24.1585
  15   2.0000      -0.839377       -22.8406
  16   2.0000      -0.746170       -20.3043
  17   2.0000      -0.711069       -19.3492
  18   2.0000      -0.669423       -18.2159
  19   2.0000      -0.641209       -17.4482
  20   2.0000      -0.636442       -17.3185
  21   2.0000      -0.628133       -17.0924
  22   2.0000      -0.567026       -15.4296
  23   2.0000      -0.542355       -14.7582
  24   2.0000      -0.540343       -14.7035
  25   2.0000      -0.528872       -14.3913
  26   2.0000      -0.525715       -14.3054
  27   2.0000      -0.517290       -14.0762
  28   2.0000      -0.462947       -12.5974
  29   2.0000      -0.368647       -10.0314
  30   0.0000       0.123063         3.3487
  31   0.0000       0.139186         3.7874
  32   0.0000       0.159216         4.3325
  33   0.0000       0.170935         4.6514
  34   0.0000       0.191289         5.2052

MULLIKEN ATOMIC CHARGES
-----------------------
   0 C :   -0.398040
   1 C :   -0.218337
   2 C :    0.224162
   3 N :   -0.181851
   4 N :   -0.195721
   5 C :    0.316486
   6 O :   -0.312664
   7 O :   -0.217040
   8 H :    0.148725
   9 H :    0.140712
  10 H :    0.135968
  11 H :    0.147018
  12 H :    0.136131
  13 H :    0.274452
Sum of atomic charges:    0.0000000

LOEWDIN ATOMIC CHARGES
----------------------
   0 C :   -0.300807
   1 C :   -0.250924
   2 C :   -0.365407
   3 N :    0.058669
   4 N :    0.096037
   5 C :   -0.544333
   6 O :    0.106091
   7 O :    0.316424
   8 H :    0.128214
   9 H :    0.125467
  10 H :    0.125961
  11 H :    0.157120
  12 H :    0.154238
  13 H :    0.193251

  Mayer bond orders larger than 0.1
B(  0-C ,  1-C ) :   0.9111 B(  0-C ,  8-H ) :   0.9334 B(  0-C ,  9-H ) :   0.9354
B(  0-C , 10-H ) :   0.9340 B(  1-C ,  2-C ) :   0.9231 B(  1-C , 11-H ) :   0.9377
B(  1-C , 12-H ) :   0.9202 B(  2-C ,  3-N ) :   1.7771 B(  2-C ,  7-O ) :   1.0493
B(  3-N ,  4-N ) :   0.9149 B(  4-N ,  5-C ) :   1.1503 B(  4-N , 13-H ) :   0.8655
B(  5-C ,  6-O ) :   2.0356 B(  5-C ,  7-O ) :   0.9817

MP2 TOTAL ENERGY:     -415.241076727 Eh
FINAL SINGLE POINT ENERGY      -415.241076726688

DIPOLE MOMENT
-------------
                                X             Y             Z
Electronic contribution:      3.55008      -5.92541       7.09528
Nuclear contribution   :     -4.37441       6.82873      -7.18655
                        -----------------------------------------
Total Dipole Moment    :     -0.82432       0.90332      -0.09127
                        -----------------------------------------
Magnitude (a.u.)       :      1.22631
Magnitude (Debye)      :      3.11703

                             ****ORCA TERMINATED NORMALLY****
TOTAL RUN TIME: 0 days 0 hours 9 minutes 31 seconds 889 msec
