                         Program Version 3.0.3 - RELEASE   -
|  1> ! RI-MP2 RIJK def2-TZVP def2-TZVP/C def2-TZVP/JK TIGHTSCF
|  2> % maxcore 2000
|  3> % mp2 density relaxed end
|  4> *xyz 0 1
|  5>  O       -0.2415947603     1.4486377076     0.0544570502
|  6>  C       -0.1292938744     0.0453473274     0.0773881806
|  7>  C       -0.4692221071    -0.7696000064     1.2815183020
|  8>  C       -1.5700761102    -0.0902928559     2.0940935873
|  9>  C       -2.5047123953    -0.1048563951     0.8350723888
| 10>  O       -3.0536602888     1.0881496519     0.3636471205
| 11>  C       -1.3829598428    -0.7763540977    -0.0000411335
| 12>  C       -1.5844944282    -1.7822470230    -0.9849581023
| 13>  C       -1.7782086868    -2.6376005634    -1.8098553113
| 14>  H        0.4387266596     1.8186022076     0.6280061926
| 15>  H        0.6858143291    -0.3419901919    -0.5314243478
| 16>  H        0.1740052658    -1.5702304250     1.6256363340
| 17>  H       -1.9529472863    -0.7062829166     2.9095123003
| 18>  H       -1.3303926283     0.9038368872     2.4814244579
| 19>  H       -3.3347448961    -0.8000754189     0.9760509046
| 20>  H       -2.3084091041     1.6704258244     0.1653168772
| 21>  H       -1.9501852759    -3.3877293322    -2.5410503710
| 22> *
| 23>
| 24>                          ****END OF INPUT****

CARTESIAN COORDINATES (ANGSTROEM)
---------------------------------
  O     -0.241595    1.448638    0.054457
  C     -0.129294    0.045347    0.077388
  C     -0.469222   -0.769600    1.281518
  C     -1.570076   -0.090293    2.094094
  C     -2.504712   -0.104856    0.835072
  O     -3.053660    1.088150    0.363647
  C     -1.382960   -0.776354   -0.000041
  C     -1.584494   -1.782247   -0.984958
  C     -1.778209   -2.637601   -1.809855
  H      0.438727    1.818602    0.628006
  H      0.685814   -0.341990   -0.531424
  H      0.174005   -1.570230    1.625636
  H     -1.952947   -0.706283    2.909512
  H     -1.330393    0.903837    2.481424
  H     -3.334745   -0.800075    0.976051
  H     -2.308409    1.670426    0.165317
  H     -1.950185   -3.387729   -2.541050

 Total Charge           Charge          ....    0
 Multiplicity           Mult            ....    1
 Number of Electrons    NEL             ....   66
 Basis Dimension        Dim             ....  327

ORBITAL ENERGIES
----------------

  NO   OCC          E(Eh)            E(eV)
   0   2.0000     -20.587492      -560.2141
   1   2.0000     -20.546159      -559.0894
   2   2.0000     -11.308490      -307.7197
   3   2.0000     -11.292782      -307.2922
   4   2.0000     -11.265407      -306.5473
   5   2.0000     -11.258155      -306.3500
   6   2.0000     -11.237028      -305.7751
   7   2.0000     -11.236688      -305.7658
   8   2.0000     -11.224698      -305.4396
   9   2.0000      -1.398005       -38.0417
  10   2.0000      -1.359268       -36.9876
  11   2.0000      -1.196867       -32.5684
  12   2.0000      -1.036146       -28.1950
  13   2.0000      -0.988949       -26.9107
  14   2.0000      -0.912011       -24.8171
  15   2.0000      -0.825923       -22.4745
  16   2.0000      -0.793650       -21.5963
  17   2.0000      -0.762895       -20.7594
  18   2.0000      -0.703777       -19.1507
  19   2.0000      -0.694508       -18.8985
  20   2.0000      -0.658022       -17.9057
  21   2.0000      -0.631670       -17.1886
  22   2.0000      -0.618657       -16.8345
  23   2.0000      -0.587726       -15.9928
  24   2.0000      -0.575826       -15.6690
  25   2.0000      -0.548742       -14.9320
  26   2.0000      -0.503991       -13.7143
  27   2.0000      -0.481108       -13.0916
  28   2.0000      -0.468300       -12.7431
  29   2.0000      -0.448110       -12.1937
  30   2.0000      -0.426142       -11.5959
  31   2.0000      -0.374474       -10.1900
  32   2.0000      -0.354029        -9.6336
  33   0.0000       0.122919         3.3448
  34   0.0000       0.149490         4.0678
  35   0.0000       0.154082         4.1928
  36   0.0000       0.163381         4.4458
  37   0.0000       0.171066         4.6549

MULLIKEN ATOMIC CHARGES
-----------------------
   0 O :   -0.495925
   1 C :   -0.002045
   2 C :   -0.120409
   3 C :   -0.218185
   4 C :    0.080856
   5 O :   -0.461517
   6 C :   -0.141483
   7 C :   -0.031463
   8 C :   -0.100620
   9 H :    0.331967
  10 H :    0.132954
  11 H :    0.142140
  12 H :    0.129846
  13 H :    0.106847
  14 H :    0.114656
  15 H :    0.340038
  16 H :    0.192342
Sum of atomic charges:    0.0000000

LOEWDIN ATOMIC CHARGES
----------------------
   0 O :   -0.006384
   1 C :   -0.265941
   2 C :   -0.131387
   3 C :   -0.201751
   4 C :   -0.272092
   5 O :   -0.001116
   6 C :   -0.156709
   7 C :   -0.076598
   8 C :   -0.086326
   9 H :    0.184505
  10 H :    0.150303
  11 H :    0.140395
  12 H :    0.137790
  13 H :    0.129385
  14 H :    0.149878
  15 H :    0.178935
  16 H :    0.127114

  Mayer bond orders larger than 0.1
B(  0-O ,  1-C ) :   0.9826 B(  0-O ,  9-H ) :   0.8342 B(  1-C ,  2-C ) :   0.9008
B(  1-C ,  6-C ) :   0.8379 B(  1-C , 10-H ) :   0.9659 B(  2-C ,  3-C ) :   0.9568
B(  2-C ,  6-C ) :   0.7396 B(  2-C , 11-H ) :   0.8995 B(  3-C ,  4-C ) :   0.9362
B(  3-C , 12-H ) :   0.9248 B(  3-C , 13-H ) :   0.9137 B(  4-C ,  5-O ) :   1.0178
B(  4-C ,  6-C ) :   0.8782 B(  4-C , 14-H ) :   0.9464 B(  5-O , 15-H ) :   0.8177
B(  6-C ,  7-C ) :   1.2232 B(  6-C ,  8-C ) :  -0.1749 B(  7-C ,  8-C ) :   2.5936
B(  8-C , 16-H ) :   0.8719

MP2 TOTAL ENERGY:     -421.051622008 Eh
FINAL SINGLE POINT ENERGY      -421.051622008488

DIPOLE MOMENT
-------------
                                X             Y             Z
Electronic contribution:     -0.46343      -0.12684      -2.90284
Nuclear contribution   :      1.61820      -0.08401       3.52221
                        -----------------------------------------
Total Dipole Moment    :      1.15477      -0.21084       0.61937
                        -----------------------------------------
Magnitude (a.u.)       :      1.32724
Magnitude (Debye)      :      3.37358

                             ****ORCA TERMINATED NORMALLY****
TOTAL RUN TIME: 0 days 0 hours 17 minutes 11 seconds 434 msec
