                         Program Version 3.0.3 - RELEASE   -
|  1> ! RI-MP2 RIJK def2-TZVP def2-TZVP/C def2-TZVP/JK TIGHTSCF
|  2> % maxcore 2000
|  3> % mp2 density relaxed end
|  4> *xyz 0 1
|  5>  C        0.2308371712     1.2707056622     0.3696088270
|  6>  C       -0.2330179909    -0.1367632173     0.1258318078
|  7>  O       -0.9001371597    -0.8066066384     0.8746360737
|  8>  C        0.0898443552    -0.7441078957    -1.2541973744
|  9>  O        0.1345552373    -0.0991631268    -2.2688152468
| 10>  C        0.3284829393    -2.2667092875    -1.2930026584
| 11>  O        0.9222569839    -2.8415802126    -0.4211477329
| 12>  C       -0.1082137312    -2.9305794755    -2.5301418933
| 13>  N       -0.4821610474    -3.4634749218    -3.4855021962
| 14>  H       -0.0390094972     1.9049090405    -0.4800047536
| 15>  H       -0.2023750681     1.6509861205     1.2947480929
| 16>  H        1.3253600175     1.2856160025     0.4398706241
| 17> *
| 18>
| 19>                          ****END OF INPUT****

CARTESIAN COORDINATES (ANGSTROEM)
---------------------------------
  C      0.230837    1.270706    0.369609
  C     -0.233018   -0.136763    0.125832
  O     -0.900137   -0.806607    0.874636
  C      0.089844   -0.744108   -1.254197
  O      0.134555   -0.099163   -2.268815
  C      0.328483   -2.266709   -1.293003
  O      0.922257   -2.841580   -0.421148
  C     -0.108214   -2.930579   -2.530142
  N     -0.482161   -3.463475   -3.485502
  H     -0.039009    1.904909   -0.480005
  H     -0.202375    1.650986    1.294748
  H      1.325360    1.285616    0.439871

 Total Charge           Charge          ....    0
 Multiplicity           Mult            ....    1
 Number of Electrons    NEL             ....   64
 Basis Dimension        Dim             ....  297

ORBITAL ENERGIES
----------------

  NO   OCC          E(Eh)            E(eV)
   0   2.0000     -20.641349      -561.6797
   1   2.0000     -20.639088      -561.6181
   2   2.0000     -20.607126      -560.7484
   3   2.0000     -15.627549      -425.2472
   4   2.0000     -11.429977      -311.0255
   5   2.0000     -11.406220      -310.3790
   6   2.0000     -11.387653      -309.8738
   7   2.0000     -11.314472      -307.8824
   8   2.0000     -11.270511      -306.6862
   9   2.0000      -1.489727       -40.5375
  10   2.0000      -1.469167       -39.9781
  11   2.0000      -1.445067       -39.3223
  12   2.0000      -1.260916       -34.3113
  13   2.0000      -1.064674       -28.9712
  14   2.0000      -1.028995       -28.0004
  15   2.0000      -0.935441       -25.4546
  16   2.0000      -0.816901       -22.2290
  17   2.0000      -0.753369       -20.5002
  18   2.0000      -0.736139       -20.0314
  19   2.0000      -0.719368       -19.5750
  20   2.0000      -0.672428       -18.2977
  21   2.0000      -0.647346       -17.6152
  22   2.0000      -0.629288       -17.1238
  23   2.0000      -0.613315       -16.6892
  24   2.0000      -0.598113       -16.2755
  25   2.0000      -0.587982       -15.9998
  26   2.0000      -0.575465       -15.6592
  27   2.0000      -0.540055       -14.6956
  28   2.0000      -0.525490       -14.2993
  29   2.0000      -0.513025       -13.9601
  30   2.0000      -0.503822       -13.7097
  31   2.0000      -0.446096       -12.1389
  32   0.0000       0.001973         0.0537
  33   0.0000       0.058491         1.5916
  34   0.0000       0.122064         3.3215
  35   0.0000       0.143741         3.9114
  36   0.0000       0.156916         4.2699

MULLIKEN ATOMIC CHARGES
-----------------------
   0 C :   -0.401898
   1 C :    0.204079
   2 O :   -0.237151
   3 C :    0.169724
   4 O :   -0.212866
   5 C :    0.319377
   6 O :   -0.191837
   7 C :   -0.124082
   8 N :   -0.025248
   9 H :    0.173889
  10 H :    0.167056
  11 H :    0.158956
Sum of atomic charges:   -0.0000000

LOEWDIN ATOMIC CHARGES
----------------------
   0 C :   -0.264793
   1 C :   -0.317965
   2 O :    0.201447
   3 C :   -0.246467
   4 O :    0.229338
   5 C :   -0.281797
   6 O :    0.248215
   7 C :   -0.128794
   8 N :    0.122347
   9 H :    0.149027
  10 H :    0.140869
  11 H :    0.148573

  Mayer bond orders larger than 0.1
B(  0-C ,  1-C ) :   0.9306 B(  0-C ,  9-H ) :   0.9051 B(  0-C , 10-H ) :   0.9319
B(  0-C , 11-H ) :   0.9024 B(  1-C ,  2-O ) :   1.9574 B(  1-C ,  3-C ) :   0.8619
B(  3-C ,  4-O ) :   1.9531 B(  3-C ,  5-C ) :   0.8400 B(  5-C ,  6-O ) :   1.9602
B(  5-C ,  7-C ) :   0.8967 B(  7-C ,  8-N ) :   2.7509

MP2 TOTAL ENERGY:     -471.882664135 Eh
FINAL SINGLE POINT ENERGY      -471.882664134786

DIPOLE MOMENT
-------------
                                X             Y             Z
Electronic contribution:     -0.56204      -6.82657      -3.51075
Nuclear contribution   :      1.00416       8.16213       4.14542
                        -----------------------------------------
Total Dipole Moment    :      0.44212       1.33556       0.63467
                        -----------------------------------------
Magnitude (a.u.)       :      1.54337
Magnitude (Debye)      :      3.92294

                             ****ORCA TERMINATED NORMALLY****
TOTAL RUN TIME: 0 days 0 hours 14 minutes 33 seconds 100 msec
