                         Program Version 3.0.3 - RELEASE   -
|  1> ! RI-MP2 RIJK def2-TZVP def2-TZVP/C def2-TZVP/JK TIGHTSCF
|  2> % maxcore 2000
|  3> % mp2 density relaxed end
|  4> *xyz 0 1
|  5>  C       -0.1094540639     1.5506100788    -0.0447870626
|  6>  C        0.0565965259     0.0226523170     0.0039333579
|  7>  C        0.7324396261    -0.4932138111    -1.2843702872
|  8>  O        1.9453192413     0.2054223509    -1.5629490730
|  9>  C        0.9681554574    -2.0041686394    -1.2040787641
| 10>  C        1.9241847886    -2.3381298359    -0.0501204653
| 11>  C        1.6275112564    -1.5289294895     1.1853325485
| 12>  C        0.7991499886    -0.4783424540     1.2418307791
| 13>  C        0.5318401158     0.2217301552     2.5501439270
| 14>  H        0.8604690504     2.0545939495    -0.0619286368
| 15>  H       -0.6425233101     1.8384590978    -0.9566164654
| 16>  H       -0.6818174412     1.9253652060     0.8074690702
| 17>  H       -0.9557658021    -0.4108911742     0.0309653608
| 18>  H        0.0822274066    -0.2645142052    -2.1363596263
| 19>  H        2.4961345798     0.1473755882    -0.7738131508
| 20>  H        0.0042105074    -2.5025583178    -1.0439546854
| 21>  H        1.3707862884    -2.3671812570    -2.1545880511
| 22>  H        1.8708284965    -3.4074372681     0.1889099522
| 23>  H        2.9654239261    -2.1706337385    -0.3637646089
| 24>  H        2.1299283042    -1.8455454025     2.0981519406
| 25>  H        1.0478135251    -0.2761993169     3.3753837849
| 26>  H        0.8548523933     1.2688096329     2.5317884584
| 27>  H       -0.5414944405     0.2328021939     2.7814969672
| 28> *
| 29>
| 30>                          ****END OF INPUT****

CARTESIAN COORDINATES (ANGSTROEM)
---------------------------------
  C     -0.109454    1.550610   -0.044787
  C      0.056597    0.022652    0.003933
  C      0.732440   -0.493214   -1.284370
  O      1.945319    0.205422   -1.562949
  C      0.968155   -2.004169   -1.204079
  C      1.924185   -2.338130   -0.050120
  C      1.627511   -1.528929    1.185333
  C      0.799150   -0.478342    1.241831
  C      0.531840    0.221730    2.550144
  H      0.860469    2.054594   -0.061929
  H     -0.642523    1.838459   -0.956616
  H     -0.681817    1.925365    0.807469
  H     -0.955766   -0.410891    0.030965
  H      0.082227   -0.264514   -2.136360
  H      2.496135    0.147376   -0.773813
  H      0.004211   -2.502558   -1.043955
  H      1.370786   -2.367181   -2.154588
  H      1.870828   -3.407437    0.188910
  H      2.965424   -2.170634   -0.363765
  H      2.129928   -1.845545    2.098152
  H      1.047814   -0.276199    3.375384
  H      0.854852    1.268810    2.531788
  H     -0.541494    0.232802    2.781497

 Total Charge           Charge          ....    0
 Multiplicity           Mult            ....    1
 Number of Electrons    NEL             ....   70
 Basis Dimension        Dim             ....  363

ORBITAL ENERGIES
----------------

  NO   OCC          E(Eh)            E(eV)
   0   2.0000     -20.545320      -559.0666
   1   2.0000     -11.272599      -306.7430
   2   2.0000     -11.234735      -305.7127
   3   2.0000     -11.231862      -305.6345
   4   2.0000     -11.226014      -305.4754
   5   2.0000     -11.220877      -305.3356
   6   2.0000     -11.220754      -305.3322
   7   2.0000     -11.217654      -305.2479
   8   2.0000     -11.211704      -305.0860
   9   2.0000      -1.353322       -36.8258
  10   2.0000      -1.125316       -30.6214
  11   2.0000      -1.040498       -28.3134
  12   2.0000      -1.022525       -27.8243
  13   2.0000      -0.941367       -25.6159
  14   2.0000      -0.908673       -24.7263
  15   2.0000      -0.818458       -22.2714
  16   2.0000      -0.808177       -21.9916
  17   2.0000      -0.698793       -19.0151
  18   2.0000      -0.677036       -18.4231
  19   2.0000      -0.631351       -17.1799
  20   2.0000      -0.623419       -16.9641
  21   2.0000      -0.610127       -16.6024
  22   2.0000      -0.596649       -16.2356
  23   2.0000      -0.572956       -15.5909
  24   2.0000      -0.558252       -15.1908
  25   2.0000      -0.539795       -14.6886
  26   2.0000      -0.533342       -14.5130
  27   2.0000      -0.519196       -14.1280
  28   2.0000      -0.511725       -13.9247
  29   2.0000      -0.501165       -13.6374
  30   2.0000      -0.483826       -13.1656
  31   2.0000      -0.478528       -13.0214
  32   2.0000      -0.434371       -11.8198
  33   2.0000      -0.416857       -11.3433
  34   2.0000      -0.339732        -9.2446
  35   0.0000       0.125961         3.4276
  36   0.0000       0.148572         4.0429
  37   0.0000       0.150499         4.0953
  38   0.0000       0.170512         4.6399
  39   0.0000       0.175293         4.7700

MULLIKEN ATOMIC CHARGES
-----------------------
   0 C :   -0.388093
   1 C :   -0.055217
   2 C :    0.074345
   3 O :   -0.472786
   4 C :   -0.169999
   5 C :   -0.253096
   6 C :   -0.213412
   7 C :   -0.018475
   8 C :   -0.447417
   9 H :    0.130524
  10 H :    0.129769
  11 H :    0.137223
  12 H :    0.096476
  13 H :    0.103119
  14 H :    0.321557
  15 H :    0.107661
  16 H :    0.123142
  17 H :    0.128988
  18 H :    0.133235
  19 H :    0.113580
  20 H :    0.133668
  21 H :    0.146103
  22 H :    0.139106
Sum of atomic charges:   -0.0000000

LOEWDIN ATOMIC CHARGES
----------------------
   0 C :   -0.286661
   1 C :   -0.230260
   2 C :   -0.315545
   3 O :   -0.012091
   4 C :   -0.241254
   5 C :   -0.262569
   6 C :   -0.159679
   7 C :   -0.178376
   8 C :   -0.272818
   9 H :    0.125116
  10 H :    0.126636
  11 H :    0.121563
  12 H :    0.163844
  13 H :    0.145305
  14 H :    0.176060
  15 H :    0.143451
  16 H :    0.139561
  17 H :    0.144263
  18 H :    0.143272
  19 H :    0.142630
  20 H :    0.127920
  21 H :    0.129477
  22 H :    0.130155

  Mayer bond orders larger than 0.1
B(  0-C ,  1-C ) :   0.9055 B(  0-C ,  9-H ) :   0.9285 B(  0-C , 10-H ) :   0.9361
B(  0-C , 11-H ) :   0.9393 B(  1-C ,  2-C ) :   0.9420 B(  1-C ,  7-C ) :   0.9142
B(  1-C , 12-H ) :   0.9003 B(  2-C ,  3-O ) :   0.9207 B(  2-C ,  4-C ) :   0.9063
B(  2-C , 13-H ) :   0.9308 B(  3-O , 14-H ) :   0.8367 B(  4-C ,  5-C ) :   0.9269
B(  4-C , 15-H ) :   0.9220 B(  4-C , 16-H ) :   0.9286 B(  5-C ,  6-C ) :   0.9386
B(  5-C , 17-H ) :   0.9268 B(  5-C , 18-H ) :   0.9199 B(  6-C ,  7-C ) :   1.7442
B(  6-C , 19-H ) :   0.9267 B(  7-C ,  8-C ) :   0.8955 B(  8-C , 20-H ) :   0.9427
B(  8-C , 21-H ) :   0.9312 B(  8-C , 22-H ) :   0.9342

MP2 TOTAL ENERGY:     -387.642563623 Eh
FINAL SINGLE POINT ENERGY      -387.642563622739

DIPOLE MOMENT
-------------
                                X             Y             Z
Electronic contribution:      2.09619      -1.47522      -2.65131
Nuclear contribution   :     -2.33792       1.16426       3.18325
                        -----------------------------------------
Total Dipole Moment    :     -0.24173      -0.31097       0.53193
                        -----------------------------------------
Magnitude (a.u.)       :      0.66188
Magnitude (Debye)      :      1.68237

                             ****ORCA TERMINATED NORMALLY****
TOTAL RUN TIME: 0 days 0 hours 23 minutes 50 seconds 984 msec
