                         Program Version 3.0.3 - RELEASE   -
|  1> ! RI-MP2 RIJK def2-TZVP def2-TZVP/C def2-TZVP/JK TIGHTSCF
|  2> % maxcore 2000
|  3> % mp2 density relaxed end
|  4> *xyz 0 1
|  5>  C        0.0191900452     1.5917673278     0.1458283630
|  6>  C        0.0675669662     0.0764268628     0.0351665095
|  7>  C        1.1121765815    -0.5792972565    -0.9138177435
|  8>  C        1.3148440270    -1.6940132848     0.1469189359
|  9>  C        2.7371599304    -2.2191850960     0.3725559628
| 10>  C        2.8167584329    -3.1616852386     1.4880466726
| 11>  N        2.8554917544    -3.9033643830     2.3735692322
| 12>  C        0.6818793015    -0.7487101273     1.2024771888
| 13>  H        1.0086843524     2.0009751809     0.3800884803
| 14>  H       -0.3176256387     2.0493992448    -0.7910838584
| 15>  H       -0.6684594690     1.9103432198     0.9370828706
| 16>  H       -0.9302411193    -0.3110198154    -0.1996444529
| 17>  H        0.7909435437    -0.8771650814    -1.9149535861
| 18>  H        2.0065227781     0.0482988750    -1.0067792820
| 19>  H        0.6486872296    -2.5385876951    -0.0536016309
| 20>  H        3.1080498483    -2.7182032262    -0.5310341717
| 21>  H        3.4187051194    -1.3839360616     0.5743142408
| 22>  H        1.4506698450    -0.1719976650     1.7299421249
| 23>  H        0.0079517313    -1.1859313500     1.9420172840
| 24> *
| 25>
| 26>                          ****END OF INPUT****

CARTESIAN COORDINATES (ANGSTROEM)
---------------------------------
  C      0.019190    1.591767    0.145828
  C      0.067567    0.076427    0.035167
  C      1.112177   -0.579297   -0.913818
  C      1.314844   -1.694013    0.146919
  C      2.737160   -2.219185    0.372556
  C      2.816758   -3.161685    1.488047
  N      2.855492   -3.903364    2.373569
  C      0.681879   -0.748710    1.202477
  H      1.008684    2.000975    0.380088
  H     -0.317626    2.049399   -0.791084
  H     -0.668459    1.910343    0.937083
  H     -0.930241   -0.311020   -0.199644
  H      0.790944   -0.877165   -1.914954
  H      2.006523    0.048299   -1.006779
  H      0.648687   -2.538588   -0.053602
  H      3.108050   -2.718203   -0.531034
  H      3.418705   -1.383936    0.574314
  H      1.450670   -0.171998    1.729942
  H      0.007952   -1.185931    1.942017

 Total Charge           Charge          ....    0
 Multiplicity           Mult            ....    1
 Number of Electrons    NEL             ....   60
 Basis Dimension        Dim             ....  314

ORBITAL ENERGIES
----------------

  NO   OCC          E(Eh)            E(eV)
   0   2.0000     -15.564470      -423.5308
   1   2.0000     -11.279001      -306.9172
   2   2.0000     -11.269299      -306.6532
   3   2.0000     -11.252895      -306.2068
   4   2.0000     -11.239123      -305.8321
   5   2.0000     -11.234627      -305.7097
   6   2.0000     -11.230876      -305.6077
   7   2.0000     -11.221801      -305.3607
   8   2.0000      -1.215041       -33.0629
   9   2.0000      -1.156882       -31.4804
  10   2.0000      -1.052459       -28.6389
  11   2.0000      -0.974302       -26.5121
  12   2.0000      -0.913020       -24.8445
  13   2.0000      -0.834963       -22.7205
  14   2.0000      -0.763246       -20.7690
  15   2.0000      -0.698134       -18.9972
  16   2.0000      -0.669458       -18.2169
  17   2.0000      -0.631591       -17.1865
  18   2.0000      -0.623873       -16.9765
  19   2.0000      -0.579579       -15.7712
  20   2.0000      -0.566502       -15.4153
  21   2.0000      -0.553003       -15.0480
  22   2.0000      -0.551349       -15.0030
  23   2.0000      -0.524058       -14.2603
  24   2.0000      -0.479434       -13.0461
  25   2.0000      -0.473716       -12.8905
  26   2.0000      -0.463362       -12.6087
  27   2.0000      -0.452838       -12.3224
  28   2.0000      -0.444819       -12.1041
  29   2.0000      -0.431489       -11.7414
  30   0.0000       0.119716         3.2576
  31   0.0000       0.136616         3.7175
  32   0.0000       0.141464         3.8494
  33   0.0000       0.166064         4.5188
  34   0.0000       0.170637         4.6433

MULLIKEN ATOMIC CHARGES
-----------------------
   0 C :   -0.416877
   1 C :    0.014861
   2 C :   -0.268941
   3 C :   -0.030743
   4 C :   -0.164639
   5 C :   -0.174973
   6 N :   -0.062178
   7 C :   -0.294465
   8 H :    0.118556
   9 H :    0.133110
  10 H :    0.134890
  11 H :    0.100669
  12 H :    0.126909
  13 H :    0.108518
  14 H :    0.117381
  15 H :    0.158305
  16 H :    0.151843
  17 H :    0.111467
  18 H :    0.136306
Sum of atomic charges:    0.0000000

LOEWDIN ATOMIC CHARGES
----------------------
   0 C :   -0.303039
   1 C :   -0.255263
   2 C :   -0.197612
   3 C :   -0.220219
   4 C :   -0.234308
   5 C :   -0.189978
   6 N :    0.053512
   7 C :   -0.194562
   8 H :    0.121789
   9 H :    0.124942
  10 H :    0.125779
  11 H :    0.150296
  12 H :    0.125742
  13 H :    0.137922
  14 H :    0.156879
  15 H :    0.165667
  16 H :    0.163806
  17 H :    0.139654
  18 H :    0.128994

  Mayer bond orders larger than 0.1
B(  0-C ,  1-C ) :   0.8851 B(  0-C ,  8-H ) :   0.9366 B(  0-C ,  9-H ) :   0.9405
B(  0-C , 10-H ) :   0.9403 B(  1-C ,  2-C ) :   0.9277 B(  1-C ,  7-C ) :   0.9310
B(  1-C , 11-H ) :   0.9284 B(  2-C ,  3-C ) :   0.9416 B(  2-C , 12-H ) :   0.9275
B(  2-C , 13-H ) :   0.9123 B(  3-C ,  4-C ) :   0.8714 B(  3-C ,  7-C ) :   0.9461
B(  3-C , 14-H ) :   0.9200 B(  4-C ,  5-C ) :   0.9367 B(  4-C , 15-H ) :   0.9127
B(  4-C , 16-H ) :   0.9101 B(  5-C ,  6-N ) :   2.8755 B(  7-C , 17-H ) :   0.9118
B(  7-C , 18-H ) :   0.9288

MP2 TOTAL ENERGY:     -327.347928717 Eh
FINAL SINGLE POINT ENERGY      -327.347928717372

DIPOLE MOMENT
-------------
                                X             Y             Z
Electronic contribution:      4.52748      -9.01648       3.86789
Nuclear contribution   :     -4.83669      10.12178      -5.04668
                        -----------------------------------------
Total Dipole Moment    :     -0.30921       1.10530      -1.17879
                        -----------------------------------------
Magnitude (a.u.)       :      1.64525
Magnitude (Debye)      :      4.18188

                             ****ORCA TERMINATED NORMALLY****
TOTAL RUN TIME: 0 days 0 hours 11 minutes 46 seconds 499 msec
