                         Program Version 3.0.3 - RELEASE   -
|  1> ! RI-MP2 RIJK def2-TZVP def2-TZVP/C def2-TZVP/JK TIGHTSCF
|  2> % maxcore 2000
|  3> % mp2 density relaxed end
|  4> *xyz 0 1
|  5>  C       -0.1200897542     1.5251102277     0.0361397712
|  6>  C       -0.0348208908     0.0278705755    -0.0235396183
|  7>  C       -0.0377639245    -0.6568877061    -1.1780710887
|  8>  C        0.0890840910    -2.1142380710    -1.2310080559
|  9>  O        0.1521575495    -2.7328770613    -2.2759046935
| 10>  C        0.1592583913    -2.8637281477     0.0917034712
| 11>  N        0.3261799942    -4.1268186808     0.1586634489
| 12>  N       -0.0156757707    -2.1062454947     1.2241257276
| 13>  C        0.0757728261    -0.6695865020     1.3004208627
| 14>  H        0.7323527127     1.9456214831     0.5834758365
| 15>  H       -0.1379370500     1.9638381796    -0.9632211387
| 16>  H       -1.0236662234     1.8436331111     0.5703256009
| 17>  H       -0.1048231015    -0.1504356944    -2.1363919209
| 18>  H        0.3770592625    -4.4839333829    -0.7974274622
| 19>  H        0.0868886792    -2.6236764858     2.0849679016
| 20>  H        1.0251612862    -0.3471817729     1.7661937905
| 21>  H       -0.7152073477    -0.2858432974     1.9626001971
| 22> *
| 23>
| 24>                          ****END OF INPUT****

CARTESIAN COORDINATES (ANGSTROEM)
---------------------------------
  C     -0.120090    1.525110    0.036140
  C     -0.034821    0.027871   -0.023540
  C     -0.037764   -0.656888   -1.178071
  C      0.089084   -2.114238   -1.231008
  O      0.152158   -2.732877   -2.275905
  C      0.159258   -2.863728    0.091703
  N      0.326180   -4.126819    0.158663
  N     -0.015676   -2.106245    1.224126
  C      0.075773   -0.669587    1.300421
  H      0.732353    1.945621    0.583476
  H     -0.137937    1.963838   -0.963221
  H     -1.023666    1.843633    0.570326
  H     -0.104823   -0.150436   -2.136392
  H      0.377059   -4.483933   -0.797427
  H      0.086889   -2.623676    2.084968
  H      1.025161   -0.347182    1.766194
  H     -0.715207   -0.285843    1.962600

 Total Charge           Charge          ....    0
 Multiplicity           Mult            ....    1
 Number of Electrons    NEL             ....   66
 Basis Dimension        Dim             ....  327

ORBITAL ENERGIES
----------------

  NO   OCC          E(Eh)            E(eV)
   0   2.0000     -20.555267      -559.3372
   1   2.0000     -15.585597      -424.1057
   2   2.0000     -15.526450      -422.4962
   3   2.0000     -11.343979      -308.6854
   4   2.0000     -11.318063      -307.9802
   5   2.0000     -11.300073      -307.4906
   6   2.0000     -11.293981      -307.3249
   7   2.0000     -11.256683      -306.3099
   8   2.0000     -11.248885      -306.0977
   9   2.0000      -1.398001       -38.0415
  10   2.0000      -1.285162       -34.9710
  11   2.0000      -1.176039       -32.0017
  12   2.0000      -1.120016       -30.4772
  13   2.0000      -1.013906       -27.5898
  14   2.0000      -0.964922       -26.2569
  15   2.0000      -0.877745       -23.8847
  16   2.0000      -0.814802       -22.1719
  17   2.0000      -0.730360       -19.8741
  18   2.0000      -0.702580       -19.1182
  19   2.0000      -0.678693       -18.4682
  20   2.0000      -0.661850       -18.0098
  21   2.0000      -0.638333       -17.3699
  22   2.0000      -0.625252       -17.0140
  23   2.0000      -0.592973       -16.1356
  24   2.0000      -0.585333       -15.9277
  25   2.0000      -0.572484       -15.5781
  26   2.0000      -0.562097       -15.2954
  27   2.0000      -0.532305       -14.4847
  28   2.0000      -0.494500       -13.4560
  29   2.0000      -0.460815       -12.5394
  30   2.0000      -0.413955       -11.2643
  31   2.0000      -0.386668       -10.5218
  32   2.0000      -0.355841        -9.6829
  33   0.0000       0.064628         1.7586
  34   0.0000       0.113910         3.0996
  35   0.0000       0.143103         3.8940
  36   0.0000       0.150822         4.1041
  37   0.0000       0.172118         4.6836

MULLIKEN ATOMIC CHARGES
-----------------------
   0 C :   -0.408550
   1 C :    0.108060
   2 C :   -0.288232
   3 C :    0.303278
   4 O :   -0.305463
   5 C :    0.028067
   6 N :   -0.369190
   7 N :   -0.310044
   8 C :   -0.079757
   9 H :    0.147815
  10 H :    0.150267
  11 H :    0.152083
  12 H :    0.132810
  13 H :    0.235839
  14 H :    0.240078
  15 H :    0.129996
  16 H :    0.132943
Sum of atomic charges:   -0.0000000

LOEWDIN ATOMIC CHARGES
----------------------
   0 C :   -0.257744
   1 C :   -0.155511
   2 C :   -0.107141
   3 C :   -0.296867
   4 O :    0.155385
   5 C :   -0.368117
   6 N :   -0.064840
   7 N :    0.112670
   8 C :   -0.244179
   9 H :    0.137190
  10 H :    0.135403
  11 H :    0.137597
  12 H :    0.157196
  13 H :    0.172103
  14 H :    0.191919
  15 H :    0.146593
  16 H :    0.148346

  Mayer bond orders larger than 0.1
B(  0-C ,  1-C ) :   0.8894 B(  0-C ,  9-H ) :   0.9243 B(  0-C , 10-H ) :   0.9424
B(  0-C , 11-H ) :   0.9255 B(  1-C ,  2-C ) :   1.6309 B(  1-C ,  8-C ) :   0.9518
B(  2-C ,  3-C ) :   1.0316 B(  2-C , 12-H ) :   0.9200 B(  3-C ,  4-O ) :   1.8601
B(  3-C ,  5-C ) :   0.9010 B(  5-C ,  6-N ) :   1.9513 B(  5-C ,  7-N ) :   1.1154
B(  6-N , 13-H ) :   0.8503 B(  7-N ,  8-C ) :   0.9429 B(  7-N , 14-H ) :   0.8614
B(  8-C , 15-H ) :   0.9032 B(  8-C , 16-H ) :   0.9091

MP2 TOTAL ENERGY:     -417.333198149 Eh
FINAL SINGLE POINT ENERGY      -417.333198149355

DIPOLE MOMENT
-------------
                                X             Y             Z
Electronic contribution:      0.22877      -7.41021      -3.47466
Nuclear contribution   :     -0.29301       9.46138       4.43266
                        -----------------------------------------
Total Dipole Moment    :     -0.06424       2.05117       0.95801
                        -----------------------------------------
Magnitude (a.u.)       :      2.26478
Magnitude (Debye)      :      5.75661

                             ****ORCA TERMINATED NORMALLY****
TOTAL RUN TIME: 0 days 0 hours 16 minutes 27 seconds 264 msec
