                         Program Version 3.0.3 - RELEASE   -
|  1> ! RI-MP2 RIJK def2-TZVP def2-TZVP/C def2-TZVP/JK TIGHTSCF
|  2> % maxcore 2000
|  3> % mp2 density relaxed end
|  4> *xyz 0 1
|  5>  C       -0.0504109375     1.4414558786     0.0411319682
|  6>  N       -0.0136002330    -0.0073175121     0.0437947480
|  7>  C       -1.2463015506    -0.7900258381     0.0662094482
|  8>  C       -1.0927733652    -1.9071428156     1.1380755739
|  9>  C       -0.2392621378    -2.6080775678     0.0528347436
| 10>  C       -1.1290463384    -1.9114608151    -1.0057810472
| 11>  O        1.0783477759    -2.0365359980     0.0293565982
| 12>  C        1.1891603646    -0.6699205732     0.0247531272
| 13>  O        2.2777622571    -0.1507511029     0.0052919762
| 14>  H        0.9785986889     1.7991164278     0.0231516108
| 15>  H       -0.5792843660     1.8233136051    -0.8410079115
| 16>  H       -0.5495732936     1.8273073511     0.9386999776
| 17>  H       -2.1067461717    -0.1215514845     0.0794535218
| 18>  H       -0.6065683239    -1.6489511870     2.0804593825
| 19>  H       -2.0288171513    -2.4398497873     1.3165840534
| 20>  H       -0.0977784108    -3.6881754046     0.0526381326
| 21>  H       -2.0705484086    -2.4448120319    -1.1504314697
| 22>  H       -0.6749401178    -1.6570889545    -1.9650654839
| 23> *
| 24>
| 25>                          ****END OF INPUT****

CARTESIAN COORDINATES (ANGSTROEM)
---------------------------------
  C     -0.050411    1.441456    0.041132
  N     -0.013600   -0.007318    0.043795
  C     -1.246302   -0.790026    0.066209
  C     -1.092773   -1.907143    1.138076
  C     -0.239262   -2.608078    0.052835
  C     -1.129046   -1.911461   -1.005781
  O      1.078348   -2.036536    0.029357
  C      1.189160   -0.669921    0.024753
  O      2.277762   -0.150751    0.005292
  H      0.978599    1.799116    0.023152
  H     -0.579284    1.823314   -0.841008
  H     -0.549573    1.827307    0.938700
  H     -2.106746   -0.121551    0.079454
  H     -0.606568   -1.648951    2.080459
  H     -2.028817   -2.439850    1.316584
  H     -0.097778   -3.688175    0.052638
  H     -2.070548   -2.444812   -1.150431
  H     -0.674940   -1.657089   -1.965065

 Total Charge           Charge          ....    0
 Multiplicity           Mult            ....    1
 Number of Electrons    NEL             ....   68
 Basis Dimension        Dim             ....  333

ORBITAL ENERGIES
----------------

  NO   OCC          E(Eh)            E(eV)
   0   2.0000     -20.593200      -560.3695
   1   2.0000     -20.510668      -558.1237
   2   2.0000     -15.589271      -424.2056
   3   2.0000     -11.393040      -310.0204
   4   2.0000     -11.310568      -307.7762
   5   2.0000     -11.294501      -307.3390
   6   2.0000     -11.263000      -306.4818
   7   2.0000     -11.245676      -306.0104
   8   2.0000     -11.245664      -306.0101
   9   2.0000      -1.454857       -39.5887
  10   2.0000      -1.350819       -36.7577
  11   2.0000      -1.260450       -34.2986
  12   2.0000      -1.138224       -30.9726
  13   2.0000      -0.970267       -26.4023
  14   2.0000      -0.931262       -25.3409
  15   2.0000      -0.908272       -24.7153
  16   2.0000      -0.853291       -23.2192
  17   2.0000      -0.733042       -19.9471
  18   2.0000      -0.699164       -19.0252
  19   2.0000      -0.693021       -18.8581
  20   2.0000      -0.665754       -18.1161
  21   2.0000      -0.649950       -17.6860
  22   2.0000      -0.624299       -16.9880
  23   2.0000      -0.613364       -16.6905
  24   2.0000      -0.587623       -15.9900
  25   2.0000      -0.570401       -15.5214
  26   2.0000      -0.561306       -15.2739
  27   2.0000      -0.538023       -14.6404
  28   2.0000      -0.517487       -14.0815
  29   2.0000      -0.492925       -13.4132
  30   2.0000      -0.469479       -12.7752
  31   2.0000      -0.438031       -11.9194
  32   2.0000      -0.437275       -11.8989
  33   2.0000      -0.373050       -10.1512
  34   0.0000       0.125778         3.4226
  35   0.0000       0.142472         3.8769
  36   0.0000       0.161620         4.3979
  37   0.0000       0.168871         4.5952
  38   0.0000       0.179604         4.8873

MULLIKEN ATOMIC CHARGES
-----------------------
   0 C :   -0.340010
   1 N :   -0.150669
   2 C :   -0.002418
   3 C :   -0.286264
   4 C :    0.104100
   5 C :   -0.286289
   6 O :   -0.253781
   7 C :    0.301456
   8 O :   -0.356202
   9 H :    0.186061
  10 H :    0.134459
  11 H :    0.134466
  12 H :    0.141553
  13 H :    0.137258
  14 H :    0.131553
  15 H :    0.135914
  16 H :    0.131554
  17 H :    0.137258
Sum of atomic charges:   -0.0000000

LOEWDIN ATOMIC CHARGES
----------------------
   0 C :   -0.288293
   1 N :    0.174845
   2 C :   -0.223153
   3 C :   -0.199820
   4 C :   -0.258934
   5 C :   -0.199807
   6 O :    0.262591
   7 C :   -0.555769
   8 O :    0.083831
   9 H :    0.138647
  10 H :    0.116815
  11 H :    0.116817
  12 H :    0.140640
  13 H :    0.135258
  14 H :    0.143246
  15 H :    0.134594
  16 H :    0.143237
  17 H :    0.135255

  Mayer bond orders larger than 0.1
B(  0-C ,  1-N ) :   0.8691 B(  0-C ,  9-H ) :   0.9214 B(  0-C , 10-H ) :   0.9326
B(  0-C , 11-H ) :   0.9326 B(  1-N ,  2-C ) :   0.8128 B(  1-N ,  7-C ) :   1.1545
B(  2-C ,  3-C ) :   0.9291 B(  2-C ,  5-C ) :   0.9291 B(  2-C , 12-H ) :   0.9253
B(  3-C ,  4-C ) :   0.9173 B(  3-C , 13-H ) :   0.9157 B(  3-C , 14-H ) :   0.9270
B(  4-C ,  5-C ) :   0.9173 B(  4-C ,  6-O ) :   0.8441 B(  4-C , 15-H ) :   0.9319
B(  5-C , 16-H ) :   0.9270 B(  5-C , 17-H ) :   0.9157 B(  6-O ,  7-C ) :   1.0842
B(  7-C ,  8-O ) :   1.9621

MP2 TOTAL ENERGY:     -438.392351211 Eh
FINAL SINGLE POINT ENERGY      -438.392351210986

DIPOLE MOMENT
-------------
                                X             Y             Z
Electronic contribution:      6.08857      -1.87924      -0.09847
Nuclear contribution   :     -8.19844       1.76509       0.13430
                        -----------------------------------------
Total Dipole Moment    :     -2.10987      -0.11415       0.03584
                        -----------------------------------------
Magnitude (a.u.)       :      2.11326
Magnitude (Debye)      :      5.37148

                             ****ORCA TERMINATED NORMALLY****
TOTAL RUN TIME: 0 days 0 hours 17 minutes 38 seconds 626 msec
