                         Program Version 3.0.3 - RELEASE   -
|  1> ! RI-MP2 RIJK def2-TZVP def2-TZVP/C def2-TZVP/JK TIGHTSCF
|  2> % maxcore 2000
|  3> % mp2 density relaxed end
|  4> *xyz 0 1
|  5>  O       -0.2493412366     0.3679634412    -0.5785433764
|  6>  C        0.1142455052     1.1616975925     0.2559273703
|  7>  C        1.3336377734     1.9884798705     0.1294465571
|  8>  N        1.6425012566     3.1024706711     1.1879133822
|  9>  C        2.6132649104     3.4323716810     0.1279385837
| 10>  N        3.8155423918     3.0644206371     0.3232852286
| 11>  C        3.9918724832     1.8849043663    -0.5675100802
| 12>  C        2.5307516783     1.5002892727    -0.8694509997
| 13>  C        1.8159068979     2.7724198890    -1.0475936546
| 14>  H       -0.4538322768     1.3273637234     1.1961797100
| 15>  H        0.8147781335     3.7054452849     1.1079882199
| 16>  H        4.5470881109     2.0578099341    -1.5015381035
| 17>  H        4.5432062134     1.1461953913     0.0215809798
| 18>  H        2.2586843418     0.6116811939    -1.4308172151
| 19>  H        1.2630715571     3.1953268010    -1.8762814621
| 20> *
| 21>
| 22>                          ****END OF INPUT****

CARTESIAN COORDINATES (ANGSTROEM)
---------------------------------
  O     -0.249341    0.367963   -0.578543
  C      0.114246    1.161698    0.255927
  C      1.333638    1.988480    0.129447
  N      1.642501    3.102471    1.187913
  C      2.613265    3.432372    0.127939
  N      3.815542    3.064421    0.323285
  C      3.991872    1.884904   -0.567510
  C      2.530752    1.500289   -0.869451
  C      1.815907    2.772420   -1.047594
  H     -0.453832    1.327364    1.196180
  H      0.814778    3.705445    1.107988
  H      4.547088    2.057810   -1.501538
  H      4.543206    1.146195    0.021581
  H      2.258684    0.611681   -1.430817
  H      1.263072    3.195327   -1.876281

 Total Charge           Charge          ....    0
 Multiplicity           Mult            ....    1
 Number of Electrons    NEL             ....   64
 Basis Dimension        Dim             ....  315

ORBITAL ENERGIES
----------------

  NO   OCC          E(Eh)            E(eV)
   0   2.0000     -20.570761      -559.7589
   1   2.0000     -15.603724      -424.5989
   2   2.0000     -15.558137      -423.3584
   3   2.0000     -11.354713      -308.9774
   4   2.0000     -11.340695      -308.5960
   5   2.0000     -11.313909      -307.8671
   6   2.0000     -11.288430      -307.1738
   7   2.0000     -11.283400      -307.0369
   8   2.0000     -11.272350      -306.7362
   9   2.0000      -1.411066       -38.3970
  10   2.0000      -1.339538       -36.4507
  11   2.0000      -1.196407       -32.5559
  12   2.0000      -1.127017       -30.6677
  13   2.0000      -0.964532       -26.2463
  14   2.0000      -0.947616       -25.7860
  15   2.0000      -0.824306       -22.4305
  16   2.0000      -0.775963       -21.1150
  17   2.0000      -0.765120       -20.8200
  18   2.0000      -0.702915       -19.1273
  19   2.0000      -0.670519       -18.2457
  20   2.0000      -0.668980       -18.2039
  21   2.0000      -0.622742       -16.9457
  22   2.0000      -0.607493       -16.5307
  23   2.0000      -0.584677       -15.9099
  24   2.0000      -0.566694       -15.4205
  25   2.0000      -0.555250       -15.1091
  26   2.0000      -0.499209       -13.5842
  27   2.0000      -0.465509       -12.6671
  28   2.0000      -0.454439       -12.3659
  29   2.0000      -0.426726       -11.6118
  30   2.0000      -0.395686       -10.7672
  31   2.0000      -0.362290        -9.8584
  32   0.0000       0.074373         2.0238
  33   0.0000       0.094034         2.5588
  34   0.0000       0.137541         3.7427
  35   0.0000       0.151319         4.1176
  36   0.0000       0.168163         4.5759

MULLIKEN ATOMIC CHARGES
-----------------------
   0 O :   -0.272206
   1 C :    0.071805
   2 C :    0.061630
   3 N :   -0.260291
   4 C :    0.075191
   5 N :   -0.204090
   6 C :   -0.074771
   7 C :   -0.180688
   8 C :   -0.128419
   9 H :    0.109071
  10 H :    0.213068
  11 H :    0.123055
  12 H :    0.138868
  13 H :    0.161602
  14 H :    0.166174
Sum of atomic charges:    0.0000000

LOEWDIN ATOMIC CHARGES
----------------------
   0 O :    0.139347
   1 C :   -0.273177
   2 C :   -0.175352
   3 N :    0.044252
   4 C :   -0.272196
   5 N :    0.138117
   6 C :   -0.230247
   7 C :   -0.123447
   8 C :   -0.124117
   9 H :    0.123836
  10 H :    0.172869
  11 H :    0.136273
  12 H :    0.140902
  13 H :    0.157617
  14 H :    0.145323

  Mayer bond orders larger than 0.1
B(  0-O ,  1-C ) :   1.9750 B(  1-C ,  2-C ) :   0.8388 B(  1-C ,  9-H ) :   0.9585
B(  2-C ,  3-N ) :   0.8433 B(  2-C ,  7-C ) :   0.8122 B(  2-C ,  8-C ) :   0.8094
B(  3-N ,  4-C ) :   1.0240 B(  3-N , 10-H ) :   0.8531 B(  4-C ,  5-N ) :   1.8857
B(  4-C ,  8-C ) :   0.9548 B(  5-N ,  6-C ) :   0.9126 B(  6-C ,  7-C ) :   0.9242
B(  6-C , 11-H ) :   0.8958 B(  6-C , 12-H ) :   0.9203 B(  7-C ,  8-C ) :   0.9120
B(  7-C , 13-H ) :   0.9092 B(  8-C , 14-H ) :   0.8878

MP2 TOTAL ENERGY:     -415.957691226 Eh
FINAL SINGLE POINT ENERGY      -415.957691226238

DIPOLE MOMENT
-------------
                                X             Y             Z
Electronic contribution:     -1.61587       0.86773       0.97195
Nuclear contribution   :      1.34059      -0.58113      -1.66896
                        -----------------------------------------
Total Dipole Moment    :     -0.27528       0.28660      -0.69701
                        -----------------------------------------
Magnitude (a.u.)       :      0.80234
Magnitude (Debye)      :      2.03938

                             ****ORCA TERMINATED NORMALLY****
TOTAL RUN TIME: 0 days 0 hours 18 minutes 17 seconds 345 msec
