                         Program Version 3.0.3 - RELEASE   -
|  1> ! RI-MP2 RIJK def2-TZVP def2-TZVP/C def2-TZVP/JK TIGHTSCF
|  2> % maxcore 2000
|  3> % mp2 density relaxed end
|  4> *xyz 0 1
|  5>  C        0.0148559956     1.5722635365     0.0617379292
|  6>  C        0.0070604907     0.0430137164     0.0105552202
|  7>  C        0.7047923114    -0.5207160268    -1.2342635825
|  8>  O        2.0617511853    -0.0844766549    -1.3303070780
|  9>  C        0.6320255246    -2.0316538996    -1.3098047231
| 10>  C       -0.5956555388    -2.9731872974    -1.3807046328
| 11>  N        0.5717208686    -3.9758524682    -1.4232420198
| 12>  C        1.2164438694    -2.9669063856    -2.3932901226
| 13>  C        1.1851150547    -3.0962586156    -0.3212480988
| 14>  H        1.0374209842     1.9533152830    -0.0010334407
| 15>  H       -0.5482310747     1.9959706778    -0.7771424492
| 16>  H       -0.4364596321     1.9408343075     0.9876677763
| 17>  H        0.5026587682    -0.3651053209     0.9035156386
| 18>  H       -1.0236352058    -0.3325029149     0.0370475179
| 19>  H        0.2225357838    -0.1064318431    -2.1302452710
| 20>  H        2.5367545733    -0.4495743153    -0.5749315910
| 21>  H       -1.2245373063    -3.0762599101    -0.4917935380
| 22>  H       -1.1966657373    -2.9659667145    -2.2946533800
| 23>  H        0.7532039916    -2.9591789500    -3.3840376814
| 24>  H        2.3030930768    -3.0587155445    -2.4623110190
| 25>  H        2.2699247876    -3.2108052032    -0.2331952977
| 26>  H        0.6937981089    -3.2111585065     0.6492459533
| 27> *
| 28>
| 29>                          ****END OF INPUT****

CARTESIAN COORDINATES (ANGSTROEM)
---------------------------------
  C      0.014856    1.572264    0.061738
  C      0.007060    0.043014    0.010555
  C      0.704792   -0.520716   -1.234264
  O      2.061751   -0.084477   -1.330307
  C      0.632026   -2.031654   -1.309805
  C     -0.595656   -2.973187   -1.380705
  N      0.571721   -3.975852   -1.423242
  C      1.216444   -2.966906   -2.393290
  C      1.185115   -3.096259   -0.321248
  H      1.037421    1.953315   -0.001033
  H     -0.548231    1.995971   -0.777142
  H     -0.436460    1.940834    0.987668
  H      0.502659   -0.365105    0.903516
  H     -1.023635   -0.332503    0.037048
  H      0.222536   -0.106432   -2.130245
  H      2.536755   -0.449574   -0.574932
  H     -1.224537   -3.076260   -0.491794
  H     -1.196666   -2.965967   -2.294653
  H      0.753204   -2.959179   -3.384038
  H      2.303093   -3.058716   -2.462311
  H      2.269925   -3.210805   -0.233195
  H      0.693798   -3.211159    0.649246

 Total Charge           Charge          ....    0
 Multiplicity           Mult            ....    1
 Number of Electrons    NEL             ....   70
 Basis Dimension        Dim             ....  357

ORBITAL ENERGIES
----------------

  NO   OCC          E(Eh)            E(eV)
   0   2.0000     -20.559268      -559.4461
   1   2.0000     -15.569531      -423.6685
   2   2.0000     -11.283479      -307.0391
   3   2.0000     -11.261914      -306.4523
   4   2.0000     -11.261811      -306.4495
   5   2.0000     -11.257335      -306.3276
   6   2.0000     -11.253559      -306.2249
   7   2.0000     -11.230001      -305.5839
   8   2.0000     -11.215851      -305.1988
   9   2.0000      -1.365136       -37.1472
  10   2.0000      -1.294188       -35.2166
  11   2.0000      -1.060753       -28.8646
  12   2.0000      -0.973034       -26.4776
  13   2.0000      -0.924998       -25.1705
  14   2.0000      -0.922780       -25.1101
  15   2.0000      -0.876614       -23.8539
  16   2.0000      -0.816736       -22.2245
  17   2.0000      -0.753021       -20.4907
  18   2.0000      -0.682382       -18.5685
  19   2.0000      -0.648203       -17.6385
  20   2.0000      -0.639717       -17.4076
  21   2.0000      -0.636717       -17.3259
  22   2.0000      -0.632674       -17.2159
  23   2.0000      -0.576494       -15.6872
  24   2.0000      -0.545247       -14.8369
  25   2.0000      -0.537322       -14.6213
  26   2.0000      -0.511550       -13.9200
  27   2.0000      -0.496149       -13.5009
  28   2.0000      -0.491674       -13.3791
  29   2.0000      -0.490092       -13.3361
  30   2.0000      -0.481721       -13.1083
  31   2.0000      -0.468620       -12.7518
  32   2.0000      -0.458251       -12.4696
  33   2.0000      -0.441025       -12.0009
  34   2.0000      -0.367380        -9.9969
  35   0.0000       0.123594         3.3632
  36   0.0000       0.149305         4.0628
  37   0.0000       0.155657         4.2356
  38   0.0000       0.163318         4.4441
  39   0.0000       0.170629         4.6430

MULLIKEN ATOMIC CHARGES
-----------------------
   0 C :   -0.390561
   1 C :   -0.210254
   2 C :    0.154020
   3 O :   -0.467886
   4 C :   -0.112203
   5 C :   -0.168134
   6 N :   -0.194542
   7 C :   -0.105959
   8 C :   -0.214150
   9 H :    0.138936
  10 H :    0.121355
  11 H :    0.133683
  12 H :    0.104388
  13 H :    0.114399
  14 H :    0.087054
  15 H :    0.308817
  16 H :    0.117357
  17 H :    0.117651
  18 H :    0.114888
  19 H :    0.110894
  20 H :    0.120508
  21 H :    0.119737
Sum of atomic charges:    0.0000000

LOEWDIN ATOMIC CHARGES
----------------------
   0 C :   -0.317550
   1 C :   -0.278170
   2 C :   -0.323063
   3 O :   -0.013472
   4 C :   -0.243921
   5 C :   -0.208270
   6 N :    0.084297
   7 C :   -0.201332
   8 C :   -0.216980
   9 H :    0.124532
  10 H :    0.121912
  11 H :    0.120341
  12 H :    0.136255
  13 H :    0.141676
  14 H :    0.151769
  15 H :    0.174476
  16 H :    0.124206
  17 H :    0.125215
  18 H :    0.125061
  19 H :    0.125788
  20 H :    0.123136
  21 H :    0.124094

  Mayer bond orders larger than 0.1
B(  0-C ,  1-C ) :   0.9254 B(  0-C ,  9-H ) :   0.9367 B(  0-C , 10-H ) :   0.9378
B(  0-C , 11-H ) :   0.9424 B(  1-C ,  2-C ) :   0.9494 B(  1-C , 12-H ) :   0.9116
B(  1-C , 13-H ) :   0.9303 B(  2-C ,  3-O ) :   0.8343 B(  2-C ,  4-C ) :   0.8540
B(  2-C , 14-H ) :   0.8975 B(  3-O , 15-H ) :   0.8438 B(  4-C ,  5-C ) :   0.9232
B(  4-C ,  7-C ) :   0.9375 B(  4-C ,  8-C ) :   0.9413 B(  5-C ,  6-N ) :   0.9349
B(  5-C , 16-H ) :   0.9265 B(  5-C , 17-H ) :   0.9273 B(  6-N ,  7-C ) :   0.9248
B(  6-N ,  8-C ) :   0.9327 B(  7-C , 18-H ) :   0.9267 B(  7-C , 19-H ) :   0.9259
B(  8-C , 20-H ) :   0.9286 B(  8-C , 21-H ) :   0.9286

MP2 TOTAL ENERGY:     -403.586704261 Eh
FINAL SINGLE POINT ENERGY      -403.586704260623

DIPOLE MOMENT
-------------
                                X             Y             Z
Electronic contribution:      2.37020      -4.86809      -2.79847
Nuclear contribution   :     -2.59945       5.31293       3.28630
                        -----------------------------------------
Total Dipole Moment    :     -0.22925       0.44485       0.48783
                        -----------------------------------------
Magnitude (a.u.)       :      0.69887
Magnitude (Debye)      :      1.77639

                             ****ORCA TERMINATED NORMALLY****
TOTAL RUN TIME: 0 days 0 hours 20 minutes 31 seconds 760 msec
