                         Program Version 3.0.3 - RELEASE   -
|  1> ! RI-MP2 RIJK def2-TZVP def2-TZVP/C def2-TZVP/JK TIGHTSCF
|  2> % maxcore 2000
|  3> % mp2 density relaxed end
|  4> *xyz 0 1
|  5>  C        0.0059286070     1.5433900015     0.0477639969
|  6>  C       -0.0137225892     0.0112403270    -0.0274229318
|  7>  C       -1.4065721679    -0.5735980150    -0.0206324369
|  8>  N       -2.3241825711    -0.3120710419     1.1719494941
|  9>  C       -3.1033601453    -1.4718055036     0.5793720620
| 10>  C       -3.5229297605    -0.8426035043    -0.7509081049
| 11>  C       -2.3965130489    -0.2443366256    -1.1513000600
| 12>  C       -1.7234104993    -2.1125303410     0.1767791752
| 13>  O       -1.5927758362    -3.0420549095    -0.8477402641
| 14>  H        1.0325194690     1.9206304741     0.0746445751
| 15>  H       -0.4928054903     1.9915121947    -0.8176986290
| 16>  H       -0.5145169711     1.8948080175     0.9429917403
| 17>  H        0.5010126872    -0.3311523610    -0.9342366059
| 18>  H        0.5506906709    -0.4067797897     0.8160988813
| 19>  H       -1.8409336780    -0.6636415160     2.0059345512
| 20>  H       -3.8486006639    -1.9679598094     1.1998501746
| 21>  H       -4.4987210127    -0.8862711150    -1.2123480751
| 22>  H       -2.1894295388     0.3409558517    -2.0359192622
| 23>  H       -1.1930290236    -2.5233741856     1.0422881267
| 24>  H       -2.0685499273    -2.6803968188    -1.6085253775
| 25> *
| 26>
| 27>                          ****END OF INPUT****

CARTESIAN COORDINATES (ANGSTROEM)
---------------------------------
  C      0.005929    1.543390    0.047764
  C     -0.013723    0.011240   -0.027423
  C     -1.406572   -0.573598   -0.020632
  N     -2.324183   -0.312071    1.171949
  C     -3.103360   -1.471806    0.579372
  C     -3.522930   -0.842604   -0.750908
  C     -2.396513   -0.244337   -1.151300
  C     -1.723410   -2.112530    0.176779
  O     -1.592776   -3.042055   -0.847740
  H      1.032519    1.920630    0.074645
  H     -0.492805    1.991512   -0.817699
  H     -0.514517    1.894808    0.942992
  H      0.501013   -0.331152   -0.934237
  H      0.550691   -0.406780    0.816099
  H     -1.840934   -0.663642    2.005935
  H     -3.848601   -1.967960    1.199850
  H     -4.498721   -0.886271   -1.212348
  H     -2.189430    0.340956   -2.035919
  H     -1.193029   -2.523374    1.042288
  H     -2.068550   -2.680397   -1.608525

 Total Charge           Charge          ....    0
 Multiplicity           Mult            ....    1
 Number of Electrons    NEL             ....   68
 Basis Dimension        Dim             ....  345

ORBITAL ENERGIES
----------------

  NO   OCC          E(Eh)            E(eV)
   0   2.0000     -20.559430      -559.4505
   1   2.0000     -15.552348      -423.2009
   2   2.0000     -11.289536      -307.2039
   3   2.0000     -11.272423      -306.7382
   4   2.0000     -11.268671      -306.6361
   5   2.0000     -11.236984      -305.7739
   6   2.0000     -11.234955      -305.7187
   7   2.0000     -11.228797      -305.5511
   8   2.0000     -11.215434      -305.1875
   9   2.0000      -1.375354       -37.4253
  10   2.0000      -1.263428       -34.3796
  11   2.0000      -1.052652       -28.6441
  12   2.0000      -1.049705       -28.5639
  13   2.0000      -0.933510       -25.4021
  14   2.0000      -0.925594       -25.1867
  15   2.0000      -0.840852       -22.8808
  16   2.0000      -0.786986       -21.4150
  17   2.0000      -0.735775       -20.0215
  18   2.0000      -0.690938       -18.8014
  19   2.0000      -0.678864       -18.4728
  20   2.0000      -0.628704       -17.1079
  21   2.0000      -0.613679       -16.6990
  22   2.0000      -0.590521       -16.0689
  23   2.0000      -0.584866       -15.9150
  24   2.0000      -0.551946       -15.0192
  25   2.0000      -0.532966       -14.5027
  26   2.0000      -0.519689       -14.1415
  27   2.0000      -0.514051       -13.9881
  28   2.0000      -0.506677       -13.7874
  29   2.0000      -0.475234       -12.9318
  30   2.0000      -0.468363       -12.7448
  31   2.0000      -0.404036       -10.9944
  32   2.0000      -0.392621       -10.6838
  33   2.0000      -0.353416        -9.6169
  34   0.0000       0.127621         3.4727
  35   0.0000       0.134536         3.6609
  36   0.0000       0.153514         4.1773
  37   0.0000       0.161613         4.3977
  38   0.0000       0.172814         4.7025

MULLIKEN ATOMIC CHARGES
-----------------------
   0 C :   -0.390054
   1 C :   -0.240677
   2 C :    0.181396
   3 N :   -0.329396
   4 C :    0.053815
   5 C :   -0.279215
   6 C :   -0.284098
   7 C :    0.069891
   8 O :   -0.454062
   9 H :    0.134118
  10 H :    0.122658
  11 H :    0.142869
  12 H :    0.122261
  13 H :    0.110750
  14 H :    0.194341
  15 H :    0.140828
  16 H :    0.135466
  17 H :    0.138246
  18 H :    0.106626
  19 H :    0.324239
Sum of atomic charges:    0.0000000

LOEWDIN ATOMIC CHARGES
----------------------
   0 C :   -0.308549
   1 C :   -0.257703
   2 C :   -0.257658
   3 N :    0.035571
   4 C :   -0.219223
   5 C :   -0.132822
   6 C :   -0.114626
   7 C :   -0.289899
   8 O :    0.002041
   9 H :    0.120557
  10 H :    0.121502
  11 H :    0.126607
  12 H :    0.147152
  13 H :    0.141604
  14 H :    0.163425
  15 H :    0.129800
  16 H :    0.135011
  17 H :    0.137495
  18 H :    0.141265
  19 H :    0.178451

  Mayer bond orders larger than 0.1
B(  0-C ,  1-C ) :   0.9443 B(  0-C ,  9-H ) :   0.9402 B(  0-C , 10-H ) :   0.9362
B(  0-C , 11-H ) :   0.9346 B(  1-C ,  2-C ) :   0.8831 B(  1-C , 12-H ) :   0.9265
B(  1-C , 13-H ) :   0.9391 B(  2-C ,  3-N ) :   0.9161 B(  2-C ,  6-C ) :   0.8318
B(  2-C ,  7-C ) :   0.8647 B(  3-N ,  4-C ) :   0.9647 B(  3-N , 14-H ) :   0.8678
B(  4-C ,  5-C ) :   0.8441 B(  4-C ,  7-C ) :   0.9184 B(  4-C , 15-H ) :   0.9100
B(  5-C ,  6-C ) :   1.7501 B(  5-C , 16-H ) :   0.9417 B(  6-C , 17-H ) :   0.9367
B(  7-C ,  8-O ) :   1.0434 B(  7-C , 18-H ) :   0.9439 B(  8-O , 19-H ) :   0.8196

MP2 TOTAL ENERGY:     -402.418489980 Eh
FINAL SINGLE POINT ENERGY      -402.418489980395

DIPOLE MOMENT
-------------
                                X             Y             Z
Electronic contribution:     -4.33916      -5.08382      -0.58283
Nuclear contribution   :      4.37452       5.16530       0.44523
                        -----------------------------------------
Total Dipole Moment    :      0.03536       0.08148      -0.13760
                        -----------------------------------------
Magnitude (a.u.)       :      0.16378
Magnitude (Debye)      :      0.41630

                             ****ORCA TERMINATED NORMALLY****
TOTAL RUN TIME: 0 days 0 hours 19 minutes 31 seconds 966 msec
