                         Program Version 3.0.3 - RELEASE   -
|  1> ! RI-MP2 RIJK def2-TZVP def2-TZVP/C def2-TZVP/JK TIGHTSCF
|  2> % maxcore 2000
|  3> % mp2 density relaxed end
|  4> *xyz 0 1
|  5>  C       -0.1080606567     1.6092489218    -0.0569063375
|  6>  C        0.0343979447     0.0989280844     0.0214992047
|  7>  C        1.1791926760    -0.6189943925    -0.7450649403
|  8>  O        2.3515040119     0.0654996544    -0.2761376235
|  9>  C        2.2619520477    -0.3497232896     1.0977128738
| 10>  C        2.4756674306    -1.8751716724     0.9868995291
| 11>  C        1.1028419588    -1.8090745382     0.3022880016
| 12>  C        0.6957292128    -0.6008751946     1.2226968537
| 13>  H        0.8633818393     2.0945258801     0.0636400411
| 14>  H       -0.5229567669     1.9172297258    -1.0232153106
| 15>  H       -0.7798688764     1.9807985379     0.7246008404
| 16>  H       -0.9154211272    -0.4074135784    -0.1879022071
| 17>  H        1.2064085521    -0.7450593511    -1.8266235899
| 18>  H        2.8401997272     0.3068781659     1.7453141903
| 19>  H        3.3538280503    -2.2114551713     0.4301123434
| 20>  H        2.4050879716    -2.3828569218     1.9528780602
| 21>  H        0.4600659009    -2.6609555121     0.0896444822
| 22>  H        0.2547830533    -0.7044995882     2.2128524083
| 23> *
| 24>
| 25>                          ****END OF INPUT****

CARTESIAN COORDINATES (ANGSTROEM)
---------------------------------
  C     -0.108061    1.609249   -0.056906
  C      0.034398    0.098928    0.021499
  C      1.179193   -0.618994   -0.745065
  O      2.351504    0.065500   -0.276138
  C      2.261952   -0.349723    1.097713
  C      2.475667   -1.875172    0.986900
  C      1.102842   -1.809075    0.302288
  C      0.695729   -0.600875    1.222697
  H      0.863382    2.094526    0.063640
  H     -0.522957    1.917230   -1.023215
  H     -0.779869    1.980799    0.724601
  H     -0.915421   -0.407414   -0.187902
  H      1.206409   -0.745059   -1.826624
  H      2.840200    0.306878    1.745314
  H      3.353828   -2.211455    0.430112
  H      2.405088   -2.382857    1.952878
  H      0.460066   -2.660956    0.089644
  H      0.254783   -0.704500    2.212852

 Total Charge           Charge          ....    0
 Multiplicity           Mult            ....    1
 Number of Electrons    NEL             ....   60
 Basis Dimension        Dim             ....  308

ORBITAL ENERGIES
----------------

  NO   OCC          E(Eh)            E(eV)
   0   2.0000     -20.547874      -559.1361
   1   2.0000     -11.282518      -307.0129
   2   2.0000     -11.280486      -306.9576
   3   2.0000     -11.236142      -305.7510
   4   2.0000     -11.234569      -305.7082
   5   2.0000     -11.228169      -305.5340
   6   2.0000     -11.222486      -305.3794
   7   2.0000     -11.206940      -304.9563
   8   2.0000      -1.391872       -37.8748
   9   2.0000      -1.140485       -31.0342
  10   2.0000      -1.045120       -28.4392
  11   2.0000      -0.954722       -25.9793
  12   2.0000      -0.904787       -24.6205
  13   2.0000      -0.802046       -21.8248
  14   2.0000      -0.768886       -20.9225
  15   2.0000      -0.748166       -20.3586
  16   2.0000      -0.707757       -19.2590
  17   2.0000      -0.652484       -17.7550
  18   2.0000      -0.619385       -16.8543
  19   2.0000      -0.579815       -15.7776
  20   2.0000      -0.560721       -15.2580
  21   2.0000      -0.549179       -14.9439
  22   2.0000      -0.535800       -14.5799
  23   2.0000      -0.509619       -13.8674
  24   2.0000      -0.486684       -13.2434
  25   2.0000      -0.471456       -12.8290
  26   2.0000      -0.456937       -12.4339
  27   2.0000      -0.427405       -11.6303
  28   2.0000      -0.407346       -11.0844
  29   2.0000      -0.389877       -10.6091
  30   0.0000       0.140282         3.8173
  31   0.0000       0.157694         4.2911
  32   0.0000       0.167052         4.5457
  33   0.0000       0.181310         4.9337
  34   0.0000       0.191736         5.2174

MULLIKEN ATOMIC CHARGES
-----------------------
   0 C :   -0.430844
   1 C :   -0.066746
   2 C :    0.049682
   3 O :   -0.330090
   4 C :    0.020588
   5 C :   -0.218763
   6 C :   -0.146164
   7 C :   -0.125883
   8 H :    0.148644
   9 H :    0.126499
  10 H :    0.127804
  11 H :    0.098545
  12 H :    0.129065
  13 H :    0.127742
  14 H :    0.118550
  15 H :    0.113221
  16 H :    0.128777
  17 H :    0.129372
Sum of atomic charges:    0.0000000

LOEWDIN ATOMIC CHARGES
----------------------
   0 C :   -0.298213
   1 C :   -0.234232
   2 C :   -0.218957
   3 O :    0.185406
   4 C :   -0.236627
   5 C :   -0.215085
   6 C :   -0.164937
   7 C :   -0.145452
   8 H :    0.129652
   9 H :    0.124378
  10 H :    0.124132
  11 H :    0.157500
  12 H :    0.128246
  13 H :    0.127616
  14 H :    0.127395
  15 H :    0.141477
  16 H :    0.133505
  17 H :    0.134195

  Mayer bond orders larger than 0.1
B(  0-C ,  1-C ) :   0.8985 B(  0-C ,  8-H ) :   0.9376 B(  0-C ,  9-H ) :   0.9368
B(  0-C , 10-H ) :   0.9374 B(  1-C ,  2-C ) :   0.9142 B(  1-C ,  7-C ) :   0.9208
B(  1-C , 11-H ) :   0.9174 B(  2-C ,  3-O ) :   0.9277 B(  2-C ,  6-C ) :   0.8939
B(  2-C , 12-H ) :   0.9052 B(  3-O ,  4-C ) :   0.9015 B(  4-C ,  5-C ) :   0.9295
B(  4-C ,  7-C ) :   0.8831 B(  4-C , 13-H ) :   0.9158 B(  5-C ,  6-C ) :   0.9476
B(  5-C , 14-H ) :   0.9132 B(  5-C , 15-H ) :   0.9206 B(  6-C ,  7-C ) :   0.8767
B(  6-C , 16-H ) :   0.9145 B(  7-C , 17-H ) :   0.9066

MP2 TOTAL ENERGY:     -347.161419832 Eh
FINAL SINGLE POINT ENERGY      -347.161419831626

DIPOLE MOMENT
-------------
                                X             Y             Z
Electronic contribution:      2.74905      -1.50054      -0.72732
Nuclear contribution   :     -3.19311       1.14729       1.03742
                        -----------------------------------------
Total Dipole Moment    :     -0.44406      -0.35325       0.31011
                        -----------------------------------------
Magnitude (a.u.)       :      0.64664
Magnitude (Debye)      :      1.64362

                             ****ORCA TERMINATED NORMALLY****
TOTAL RUN TIME: 0 days 0 hours 13 minutes 35 seconds 145 msec
