                         Program Version 3.0.3 - RELEASE   -
|  1> ! RI-MP2 RIJK def2-TZVP def2-TZVP/C def2-TZVP/JK TIGHTSCF
|  2> % maxcore 2000
|  3> % mp2 density relaxed end
|  4> *xyz 0 1
|  5>  O       -0.3844315677     0.0215977858     0.0892092774
|  6>  C       -0.0921896687     1.1859664794     0.0866433579
|  7>  N        1.1858594973     1.7224744106     0.0781335343
|  8>  C        2.4139520389     1.0661895597     0.0754979780
|  9>  N        2.5731043698    -0.1953346717     0.1632103862
| 10>  C        3.9853204030    -0.4750736638     0.0512399564
| 11>  C        4.6177901422    -0.1661988102    -1.2811975966
| 12>  C        4.7433629126     0.8301117196    -0.1510113737
| 13>  C        3.6808280313     1.9116550115    -0.0642519027
| 14>  H       -0.8412884648     2.0051068826     0.0874962080
| 15>  H        1.2291077166     2.7301270662     0.0663515416
| 16>  H        4.3514386498    -1.3013519177     0.6484388086
| 17>  H        5.5152454255    -0.7122014872    -1.5524941715
| 18>  H        3.9520171245     0.0532258004    -2.1108307752
| 19>  H        5.7167268022     1.0068399860     0.2884297540
| 20>  H        3.6350292353     2.5609165686    -0.9472115136
| 21>  H        3.8164611523     2.5623906503     0.8095384510
| 22> *
| 23>
| 24>                          ****END OF INPUT****

CARTESIAN COORDINATES (ANGSTROEM)
---------------------------------
  O     -0.384432    0.021598    0.089209
  C     -0.092190    1.185966    0.086643
  N      1.185859    1.722474    0.078134
  C      2.413952    1.066190    0.075498
  N      2.573104   -0.195335    0.163210
  C      3.985320   -0.475074    0.051240
  C      4.617790   -0.166199   -1.281198
  C      4.743363    0.830112   -0.151011
  C      3.680828    1.911655   -0.064252
  H     -0.841288    2.005107    0.087496
  H      1.229108    2.730127    0.066352
  H      4.351439   -1.301352    0.648439
  H      5.515245   -0.712201   -1.552494
  H      3.952017    0.053226   -2.110831
  H      5.716727    1.006840    0.288430
  H      3.635029    2.560917   -0.947212
  H      3.816461    2.562391    0.809538

 Total Charge           Charge          ....    0
 Multiplicity           Mult            ....    1
 Number of Electrons    NEL             ....   66
 Basis Dimension        Dim             ....  327

ORBITAL ENERGIES
----------------

  NO   OCC          E(Eh)            E(eV)
   0   2.0000     -20.537941      -558.8658
   1   2.0000     -15.614068      -424.8804
   2   2.0000     -15.543617      -422.9633
   3   2.0000     -11.361849      -309.1716
   4   2.0000     -11.321192      -308.0653
   5   2.0000     -11.257803      -306.3404
   6   2.0000     -11.255383      -306.2745
   7   2.0000     -11.239530      -305.8431
   8   2.0000     -11.230945      -305.6095
   9   2.0000      -1.398397       -38.0523
  10   2.0000      -1.297932       -35.3185
  11   2.0000      -1.229878       -33.4667
  12   2.0000      -1.103673       -30.0325
  13   2.0000      -1.016089       -27.6492
  14   2.0000      -0.898411       -24.4470
  15   2.0000      -0.829920       -22.5833
  16   2.0000      -0.800382       -21.7795
  17   2.0000      -0.748172       -20.3588
  18   2.0000      -0.728873       -19.8336
  19   2.0000      -0.697587       -18.9823
  20   2.0000      -0.647538       -17.6204
  21   2.0000      -0.629693       -17.1348
  22   2.0000      -0.610134       -16.6026
  23   2.0000      -0.601561       -16.3693
  24   2.0000      -0.577723       -15.7206
  25   2.0000      -0.550528       -14.9806
  26   2.0000      -0.519464       -14.1353
  27   2.0000      -0.495489       -13.4829
  28   2.0000      -0.467917       -12.7327
  29   2.0000      -0.443864       -12.0782
  30   2.0000      -0.430470       -11.7137
  31   2.0000      -0.390751       -10.6329
  32   2.0000      -0.348551        -9.4846
  33   0.0000       0.113343         3.0842
  34   0.0000       0.129966         3.5365
  35   0.0000       0.149048         4.0558
  36   0.0000       0.164876         4.4865
  37   0.0000       0.176096         4.7918

MULLIKEN ATOMIC CHARGES
-----------------------
   0 O :   -0.272940
   1 C :    0.175954
   2 N :   -0.312755
   3 C :    0.134831
   4 N :   -0.204644
   5 C :    0.011552
   6 C :   -0.268375
   7 C :   -0.152178
   8 C :   -0.256325
   9 H :    0.078371
  10 H :    0.246159
  11 H :    0.132791
  12 H :    0.132649
  13 H :    0.138437
  14 H :    0.133273
  15 H :    0.144528
  16 H :    0.138672
Sum of atomic charges:    0.0000000

LOEWDIN ATOMIC CHARGES
----------------------
   0 O :    0.122965
   1 C :   -0.406251
   2 N :    0.123372
   3 C :   -0.299343
   4 N :    0.153074
   5 C :   -0.236346
   6 C :   -0.200627
   7 C :   -0.202977
   8 C :   -0.212523
   9 H :    0.109372
  10 H :    0.196951
  11 H :    0.139691
  12 H :    0.136397
  13 H :    0.138016
  14 H :    0.143521
  15 H :    0.146973
  16 H :    0.147735

  Mayer bond orders larger than 0.1
B(  0-O ,  1-C ) :   1.9922 B(  1-C ,  2-N ) :   1.0190 B(  1-C ,  9-H ) :   0.9289
B(  2-N ,  3-C ) :   0.9788 B(  2-N , 10-H ) :   0.8727 B(  3-C ,  4-N ) :   1.8350
B(  3-C ,  8-C ) :   0.9499 B(  4-N ,  5-C ) :   0.9253 B(  5-C ,  6-C ) :   0.8678
B(  5-C ,  7-C ) :   0.8619 B(  5-C , 11-H ) :   0.9393 B(  6-C ,  7-C ) :   0.8800
B(  6-C , 12-H ) :   0.9237 B(  6-C , 13-H ) :   0.9261 B(  7-C ,  8-C ) :   0.9563
B(  7-C , 14-H ) :   0.9249 B(  8-C , 15-H ) :   0.9097 B(  8-C , 16-H ) :   0.8982

MP2 TOTAL ENERGY:     -417.317230852 Eh
FINAL SINGLE POINT ENERGY      -417.317230852234

DIPOLE MOMENT
-------------
                                X             Y             Z
Electronic contribution:     -6.10198      -1.52469       1.62527
Nuclear contribution   :      7.10353       3.32847      -1.73108
                        -----------------------------------------
Total Dipole Moment    :      1.00156       1.80378      -0.10581
                        -----------------------------------------
Magnitude (a.u.)       :      2.06590
Magnitude (Debye)      :      5.25109

                             ****ORCA TERMINATED NORMALLY****
TOTAL RUN TIME: 0 days 0 hours 16 minutes 31 seconds 68 msec
