                         Program Version 3.0.3 - RELEASE   -
|  1> ! RI-MP2 RIJK def2-TZVP def2-TZVP/C def2-TZVP/JK TIGHTSCF
|  2> % maxcore 2000
|  3> % mp2 density relaxed end
|  4> *xyz 0 1
|  5>  C       -0.0005404353     1.5155575433     0.0093190879
|  6>  C       -0.0465031880     0.0245184411     0.0425362287
|  7>  C       -1.0808465411    -0.8207498858    -0.0708068437
|  8>  C       -0.6166055461    -2.2390770048    -0.0082991281
|  9>  C       -1.4016584451    -3.2375062080     0.8104197141
| 10>  C        0.2879444020    -2.6851011325    -1.1160292483
| 11>  N        0.8405289519    -2.1863643113     0.1644332370
| 12>  C        1.2066120691    -0.7884364662     0.1082294335
| 13>  O        2.3403014630    -0.3840852723     0.0921499056
| 14>  H        0.6789714469     1.8584482073    -0.7782745435
| 15>  H       -0.9885691646     1.9498327124    -0.1605943842
| 16>  H        0.3978121047     1.9100816554     0.9506302231
| 17>  H       -2.1266413620    -0.5500000937    -0.1643082010
| 18>  H       -2.3996532808    -3.3841730095     0.3832744851
| 19>  H       -0.8916886122    -4.2032396178     0.8337376965
| 20>  H       -1.5196014851    -2.8883735274     1.8409422914
| 21>  H        0.4371247841    -3.7469659572    -1.2942767147
| 22>  H        0.3890806787    -2.0474385430    -1.9904063393
| 23> *
| 24>
| 25>                          ****END OF INPUT****

CARTESIAN COORDINATES (ANGSTROEM)
---------------------------------
  C     -0.000540    1.515558    0.009319
  C     -0.046503    0.024518    0.042536
  C     -1.080847   -0.820750   -0.070807
  C     -0.616606   -2.239077   -0.008299
  C     -1.401658   -3.237506    0.810420
  C      0.287944   -2.685101   -1.116029
  N      0.840529   -2.186364    0.164433
  C      1.206612   -0.788436    0.108229
  O      2.340301   -0.384085    0.092150
  H      0.678971    1.858448   -0.778275
  H     -0.988569    1.949833   -0.160594
  H      0.397812    1.910082    0.950630
  H     -2.126641   -0.550000   -0.164308
  H     -2.399653   -3.384173    0.383274
  H     -0.891689   -4.203240    0.833738
  H     -1.519601   -2.888374    1.840942
  H      0.437125   -3.746966   -1.294277
  H      0.389081   -2.047439   -1.990406

 Total Charge           Charge          ....    0
 Multiplicity           Mult            ....    1
 Number of Electrons    NEL             ....   66
 Basis Dimension        Dim             ....  333

ORBITAL ENERGIES
----------------

  NO   OCC          E(Eh)            E(eV)
   0   2.0000     -20.538954      -558.8934
   1   2.0000     -15.578801      -423.9207
   2   2.0000     -11.351089      -308.8788
   3   2.0000     -11.288964      -307.1883
   4   2.0000     -11.284794      -307.0748
   5   2.0000     -11.263414      -306.4931
   6   2.0000     -11.255387      -306.2746
   7   2.0000     -11.236675      -305.7655
   8   2.0000     -11.233800      -305.6872
   9   2.0000      -1.396612       -38.0038
  10   2.0000      -1.305981       -35.5375
  11   2.0000      -1.104241       -30.0479
  12   2.0000      -1.027699       -27.9651
  13   2.0000      -0.969909       -26.3926
  14   2.0000      -0.933990       -25.4152
  15   2.0000      -0.841336       -22.8939
  16   2.0000      -0.781860       -21.2755
  17   2.0000      -0.746017       -20.3001
  18   2.0000      -0.681283       -18.5387
  19   2.0000      -0.646829       -17.6011
  20   2.0000      -0.623849       -16.9758
  21   2.0000      -0.601073       -16.3560
  22   2.0000      -0.594416       -16.1749
  23   2.0000      -0.583330       -15.8732
  24   2.0000      -0.573582       -15.6080
  25   2.0000      -0.553188       -15.0530
  26   2.0000      -0.543127       -14.7792
  27   2.0000      -0.521837       -14.1999
  28   2.0000      -0.504376       -13.7248
  29   2.0000      -0.470691       -12.8082
  30   2.0000      -0.431807       -11.7501
  31   2.0000      -0.410006       -11.1568
  32   2.0000      -0.362565        -9.8659
  33   0.0000       0.089845         2.4448
  34   0.0000       0.134309         3.6547
  35   0.0000       0.151223         4.1150
  36   0.0000       0.163155         4.4397
  37   0.0000       0.175377         4.7723

MULLIKEN ATOMIC CHARGES
-----------------------
   0 C :   -0.408975
   1 C :   -0.026055
   2 C :   -0.171205
   3 C :    0.208584
   4 C :   -0.417884
   5 C :   -0.185022
   6 N :   -0.200326
   7 C :    0.195021
   8 O :   -0.270685
   9 H :    0.153745
  10 H :    0.139075
  11 H :    0.153400
  12 H :    0.141490
  13 H :    0.132313
  14 H :    0.146371
  15 H :    0.140001
  16 H :    0.134712
  17 H :    0.135439
Sum of atomic charges:    0.0000000

LOEWDIN ATOMIC CHARGES
----------------------
   0 C :   -0.262693
   1 C :   -0.156088
   2 C :   -0.063494
   3 C :   -0.289464
   4 C :   -0.256952
   5 C :   -0.173746
   6 N :    0.185689
   7 C :   -0.355777
   8 O :    0.149724
   9 H :    0.140972
  10 H :    0.130595
  11 H :    0.140368
  12 H :    0.146519
  13 H :    0.130607
  14 H :    0.134726
  15 H :    0.132522
  16 H :    0.131839
  17 H :    0.134654

  Mayer bond orders larger than 0.1
B(  0-C ,  1-C ) :   0.8873 B(  0-C ,  9-H ) :   0.9190 B(  0-C , 10-H ) :   0.9529
B(  0-C , 11-H ) :   0.9299 B(  1-C ,  2-C ) :   1.6723 B(  1-C ,  7-C ) :   0.9589
B(  2-C ,  3-C ) :   0.9457 B(  2-C , 12-H ) :   0.9166 B(  3-C ,  4-C ) :   0.8784
B(  3-C ,  5-C ) :   0.9387 B(  3-C ,  6-N ) :   0.8078 B(  4-C , 13-H ) :   0.9368
B(  4-C , 14-H ) :   0.9363 B(  4-C , 15-H ) :   0.9332 B(  5-C ,  6-N ) :   0.8810
B(  5-C , 16-H ) :   0.9083 B(  5-C , 17-H ) :   0.9007 B(  6-N ,  7-C ) :   0.9928
B(  7-C ,  8-O ) :   2.0579

MP2 TOTAL ENERGY:     -401.273399938 Eh
FINAL SINGLE POINT ENERGY      -401.273399938042

DIPOLE MOMENT
-------------
                                X             Y             Z
Electronic contribution:      5.58358       0.22569      -0.02159
Nuclear contribution   :     -7.21334      -0.34291      -0.40147
                        -----------------------------------------
Total Dipole Moment    :     -1.62976      -0.11722      -0.42306
                        -----------------------------------------
Magnitude (a.u.)       :      1.68785
Magnitude (Debye)      :      4.29018

                             ****ORCA TERMINATED NORMALLY****
TOTAL RUN TIME: 0 days 0 hours 18 minutes 13 seconds 122 msec
