                         Program Version 3.0.3 - RELEASE   -
|  1> ! RI-MP2 RIJK def2-TZVP def2-TZVP/C def2-TZVP/JK TIGHTSCF
|  2> % maxcore 2000
|  3> % mp2 density relaxed end
|  4> *xyz 0 1
|  5>  C       -0.0639681538     1.6011248003     0.0514068417
|  6>  C        0.0327092304     0.0951455760     0.0482321368
|  7>  C        1.3316162762    -0.6487205128    -0.2230906366
|  8>  O        2.5225908817     0.0946741366    -0.1032447809
|  9>  C        2.8446336700     0.0631468267     1.2833598517
| 10>  C        3.6644761203     1.2686749957     1.6753448688
| 11>  O        1.5983218573     0.0473912639     1.9675755979
| 12>  C        0.7182802152    -0.7043236601     1.1461731412
| 13>  C        0.1056172881    -1.9043483489     1.8115034868
| 14>  H        0.8259127817     2.0525139866     0.4900262460
| 15>  H       -0.1734816464     1.9853023529    -0.9680508706
| 16>  H       -0.9316777730     1.9320188844     0.6315592702
| 17>  H       -0.8363868734    -0.4145310723    -0.3654912756
| 18>  H        1.3804636032    -1.4885780356    -0.9097720137
| 19>  H        3.3861039615    -0.8757705110     1.5017965010
| 20>  H        3.1193502181     2.1879215834     1.4493724619
| 21>  H        3.8822633831     1.2360917680     2.7458195776
| 22>  H        4.6082659679     1.2686617203     1.1242160314
| 23>  H       -0.5333122467    -1.6004473846     2.6475293159
| 24>  H       -0.5106306248    -2.4647780128     1.1022521809
| 25>  H        0.8794246734    -2.5741092064     2.2013036074
| 26> *
| 27>
| 28>                          ****END OF INPUT****

CARTESIAN COORDINATES (ANGSTROEM)
---------------------------------
  C     -0.063968    1.601125    0.051407
  C      0.032709    0.095146    0.048232
  C      1.331616   -0.648721   -0.223091
  O      2.522591    0.094674   -0.103245
  C      2.844634    0.063147    1.283360
  C      3.664476    1.268675    1.675345
  O      1.598322    0.047391    1.967576
  C      0.718280   -0.704324    1.146173
  C      0.105617   -1.904348    1.811503
  H      0.825913    2.052514    0.490026
  H     -0.173482    1.985302   -0.968051
  H     -0.931678    1.932019    0.631559
  H     -0.836387   -0.414531   -0.365491
  H      1.380464   -1.488578   -0.909772
  H      3.386104   -0.875771    1.501797
  H      3.119350    2.187922    1.449372
  H      3.882263    1.236092    2.745820
  H      4.608266    1.268662    1.124216
  H     -0.533312   -1.600447    2.647529
  H     -0.510631   -2.464778    1.102252
  H      0.879425   -2.574109    2.201304

 Total Charge           Charge          ....    0
 Multiplicity           Mult            ....    1
 Number of Electrons    NEL             ....   70
 Basis Dimension        Dim             ....  351

ORBITAL ENERGIES
----------------

  NO   OCC          E(Eh)            E(eV)
   0   2.0000     -20.563172      -559.5524
   1   2.0000     -20.561989      -559.5202
   2   2.0000     -11.333478      -308.3996
   3   2.0000     -11.286859      -307.1311
   4   2.0000     -11.279403      -306.9282
   5   2.0000     -11.234553      -305.7077
   6   2.0000     -11.225161      -305.4522
   7   2.0000     -11.217616      -305.2468
   8   2.0000     -11.212946      -305.1198
   9   2.0000      -1.442514       -39.2528
  10   2.0000      -1.331555       -36.2334
  11   2.0000      -1.141434       -31.0600
  12   2.0000      -1.009947       -27.4821
  13   2.0000      -0.988667       -26.9030
  14   2.0000      -0.941172       -25.6106
  15   2.0000      -0.836057       -22.7503
  16   2.0000      -0.803397       -21.8615
  17   2.0000      -0.767066       -20.8729
  18   2.0000      -0.716072       -19.4853
  19   2.0000      -0.657057       -17.8794
  20   2.0000      -0.632702       -17.2167
  21   2.0000      -0.615595       -16.7512
  22   2.0000      -0.595955       -16.2168
  23   2.0000      -0.574235       -15.6257
  24   2.0000      -0.560567       -15.2538
  25   2.0000      -0.548948       -14.9376
  26   2.0000      -0.545293       -14.8382
  27   2.0000      -0.542814       -14.7707
  28   2.0000      -0.527499       -14.3540
  29   2.0000      -0.521729       -14.1970
  30   2.0000      -0.502427       -13.6717
  31   2.0000      -0.497811       -13.5461
  32   2.0000      -0.448927       -12.2159
  33   2.0000      -0.384907       -10.4739
  34   2.0000      -0.379636       -10.3304
  35   0.0000       0.137532         3.7424
  36   0.0000       0.156319         4.2537
  37   0.0000       0.160767         4.3747
  38   0.0000       0.180698         4.9170
  39   0.0000       0.188691         5.1345

MULLIKEN ATOMIC CHARGES
-----------------------
   0 C :   -0.399423
   1 C :   -0.129970
   2 C :    0.012692
   3 O :   -0.321557
   4 C :    0.198691
   5 C :   -0.358612
   6 O :   -0.324282
   7 C :    0.208240
   8 C :   -0.396081
   9 H :    0.138968
  10 H :    0.131532
  11 H :    0.131751
  12 H :    0.116474
  13 H :    0.125464
  14 H :    0.064687
  15 H :    0.130666
  16 H :    0.136626
  17 H :    0.136561
  18 H :    0.141123
  19 H :    0.124947
  20 H :    0.131498
Sum of atomic charges:   -0.0000000

LOEWDIN ATOMIC CHARGES
----------------------
   0 C :   -0.287908
   1 C :   -0.195508
   2 C :   -0.244518
   3 O :    0.198484
   4 C :   -0.397999
   5 C :   -0.287194
   6 O :    0.218969
   7 C :   -0.314359
   8 C :   -0.268284
   9 H :    0.128768
  10 H :    0.127175
  11 H :    0.126949
  12 H :    0.154358
  13 H :    0.135336
  14 H :    0.123772
  15 H :    0.127381
  16 H :    0.131490
  17 H :    0.131625
  18 H :    0.131600
  19 H :    0.131039
  20 H :    0.128823

  Mayer bond orders larger than 0.1
B(  0-C ,  1-C ) :   0.8920 B(  0-C ,  9-H ) :   0.9383 B(  0-C , 10-H ) :   0.9356
B(  0-C , 11-H ) :   0.9374 B(  1-C ,  2-C ) :   0.8604 B(  1-C ,  7-C ) :   0.8884
B(  1-C , 12-H ) :   0.9180 B(  2-C ,  3-O ) :   0.9691 B(  2-C ,  7-C ) :   0.8514
B(  2-C , 13-H ) :   0.9361 B(  3-O ,  4-C ) :   0.9465 B(  4-C ,  5-C ) :   0.9367
B(  4-C ,  6-O ) :   0.9505 B(  4-C , 14-H ) :   0.9111 B(  5-C , 15-H ) :   0.9298
B(  5-C , 16-H ) :   0.9338 B(  5-C , 17-H ) :   0.9329 B(  6-O ,  7-C ) :   0.9233
B(  7-C ,  8-C ) :   0.9025 B(  8-C , 18-H ) :   0.9403 B(  8-C , 19-H ) :   0.9321
B(  8-C , 20-H ) :   0.9337

MP2 TOTAL ENERGY:     -423.513360074 Eh
FINAL SINGLE POINT ENERGY      -423.513360073822

DIPOLE MOMENT
-------------
                                X             Y             Z
Electronic contribution:      1.87344      -1.49768      -1.16687
Nuclear contribution   :     -2.05471       1.10139       1.16915
                        -----------------------------------------
Total Dipole Moment    :     -0.18127      -0.39629       0.00228
                        -----------------------------------------
Magnitude (a.u.)       :      0.43578
Magnitude (Debye)      :      1.10767

                             ****ORCA TERMINATED NORMALLY****
TOTAL RUN TIME: 0 days 0 hours 18 minutes 9 seconds 657 msec
