                         Program Version 3.0.3 - RELEASE   -
|  1> ! RI-MP2 RIJK def2-TZVP def2-TZVP/C def2-TZVP/JK TIGHTSCF
|  2> % maxcore 2000
|  3> % mp2 density relaxed end
|  4> *xyz 0 1
|  5>  O        0.0368768819     1.4591477571     0.0980398818
|  6>  C        0.0792773863     0.0527138868     0.0851260595
|  7>  C       -1.3378364143    -0.5492291333     0.0165475476
|  8>  C       -2.0277883900    -0.2441999974    -1.3078712763
|  9>  O       -2.0642505121     0.8353493382    -1.8592755495
| 10>  C       -2.5839081344    -1.5190838130    -1.8426144465
| 11>  C       -2.2292508533    -2.5479922983    -1.0576335842
| 12>  C       -1.4103453593    -2.0739289063     0.1011045799
| 13>  O       -0.8930554847    -2.7757021372     0.9351248081
| 14>  H       -0.4899509292     1.7326317636    -0.6654452233
| 15>  H        0.6801765457    -0.3348742370    -0.7539914609
| 16>  H        0.5596866709    -0.2744538537     1.0112007233
| 17>  H       -1.9218507947    -0.1148476011     0.8379019072
| 18>  H       -3.1579831373    -1.5545786524    -2.7604948032
| 19>  H       -2.4600780955    -3.5966916057    -1.2010793036
| 20> *
| 21>
| 22>                          ****END OF INPUT****

CARTESIAN COORDINATES (ANGSTROEM)
---------------------------------
  O      0.036877    1.459148    0.098040
  C      0.079277    0.052714    0.085126
  C     -1.337836   -0.549229    0.016548
  C     -2.027788   -0.244200   -1.307871
  O     -2.064251    0.835349   -1.859276
  C     -2.583908   -1.519084   -1.842614
  C     -2.229251   -2.547992   -1.057634
  C     -1.410345   -2.073929    0.101105
  O     -0.893055   -2.775702    0.935125
  H     -0.489951    1.732632   -0.665445
  H      0.680177   -0.334874   -0.753991
  H      0.559687   -0.274454    1.011201
  H     -1.921851   -0.114848    0.837902
  H     -3.157983   -1.554579   -2.760495
  H     -2.460078   -3.596692   -1.201079

 Total Charge           Charge          ....    0
 Multiplicity           Mult            ....    1
 Number of Electrons    NEL             ....   66
 Basis Dimension        Dim             ....  315

ORBITAL ENERGIES
----------------

  NO   OCC          E(Eh)            E(eV)
   0   2.0000     -20.582764      -560.0855
   1   2.0000     -20.578725      -559.9756
   2   2.0000     -20.559445      -559.4509
   3   2.0000     -11.368037      -309.3400
   4   2.0000     -11.364530      -309.2446
   5   2.0000     -11.298896      -307.4586
   6   2.0000     -11.296097      -307.3824
   7   2.0000     -11.293918      -307.3231
   8   2.0000     -11.270332      -306.6813
   9   2.0000      -1.425896       -38.8006
  10   2.0000      -1.418896       -38.6101
  11   2.0000      -1.368621       -37.2421
  12   2.0000      -1.178600       -32.0713
  13   2.0000      -1.054740       -28.7009
  14   2.0000      -0.925192       -25.1757
  15   2.0000      -0.909346       -24.7446
  16   2.0000      -0.788029       -21.4434
  17   2.0000      -0.776126       -21.1195
  18   2.0000      -0.721005       -19.6195
  19   2.0000      -0.710350       -19.3296
  20   2.0000      -0.660673       -17.9778
  21   2.0000      -0.654213       -17.8020
  22   2.0000      -0.628612       -17.1054
  23   2.0000      -0.621583       -16.9141
  24   2.0000      -0.618731       -16.8365
  25   2.0000      -0.598827       -16.2949
  26   2.0000      -0.559038       -15.2122
  27   2.0000      -0.551250       -15.0003
  28   2.0000      -0.522100       -14.2071
  29   2.0000      -0.463595       -12.6151
  30   2.0000      -0.448220       -12.1967
  31   2.0000      -0.429306       -11.6820
  32   2.0000      -0.428413       -11.6577
  33   0.0000       0.031989         0.8705
  34   0.0000       0.113925         3.1001
  35   0.0000       0.150388         4.0923
  36   0.0000       0.161035         4.3820
  37   0.0000       0.170820         4.6482

MULLIKEN ATOMIC CHARGES
-----------------------
   0 O :   -0.465885
   1 C :   -0.036227
   2 C :   -0.050431
   3 C :    0.205415
   4 O :   -0.305934
   5 C :   -0.155222
   6 C :   -0.126151
   7 C :    0.144656
   8 O :   -0.255522
   9 H :    0.332317
  10 H :    0.101064
  11 H :    0.136480
  12 H :    0.143802
  13 H :    0.165054
  14 H :    0.166584
Sum of atomic charges:   -0.0000000

LOEWDIN ATOMIC CHARGES
----------------------
   0 O :   -0.032808
   1 C :   -0.312717
   2 C :   -0.189730
   3 C :   -0.287634
   4 O :    0.151710
   5 C :   -0.071648
   6 C :   -0.067480
   7 C :   -0.289347
   8 O :    0.174128
   9 H :    0.177001
  10 H :    0.123499
  11 H :    0.137666
  12 H :    0.183906
  13 H :    0.151788
  14 H :    0.151666

  Mayer bond orders larger than 0.1
B(  0-O ,  1-C ) :   0.9571 B(  0-O ,  9-H ) :   0.8205 B(  1-C ,  2-C ) :   0.9036
B(  1-C , 10-H ) :   0.9182 B(  1-C , 11-H ) :   0.9259 B(  2-C ,  3-C ) :   0.8724
B(  2-C ,  7-C ) :   0.8504 B(  2-C , 12-H ) :   0.8622 B(  3-C ,  4-O ) :   1.8873
B(  3-C ,  5-C ) :   0.9904 B(  5-C ,  6-C ) :   1.5948 B(  5-C , 13-H ) :   0.9026
B(  6-C ,  7-C ) :   0.9544 B(  6-C , 14-H ) :   0.9047 B(  7-C ,  8-O ) :   1.9969

MP2 TOTAL ENERGY:     -457.062946309 Eh
FINAL SINGLE POINT ENERGY      -457.062946309311

DIPOLE MOMENT
-------------
                                X             Y             Z
Electronic contribution:     -1.91555      -1.17091      -0.34304
Nuclear contribution   :      1.13510       0.35892      -0.40674
                        -----------------------------------------
Total Dipole Moment    :     -0.78044      -0.81199      -0.74978
                        -----------------------------------------
Magnitude (a.u.)       :      1.35299
Magnitude (Debye)      :      3.43903

                             ****ORCA TERMINATED NORMALLY****
TOTAL RUN TIME: 0 days 0 hours 14 minutes 23 seconds 308 msec
