                         Program Version 3.0.3 - RELEASE   -
|  1> ! RI-MP2 RIJK def2-TZVP def2-TZVP/C def2-TZVP/JK TIGHTSCF
|  2> % maxcore 2000
|  3> % mp2 density relaxed end
|  4> *xyz 0 1
|  5>  C        0.0689183748     1.3236084306    -0.5064949440
|  6>  C       -0.0585917018     0.0339200682     0.2852720201
|  7>  O        0.8369819084    -0.3685954999     1.0020070568
|  8>  C       -1.3232491445    -0.7163235519     0.1314017181
|  9>  C       -1.7256224552    -1.7886458022     1.1299040285
| 10>  C       -1.4020231910    -2.2238072603    -0.2515309546
| 11>  C       -2.5311956096    -1.8659277136    -1.2630680785
| 12>  O       -3.6139125544    -1.2378483900    -0.5636376947
| 13>  C       -2.4644146758    -0.4540383071    -0.9062858346
| 14>  H        1.0345459251     1.7852493559    -0.2987162229
| 15>  H       -0.0186887958     1.1248879461    -1.5812465649
| 16>  H       -0.7371728325     2.0182703616    -0.2427571634
| 17>  H       -0.9492014454    -1.9771994480     1.8625343821
| 18>  H       -2.7487816314    -1.8092096212     1.4808699895
| 19>  H       -0.5437256749    -2.8340845412    -0.4988154105
| 20>  H       -2.7532645608    -2.3662130870    -2.1971081531
| 21>  H       -2.6233232953     0.4447105300    -1.4895097938
| 22> *
| 23>
| 24>                          ****END OF INPUT****

CARTESIAN COORDINATES (ANGSTROEM)
---------------------------------
  C      0.068918    1.323608   -0.506495
  C     -0.058592    0.033920    0.285272
  O      0.836982   -0.368595    1.002007
  C     -1.323249   -0.716324    0.131402
  C     -1.725622   -1.788646    1.129904
  C     -1.402023   -2.223807   -0.251531
  C     -2.531196   -1.865928   -1.263068
  O     -3.613913   -1.237848   -0.563638
  C     -2.464415   -0.454038   -0.906286
  H      1.034546    1.785249   -0.298716
  H     -0.018689    1.124888   -1.581247
  H     -0.737173    2.018270   -0.242757
  H     -0.949201   -1.977199    1.862534
  H     -2.748782   -1.809210    1.480870
  H     -0.543726   -2.834085   -0.498815
  H     -2.753265   -2.366213   -2.197108
  H     -2.623323    0.444711   -1.489510

 Total Charge           Charge          ....    0
 Multiplicity           Mult            ....    1
 Number of Electrons    NEL             ....   66
 Basis Dimension        Dim             ....  327

ORBITAL ENERGIES
----------------

  NO   OCC          E(Eh)            E(eV)
   0   2.0000     -20.584540      -560.1338
   1   2.0000     -20.537653      -558.8579
   2   2.0000     -11.336781      -308.4895
   3   2.0000     -11.308083      -307.7086
   4   2.0000     -11.305394      -307.6354
   5   2.0000     -11.264995      -306.5361
   6   2.0000     -11.256299      -306.2995
   7   2.0000     -11.248185      -306.0787
   8   2.0000     -11.240054      -305.8574
   9   2.0000      -1.436445       -39.0877
  10   2.0000      -1.383050       -37.6347
  11   2.0000      -1.179455       -32.0946
  12   2.0000      -1.023580       -27.8530
  13   2.0000      -0.961382       -26.1605
  14   2.0000      -0.915900       -24.9229
  15   2.0000      -0.841338       -22.8940
  16   2.0000      -0.791676       -21.5426
  17   2.0000      -0.755240       -20.5511
  18   2.0000      -0.697774       -18.9874
  19   2.0000      -0.676258       -18.4019
  20   2.0000      -0.647105       -17.6086
  21   2.0000      -0.615798       -16.7567
  22   2.0000      -0.606613       -16.5068
  23   2.0000      -0.586070       -15.9478
  24   2.0000      -0.562219       -15.2988
  25   2.0000      -0.549677       -14.9575
  26   2.0000      -0.531303       -14.4575
  27   2.0000      -0.525312       -14.2945
  28   2.0000      -0.506543       -13.7837
  29   2.0000      -0.453570       -12.3423
  30   2.0000      -0.441595       -12.0164
  31   2.0000      -0.413222       -11.2443
  32   2.0000      -0.358108        -9.7446
  33   0.0000       0.122225         3.3259
  34   0.0000       0.132707         3.6111
  35   0.0000       0.157935         4.2976
  36   0.0000       0.170146         4.6299
  37   0.0000       0.180473         4.9109

MULLIKEN ATOMIC CHARGES
-----------------------
   0 C :   -0.414348
   1 C :    0.159850
   2 O :   -0.314468
   3 C :    0.068391
   4 C :   -0.245904
   5 C :   -0.123548
   6 C :   -0.001900
   7 O :   -0.313390
   8 C :   -0.062990
   9 H :    0.157417
  10 H :    0.142544
  11 H :    0.150265
  12 H :    0.160934
  13 H :    0.168343
  14 H :    0.160541
  15 H :    0.152698
  16 H :    0.155566
Sum of atomic charges:    0.0000000

LOEWDIN ATOMIC CHARGES
----------------------
   0 C :   -0.271352
   1 C :   -0.337836
   2 O :    0.134590
   3 C :   -0.148543
   4 C :   -0.155844
   5 C :   -0.120238
   6 C :   -0.213507
   7 O :    0.185338
   8 C :   -0.200884
   9 H :    0.134633
  10 H :    0.136325
  11 H :    0.137659
  12 H :    0.155601
  13 H :    0.145346
  14 H :    0.148001
  15 H :    0.134444
  16 H :    0.136269

  Mayer bond orders larger than 0.1
B(  0-C ,  1-C ) :   0.9309 B(  0-C ,  9-H ) :   0.9371 B(  0-C , 10-H ) :   0.9109
B(  0-C , 11-H ) :   0.9175 B(  1-C ,  2-O ) :   1.9746 B(  1-C ,  3-C ) :   0.9273
B(  3-C ,  4-C ) :   0.8574 B(  3-C ,  5-C ) :   0.7795 B(  3-C ,  8-C ) :   0.7895
B(  4-C ,  5-C ) :   0.9624 B(  4-C , 12-H ) :   0.9159 B(  4-C , 13-H ) :   0.8947
B(  5-C ,  6-C ) :   0.8788 B(  5-C , 14-H ) :   0.9028 B(  6-C ,  7-O ) :   0.9169
B(  6-C ,  8-C ) :   1.0169 B(  6-C , 15-H ) :   0.9179 B(  7-O ,  8-C ) :   0.9373
B(  8-C , 16-H ) :   0.9222

MP2 TOTAL ENERGY:     -421.052030714 Eh
FINAL SINGLE POINT ENERGY      -421.052030714065

DIPOLE MOMENT
-------------
                                X             Y             Z
Electronic contribution:     -1.58864      -2.35833       1.07796
Nuclear contribution   :      1.34424       2.51632      -2.01262
                        -----------------------------------------
Total Dipole Moment    :     -0.24439       0.15800      -0.93466
                        -----------------------------------------
Magnitude (a.u.)       :      0.97892
Magnitude (Debye)      :      2.48821

                             ****ORCA TERMINATED NORMALLY****
TOTAL RUN TIME: 0 days 0 hours 19 minutes 31 seconds 928 msec
