                         Program Version 3.0.3 - RELEASE   -
|  1> ! RI-MP2 RIJK def2-TZVP def2-TZVP/C def2-TZVP/JK TIGHTSCF
|  2> % maxcore 2000
|  3> % mp2 density relaxed end
|  4> *xyz 0 1
|  5>  C       -0.0055040186     1.5694339677     0.0089084997
|  6>  C        1.4810430018     1.8650728841     0.0162053993
|  7>  C        2.1044764929     0.6346355876     0.5886001159
|  8>  O        1.1177369574    -0.3134884271     0.8661391996
|  9>  C        0.0240262446     0.0176480974    -0.0349359167
| 10>  C        0.4188160692    -0.4303864021    -1.4164471133
| 11>  C        1.5923214890     0.0586498911    -1.8357082147
| 12>  C        2.3128793622     0.9451045947    -0.9041250178
| 13>  H       -0.4613242894     1.9258655943     0.9380744041
| 14>  H       -0.5485298483     1.9856241360    -0.8428809601
| 15>  H        1.8485081961     2.8623498618     0.2200254871
| 16>  H        2.9386460748     0.5956608917     1.2766041156
| 17>  H       -0.8717731980    -0.4660904914     0.3528745530
| 18>  H       -0.1921466905    -1.1189874350    -1.9873082161
| 19>  H        2.0413884730    -0.2035570073    -2.7879755300
| 20>  H        3.2884666039     1.3189963264    -1.1915092657
| 21> *
| 22>
| 23>                          ****END OF INPUT****

CARTESIAN COORDINATES (ANGSTROEM)
---------------------------------
  C     -0.005504    1.569434    0.008908
  C      1.481043    1.865073    0.016205
  C      2.104476    0.634636    0.588600
  O      1.117737   -0.313488    0.866139
  C      0.024026    0.017648   -0.034936
  C      0.418816   -0.430386   -1.416447
  C      1.592321    0.058650   -1.835708
  C      2.312879    0.945105   -0.904125
  H     -0.461324    1.925866    0.938074
  H     -0.548530    1.985624   -0.842881
  H      1.848508    2.862350    0.220025
  H      2.938646    0.595661    1.276604
  H     -0.871773   -0.466090    0.352875
  H     -0.192147   -1.118987   -1.987308
  H      2.041388   -0.203557   -2.787976
  H      3.288467    1.318996   -1.191509

 Total Charge           Charge          ....    0
 Multiplicity           Mult            ....    1
 Number of Electrons    NEL             ....   58
 Basis Dimension        Dim             ....  296

ORBITAL ENERGIES
----------------

  NO   OCC          E(Eh)            E(eV)
   0   2.0000     -20.556522      -559.3714
   1   2.0000     -11.283371      -307.0361
   2   2.0000     -11.281451      -306.9839
   3   2.0000     -11.235221      -305.7259
   4   2.0000     -11.234607      -305.7092
   5   2.0000     -11.230750      -305.6043
   6   2.0000     -11.228462      -305.5420
   7   2.0000     -11.217950      -305.2559
   8   2.0000      -1.389348       -37.8061
   9   2.0000      -1.146963       -31.2105
  10   2.0000      -1.060732       -28.8640
  11   2.0000      -1.012666       -27.5561
  12   2.0000      -0.852905       -23.2087
  13   2.0000      -0.840934       -22.8830
  14   2.0000      -0.781215       -21.2579
  15   2.0000      -0.729747       -19.8574
  16   2.0000      -0.699431       -19.0325
  17   2.0000      -0.641620       -17.4594
  18   2.0000      -0.616332       -16.7712
  19   2.0000      -0.590253       -16.0616
  20   2.0000      -0.585259       -15.9257
  21   2.0000      -0.570826       -15.5330
  22   2.0000      -0.543282       -14.7834
  23   2.0000      -0.500630       -13.6228
  24   2.0000      -0.484830       -13.1929
  25   2.0000      -0.468373       -12.7451
  26   2.0000      -0.429190       -11.6789
  27   2.0000      -0.375248       -10.2110
  28   2.0000      -0.333490        -9.0747
  29   0.0000       0.141575         3.8525
  30   0.0000       0.145737         3.9657
  31   0.0000       0.169053         4.6002
  32   0.0000       0.175443         4.7740
  33   0.0000       0.186732         5.0812

MULLIKEN ATOMIC CHARGES
-----------------------
   0 C :   -0.246595
   1 C :   -0.132199
   2 C :   -0.001048
   3 O :   -0.307930
   4 C :    0.197281
   5 C :   -0.268219
   6 C :   -0.157672
   7 C :   -0.111486
   8 H :    0.122443
   9 H :    0.122440
  10 H :    0.136144
  11 H :    0.137449
  12 H :    0.131636
  13 H :    0.124036
  14 H :    0.125008
  15 H :    0.128713
Sum of atomic charges:   -0.0000000

LOEWDIN ATOMIC CHARGES
----------------------
   0 C :   -0.204354
   1 C :   -0.183675
   2 C :   -0.252742
   3 O :    0.213161
   4 C :   -0.259718
   5 C :   -0.153446
   6 C :   -0.140310
   7 C :   -0.169619
   8 H :    0.144447
   9 H :    0.144211
  10 H :    0.146674
  11 H :    0.140407
  12 H :    0.143462
  13 H :    0.138091
  14 H :    0.142676
  15 H :    0.150736

  Mayer bond orders larger than 0.1
B(  0-C ,  1-C ) :   0.9937 B(  0-C ,  4-C ) :   0.9281 B(  0-C ,  8-H ) :   0.9183
B(  0-C ,  9-H ) :   0.9188 B(  1-C ,  2-C ) :   0.8930 B(  1-C ,  7-C ) :   0.8186
B(  1-C , 10-H ) :   0.9229 B(  2-C ,  3-O ) :   1.0251 B(  2-C ,  7-C ) :   0.8285
B(  2-C , 11-H ) :   0.9301 B(  3-O ,  4-C ) :   0.8737 B(  4-C ,  5-C ) :   0.9589
B(  4-C , 12-H ) :   0.9204 B(  5-C ,  6-C ) :   1.7497 B(  5-C , 13-H ) :   0.9281
B(  6-C ,  7-C ) :   0.9946 B(  6-C , 14-H ) :   0.9318 B(  7-C , 15-H ) :   0.9189

MP2 TOTAL ENERGY:     -345.996963139 Eh
FINAL SINGLE POINT ENERGY      -345.996963139166

DIPOLE MOMENT
-------------
                                X             Y             Z
Electronic contribution:      0.86712      -1.91662       1.20470
Nuclear contribution   :     -0.86689       2.44132      -1.45420
                        -----------------------------------------
Total Dipole Moment    :      0.00023       0.52471      -0.24950
                        -----------------------------------------
Magnitude (a.u.)       :      0.58100
Magnitude (Debye)      :      1.47680

                             ****ORCA TERMINATED NORMALLY****
TOTAL RUN TIME: 0 days 0 hours 13 minutes 27 seconds 324 msec
