                         Program Version 3.0.3 - RELEASE   -
|  1> ! RI-MP2 RIJK def2-TZVP def2-TZVP/C def2-TZVP/JK TIGHTSCF
|  2> % maxcore 2000
|  3> % mp2 density relaxed end
|  4> *xyz 0 1
|  5>  C       -0.0205078817     1.6360176558    -0.0134347112
|  6>  C       -0.0275970792     0.1173845034     0.0013342814
|  7>  O       -1.3088863507    -0.3920948842    -0.2349748965
|  8>  C        1.1967608371    -0.6439297964    -0.6374776707
|  9>  N        1.9983517855    -0.1171657941     0.5346921500
| 10>  C        0.7127003469    -0.6437610770     1.1383677988
| 11>  C        0.8290795008    -1.9085676969     0.2114315526
| 12>  C       -0.2657500730    -2.8118261377    -0.1100453079
| 13>  N       -1.0502356986    -3.6235304551    -0.3609400368
| 14>  H        0.9679905926     2.0343958427     0.2090017175
| 15>  H       -0.3289616952     1.9994630569    -1.0018483380
| 16>  H       -0.7414234303     2.0137567458     0.7178848368
| 17>  H       -1.6656765879     0.0121254384    -1.0326271697
| 18>  H        1.5761666326    -0.6197741372    -1.6601715039
| 19>  H        2.7603680459    -0.7673016557     0.7431519836
| 20>  H        0.5174341995    -0.6246678823     2.2110603467
| 21>  H        1.7087676657    -2.5132334862     0.4530545374
| 22> *
| 23>
| 24>                          ****END OF INPUT****

CARTESIAN COORDINATES (ANGSTROEM)
---------------------------------
  C     -0.020508    1.636018   -0.013435
  C     -0.027597    0.117385    0.001334
  O     -1.308886   -0.392095   -0.234975
  C      1.196761   -0.643930   -0.637478
  N      1.998352   -0.117166    0.534692
  C      0.712700   -0.643761    1.138368
  C      0.829080   -1.908568    0.211432
  C     -0.265750   -2.811826   -0.110045
  N     -1.050236   -3.623530   -0.360940
  H      0.967991    2.034396    0.209002
  H     -0.328962    1.999463   -1.001848
  H     -0.741423    2.013757    0.717885
  H     -1.665677    0.012125   -1.032627
  H      1.576167   -0.619774   -1.660172
  H      2.760368   -0.767302    0.743152
  H      0.517434   -0.624668    2.211060
  H      1.708768   -2.513233    0.453055

 Total Charge           Charge          ....    0
 Multiplicity           Mult            ....    1
 Number of Electrons    NEL             ....   66
 Basis Dimension        Dim             ....  327

ORBITAL ENERGIES
----------------

  NO   OCC          E(Eh)            E(eV)
   0   2.0000     -20.576059      -559.9030
   1   2.0000     -15.579530      -423.9406
   2   2.0000     -15.559302      -423.3901
   3   2.0000     -11.320143      -308.0368
   4   2.0000     -11.304939      -307.6230
   5   2.0000     -11.304302      -307.6057
   6   2.0000     -11.293298      -307.3063
   7   2.0000     -11.265902      -306.5608
   8   2.0000     -11.228340      -305.5387
   9   2.0000      -1.399190       -38.0739
  10   2.0000      -1.306264       -35.5453
  11   2.0000      -1.206908       -32.8416
  12   2.0000      -1.038860       -28.2688
  13   2.0000      -1.021408       -27.7939
  14   2.0000      -0.918878       -25.0039
  15   2.0000      -0.902851       -24.5678
  16   2.0000      -0.781352       -21.2617
  17   2.0000      -0.726473       -19.7683
  18   2.0000      -0.717646       -19.5282
  19   2.0000      -0.682812       -18.5802
  20   2.0000      -0.643940       -17.5225
  21   2.0000      -0.600152       -16.3310
  22   2.0000      -0.577378       -15.7113
  23   2.0000      -0.556822       -15.1519
  24   2.0000      -0.549212       -14.9448
  25   2.0000      -0.538877       -14.6636
  26   2.0000      -0.524905       -14.2834
  27   2.0000      -0.507243       -13.8028
  28   2.0000      -0.496574       -13.5125
  29   2.0000      -0.452660       -12.3175
  30   2.0000      -0.439298       -11.9539
  31   2.0000      -0.433712       -11.8019
  32   2.0000      -0.410882       -11.1807
  33   0.0000       0.123390         3.3576
  34   0.0000       0.129328         3.5192
  35   0.0000       0.149484         4.0677
  36   0.0000       0.155907         4.2425
  37   0.0000       0.174724         4.7545

MULLIKEN ATOMIC CHARGES
-----------------------
   0 C :   -0.453377
   1 C :    0.168333
   2 O :   -0.450020
   3 C :   -0.055185
   4 N :   -0.317303
   5 C :   -0.025423
   6 C :   -0.009252
   7 C :   -0.214888
   8 N :   -0.057447
   9 H :    0.170875
  10 H :    0.122569
  11 H :    0.147618
  12 H :    0.326520
  13 H :    0.153009
  14 H :    0.203567
  15 H :    0.150765
  16 H :    0.139638
Sum of atomic charges:   -0.0000000

LOEWDIN ATOMIC CHARGES
----------------------
   0 C :   -0.277782
   1 C :   -0.348464
   2 O :    0.056285
   3 C :   -0.159094
   4 N :    0.019228
   5 C :   -0.148133
   6 C :   -0.185926
   7 C :   -0.184162
   8 N :    0.059665
   9 H :    0.138195
  10 H :    0.125992
  11 H :    0.132054
  12 H :    0.185121
  13 H :    0.128382
  14 H :    0.159687
  15 H :    0.131476
  16 H :    0.167478

  Mayer bond orders larger than 0.1
B(  0-C ,  1-C ) :   0.9326 B(  0-C ,  9-H ) :   0.9251 B(  0-C , 10-H ) :   0.9187
B(  0-C , 11-H ) :   0.9398 B(  1-C ,  2-O ) :   1.0593 B(  1-C ,  3-C ) :   0.8243
B(  1-C ,  5-C ) :   0.8473 B(  2-O , 12-H ) :   0.8313 B(  3-C ,  4-N ) :   0.9491
B(  3-C ,  6-C ) :   0.9261 B(  3-C , 13-H ) :   0.8763 B(  4-N ,  5-C ) :   0.9546
B(  4-N , 14-H ) :   0.8742 B(  5-C ,  6-C ) :   0.9311 B(  5-C , 15-H ) :   0.8730
B(  6-C ,  7-C ) :   0.9482 B(  6-C , 16-H ) :   0.9106 B(  7-C ,  8-N ) :   2.8829

MP2 TOTAL ENERGY:     -417.245861578 Eh
FINAL SINGLE POINT ENERGY      -417.245861577990

DIPOLE MOMENT
-------------
                                X             Y             Z
Electronic contribution:     -1.91290      -6.83516      -0.31618
Nuclear contribution   :      2.88888       7.97902       0.20873
                        -----------------------------------------
Total Dipole Moment    :      0.97598       1.14386      -0.10745
                        -----------------------------------------
Magnitude (a.u.)       :      1.50748
Magnitude (Debye)      :      3.83172

                             ****ORCA TERMINATED NORMALLY****
TOTAL RUN TIME: 0 days 0 hours 19 minutes 51 seconds 66 msec
