                         Program Version 3.0.3 - RELEASE   -
|  1> ! RI-MP2 RIJK def2-TZVP def2-TZVP/C def2-TZVP/JK TIGHTSCF
|  2> % maxcore 2000
|  3> % mp2 density relaxed end
|  4> *xyz 0 1
|  5>  C        0.0278808658     1.5130100409    -0.1052659122
|  6>  C        0.2714622558     0.0034859170    -0.0295044855
|  7>  C        0.5103426988    -0.4946088418     1.4023004577
|  8>  C        0.7129643594    -1.9971006571     1.4669926878
|  9>  C        1.9806401331    -2.7319793672     1.1301567806
| 10>  C        3.2178740320    -1.9723439174     1.6230358294
| 11>  C        2.6630072294    -2.0963460180     3.0860720269
| 12>  O        2.4415979576    -0.9316961925     3.8564580451
| 13>  C        1.4030989079    -2.7712085381     2.5614536887
| 14>  H        0.8828979693     2.0712733392     0.2925414855
| 15>  H       -0.1346245689     1.8430631104    -1.1363559637
| 16>  H       -0.8524714591     1.8019551041     0.4797830229
| 17>  H       -0.5863851361    -0.5288765812    -0.4623284494
| 18>  H        1.1352364102    -0.2631687552    -0.6526526924
| 19>  H        1.3614712392     0.0281399787     1.8457907719
| 20>  H       -0.3524823560    -0.2309533366     2.0290835088
| 21>  H       -0.1593185336    -2.5472422391     1.1123578285
| 22>  H        2.0046044574    -3.5364542868     0.4052543641
| 23>  H        4.1547750725    -2.5163057234     1.4823152220
| 24>  H        3.3415486812    -0.9534296124     1.2441780272
| 25>  H        3.2678108353    -2.8189506500     3.6507149065
| 26>  H        3.2944400970    -0.6116351390     4.1678732894
| 27>  H        0.9000593718    -3.5845987744     3.0716034002
| 28> *
| 29>
| 30>                          ****END OF INPUT****

CARTESIAN COORDINATES (ANGSTROEM)
---------------------------------
  C      0.027881    1.513010   -0.105266
  C      0.271462    0.003486   -0.029504
  C      0.510343   -0.494609    1.402300
  C      0.712964   -1.997101    1.466993
  C      1.980640   -2.731979    1.130157
  C      3.217874   -1.972344    1.623036
  C      2.663007   -2.096346    3.086072
  O      2.441598   -0.931696    3.856458
  C      1.403099   -2.771209    2.561454
  H      0.882898    2.071273    0.292541
  H     -0.134625    1.843063   -1.136356
  H     -0.852471    1.801955    0.479783
  H     -0.586385   -0.528877   -0.462328
  H      1.135236   -0.263169   -0.652653
  H      1.361471    0.028140    1.845791
  H     -0.352482   -0.230953    2.029084
  H     -0.159319   -2.547242    1.112358
  H      2.004604   -3.536454    0.405254
  H      4.154775   -2.516306    1.482315
  H      3.341549   -0.953430    1.244178
  H      3.267811   -2.818951    3.650715
  H      3.294440   -0.611635    4.167873
  H      0.900059   -3.584599    3.071603

 Total Charge           Charge          ....    0
 Multiplicity           Mult            ....    1
 Number of Electrons    NEL             ....   70
 Basis Dimension        Dim             ....  363

ORBITAL ENERGIES
----------------

  NO   OCC          E(Eh)            E(eV)
   0   2.0000     -20.552398      -559.2592
   1   2.0000     -11.281858      -306.9950
   2   2.0000     -11.229310      -305.5651
   3   2.0000     -11.227427      -305.5138
   4   2.0000     -11.223935      -305.4188
   5   2.0000     -11.222801      -305.3879
   6   2.0000     -11.210755      -305.0602
   7   2.0000     -11.205953      -304.9295
   8   2.0000     -11.205836      -304.9263
   9   2.0000      -1.359636       -36.9976
  10   2.0000      -1.181162       -32.1410
  11   2.0000      -1.052829       -28.6489
  12   2.0000      -0.982869       -26.7452
  13   2.0000      -0.920059       -25.0361
  14   2.0000      -0.887159       -24.1408
  15   2.0000      -0.806487       -21.9456
  16   2.0000      -0.744105       -20.2481
  17   2.0000      -0.732344       -19.9281
  18   2.0000      -0.707466       -19.2511
  19   2.0000      -0.676844       -18.4179
  20   2.0000      -0.624503       -16.9936
  21   2.0000      -0.605123       -16.4662
  22   2.0000      -0.575677       -15.6650
  23   2.0000      -0.572511       -15.5788
  24   2.0000      -0.561751       -15.2860
  25   2.0000      -0.530594       -14.4382
  26   2.0000      -0.524637       -14.2761
  27   2.0000      -0.498479       -13.5643
  28   2.0000      -0.487960       -13.2781
  29   2.0000      -0.471164       -12.8210
  30   2.0000      -0.465349       -12.6628
  31   2.0000      -0.451464       -12.2850
  32   2.0000      -0.424005       -11.5378
  33   2.0000      -0.390953       -10.6384
  34   2.0000      -0.372490       -10.1360
  35   0.0000       0.133896         3.6435
  36   0.0000       0.143965         3.9175
  37   0.0000       0.155878         4.2417
  38   0.0000       0.169418         4.6101
  39   0.0000       0.181324         4.9341

MULLIKEN ATOMIC CHARGES
-----------------------
   0 C :   -0.383715
   1 C :   -0.193088
   2 C :   -0.224977
   3 C :   -0.117235
   4 C :   -0.126233
   5 C :   -0.252818
   6 C :    0.036105
   7 O :   -0.464379
   8 C :   -0.106031
   9 H :    0.121184
  10 H :    0.130335
  11 H :    0.120965
  12 H :    0.100272
  13 H :    0.109335
  14 H :    0.130805
  15 H :    0.110831
  16 H :    0.111755
  17 H :    0.130404
  18 H :    0.120128
  19 H :    0.114835
  20 H :    0.089013
  21 H :    0.312775
  22 H :    0.129734
Sum of atomic charges:   -0.0000000

LOEWDIN ATOMIC CHARGES
----------------------
   0 C :   -0.322783
   1 C :   -0.292635
   2 C :   -0.248331
   3 C :   -0.192219
   4 C :   -0.163191
   5 C :   -0.208328
   6 C :   -0.311511
   7 O :   -0.020439
   8 C :   -0.147613
   9 H :    0.119706
  10 H :    0.118925
  11 H :    0.119882
  12 H :    0.133019
  13 H :    0.134663
  14 H :    0.142651
  15 H :    0.142364
  16 H :    0.160362
  17 H :    0.133142
  18 H :    0.131638
  19 H :    0.128588
  20 H :    0.134028
  21 H :    0.173510
  22 H :    0.134571

  Mayer bond orders larger than 0.1
B(  0-C ,  1-C ) :   0.9188 B(  0-C ,  9-H ) :   0.9412 B(  0-C , 10-H ) :   0.9438
B(  0-C , 11-H ) :   0.9390 B(  1-C ,  2-C ) :   0.9171 B(  1-C , 12-H ) :   0.9321
B(  1-C , 13-H ) :   0.9344 B(  2-C ,  3-C ) :   0.9136 B(  2-C , 14-H ) :   0.9290
B(  2-C , 15-H ) :   0.9291 B(  3-C ,  4-C ) :   0.9031 B(  3-C ,  8-C ) :   0.8851
B(  3-C , 16-H ) :   0.9308 B(  4-C ,  5-C ) :   0.9410 B(  4-C ,  8-C ) :   0.7991
B(  4-C , 17-H ) :   0.9235 B(  5-C ,  6-C ) :   0.9509 B(  5-C , 18-H ) :   0.9236
B(  5-C , 19-H ) :   0.9154 B(  6-C ,  7-O ) :   1.0492 B(  6-C ,  8-C ) :   0.9277
B(  6-C , 20-H ) :   0.9449 B(  7-O , 21-H ) :   0.8456 B(  8-C , 22-H ) :   0.9247

MP2 TOTAL ENERGY:     -387.586236290 Eh
FINAL SINGLE POINT ENERGY      -387.586236290209

DIPOLE MOMENT
-------------
                                X             Y             Z
Electronic contribution:      2.88550      -5.13028       5.62613
Nuclear contribution   :     -2.32288       4.86840      -5.70205
                        -----------------------------------------
Total Dipole Moment    :      0.56262      -0.26188      -0.07592
                        -----------------------------------------
Magnitude (a.u.)       :      0.62521
Magnitude (Debye)      :      1.58916

                             ****ORCA TERMINATED NORMALLY****
TOTAL RUN TIME: 0 days 0 hours 18 minutes 40 seconds 80 msec
