                         Program Version 3.0.3 - RELEASE   -
|  1> ! RI-MP2 RIJK def2-TZVP def2-TZVP/C def2-TZVP/JK TIGHTSCF
|  2> % maxcore 2000
|  3> % mp2 density relaxed end
|  4> *xyz 0 1
|  5>  C        0.0149943530     1.3598568850    -0.0799944264
|  6>  O       -0.0024840226    -0.0413747234     0.0896623495
|  7>  C       -1.2900891898    -0.6318117773     0.0021629053
|  8>  C       -1.8190094424    -0.7218315791    -1.4323881058
|  9>  C       -1.1519378543    -1.9874575927     0.6405004781
| 10>  N       -2.0426220734    -2.9344848920     0.5214250258
| 11>  O       -1.5719461074    -3.9867178855     1.2570933712
| 12>  N       -0.3706347002    -3.6903107369     1.8355375673
| 13>  C       -0.0988933308    -2.4692792525     1.4699219169
| 14>  H        1.0371503463     1.6898933371     0.1181619974
| 15>  H       -0.2584126571     1.6636709121    -1.0995006061
| 16>  H       -0.6644773302     1.8600493343     0.6270741566
| 17>  H       -1.9986111410    -0.0403358531     0.6075325927
| 18>  H       -2.7694274442    -1.2607454619    -1.4444222549
| 19>  H       -1.9818283447     0.2738592305    -1.8523800314
| 20>  H       -1.1050065192    -1.2597801800    -2.0617611444
| 21>  H        0.8038487782    -1.9693479346     1.7779961783
| 22> *
| 23>
| 24>                          ****END OF INPUT****

CARTESIAN COORDINATES (ANGSTROEM)
---------------------------------
  C      0.014994    1.359857   -0.079994
  O     -0.002484   -0.041375    0.089662
  C     -1.290089   -0.631812    0.002163
  C     -1.819009   -0.721832   -1.432388
  C     -1.151938   -1.987458    0.640500
  N     -2.042622   -2.934485    0.521425
  O     -1.571946   -3.986718    1.257093
  N     -0.370635   -3.690311    1.835538
  C     -0.098893   -2.469279    1.469922
  H      1.037150    1.689893    0.118162
  H     -0.258413    1.663671   -1.099501
  H     -0.664477    1.860049    0.627074
  H     -1.998611   -0.040336    0.607533
  H     -2.769427   -1.260745   -1.444422
  H     -1.981828    0.273859   -1.852380
  H     -1.105007   -1.259780   -2.061761
  H      0.803849   -1.969348    1.777996

 Total Charge           Charge          ....    0
 Multiplicity           Mult            ....    1
 Number of Electrons    NEL             ....   68
 Basis Dimension        Dim             ....  327

ORBITAL ENERGIES
----------------

  NO   OCC          E(Eh)            E(eV)
   0   2.0000     -20.674558      -562.5833
   1   2.0000     -20.580888      -560.0344
   2   2.0000     -15.653034      -425.9407
   3   2.0000     -15.647699      -425.7955
   4   2.0000     -11.318856      -308.0017
   5   2.0000     -11.294769      -307.3463
   6   2.0000     -11.290502      -307.2302
   7   2.0000     -11.287289      -307.1428
   8   2.0000     -11.234048      -305.6940
   9   2.0000      -1.539448       -41.8905
  10   2.0000      -1.402996       -38.1775
  11   2.0000      -1.211255       -32.9599
  12   2.0000      -1.177420       -32.0392
  13   2.0000      -1.047917       -28.5153
  14   2.0000      -0.957123       -26.0446
  15   2.0000      -0.884518       -24.0690
  16   2.0000      -0.858901       -23.3719
  17   2.0000      -0.807091       -21.9621
  18   2.0000      -0.734121       -19.9765
  19   2.0000      -0.698829       -19.0161
  20   2.0000      -0.677886       -18.4462
  21   2.0000      -0.665453       -18.1079
  22   2.0000      -0.652789       -17.7633
  23   2.0000      -0.604240       -16.4422
  24   2.0000      -0.591472       -16.0948
  25   2.0000      -0.569055       -15.4848
  26   2.0000      -0.554855       -15.0984
  27   2.0000      -0.531097       -14.4519
  28   2.0000      -0.520707       -14.1691
  29   2.0000      -0.495133       -13.4732
  30   2.0000      -0.486748       -13.2451
  31   2.0000      -0.454812       -12.3761
  32   2.0000      -0.431080       -11.7303
  33   2.0000      -0.415270       -11.3001
  34   0.0000       0.093794         2.5523
  35   0.0000       0.129009         3.5105
  36   0.0000       0.163416         4.4468
  37   0.0000       0.167788         4.5657
  38   0.0000       0.171381         4.6635

MULLIKEN ATOMIC CHARGES
-----------------------
   0 C :   -0.222513
   1 O :   -0.307407
   2 C :    0.091914
   3 C :   -0.400815
   4 C :    0.088160
   5 N :   -0.111783
   6 O :   -0.008522
   7 N :   -0.084723
   8 C :   -0.125634
   9 H :    0.146545
  10 H :    0.121522
  11 H :    0.117475
  12 H :    0.096345
  13 H :    0.157833
  14 H :    0.134385
  15 H :    0.138927
  16 H :    0.168290
Sum of atomic charges:    0.0000000

LOEWDIN ATOMIC CHARGES
----------------------
   0 C :   -0.350597
   1 O :    0.161528
   2 C :   -0.314694
   3 C :   -0.282439
   4 C :   -0.270388
   5 N :    0.053964
   6 O :    0.205455
   7 N :    0.025742
   8 C :   -0.243820
   9 H :    0.116647
  10 H :    0.104069
  11 H :    0.104558
  12 H :    0.148785
  13 H :    0.136142
  14 H :    0.123219
  15 H :    0.131512
  16 H :    0.150318

  Mayer bond orders larger than 0.1
B(  0-C ,  1-O ) :   0.9041 B(  0-C ,  9-H ) :   0.9392 B(  0-C , 10-H ) :   0.9339
B(  0-C , 11-H ) :   0.9348 B(  1-O ,  2-C ) :   0.9771 B(  2-C ,  3-C ) :   0.9244
B(  2-C ,  4-C ) :   0.9159 B(  2-C , 12-H ) :   0.9273 B(  3-C , 13-H ) :   0.9232
B(  3-C , 14-H ) :   0.9319 B(  3-C , 15-H ) :   0.9288 B(  4-C ,  5-N ) :   1.5620
B(  4-C ,  8-C ) :   1.2274 B(  5-N ,  6-O ) :   0.9322 B(  5-N ,  7-N ) :   0.1273
B(  6-O ,  7-N ) :   0.9574 B(  7-N ,  8-C ) :   1.5786 B(  8-C , 16-H ) :   0.9110

MP2 TOTAL ENERGY:     -454.353072583 Eh
FINAL SINGLE POINT ENERGY      -454.353072582699

DIPOLE MOMENT
-------------
                                X             Y             Z
Electronic contribution:     -0.22648     -11.49437       6.14355
Nuclear contribution   :      0.41495      13.15359      -6.52897
                        -----------------------------------------
Total Dipole Moment    :      0.18847       1.65922      -0.38542
                        -----------------------------------------
Magnitude (a.u.)       :      1.71379
Magnitude (Debye)      :      4.35610

                             ****ORCA TERMINATED NORMALLY****
TOTAL RUN TIME: 0 days 0 hours 17 minutes 11 seconds 635 msec
