                         Program Version 3.0.3 - RELEASE   -
|  1> ! RI-MP2 RIJK def2-TZVP def2-TZVP/C def2-TZVP/JK TIGHTSCF
|  2> % maxcore 2000
|  3> % mp2 density relaxed end
|  4> *xyz 0 1
|  5>  C        0.0398826357     1.5566085113     0.0304814747
|  6>  C        0.0390757662     0.0224380071    -0.0537649885
|  7>  C        0.7567143194    -0.4359268798    -1.3321259625
|  8>  C        0.6619946239    -0.5941989985     1.2110894338
|  9>  C       -0.1343050727    -0.3291169339     2.5405849210
| 10>  C       -0.2938838829    -1.7780055188     3.0410692322
| 11>  C        1.1189520842    -2.3695180320     2.7715280678
| 12>  C        0.7076089875    -2.1415479968     1.2873931699
| 13>  C       -0.7329637668    -2.5173634280     1.7456794183
| 14>  H        1.0658562500     1.9422179376     0.0744911273
| 15>  H       -0.4416792771     1.9991633929    -0.8478142569
| 16>  H       -0.4880323889     1.9180327320     0.9180977275
| 17>  H       -1.0073290731    -0.3083651992    -0.1174988756
| 18>  H        1.8199239418    -0.1676252697    -1.3014872695
| 19>  H        0.6902080135    -1.5181392709    -1.4754851554
| 20>  H        0.3219764212     0.0426358329    -2.2161521884
| 21>  H        1.6840482470    -0.2011637472     1.2983902586
| 22>  H        0.4143100333     0.3017300764     3.2461424071
| 23>  H       -1.1035945227     0.1451270365     2.3533679130
| 24>  H       -0.8107979910    -1.9237161459     3.9905369299
| 25>  H        1.9893907775    -1.8264632270     3.1539447036
| 26>  H        1.1915272391    -3.4285829065     3.0309143959
| 27>  H        1.2088828787    -2.6692656710     0.4762561494
| 28>  H       -0.8522919430    -3.5931264803     1.8956061051
| 29>  H       -1.5866415407    -2.1233017711     1.1868175419
| 30> *
| 31>
| 32>                          ****END OF INPUT****

CARTESIAN COORDINATES (ANGSTROEM)
---------------------------------
  C      0.039883    1.556609    0.030481
  C      0.039076    0.022438   -0.053765
  C      0.756714   -0.435927   -1.332126
  C      0.661995   -0.594199    1.211089
  C     -0.134305   -0.329117    2.540585
  C     -0.293884   -1.778006    3.041069
  C      1.118952   -2.369518    2.771528
  C      0.707609   -2.141548    1.287393
  C     -0.732964   -2.517363    1.745679
  H      1.065856    1.942218    0.074491
  H     -0.441679    1.999163   -0.847814
  H     -0.488032    1.918033    0.918098
  H     -1.007329   -0.308365   -0.117499
  H      1.819924   -0.167625   -1.301487
  H      0.690208   -1.518139   -1.475485
  H      0.321976    0.042636   -2.216152
  H      1.684048   -0.201164    1.298390
  H      0.414310    0.301730    3.246142
  H     -1.103595    0.145127    2.353368
  H     -0.810798   -1.923716    3.990537
  H      1.989391   -1.826463    3.153945
  H      1.191527   -3.428583    3.030914
  H      1.208883   -2.669266    0.476256
  H     -0.852292   -3.593126    1.895606
  H     -1.586642   -2.123302    1.186818

 Total Charge           Charge          ....    0
 Multiplicity           Mult            ....    1
 Number of Electrons    NEL             ....   70
 Basis Dimension        Dim             ....  375

ORBITAL ENERGIES
----------------

  NO   OCC          E(Eh)            E(eV)
   0   2.0000     -11.224913      -305.4454
   1   2.0000     -11.223895      -305.4177
   2   2.0000     -11.220835      -305.3344
   3   2.0000     -11.218883      -305.2813
   4   2.0000     -11.215712      -305.1950
   5   2.0000     -11.215667      -305.1938
   6   2.0000     -11.213061      -305.1229
   7   2.0000     -11.207138      -304.9617
   8   2.0000     -11.207114      -304.9611
   9   2.0000      -1.179336       -32.0914
  10   2.0000      -1.070063       -29.1179
  11   2.0000      -0.963065       -26.2063
  12   2.0000      -0.929992       -25.3064
  13   2.0000      -0.916888       -24.9498
  14   2.0000      -0.891729       -24.2652
  15   2.0000      -0.798701       -21.7338
  16   2.0000      -0.741927       -20.1888
  17   2.0000      -0.724146       -19.7050
  18   2.0000      -0.676901       -18.4194
  19   2.0000      -0.632769       -17.2185
  20   2.0000      -0.614668       -16.7260
  21   2.0000      -0.593530       -16.1508
  22   2.0000      -0.565777       -15.3956
  23   2.0000      -0.549320       -14.9478
  24   2.0000      -0.529117       -14.3980
  25   2.0000      -0.519088       -14.1251
  26   2.0000      -0.507023       -13.7968
  27   2.0000      -0.493623       -13.4322
  28   2.0000      -0.472598       -12.8600
  29   2.0000      -0.470070       -12.7912
  30   2.0000      -0.450389       -12.2557
  31   2.0000      -0.434082       -11.8120
  32   2.0000      -0.429690       -11.6925
  33   2.0000      -0.420997       -11.4559
  34   2.0000      -0.416898       -11.3444
  35   0.0000       0.138525         3.7695
  36   0.0000       0.155360         4.2276
  37   0.0000       0.160274         4.3613
  38   0.0000       0.165387         4.5004
  39   0.0000       0.184590         5.0230

MULLIKEN ATOMIC CHARGES
-----------------------
   0 C :   -0.394523
   1 C :   -0.027506
   2 C :   -0.414156
   3 C :   -0.134681
   4 C :   -0.288454
   5 C :   -0.012858
   6 C :   -0.258577
   7 C :   -0.037521
   8 C :   -0.295238
   9 H :    0.120217
  10 H :    0.130154
  11 H :    0.130245
  12 H :    0.075657
  13 H :    0.122899
  14 H :    0.132559
  15 H :    0.130533
  16 H :    0.088745
  17 H :    0.121986
  18 H :    0.113062
  19 H :    0.117524
  20 H :    0.108801
  21 H :    0.117629
  22 H :    0.122249
  23 H :    0.117993
  24 H :    0.113262
Sum of atomic charges:   -0.0000000

LOEWDIN ATOMIC CHARGES
----------------------
   0 C :   -0.292830
   1 C :   -0.289933
   2 C :   -0.293492
   3 C :   -0.199243
   4 C :   -0.205995
   5 C :   -0.212507
   6 C :   -0.198847
   7 C :   -0.191592
   8 C :   -0.200207
   9 H :    0.123093
  10 H :    0.121827
  11 H :    0.121893
  12 H :    0.149312
  13 H :    0.123562
  14 H :    0.120916
  15 H :    0.122445
  16 H :    0.151168
  17 H :    0.132470
  18 H :    0.136089
  19 H :    0.129605
  20 H :    0.126072
  21 H :    0.134916
  22 H :    0.131786
  23 H :    0.135734
  24 H :    0.123757

  Mayer bond orders larger than 0.1
B(  0-C ,  1-C ) :   0.9198 B(  0-C ,  9-H ) :   0.9325 B(  0-C , 10-H ) :   0.9418
B(  0-C , 11-H ) :   0.9385 B(  1-C ,  2-C ) :   0.9135 B(  1-C ,  3-C ) :   0.9265
B(  1-C , 12-H ) :   0.9126 B(  2-C , 13-H ) :   0.9334 B(  2-C , 14-H ) :   0.9402
B(  2-C , 15-H ) :   0.9398 B(  3-C ,  4-C ) :   0.9489 B(  3-C ,  7-C ) :   0.8886
B(  3-C , 16-H ) :   0.9205 B(  4-C ,  5-C ) :   0.9245 B(  4-C , 17-H ) :   0.9279
B(  4-C , 18-H ) :   0.9257 B(  5-C ,  6-C ) :   0.9222 B(  5-C ,  8-C ) :   0.9081
B(  5-C , 19-H ) :   0.9221 B(  6-C ,  7-C ) :   0.9093 B(  6-C , 20-H ) :   0.9236
B(  6-C , 21-H ) :   0.9290 B(  7-C ,  8-C ) :   0.9042 B(  7-C , 22-H ) :   0.9207
B(  8-C , 23-H ) :   0.9264 B(  8-C , 24-H ) :   0.9260

MP2 TOTAL ENERGY:     -351.716096199 Eh
FINAL SINGLE POINT ENERGY      -351.716096198849

DIPOLE MOMENT
-------------
                                X             Y             Z
Electronic contribution:     -0.22537      -3.17679       3.53534
Nuclear contribution   :      0.20433       3.14654      -3.52636
                        -----------------------------------------
Total Dipole Moment    :     -0.02104      -0.03025       0.00898
                        -----------------------------------------
Magnitude (a.u.)       :      0.03793
Magnitude (Debye)      :      0.09641

                             ****ORCA TERMINATED NORMALLY****
TOTAL RUN TIME: 0 days 0 hours 26 minutes 0 seconds 882 msec
