                         Program Version 3.0.3 - RELEASE   -
|  1> ! RI-MP2 RIJK def2-TZVP def2-TZVP/C def2-TZVP/JK TIGHTSCF
|  2> % maxcore 2000
|  3> % mp2 density relaxed end
|  4> *xyz 0 1
|  5>  N       -0.1129689868     1.2883922270     0.0107515706
|  6>  C       -0.0000910692     0.0181035225     0.0031103823
|  7>  N        1.1296441832    -0.7970081921    -0.0068376118
|  8>  C        0.8067476823    -2.1621464225    -0.0130459609
|  9>  N        1.5774582943    -3.1716937098    -0.0225147900
| 10>  C       -0.6840180934    -2.1897987415    -0.0060005229
| 11>  C       -1.5629122530    -3.3767766475    -0.0083863446
| 12>  O       -1.2052250841    -4.5263666316    -0.0163648052
| 13>  C       -1.1365347981    -0.9212128405     0.0033106885
| 14>  H        0.7974137617     1.7526556951     0.0089919095
| 15>  H        2.0747601007    -0.4503692140    -0.0096804196
| 16>  H        2.5616749604    -2.8951572233    -0.0257001355
| 17>  H       -2.6429126253    -3.1042838079    -0.0017749036
| 18>  H       -2.1632762124    -0.5825825139     0.0101708233
| 19> *
| 20>
| 21>                          ****END OF INPUT****

CARTESIAN COORDINATES (ANGSTROEM)
---------------------------------
  N     -0.112969    1.288392    0.010752
  C     -0.000091    0.018104    0.003110
  N      1.129644   -0.797008   -0.006838
  C      0.806748   -2.162146   -0.013046
  N      1.577458   -3.171694   -0.022515
  C     -0.684018   -2.189799   -0.006001
  C     -1.562912   -3.376777   -0.008386
  O     -1.205225   -4.526367   -0.016365
  C     -1.136535   -0.921213    0.003311
  H      0.797414    1.752656    0.008992
  H      2.074760   -0.450369   -0.009680
  H      2.561675   -2.895157   -0.025700
  H     -2.642913   -3.104284   -0.001775
  H     -2.163276   -0.582583    0.010171

 Total Charge           Charge          ....    0
 Multiplicity           Mult            ....    1
 Number of Electrons    NEL             ....   64
 Basis Dimension        Dim             ....  309

ORBITAL ENERGIES
----------------

  NO   OCC          E(Eh)            E(eV)
   0   2.0000     -20.568109      -559.6867
   1   2.0000     -15.620708      -425.0611
   2   2.0000     -15.567412      -423.6108
   3   2.0000     -15.558621      -423.3716
   4   2.0000     -11.353871      -308.9545
   5   2.0000     -11.349439      -308.8339
   6   2.0000     -11.349112      -308.8251
   7   2.0000     -11.294589      -307.3414
   8   2.0000     -11.285536      -307.0951
   9   2.0000      -1.405581       -38.2478
  10   2.0000      -1.344150       -36.5762
  11   2.0000      -1.233981       -33.5783
  12   2.0000      -1.172632       -31.9089
  13   2.0000      -1.123009       -30.5586
  14   2.0000      -0.947881       -25.7932
  15   2.0000      -0.890195       -24.2234
  16   2.0000      -0.821981       -22.3672
  17   2.0000      -0.773325       -21.0432
  18   2.0000      -0.749888       -20.4055
  19   2.0000      -0.698211       -18.9993
  20   2.0000      -0.673672       -18.3315
  21   2.0000      -0.654707       -17.8155
  22   2.0000      -0.629945       -17.1417
  23   2.0000      -0.605118       -16.4661
  24   2.0000      -0.593059       -16.1380
  25   2.0000      -0.549743       -14.9593
  26   2.0000      -0.483470       -13.1559
  27   2.0000      -0.480141       -13.0653
  28   2.0000      -0.461038       -12.5455
  29   2.0000      -0.425984       -11.5916
  30   2.0000      -0.420623       -11.4457
  31   2.0000      -0.369331       -10.0500
  32   0.0000       0.029151         0.7932
  33   0.0000       0.111117         3.0237
  34   0.0000       0.135854         3.6968
  35   0.0000       0.147703         4.0192
  36   0.0000       0.151724         4.1286

MULLIKEN ATOMIC CHARGES
-----------------------
   0 N :   -0.326529
   1 C :    0.093862
   2 N :   -0.293115
   3 C :    0.002783
   4 N :   -0.276630
   5 C :    0.165333
   6 C :    0.046371
   7 O :   -0.223618
   8 C :   -0.097951
   9 H :    0.212063
  10 H :    0.236184
  11 H :    0.209400
  12 H :    0.087652
  13 H :    0.164196
Sum of atomic charges:    0.0000000

LOEWDIN ATOMIC CHARGES
----------------------
   0 N :   -0.039352
   1 C :   -0.348995
   2 N :    0.154985
   3 C :   -0.309085
   4 N :   -0.016377
   5 C :   -0.106626
   6 C :   -0.264992
   7 O :    0.167205
   8 C :   -0.027120
   9 H :    0.162742
  10 H :    0.185894
  11 H :    0.163403
  12 H :    0.120669
  13 H :    0.157651

  Mayer bond orders larger than 0.1
B(  0-N ,  1-C ) :   2.0244 B(  0-N ,  9-H ) :   0.8557 B(  1-C ,  2-N ) :   1.0652
B(  1-C ,  8-C ) :   0.9898 B(  2-N ,  3-C ) :   1.0647 B(  2-N , 10-H ) :   0.8653
B(  3-C ,  4-N ) :   2.1058 B(  3-C ,  5-C ) :   0.9271 B(  4-N ,  5-C ) :  -0.1143
B(  4-N , 11-H ) :   0.8437 B(  5-C ,  6-C ) :   0.7981 B(  5-C ,  8-C ) :   1.6387
B(  5-C , 12-H ) :  -0.1150 B(  6-C ,  7-O ) :   2.0507 B(  6-C , 12-H ) :   0.9936
B(  8-C , 13-H ) :   0.9293

MP2 TOTAL ENERGY:     -432.165512483 Eh
FINAL SINGLE POINT ENERGY      -432.165512482542

DIPOLE MOMENT
-------------
                                X             Y             Z
Electronic contribution:     -0.36507      -2.07280      -0.00965
Nuclear contribution   :      1.09406       3.36336       0.01319
                        -----------------------------------------
Total Dipole Moment    :      0.72899       1.29057       0.00354
                        -----------------------------------------
Magnitude (a.u.)       :      1.48223
Magnitude (Debye)      :      3.76752

                             ****ORCA TERMINATED NORMALLY****
TOTAL RUN TIME: 0 days 0 hours 14 minutes 5 seconds 652 msec
