                         Program Version 3.0.3 - RELEASE   -
|  1> ! RI-MP2 RIJK def2-TZVP def2-TZVP/C def2-TZVP/JK TIGHTSCF
|  2> % maxcore 2000
|  3> % mp2 density relaxed end
|  4> *xyz 0 1
|  5>  C        1.1488505014    -0.3023939275     1.0940208315
|  6>  C        0.3069159400    -0.2176758498    -0.1825732381
|  7>  C       -1.1692225612    -0.5932476400     0.0253973848
|  8>  C       -1.9933515679    -0.3292724890    -1.2318488673
|  9>  C       -3.4627335808     0.0077414478    -1.1632222718
| 10>  C       -2.4623729433     1.0647704753    -1.5611921334
| 11>  C       -1.3234646819    -2.0817987205     0.3741084365
| 12>  C       -2.4021259440    -2.4480386905     1.3749023150
| 13>  O       -0.6298685795    -2.9219802795    -0.1537319482
| 14>  H        2.1825122972     0.0008178522     0.9018231673
| 15>  H        0.7526415682     0.3525933975     1.8788570111
| 16>  H        1.1738895521    -1.3238189714     1.4866892532
| 17>  H        0.3482754438     0.7990138421    -0.5892891433
| 18>  H        0.7235530151    -0.8865049703    -0.9427242377
| 19>  H       -1.5914749020     0.0076804750     0.8426493268
| 20>  H       -1.6858458220    -0.9404793603    -2.0763342227
| 21>  H       -4.1220459545    -0.3966560460    -1.9231623505
| 22>  H       -3.9220215281     0.1011110080    -0.1842549583
| 23>  H       -2.2510318110     1.8522313890    -0.8447870353
| 24>  H       -2.4327561745     1.3875194049    -2.5959465022
| 25>  H       -2.1550385681    -2.0225162132     2.3549919193
| 26>  H       -3.3640774530    -2.0179551018     1.0764726576
| 27>  H       -2.4863688262    -3.5324027319     1.4582033959
| 28> *
| 29>
| 30>                          ****END OF INPUT****

CARTESIAN COORDINATES (ANGSTROEM)
---------------------------------
  C      1.148851   -0.302394    1.094021
  C      0.306916   -0.217676   -0.182573
  C     -1.169223   -0.593248    0.025397
  C     -1.993352   -0.329272   -1.231849
  C     -3.462734    0.007741   -1.163222
  C     -2.462373    1.064770   -1.561192
  C     -1.323465   -2.081799    0.374108
  C     -2.402126   -2.448039    1.374902
  O     -0.629869   -2.921980   -0.153732
  H      2.182512    0.000818    0.901823
  H      0.752642    0.352593    1.878857
  H      1.173890   -1.323819    1.486689
  H      0.348275    0.799014   -0.589289
  H      0.723553   -0.886505   -0.942724
  H     -1.591475    0.007680    0.842649
  H     -1.685846   -0.940479   -2.076334
  H     -4.122046   -0.396656   -1.923162
  H     -3.922022    0.101111   -0.184255
  H     -2.251032    1.852231   -0.844787
  H     -2.432756    1.387519   -2.595947
  H     -2.155039   -2.022516    2.354992
  H     -3.364077   -2.017955    1.076473
  H     -2.486369   -3.532403    1.458203

 Total Charge           Charge          ....    0
 Multiplicity           Mult            ....    1
 Number of Electrons    NEL             ....   70
 Basis Dimension        Dim             ....  363

ORBITAL ENERGIES
----------------

  NO   OCC          E(Eh)            E(eV)
   0   2.0000     -20.538567      -558.8828
   1   2.0000     -11.324847      -308.1648
   2   2.0000     -11.240990      -305.8829
   3   2.0000     -11.240363      -305.8658
   4   2.0000     -11.232631      -305.6554
   5   2.0000     -11.231859      -305.6344
   6   2.0000     -11.231105      -305.6139
   7   2.0000     -11.219906      -305.3092
   8   2.0000     -11.212791      -305.1156
   9   2.0000      -1.383551       -37.6483
  10   2.0000      -1.156182       -31.4613
  11   2.0000      -1.067328       -29.0435
  12   2.0000      -1.010579       -27.4993
  13   2.0000      -0.950993       -25.8778
  14   2.0000      -0.836706       -22.7679
  15   2.0000      -0.820641       -22.3308
  16   2.0000      -0.799354       -21.7515
  17   2.0000      -0.731637       -19.9088
  18   2.0000      -0.676634       -18.4121
  19   2.0000      -0.648221       -17.6390
  20   2.0000      -0.640310       -17.4237
  21   2.0000      -0.621682       -16.9168
  22   2.0000      -0.596431       -16.2297
  23   2.0000      -0.583866       -15.8878
  24   2.0000      -0.564475       -15.3601
  25   2.0000      -0.548664       -14.9299
  26   2.0000      -0.531250       -14.4561
  27   2.0000      -0.521206       -14.1827
  28   2.0000      -0.502692       -13.6789
  29   2.0000      -0.489020       -13.3069
  30   2.0000      -0.480310       -13.0699
  31   2.0000      -0.472666       -12.8619
  32   2.0000      -0.436872       -11.8879
  33   2.0000      -0.417192       -11.3524
  34   2.0000      -0.389238       -10.5917
  35   0.0000       0.128382         3.4934
  36   0.0000       0.147121         4.0034
  37   0.0000       0.150250         4.0885
  38   0.0000       0.157827         4.2947
  39   0.0000       0.163166         4.4400

MULLIKEN ATOMIC CHARGES
-----------------------
   0 C :   -0.418166
   1 C :   -0.181953
   2 C :   -0.077629
   3 C :   -0.126482
   4 C :   -0.266775
   5 C :   -0.255287
   6 C :    0.224183
   7 C :   -0.439414
   8 O :   -0.293572
   9 H :    0.136244
  10 H :    0.117843
  11 H :    0.141522
  12 H :    0.118214
  13 H :    0.126703
  14 H :    0.096307
  15 H :    0.133768
  16 H :    0.134490
  17 H :    0.126314
  18 H :    0.128709
  19 H :    0.134020
  20 H :    0.145788
  21 H :    0.145474
  22 H :    0.149700
Sum of atomic charges:    0.0000000

LOEWDIN ATOMIC CHARGES
----------------------
   0 C :   -0.316557
   1 C :   -0.261815
   2 C :   -0.218624
   3 C :   -0.201280
   4 C :   -0.229604
   5 C :   -0.225693
   6 C :   -0.320356
   7 C :   -0.278292
   8 O :    0.151849
   9 H :    0.122645
  10 H :    0.118424
  11 H :    0.124214
  12 H :    0.139477
  13 H :    0.145828
  14 H :    0.160171
  15 H :    0.156234
  16 H :    0.132185
  17 H :    0.130536
  18 H :    0.133489
  19 H :    0.132288
  20 H :    0.137443
  21 H :    0.135676
  22 H :    0.131761

  Mayer bond orders larger than 0.1
B(  0-C ,  1-C ) :   0.9105 B(  0-C ,  9-H ) :   0.9420 B(  0-C , 10-H ) :   0.9376
B(  0-C , 11-H ) :   0.9389 B(  1-C ,  2-C ) :   0.9042 B(  1-C , 12-H ) :   0.9397
B(  1-C , 13-H ) :   0.9216 B(  2-C ,  3-C ) :   0.8992 B(  2-C ,  6-C ) :   0.8472
B(  2-C , 14-H ) :   0.9175 B(  3-C ,  4-C ) :   0.8816 B(  3-C ,  5-C ) :   0.8751
B(  3-C , 15-H ) :   0.9265 B(  4-C ,  5-C ) :   0.9130 B(  4-C , 16-H ) :   0.9293
B(  4-C , 17-H ) :   0.9262 B(  5-C , 18-H ) :   0.9242 B(  5-C , 19-H ) :   0.9297
B(  6-C ,  7-C ) :   0.9156 B(  6-C ,  8-O ) :   1.9962 B(  7-C , 20-H ) :   0.9140
B(  7-C , 21-H ) :   0.9135 B(  7-C , 22-H ) :   0.9395

MP2 TOTAL ENERGY:     -387.622522953 Eh
FINAL SINGLE POINT ENERGY      -387.622522952567

DIPOLE MOMENT
-------------
                                X             Y             Z
Electronic contribution:     -0.13406      -4.68979      -2.22511
Nuclear contribution   :     -0.43361       5.44500       2.54639
                        -----------------------------------------
Total Dipole Moment    :     -0.56767       0.75521       0.32128
                        -----------------------------------------
Magnitude (a.u.)       :      0.99790
Magnitude (Debye)      :      2.53647

                             ****ORCA TERMINATED NORMALLY****
TOTAL RUN TIME: 0 days 0 hours 20 minutes 44 seconds 840 msec
