                         Program Version 3.0.3 - RELEASE   -
|  1> ! RI-MP2 RIJK def2-TZVP def2-TZVP/C def2-TZVP/JK TIGHTSCF
|  2> % maxcore 2000
|  3> % mp2 density relaxed end
|  4> *xyz 0 1
|  5>  O       -0.1560255398     1.3580095490    -0.0388706264
|  6>  C       -0.0540608136    -0.0035647347    -0.0094396455
|  7>  C       -0.2402854538    -0.9235135879    -1.1533150777
|  8>  C       -1.1394099130    -1.1641273638     0.0450558529
|  9>  N       -0.3558189952    -1.8604299423     1.0809034543
| 10>  C        0.5854962527    -0.6922533943     1.1889743627
| 11>  C       -2.5845782288    -1.0023823462     0.0029036143
| 12>  O       -3.1860604730    -0.4554990019    -0.8995396957
| 13>  H       -0.3548288948     1.6444909807    -0.9368178620
| 14>  H       -0.7827992453    -0.5007347195    -1.9951119468
| 15>  H        0.4968288902    -1.6864030362    -1.3952246240
| 16>  H       -0.8946568134    -1.9606557477     1.9367652825
| 17>  H        1.6441101895    -0.9595988271     1.0999076722
| 18>  H        0.4329491195    -0.1024650576     2.0975809104
| 19>  H       -3.1179421311    -1.3840895504     0.9042661189
| 20> *
| 21>
| 22>                          ****END OF INPUT****

CARTESIAN COORDINATES (ANGSTROEM)
---------------------------------
  O     -0.156026    1.358010   -0.038871
  C     -0.054061   -0.003565   -0.009440
  C     -0.240285   -0.923514   -1.153315
  C     -1.139410   -1.164127    0.045056
  N     -0.355819   -1.860430    1.080903
  C      0.585496   -0.692253    1.188974
  C     -2.584578   -1.002382    0.002904
  O     -3.186060   -0.455499   -0.899540
  H     -0.354829    1.644491   -0.936818
  H     -0.782799   -0.500735   -1.995112
  H      0.496829   -1.686403   -1.395225
  H     -0.894657   -1.960656    1.936765
  H      1.644110   -0.959599    1.099908
  H      0.432949   -0.102465    2.097581
  H     -3.117942   -1.384090    0.904266

 Total Charge           Charge          ....    0
 Multiplicity           Mult            ....    1
 Number of Electrons    NEL             ....   60
 Basis Dimension        Dim             ....  290

ORBITAL ENERGIES
----------------

  NO   OCC          E(Eh)            E(eV)
   0   2.0000     -20.594140      -560.3950
   1   2.0000     -20.549983      -559.1935
   2   2.0000     -15.568620      -423.6437
   3   2.0000     -11.337594      -308.5116
   4   2.0000     -11.324319      -308.1504
   5   2.0000     -11.274932      -306.8065
   6   2.0000     -11.274799      -306.8029
   7   2.0000     -11.252911      -306.2073
   8   2.0000      -1.411903       -38.4198
   9   2.0000      -1.387519       -37.7563
  10   2.0000      -1.272103       -34.6157
  11   2.0000      -1.085028       -29.5251
  12   2.0000      -0.977728       -26.6053
  13   2.0000      -0.902110       -24.5477
  14   2.0000      -0.811823       -22.0908
  15   2.0000      -0.773640       -21.0518
  16   2.0000      -0.727900       -19.8072
  17   2.0000      -0.697846       -18.9893
  18   2.0000      -0.649320       -17.6689
  19   2.0000      -0.643167       -17.5015
  20   2.0000      -0.607140       -16.5211
  21   2.0000      -0.595608       -16.2073
  22   2.0000      -0.577059       -15.7026
  23   2.0000      -0.567813       -15.4510
  24   2.0000      -0.536290       -14.5932
  25   2.0000      -0.527393       -14.3511
  26   2.0000      -0.459677       -12.5084
  27   2.0000      -0.453026       -12.3275
  28   2.0000      -0.411630       -11.2010
  29   2.0000      -0.340474        -9.2648
  30   0.0000       0.108109         2.9418
  31   0.0000       0.130504         3.5512
  32   0.0000       0.139641         3.7998
  33   0.0000       0.171857         4.6765
  34   0.0000       0.183262         4.9868

MULLIKEN ATOMIC CHARGES
-----------------------
   0 O :   -0.418355
   1 C :    0.143705
   2 C :   -0.261652
   3 C :    0.009135
   4 N :   -0.311466
   5 C :   -0.142882
   6 C :    0.108577
   7 O :   -0.307232
   8 H :    0.338745
   9 H :    0.168772
  10 H :    0.141480
  11 H :    0.209852
  12 H :    0.116547
  13 H :    0.138088
  14 H :    0.066685
Sum of atomic charges:    0.0000000

LOEWDIN ATOMIC CHARGES
----------------------
   0 O :    0.065171
   1 C :   -0.313765
   2 C :   -0.160565
   3 C :   -0.249469
   4 N :    0.012809
   5 C :   -0.210021
   6 C :   -0.290215
   7 O :    0.109029
   8 H :    0.195102
   9 H :    0.155188
  10 H :    0.143042
  11 H :    0.165801
  12 H :    0.126545
  13 H :    0.135945
  14 H :    0.115402

  Mayer bond orders larger than 0.1
B(  0-O ,  1-C ) :   1.1210 B(  0-O ,  8-H ) :   0.8266 B(  1-C ,  2-C ) :   0.9681
B(  1-C ,  3-C ) :   0.7064 B(  1-C ,  5-C ) :   0.9366 B(  2-C ,  3-C ) :   0.7950
B(  2-C ,  9-H ) :   0.9142 B(  2-C , 10-H ) :   0.8899 B(  3-C ,  4-N ) :   1.0199
B(  3-C ,  6-C ) :   0.9229 B(  4-N ,  5-C ) :   0.9449 B(  4-N , 11-H ) :   0.8735
B(  5-C , 12-H ) :   0.9139 B(  5-C , 13-H ) :   0.9234 B(  6-C ,  7-O ) :   1.9233
B(  6-C , 14-H ) :   0.9392

MP2 TOTAL ENERGY:     -399.101732792 Eh
FINAL SINGLE POINT ENERGY      -399.101732791706

DIPOLE MOMENT
-------------
                                X             Y             Z
Electronic contribution:     -2.80072       1.09893      -1.12279
Nuclear contribution   :      3.50156      -1.01686       1.43756
                        -----------------------------------------
Total Dipole Moment    :      0.70084       0.08207       0.31476
                        -----------------------------------------
Magnitude (a.u.)       :      0.77265
Magnitude (Debye)      :      1.96392

                             ****ORCA TERMINATED NORMALLY****
TOTAL RUN TIME: 0 days 0 hours 11 minutes 51 seconds 826 msec
