                         Program Version 3.0.3 - RELEASE   -
|  1> ! RI-MP2 RIJK def2-TZVP def2-TZVP/C def2-TZVP/JK TIGHTSCF
|  2> % maxcore 2000
|  3> % mp2 density relaxed end
|  4> *xyz 0 1
|  5>  C        0.0016702058     1.5091025159     0.1733930819
|  6>  C        1.4378524004     2.0625204023     0.0691928911
|  7>  C        2.3452677275     1.4824694237    -1.0246865645
|  8>  C        1.9386785486     1.7154805142    -2.4864785561
|  9>  C        0.6176682788     1.0822439318    -2.9699213475
| 10>  C        0.3668447006    -0.3772370836    -2.5241154835
| 11>  C       -0.5752434072    -0.5604138500    -1.3196155449
| 12>  C       -0.1390485278    -0.0266502031     0.0576001765
| 13>  H       -0.3954692838     1.8306909192     1.1433160176
| 14>  H       -0.6448698273     1.9852175616    -0.5716598617
| 15>  H        1.3868101192     3.1541025647    -0.0414833339
| 16>  H        1.9390028739     1.8847133279     1.0301060864
| 17>  H        3.3448703587     1.9141657650    -0.8874202252
| 18>  H        2.4748539703     0.4066888082    -0.8532133343
| 19>  H        1.9052409548     2.7948421429    -2.6871397431
| 20>  H        2.7508349943     1.3222168737    -3.1124710690
| 21>  H       -0.2342357950     1.7006536051    -2.6672114213
| 22>  H        0.6253590036     1.1233353186    -4.0654314534
| 23>  H       -0.0843732938    -0.9240728007    -3.3605666516
| 24>  H        1.3229518879    -0.8812720218    -2.3314676904
| 25>  H       -1.5421625891    -0.1012479630    -1.5714395025
| 26>  H       -0.7766396876    -1.6343711915    -1.2132463482
| 27>  H        0.7936704302    -0.5144163393     0.3697298038
| 28>  H       -0.8951619731    -0.3622065717     0.7773022037
| 29> *
| 30>
| 31>                          ****END OF INPUT****

CARTESIAN COORDINATES (ANGSTROEM)
---------------------------------
  C      0.001670    1.509103    0.173393
  C      1.437852    2.062520    0.069193
  C      2.345268    1.482469   -1.024687
  C      1.938679    1.715481   -2.486479
  C      0.617668    1.082244   -2.969921
  C      0.366845   -0.377237   -2.524115
  C     -0.575243   -0.560414   -1.319616
  C     -0.139049   -0.026650    0.057600
  H     -0.395469    1.830691    1.143316
  H     -0.644870    1.985218   -0.571660
  H      1.386810    3.154103   -0.041483
  H      1.939003    1.884713    1.030106
  H      3.344870    1.914166   -0.887420
  H      2.474854    0.406689   -0.853213
  H      1.905241    2.794842   -2.687140
  H      2.750835    1.322217   -3.112471
  H     -0.234236    1.700654   -2.667211
  H      0.625359    1.123335   -4.065431
  H     -0.084373   -0.924073   -3.360567
  H      1.322952   -0.881272   -2.331468
  H     -1.542163   -0.101248   -1.571440
  H     -0.776640   -1.634371   -1.213246
  H      0.793670   -0.514416    0.369730
  H     -0.895162   -0.362207    0.777302

 Total Charge           Charge          ....    0
 Multiplicity           Mult            ....    1
 Number of Electrons    NEL             ....   64
 Basis Dimension        Dim             ....  344

ORBITAL ENERGIES
----------------

  NO   OCC          E(Eh)            E(eV)
   0   2.0000     -11.213623      -305.1382
   1   2.0000     -11.212679      -305.1125
   2   2.0000     -11.212672      -305.1123
   3   2.0000     -11.212541      -305.1088
   4   2.0000     -11.212456      -305.1064
   5   2.0000     -11.211309      -305.0752
   6   2.0000     -11.211298      -305.0749
   7   2.0000     -11.210733      -305.0596
   8   2.0000      -1.097336       -29.8600
   9   2.0000      -1.035627       -28.1808
  10   2.0000      -1.033665       -28.1275
  11   2.0000      -0.916737       -24.9457
  12   2.0000      -0.913113       -24.8471
  13   2.0000      -0.791820       -21.5465
  14   2.0000      -0.789733       -21.4897
  15   2.0000      -0.734848       -19.9962
  16   2.0000      -0.641879       -17.4664
  17   2.0000      -0.628009       -17.0890
  18   2.0000      -0.595590       -16.2068
  19   2.0000      -0.588993       -16.0273
  20   2.0000      -0.572115       -15.5680
  21   2.0000      -0.566086       -15.4040
  22   2.0000      -0.549762       -14.9598
  23   2.0000      -0.506923       -13.7941
  24   2.0000      -0.484979       -13.1970
  25   2.0000      -0.481009       -13.0889
  26   2.0000      -0.468564       -12.7503
  27   2.0000      -0.465044       -12.6545
  28   2.0000      -0.459939       -12.5156
  29   2.0000      -0.433979       -11.8092
  30   2.0000      -0.426081       -11.5943
  31   2.0000      -0.417614       -11.3639
  32   0.0000       0.135077         3.6756
  33   0.0000       0.152323         4.1449
  34   0.0000       0.156207         4.2506
  35   0.0000       0.161941         4.4066
  36   0.0000       0.192758         5.2452

MULLIKEN ATOMIC CHARGES
-----------------------
   0 C :   -0.195806
   1 C :   -0.263172
   2 C :   -0.176617
   3 C :   -0.263169
   4 C :   -0.195820
   5 C :   -0.226750
   6 C :   -0.252104
   7 C :   -0.226750
   8 H :    0.118791
   9 H :    0.103727
  10 H :    0.107631
  11 H :    0.114924
  12 H :    0.120458
  13 H :    0.102834
  14 H :    0.107631
  15 H :    0.114925
  16 H :    0.103730
  17 H :    0.118792
  18 H :    0.120640
  19 H :    0.109417
  20 H :    0.111984
  21 H :    0.114646
  22 H :    0.109418
  23 H :    0.120640
Sum of atomic charges:   -0.0000000

LOEWDIN ATOMIC CHARGES
----------------------
   0 C :   -0.269886
   1 C :   -0.274224
   2 C :   -0.278193
   3 C :   -0.274221
   4 C :   -0.269888
   5 C :   -0.268914
   6 C :   -0.277401
   7 C :   -0.268912
   8 H :    0.135786
   9 H :    0.132888
  10 H :    0.136411
  11 H :    0.138433
  12 H :    0.139433
  13 H :    0.133893
  14 H :    0.136412
  15 H :    0.138432
  16 H :    0.132887
  17 H :    0.135787
  18 H :    0.137552
  19 H :    0.135897
  20 H :    0.136999
  21 H :    0.137382
  22 H :    0.135898
  23 H :    0.137551

  Mayer bond orders larger than 0.1
B(  0-C ,  1-C ) :   0.9319 B(  0-C ,  7-C ) :   0.8884 B(  0-C ,  8-H ) :   0.9367
B(  0-C ,  9-H ) :   0.9351 B(  1-C ,  2-C ) :   0.9212 B(  1-C , 10-H ) :   0.9343
B(  1-C , 11-H ) :   0.9343 B(  2-C ,  3-C ) :   0.9212 B(  2-C , 12-H ) :   0.9359
B(  2-C , 13-H ) :   0.9303 B(  3-C ,  4-C ) :   0.9319 B(  3-C , 14-H ) :   0.9343
B(  3-C , 15-H ) :   0.9343 B(  4-C ,  5-C ) :   0.8884 B(  4-C , 16-H ) :   0.9351
B(  4-C , 17-H ) :   0.9367 B(  5-C ,  6-C ) :   0.9300 B(  5-C , 18-H ) :   0.9345
B(  5-C , 19-H ) :   0.9348 B(  6-C ,  7-C ) :   0.9300 B(  6-C , 20-H ) :   0.9370
B(  6-C , 21-H ) :   0.9362 B(  7-C , 22-H ) :   0.9348 B(  7-C , 23-H ) :   0.9345

MP2 TOTAL ENERGY:     -313.711729176 Eh
FINAL SINGLE POINT ENERGY      -313.711729175873

DIPOLE MOMENT
-------------
                                X             Y             Z
Electronic contribution:      0.01180       0.04487      -0.00372
Nuclear contribution   :     -0.01341      -0.06105       0.00560
                        -----------------------------------------
Total Dipole Moment    :     -0.00161      -0.01617       0.00187
                        -----------------------------------------
Magnitude (a.u.)       :      0.01636
Magnitude (Debye)      :      0.04158

                             ****ORCA TERMINATED NORMALLY****
TOTAL RUN TIME: 0 days 0 hours 16 minutes 7 seconds 791 msec
