                         Program Version 3.0.3 - RELEASE   -
|  1> ! RI-MP2 RIJK def2-TZVP def2-TZVP/C def2-TZVP/JK TIGHTSCF
|  2> % maxcore 2000
|  3> % mp2 density relaxed end
|  4> *xyz 0 1
|  5>  O       -0.0790481187     1.3739880008     0.0064919485
|  6>  C        0.0755956806    -0.0042943382     0.0042042572
|  7>  C        0.6475369465    -0.7452733941    -1.2466148143
|  8>  C        0.6648785231    -2.1676524376    -0.7446648885
|  9>  C        0.5712187243    -2.1807523841     0.7824221055
| 10>  C       -0.7673754534    -1.6183494183     1.2116981985
| 11>  C        0.4911756341    -0.7671359079     1.3027320443
| 12>  C       -1.2097790552    -0.8861066720    -0.0821892135
| 13>  C       -0.6118154034    -1.5965989938    -1.3246373683
| 14>  H        0.7961507545     1.7746690480     0.0621516807
| 15>  H        1.2786789362    -0.3433322604    -2.0309841027
| 16>  H        1.2147287084    -2.9294048549    -1.2822044747
| 17>  H        1.0520550024    -2.9521699140     1.3700122885
| 18>  H       -1.3862878060    -2.0350839997     1.9965581194
| 19>  H        1.0212973446    -0.3793185858     2.1651068131
| 20>  H       -2.1802129363    -0.4004243962    -0.1375398847
| 21>  H       -1.1297225119    -1.9992040918    -2.1862683489
| 22> *
| 23>
| 24>                          ****END OF INPUT****

CARTESIAN COORDINATES (ANGSTROEM)
---------------------------------
  O     -0.079048    1.373988    0.006492
  C      0.075596   -0.004294    0.004204
  C      0.647537   -0.745273   -1.246615
  C      0.664879   -2.167652   -0.744665
  C      0.571219   -2.180752    0.782422
  C     -0.767375   -1.618349    1.211698
  C      0.491176   -0.767136    1.302732
  C     -1.209779   -0.886107   -0.082189
  C     -0.611815   -1.596599   -1.324637
  H      0.796151    1.774669    0.062152
  H      1.278679   -0.343332   -2.030984
  H      1.214729   -2.929405   -1.282204
  H      1.052055   -2.952170    1.370012
  H     -1.386288   -2.035084    1.996558
  H      1.021297   -0.379319    2.165107
  H     -2.180213   -0.400424   -0.137540
  H     -1.129723   -1.999204   -2.186268

 Total Charge           Charge          ....    0
 Multiplicity           Mult            ....    1
 Number of Electrons    NEL             ....   64
 Basis Dimension        Dim             ....  327

ORBITAL ENERGIES
----------------

  NO   OCC          E(Eh)            E(eV)
   0   2.0000     -20.564302      -559.5831
   1   2.0000     -11.286743      -307.1279
   2   2.0000     -11.230562      -305.5991
   3   2.0000     -11.229990      -305.5836
   4   2.0000     -11.227747      -305.5225
   5   2.0000     -11.227629      -305.5193
   6   2.0000     -11.226395      -305.4857
   7   2.0000     -11.225641      -305.4652
   8   2.0000     -11.225610      -305.4644
   9   2.0000      -1.375770       -37.4366
  10   2.0000      -1.245427       -33.8898
  11   2.0000      -1.102517       -30.0010
  12   2.0000      -0.980379       -26.6775
  13   2.0000      -0.901773       -24.5385
  14   2.0000      -0.808089       -21.9892
  15   2.0000      -0.783760       -21.3272
  16   2.0000      -0.761129       -20.7114
  17   2.0000      -0.735786       -20.0218
  18   2.0000      -0.705943       -19.2097
  19   2.0000      -0.647622       -17.6227
  20   2.0000      -0.642709       -17.4890
  21   2.0000      -0.583191       -15.8694
  22   2.0000      -0.579784       -15.7767
  23   2.0000      -0.560558       -15.2536
  24   2.0000      -0.551871       -15.0172
  25   2.0000      -0.505040       -13.7428
  26   2.0000      -0.454321       -12.3627
  27   2.0000      -0.433436       -11.7944
  28   2.0000      -0.412755       -11.2316
  29   2.0000      -0.382679       -10.4132
  30   2.0000      -0.366985        -9.9862
  31   2.0000      -0.365717        -9.9517
  32   0.0000       0.140335         3.8187
  33   0.0000       0.154890         4.2148
  34   0.0000       0.177053         4.8179
  35   0.0000       0.178108         4.8466
  36   0.0000       0.195684         5.3248

MULLIKEN ATOMIC CHARGES
-----------------------
   0 O :   -0.451128
   1 C :    0.327931
   2 C :   -0.222647
   3 C :   -0.116991
   4 C :   -0.116983
   5 C :   -0.213965
   6 C :   -0.222617
   7 C :   -0.040632
   8 C :   -0.213969
   9 H :    0.323649
  10 H :    0.138773
  11 H :    0.131991
  12 H :    0.131990
  13 H :    0.131510
  14 H :    0.138756
  15 H :    0.142821
  16 H :    0.131512
Sum of atomic charges:    0.0000000

LOEWDIN ATOMIC CHARGES
----------------------
   0 O :    0.033603
   1 C :   -0.274332
   2 C :   -0.125607
   3 C :   -0.151709
   4 C :   -0.151714
   5 C :   -0.130913
   6 C :   -0.125575
   7 C :   -0.103128
   8 C :   -0.130903
   9 H :    0.184654
  10 H :    0.132923
  11 H :    0.148417
  12 H :    0.148415
  13 H :    0.132753
  14 H :    0.132927
  15 H :    0.147436
  16 H :    0.132752

  Mayer bond orders larger than 0.1
B(  0-O ,  1-C ) :   1.0371 B(  0-O ,  9-H ) :   0.8358 B(  1-C ,  2-C ) :   0.9307
B(  1-C ,  6-C ) :   0.9307 B(  1-C ,  7-C ) :   1.0140 B(  2-C ,  3-C ) :   0.8388
B(  2-C ,  8-C ) :   0.8523 B(  2-C , 10-H ) :   0.9129 B(  3-C ,  4-C ) :   0.9118
B(  3-C ,  8-C ) :   0.8899 B(  3-C , 11-H ) :   0.9226 B(  4-C ,  5-C ) :   0.8898
B(  4-C ,  6-C ) :   0.8387 B(  4-C , 12-H ) :   0.9226 B(  5-C ,  6-C ) :   0.8524
B(  5-C ,  7-C ) :   0.9408 B(  5-C , 13-H ) :   0.9234 B(  6-C , 14-H ) :   0.9130
B(  7-C ,  8-C ) :   0.9408 B(  7-C , 15-H ) :   0.8970 B(  8-C , 16-H ) :   0.9233

MP2 TOTAL ENERGY:     -383.949835131 Eh
FINAL SINGLE POINT ENERGY      -383.949835130595

DIPOLE MOMENT
-------------
                                X             Y             Z
Electronic contribution:     -0.22396       1.74305       0.00160
Nuclear contribution   :      0.76556      -1.97039       0.02878
                        -----------------------------------------
Total Dipole Moment    :      0.54160      -0.22734       0.03038
                        -----------------------------------------
Magnitude (a.u.)       :      0.58817
Magnitude (Debye)      :      1.49500

                             ****ORCA TERMINATED NORMALLY****
TOTAL RUN TIME: 0 days 0 hours 17 minutes 17 seconds 70 msec
