                         Program Version 3.0.3 - RELEASE   -
|  1> ! RI-MP2 RIJK def2-TZVP def2-TZVP/C def2-TZVP/JK TIGHTSCF
|  2> % maxcore 2000
|  3> % mp2 density relaxed end
|  4> *xyz 0 1
|  5>  C        0.0943208966     1.5014201045     0.0774359927
|  6>  C       -0.0265482634    -0.0097802530     0.1259544244
|  7>  O        0.8084957469    -0.4829328003     1.1900628211
|  8>  C        0.8482706160    -1.8144679051     1.3616737671
|  9>  N        1.5464409770    -2.3274932904     2.2750081458
| 10>  C        1.5714790926    -3.7745586558     2.3953002915
| 11>  C        3.0336185397    -4.2299671768     2.4480670325
| 12>  O        3.7298473007    -3.5873009664     3.4930419262
| 13>  H        1.1296872824     1.7986625646    -0.1089542663
| 14>  H       -0.5334497686     1.9015619115    -0.7239036959
| 15>  H       -0.2255501836     1.9431583801     1.0248370020
| 16>  H       -1.0655774049    -0.3141536274     0.3103754410
| 17>  H        0.2948980069    -0.4592280257    -0.8232149290
| 18>  H        0.2312074586    -2.3894091937     0.6535300227
| 19>  H        1.0907280851    -4.0511585654     3.3423674580
| 20>  H        1.0393517541    -4.2897238835     1.5775757753
| 21>  H        3.0846541866    -5.3085309045     2.6338731789
| 22>  H        3.5034268177    -4.0358204623     1.4686895680
| 23>  H        3.4682431298    -2.6583227002     3.4388213141
| 24> *
| 25>
| 26>                          ****END OF INPUT****

CARTESIAN COORDINATES (ANGSTROEM)
---------------------------------
  C      0.094321    1.501420    0.077436
  C     -0.026548   -0.009780    0.125954
  O      0.808496   -0.482933    1.190063
  C      0.848271   -1.814468    1.361674
  N      1.546441   -2.327493    2.275008
  C      1.571479   -3.774559    2.395300
  C      3.033619   -4.229967    2.448067
  O      3.729847   -3.587301    3.493042
  H      1.129687    1.798663   -0.108954
  H     -0.533450    1.901562   -0.723904
  H     -0.225550    1.943158    1.024837
  H     -1.065577   -0.314154    0.310375
  H      0.294898   -0.459228   -0.823215
  H      0.231207   -2.389409    0.653530
  H      1.090728   -4.051159    3.342367
  H      1.039352   -4.289724    1.577576
  H      3.084654   -5.308531    2.633873
  H      3.503427   -4.035820    1.468690
  H      3.468243   -2.658323    3.438821

 Total Charge           Charge          ....    0
 Multiplicity           Mult            ....    1
 Number of Electrons    NEL             ....   64
 Basis Dimension        Dim             ....  314

ORBITAL ENERGIES
----------------

  NO   OCC          E(Eh)            E(eV)
   0   2.0000     -20.595508      -560.4323
   1   2.0000     -20.536037      -558.8140
   2   2.0000     -15.549955      -423.1358
   3   2.0000     -11.339837      -308.5727
   4   2.0000     -11.303035      -307.5712
   5   2.0000     -11.265721      -306.5559
   6   2.0000     -11.254867      -306.2605
   7   2.0000     -11.232067      -305.6401
   8   2.0000      -1.431731       -38.9594
   9   2.0000      -1.346276       -36.6340
  10   2.0000      -1.227215       -33.3942
  11   2.0000      -1.047818       -28.5126
  12   2.0000      -0.991761       -26.9872
  13   2.0000      -0.878096       -23.8942
  14   2.0000      -0.847875       -23.0719
  15   2.0000      -0.804999       -21.9051
  16   2.0000      -0.713936       -19.4272
  17   2.0000      -0.688039       -18.7225
  18   2.0000      -0.679939       -18.5021
  19   2.0000      -0.665732       -18.1155
  20   2.0000      -0.611735       -16.6461
  21   2.0000      -0.584819       -15.9137
  22   2.0000      -0.577973       -15.7274
  23   2.0000      -0.561776       -15.2867
  24   2.0000      -0.553909       -15.0726
  25   2.0000      -0.548639       -14.9292
  26   2.0000      -0.515470       -14.0266
  27   2.0000      -0.501393       -13.6436
  28   2.0000      -0.480228       -13.0677
  29   2.0000      -0.438597       -11.9348
  30   2.0000      -0.420369       -11.4388
  31   2.0000      -0.385113       -10.4795
  32   0.0000       0.129424         3.5218
  33   0.0000       0.141153         3.8410
  34   0.0000       0.150607         4.0982
  35   0.0000       0.166202         4.5226
  36   0.0000       0.186320         5.0700

MULLIKEN ATOMIC CHARGES
-----------------------
   0 C :   -0.367878
   1 C :   -0.078356
   2 O :   -0.217269
   3 C :    0.063398
   4 N :   -0.242818
   5 C :   -0.099973
   6 C :    0.019475
   7 O :   -0.488970
   8 H :    0.138285
   9 H :    0.127579
  10 H :    0.139206
  11 H :    0.115249
  12 H :    0.113915
  13 H :    0.067024
  14 H :    0.118134
  15 H :    0.080221
  16 H :    0.102589
  17 H :    0.079803
  18 H :    0.330384
Sum of atomic charges:   -0.0000000

LOEWDIN ATOMIC CHARGES
----------------------
   0 C :   -0.311840
   1 C :   -0.326440
   2 O :    0.238850
   3 C :   -0.361039
   4 N :    0.072178
   5 C :   -0.313889
   6 C :   -0.356438
   7 O :   -0.049925
   8 H :    0.127675
   9 H :    0.127622
  10 H :    0.127896
  11 H :    0.122550
  12 H :    0.122270
  13 H :    0.111275
  14 H :    0.134927
  15 H :    0.120359
  16 H :    0.125114
  17 H :    0.113003
  18 H :    0.175851

  Mayer bond orders larger than 0.1
B(  0-C ,  1-C ) :   0.9617 B(  0-C ,  8-H ) :   0.9347 B(  0-C ,  9-H ) :   0.9288
B(  0-C , 10-H ) :   0.9349 B(  1-C ,  2-O ) :   0.8623 B(  1-C , 11-H ) :   0.9251
B(  1-C , 12-H ) :   0.9249 B(  2-O ,  3-C ) :   1.0928 B(  3-C ,  4-N ) :   1.8678
B(  3-C , 13-H ) :   0.9283 B(  4-N ,  5-C ) :   0.8474 B(  5-C ,  6-C ) :   0.9527
B(  5-C , 14-H ) :   0.9212 B(  5-C , 15-H ) :   0.9120 B(  6-C ,  7-O ) :   0.9434
B(  6-C , 16-H ) :   0.9284 B(  6-C , 17-H ) :   0.9160 B(  7-O , 18-H ) :   0.8231

MP2 TOTAL ENERGY:     -401.540005346 Eh
FINAL SINGLE POINT ENERGY      -401.540005346466

DIPOLE MOMENT
-------------
                                X             Y             Z
Electronic contribution:      2.60133      -1.96176       3.88395
Nuclear contribution   :     -3.91497       2.23879      -5.29841
                        -----------------------------------------
Total Dipole Moment    :     -1.31363       0.27704      -1.41446
                        -----------------------------------------
Magnitude (a.u.)       :      1.95015
Magnitude (Debye)      :      4.95688

                             ****ORCA TERMINATED NORMALLY****
TOTAL RUN TIME: 0 days 0 hours 10 minutes 0 seconds 737 msec
