                         Program Version 3.0.3 - RELEASE   -
|  1> ! RI-MP2 RIJK def2-TZVP def2-TZVP/C def2-TZVP/JK TIGHTSCF
|  2> % maxcore 2000
|  3> % mp2 density relaxed end
|  4> *xyz 0 1
|  5>  O       -0.1627243161     0.0787541203     0.4081083853
|  6>  C       -0.0102553222     1.2044005987    -0.0074296353
|  7>  C        1.2427861209     1.9123570596    -0.0038838979
|  8>  C        2.2797899405     2.5345758837    -0.0201102223
|  9>  C        3.5125667675     3.2720413348    -0.0187458028
| 10>  C        3.7711987391     4.1558360071    -1.2211529866
| 11>  N        3.4258141823     4.7663662602     0.0485542660
| 12>  C        4.6208853452     2.6736364416     0.6831221459
| 13>  C        5.5462756868     2.1589702882     1.2489439218
| 14>  H       -0.8538169897     1.7852407005    -0.4334233131
| 15>  H        4.8053760940     4.2799272288    -1.5263216604
| 16>  H        3.0403705503     4.1227584963    -2.0238015151
| 17>  H        2.4429640399     5.0311150689     0.0614589518
| 18>  H        6.3607975715     1.7064706112     1.7588764727
| 19> *
| 20>
| 21>                          ****END OF INPUT****

CARTESIAN COORDINATES (ANGSTROEM)
---------------------------------
  O     -0.162724    0.078754    0.408108
  C     -0.010255    1.204401   -0.007430
  C      1.242786    1.912357   -0.003884
  C      2.279790    2.534576   -0.020110
  C      3.512567    3.272041   -0.018746
  C      3.771199    4.155836   -1.221153
  N      3.425814    4.766366    0.048554
  C      4.620885    2.673636    0.683122
  C      5.546276    2.158970    1.248944
  H     -0.853817    1.785241   -0.433423
  H      4.805376    4.279927   -1.526322
  H      3.040371    4.122758   -2.023802
  H      2.442964    5.031115    0.061459
  H      6.360798    1.706471    1.758876

 Total Charge           Charge          ....    0
 Multiplicity           Mult            ....    1
 Number of Electrons    NEL             ....   62
 Basis Dimension        Dim             ....  309

ORBITAL ENERGIES
----------------

  NO   OCC          E(Eh)            E(eV)
   0   2.0000     -20.575027      -559.8749
   1   2.0000     -15.603191      -424.5844
   2   2.0000     -11.365978      -309.2840
   3   2.0000     -11.339063      -308.5516
   4   2.0000     -11.300155      -307.4929
   5   2.0000     -11.282866      -307.0224
   6   2.0000     -11.260702      -306.4193
   7   2.0000     -11.250846      -306.1511
   8   2.0000     -11.241753      -305.9036
   9   2.0000      -1.410175       -38.3728
  10   2.0000      -1.310465       -35.6596
  11   2.0000      -1.091750       -29.7080
  12   2.0000      -1.052217       -28.6323
  13   2.0000      -0.967135       -26.3171
  14   2.0000      -0.918059       -24.9817
  15   2.0000      -0.890053       -24.2196
  16   2.0000      -0.787764       -21.4361
  17   2.0000      -0.734460       -19.9857
  18   2.0000      -0.724697       -19.7200
  19   2.0000      -0.692111       -18.8333
  20   2.0000      -0.665187       -18.1007
  21   2.0000      -0.616663       -16.7802
  22   2.0000      -0.569579       -15.4990
  23   2.0000      -0.555131       -15.1059
  24   2.0000      -0.547729       -14.9045
  25   2.0000      -0.471058       -12.8181
  26   2.0000      -0.461624       -12.5614
  27   2.0000      -0.433174       -11.7873
  28   2.0000      -0.416873       -11.3437
  29   2.0000      -0.405590       -11.0367
  30   2.0000      -0.373726       -10.1696
  31   0.0000       0.066827         1.8185
  32   0.0000       0.118499         3.2245
  33   0.0000       0.144582         3.9343
  34   0.0000       0.154394         4.2013
  35   0.0000       0.161007         4.3812

MULLIKEN ATOMIC CHARGES
-----------------------
   0 O :   -0.246593
   1 C :    0.034678
   2 C :    0.118660
   3 C :   -0.013882
   4 C :   -0.230437
   5 C :   -0.133234
   6 N :   -0.319968
   7 C :    0.039007
   8 C :   -0.076966
   9 H :    0.106713
  10 H :    0.144488
  11 H :    0.144247
  12 H :    0.233057
  13 H :    0.200230
Sum of atomic charges:   -0.0000000

LOEWDIN ATOMIC CHARGES
----------------------
   0 O :    0.152544
   1 C :   -0.295037
   2 C :   -0.039749
   3 C :    0.013515
   4 C :   -0.273443
   5 C :   -0.199011
   6 N :    0.049384
   7 C :   -0.049606
   8 C :   -0.058934
   9 H :    0.124967
  10 H :    0.137532
  11 H :    0.130367
  12 H :    0.176422
  13 H :    0.131050

  Mayer bond orders larger than 0.1
B(  0-O ,  1-C ) :   2.0206 B(  1-C ,  2-C ) :   0.8176 B(  1-C ,  9-H ) :   1.0114
B(  2-C ,  3-C ) :   2.6060 B(  2-C ,  4-C ) :  -0.1241 B(  2-C ,  9-H ) :  -0.1092
B(  3-C ,  4-C ) :   1.1974 B(  4-C ,  5-C ) :   0.8791 B(  4-C ,  6-N ) :   0.9668
B(  4-C ,  7-C ) :   1.1949 B(  4-C ,  8-C ) :  -0.1463 B(  5-C ,  6-N ) :   0.9408
B(  5-C , 10-H ) :   0.9176 B(  5-C , 11-H ) :   0.9112 B(  6-N , 12-H ) :   0.8677
B(  7-C ,  8-C ) :   2.5598 B(  8-C , 13-H ) :   0.8873

MP2 TOTAL ENERGY:     -398.737783080 Eh
FINAL SINGLE POINT ENERGY      -398.737783079568

DIPOLE MOMENT
-------------
                                X             Y             Z
Electronic contribution:     -2.28613      -3.12276       1.75279
Nuclear contribution   :      2.45311       4.03308      -2.53593
                        -----------------------------------------
Total Dipole Moment    :      0.16698       0.91032      -0.78314
                        -----------------------------------------
Magnitude (a.u.)       :      1.21238
Magnitude (Debye)      :      3.08164

                             ****ORCA TERMINATED NORMALLY****
TOTAL RUN TIME: 0 days 0 hours 12 minutes 22 seconds 285 msec
