                         Program Version 3.0.3 - RELEASE   -
|  1> ! RI-MP2 RIJK def2-TZVP def2-TZVP/C def2-TZVP/JK TIGHTSCF
|  2> % maxcore 2000
|  3> % mp2 density relaxed end
|  4> *xyz 0 1
|  5>  O       -0.0957514254    -0.0334956156    -0.0009279873
|  6>  C       -0.0142350548     1.1741057787     0.0078310308
|  7>  C        1.2238601826     1.9047349432    -0.0000789437
|  8>  C        2.2558166506     2.5382274104    -0.0065407722
|  9>  C        3.4532124934     3.2716567638    -0.0143311204
| 10>  C        4.7425874179     2.8057136761    -0.0324812426
| 11>  O        5.6057099061     3.8150170522    -0.0343645647
| 12>  N        4.9026665717     5.0259727337    -0.0170113295
| 13>  C        3.6418435138     4.6932491421    -0.0053251245
| 14>  H       -0.9167826632     1.8179981963     0.0228436661
| 15>  H        5.1574741273     1.8099465040    -0.0449222876
| 16>  H        2.8853686298     5.4643146552     0.0092194956
| 17> *
| 18>
| 19>                          ****END OF INPUT****

CARTESIAN COORDINATES (ANGSTROEM)
---------------------------------
  O     -0.095751   -0.033496   -0.000928
  C     -0.014235    1.174106    0.007831
  C      1.223860    1.904735   -0.000079
  C      2.255817    2.538227   -0.006541
  C      3.453212    3.271657   -0.014331
  C      4.742587    2.805714   -0.032481
  O      5.605710    3.815017   -0.034365
  N      4.902667    5.025973   -0.017011
  C      3.641844    4.693249   -0.005325
  H     -0.916783    1.817998    0.022844
  H      5.157474    1.809947   -0.044922
  H      2.885369    5.464315    0.009219

 Total Charge           Charge          ....    0
 Multiplicity           Mult            ....    1
 Number of Electrons    NEL             ....   62
 Basis Dimension        Dim             ....  297

ORBITAL ENERGIES
----------------

  NO   OCC          E(Eh)            E(eV)
   0   2.0000     -20.678907      -562.7017
   1   2.0000     -20.575317      -559.8828
   2   2.0000     -15.652060      -425.9142
   3   2.0000     -11.367087      -309.3142
   4   2.0000     -11.357419      -309.0511
   5   2.0000     -11.312437      -307.8270
   6   2.0000     -11.290281      -307.2242
   7   2.0000     -11.288304      -307.1704
   8   2.0000     -11.263713      -306.5012
   9   2.0000      -1.528145       -41.5829
  10   2.0000      -1.410621       -38.3850
  11   2.0000      -1.201366       -32.6908
  12   2.0000      -1.137133       -30.9430
  13   2.0000      -1.063628       -28.9428
  14   2.0000      -0.933959       -25.4143
  15   2.0000      -0.871212       -23.7069
  16   2.0000      -0.852135       -23.1878
  17   2.0000      -0.793562       -21.5939
  18   2.0000      -0.730644       -19.8818
  19   2.0000      -0.693285       -18.8652
  20   2.0000      -0.688465       -18.7341
  21   2.0000      -0.665078       -18.0977
  22   2.0000      -0.624523       -16.9941
  23   2.0000      -0.600678       -16.3453
  24   2.0000      -0.566541       -15.4164
  25   2.0000      -0.517951       -14.0942
  26   2.0000      -0.494873       -13.4662
  27   2.0000      -0.462715       -12.5911
  28   2.0000      -0.441423       -12.0117
  29   2.0000      -0.428901       -11.6710
  30   2.0000      -0.364912        -9.9298
  31   0.0000       0.049230         1.3396
  32   0.0000       0.102565         2.7909
  33   0.0000       0.141518         3.8509
  34   0.0000       0.151443         4.1210
  35   0.0000       0.160500         4.3674

MULLIKEN ATOMIC CHARGES
-----------------------
   0 O :   -0.248192
   1 C :    0.047456
   2 C :    0.060661
   3 C :    0.085252
   4 C :   -0.134347
   5 C :    0.007859
   6 O :   -0.088304
   7 N :   -0.096021
   8 C :   -0.093651
   9 H :    0.109628
  10 H :    0.182965
  11 H :    0.166691
Sum of atomic charges:   -0.0000000

LOEWDIN ATOMIC CHARGES
----------------------
   0 O :    0.152235
   1 C :   -0.294639
   2 C :   -0.033148
   3 C :    0.000718
   4 C :   -0.192476
   5 C :   -0.201080
   6 O :    0.297900
   7 N :    0.056023
   8 C :   -0.212015
   9 H :    0.126217
  10 H :    0.148874
  11 H :    0.151392

  Mayer bond orders larger than 0.1
B(  0-O ,  1-C ) :   1.9990 B(  1-C ,  2-C ) :   0.8515 B(  1-C ,  9-H ) :   0.9985
B(  2-C ,  3-C ) :   2.6398 B(  2-C ,  4-C ) :  -0.1744 B(  2-C ,  9-H ) :  -0.1002
B(  3-C ,  4-C ) :   1.0551 B(  4-C ,  5-C ) :   1.4875 B(  4-C ,  8-C ) :   1.1862
B(  5-C ,  6-O ) :   1.1513 B(  5-C ,  7-N ) :   0.1016 B(  5-C , 10-H ) :   0.9036
B(  6-O ,  7-N ) :   0.8830 B(  7-N ,  8-C ) :   1.6042 B(  8-C , 11-H ) :   0.9182

MP2 TOTAL ENERGY:     -434.707139423 Eh
FINAL SINGLE POINT ENERGY      -434.707139423197

DIPOLE MOMENT
-------------
                                X             Y             Z
Electronic contribution:      1.24757      -0.22715      -0.01555
Nuclear contribution   :     -1.39079       0.68587       0.02091
                        -----------------------------------------
Total Dipole Moment    :     -0.14322       0.45872       0.00537
                        -----------------------------------------
Magnitude (a.u.)       :      0.48059
Magnitude (Debye)      :      1.22156

                             ****ORCA TERMINATED NORMALLY****
TOTAL RUN TIME: 0 days 0 hours 12 minutes 17 seconds 835 msec
