                         Program Version 3.0.3 - RELEASE   -
|  1> ! RI-MP2 RIJK def2-TZVP def2-TZVP/C def2-TZVP/JK TIGHTSCF
|  2> % maxcore 2000
|  3> % mp2 density relaxed end
|  4> *xyz 0 1
|  5>  C        0.2359805727     1.5235084578    -0.2948387943
|  6>  C        0.0258235775     0.0239849862    -0.0161126575
|  7>  C       -1.4644153841    -0.2828249592     0.1572388863
|  8>  C        0.6650713164    -0.8000069817    -1.1503312199
|  9>  O        2.0589825292    -0.7885143228    -0.8976573996
| 10>  C        2.2557956096    -0.8080814970     0.5180751275
| 11>  C        0.8889274795    -0.4930331145     1.1718457638
| 12>  C        0.9975054347     0.4135777833     2.3879046318
| 13>  O        1.7280076494    -0.3037239837     3.3760716159
| 14>  H        1.2909079867     1.7510219900    -0.4725282331
| 15>  H       -0.3235762581     1.8224631752    -1.1878816280
| 16>  H       -0.1165097288     2.1463361312     0.5334843272
| 17>  H       -2.0317744830     0.0077152326    -0.7341835361
| 18>  H       -1.6341560465    -1.3508690292     0.3303107452
| 19>  H       -1.8888478365     0.2655035197     1.0051969711
| 20>  H        0.2680349870    -1.8300895745    -1.1454127929
| 21>  H        0.4978607435    -0.3737695890    -2.1447898808
| 22>  H        2.6380678088    -1.7859835524     0.8359353885
| 23>  H        3.0157094338    -0.0575216374     0.7669671772
| 24>  H        0.4440537110    -1.4321090323     1.5225505383
| 25>  H        1.5136718307     1.3480429548     2.1211692670
| 26>  H       -0.0064914133     0.6813183034     2.7555828646
| 27>  H        1.8668421396     0.2771838894     4.1296925080
| 28> *
| 29>
| 30>                          ****END OF INPUT****

CARTESIAN COORDINATES (ANGSTROEM)
---------------------------------
  C      0.235981    1.523508   -0.294839
  C      0.025824    0.023985   -0.016113
  C     -1.464415   -0.282825    0.157239
  C      0.665071   -0.800007   -1.150331
  O      2.058983   -0.788514   -0.897657
  C      2.255796   -0.808081    0.518075
  C      0.888927   -0.493033    1.171846
  C      0.997505    0.413578    2.387905
  O      1.728008   -0.303724    3.376072
  H      1.290908    1.751022   -0.472528
  H     -0.323576    1.822463   -1.187882
  H     -0.116510    2.146336    0.533484
  H     -2.031774    0.007715   -0.734184
  H     -1.634156   -1.350869    0.330311
  H     -1.888848    0.265504    1.005197
  H      0.268035   -1.830090   -1.145413
  H      0.497861   -0.373770   -2.144790
  H      2.638068   -1.785984    0.835935
  H      3.015709   -0.057522    0.766967
  H      0.444054   -1.432109    1.522551
  H      1.513672    1.348043    2.121169
  H     -0.006491    0.681318    2.755583
  H      1.866842    0.277184    4.129693

 Total Charge           Charge          ....    0
 Multiplicity           Mult            ....    1
 Number of Electrons    NEL             ....   72
 Basis Dimension        Dim             ....  363

ORBITAL ENERGIES
----------------

  NO   OCC          E(Eh)            E(eV)
   0   2.0000     -20.559838      -559.4616
   1   2.0000     -20.542312      -558.9847
   2   2.0000     -11.279558      -306.9324
   3   2.0000     -11.265519      -306.5504
   4   2.0000     -11.263029      -306.4826
   5   2.0000     -11.238131      -305.8051
   6   2.0000     -11.226115      -305.4781
   7   2.0000     -11.219107      -305.2874
   8   2.0000     -11.215615      -305.1924
   9   2.0000      -1.368856       -37.2485
  10   2.0000      -1.362633       -37.0791
  11   2.0000      -1.106609       -30.1124
  12   2.0000      -1.021467       -27.7955
  13   2.0000      -0.937514       -25.5110
  14   2.0000      -0.930372       -25.3167
  15   2.0000      -0.898539       -24.4505
  16   2.0000      -0.794641       -21.6233
  17   2.0000      -0.746972       -20.3261
  18   2.0000      -0.696052       -18.9405
  19   2.0000      -0.675819       -18.3900
  20   2.0000      -0.652225       -17.7479
  21   2.0000      -0.629082       -17.1182
  22   2.0000      -0.608362       -16.5544
  23   2.0000      -0.597535       -16.2598
  24   2.0000      -0.578434       -15.7400
  25   2.0000      -0.561407       -15.2767
  26   2.0000      -0.548360       -14.9216
  27   2.0000      -0.537631       -14.6297
  28   2.0000      -0.529298       -14.4029
  29   2.0000      -0.506659       -13.7869
  30   2.0000      -0.477010       -12.9801
  31   2.0000      -0.468465       -12.7476
  32   2.0000      -0.452314       -12.3081
  33   2.0000      -0.449050       -12.2193
  34   2.0000      -0.436653       -11.8819
  35   2.0000      -0.403355       -10.9758
  36   0.0000       0.125826         3.4239
  37   0.0000       0.140242         3.8162
  38   0.0000       0.166539         4.5318
  39   0.0000       0.169137         4.6024
  40   0.0000       0.182584         4.9684

MULLIKEN ATOMIC CHARGES
-----------------------
   0 C :   -0.480880
   1 C :    0.094758
   2 C :   -0.419490
   3 C :   -0.025968
   4 O :   -0.327629
   5 C :   -0.026250
   6 C :   -0.059518
   7 C :   -0.136933
   8 O :   -0.465315
   9 H :    0.157634
  10 H :    0.133318
  11 H :    0.132208
  12 H :    0.135008
  13 H :    0.134555
  14 H :    0.130524
  15 H :    0.086187
  16 H :    0.109074
  17 H :    0.102400
  18 H :    0.099307
  19 H :    0.096397
  20 H :    0.113338
  21 H :    0.101579
  22 H :    0.315695
Sum of atomic charges:   -0.0000000

LOEWDIN ATOMIC CHARGES
----------------------
   0 C :   -0.267294
   1 C :   -0.303464
   2 C :   -0.270559
   3 C :   -0.274342
   4 O :    0.143275
   5 C :   -0.267545
   6 C :   -0.220589
   7 C :   -0.330105
   8 O :   -0.043665
   9 H :    0.132512
  10 H :    0.126849
  11 H :    0.123791
  12 H :    0.127421
  13 H :    0.126336
  14 H :    0.125440
  15 H :    0.122493
  16 H :    0.129529
  17 H :    0.123287
  18 H :    0.126399
  19 H :    0.160686
  20 H :    0.119773
  21 H :    0.117656
  22 H :    0.172117

  Mayer bond orders larger than 0.1
B(  0-C ,  1-C ) :   0.8767 B(  0-C ,  9-H ) :   0.9365 B(  0-C , 10-H ) :   0.9350
B(  0-C , 11-H ) :   0.9362 B(  1-C ,  2-C ) :   0.9100 B(  1-C ,  3-C ) :   0.9174
B(  1-C ,  6-C ) :   0.8779 B(  2-C , 12-H ) :   0.9390 B(  2-C , 13-H ) :   0.9315
B(  2-C , 14-H ) :   0.9344 B(  3-C ,  4-O ) :   0.9454 B(  3-C , 15-H ) :   0.9207
B(  3-C , 16-H ) :   0.9184 B(  4-O ,  5-C ) :   0.9296 B(  5-C ,  6-C ) :   0.9540
B(  5-C , 17-H ) :   0.9221 B(  5-C , 18-H ) :   0.9167 B(  6-C ,  7-C ) :   0.9104
B(  6-C ,  8-O ) :  -0.1026 B(  6-C , 19-H ) :   0.9171 B(  7-C ,  8-O ) :   1.0276
B(  7-C , 20-H ) :   0.9250 B(  7-C , 21-H ) :   0.9360 B(  8-O , 22-H ) :   0.8484

MP2 TOTAL ENERGY:     -424.734674526 Eh
FINAL SINGLE POINT ENERGY      -424.734674526140

DIPOLE MOMENT
-------------
                                X             Y             Z
Electronic contribution:      5.17302      -2.86106       0.92970
Nuclear contribution   :     -5.82073       3.49307      -0.38727
                        -----------------------------------------
Total Dipole Moment    :     -0.64771       0.63201       0.54243
                        -----------------------------------------
Magnitude (a.u.)       :      1.05508
Magnitude (Debye)      :      2.68180

                             ****ORCA TERMINATED NORMALLY****
TOTAL RUN TIME: 0 days 0 hours 21 minutes 38 seconds 41 msec
