                         Program Version 3.0.3 - RELEASE   -
|  1> ! RI-MP2 RIJK def2-TZVP def2-TZVP/C def2-TZVP/JK TIGHTSCF
|  2> % maxcore 2000
|  3> % mp2 density relaxed end
|  4> *xyz 0 1
|  5>  N        0.0713823592     1.2087691877     0.6161380734
|  6>  C       -0.0811267892     0.0577601397    -0.2975642520
|  7>  C       -1.4357849440    -0.5440409179    -0.1172738961
|  8>  C       -2.1517436489    -0.7244800249     1.0549465041
|  9>  N       -1.7990262767    -0.4243503663     2.3321958732
| 10>  O       -3.3034978292    -1.3019085313     0.7952719370
| 11>  N       -3.3046340865    -1.5063665990    -0.7075281739
| 12>  N       -2.2192329637    -1.0448233749    -1.1114543987
| 13>  H        1.0331952490     1.5336305343     0.6053528197
| 14>  H       -0.5014340794     1.9810977175     0.2869423549
| 15>  H        0.0577694331     0.3003666965    -1.3607424037
| 16>  H        0.7061869059    -0.6610353920    -0.0325855363
| 17>  H       -1.0767253223     0.2872727366     2.3775438992
| 18>  H       -2.5492747773    -0.3526105859     3.0018195693
| 19> *
| 20>
| 21>                          ****END OF INPUT****

CARTESIAN COORDINATES (ANGSTROEM)
---------------------------------
  N      0.071382    1.208769    0.616138
  C     -0.081127    0.057760   -0.297564
  C     -1.435785   -0.544041   -0.117274
  C     -2.151744   -0.724480    1.054947
  N     -1.799026   -0.424350    2.332196
  O     -3.303498   -1.301909    0.795272
  N     -3.304634   -1.506367   -0.707528
  N     -2.219233   -1.044823   -1.111454
  H      1.033195    1.533631    0.605353
  H     -0.501434    1.981098    0.286942
  H      0.057769    0.300367   -1.360742
  H      0.706187   -0.661035   -0.032586
  H     -1.076725    0.287273    2.377544
  H     -2.549275   -0.352611    3.001820

 Total Charge           Charge          ....    0
 Multiplicity           Mult            ....    1
 Number of Electrons    NEL             ....   60
 Basis Dimension        Dim             ....  284

ORBITAL ENERGIES
----------------

  NO   OCC          E(Eh)            E(eV)
   0   2.0000     -20.630391      -561.3815
   1   2.0000     -15.665110      -426.2693
   2   2.0000     -15.634550      -425.4377
   3   2.0000     -15.592599      -424.2962
   4   2.0000     -15.567245      -423.6063
   5   2.0000     -11.359401      -309.1050
   6   2.0000     -11.276874      -306.8593
   7   2.0000     -11.247617      -306.0632
   8   2.0000      -1.495531       -40.6955
   9   2.0000      -1.322210       -35.9792
  10   2.0000      -1.238461       -33.7002
  11   2.0000      -1.198511       -32.6132
  12   2.0000      -1.070219       -29.1221
  13   2.0000      -0.923657       -25.1340
  14   2.0000      -0.863347       -23.4929
  15   2.0000      -0.818442       -22.2709
  16   2.0000      -0.727156       -19.7869
  17   2.0000      -0.700149       -19.0520
  18   2.0000      -0.690569       -18.7913
  19   2.0000      -0.663794       -18.0628
  20   2.0000      -0.646302       -17.5868
  21   2.0000      -0.606291       -16.4980
  22   2.0000      -0.566961       -15.4278
  23   2.0000      -0.565043       -15.3756
  24   2.0000      -0.530821       -14.4444
  25   2.0000      -0.521273       -14.1846
  26   2.0000      -0.472298       -12.8519
  27   2.0000      -0.455297       -12.3893
  28   2.0000      -0.425102       -11.5676
  29   2.0000      -0.322464        -8.7747
  30   0.0000       0.114093         3.1046
  31   0.0000       0.127439         3.4678
  32   0.0000       0.148771         4.0483
  33   0.0000       0.172216         4.6862
  34   0.0000       0.181027         4.9260

MULLIKEN ATOMIC CHARGES
-----------------------
   0 N :   -0.593195
   1 C :   -0.140276
   2 C :   -0.054071
   3 C :    0.260185
   4 N :   -0.496622
   5 O :   -0.150290
   6 N :   -0.041589
   7 N :   -0.102785
   8 H :    0.241655
   9 H :    0.244831
  10 H :    0.141855
  11 H :    0.134459
  12 H :    0.291540
  13 H :    0.264302
Sum of atomic charges:    0.0000000

LOEWDIN ATOMIC CHARGES
----------------------
   0 N :   -0.182175
   1 C :   -0.296297
   2 C :   -0.299086
   3 C :   -0.400644
   4 N :   -0.030424
   5 O :    0.238364
   6 N :   -0.010298
   7 N :    0.037648
   8 H :    0.154325
   9 H :    0.157805
  10 H :    0.133751
  11 H :    0.139933
  12 H :    0.179985
  13 H :    0.177113

  Mayer bond orders larger than 0.1
B(  0-N ,  1-C ) :   0.9230 B(  0-N ,  8-H ) :   0.8875 B(  0-N ,  9-H ) :   0.8821
B(  1-C ,  2-C ) :   0.9054 B(  1-C , 10-H ) :   0.9510 B(  1-C , 11-H ) :   0.9230
B(  2-C ,  3-C ) :   1.3805 B(  2-C ,  6-N ) :   0.1186 B(  2-C ,  7-N ) :   1.3078
B(  3-C ,  4-N ) :   1.1498 B(  3-C ,  5-O ) :   1.2441 B(  4-N , 12-H ) :   0.8370
B(  4-N , 13-H ) :   0.8639 B(  5-O ,  6-N ) :   0.7458 B(  6-N ,  7-N ) :   1.4682

MP2 TOTAL ENERGY:     -411.352720846 Eh
FINAL SINGLE POINT ENERGY      -411.352720845696

DIPOLE MOMENT
-------------
                                X             Y             Z
Electronic contribution:     -6.50031      -4.39310      -1.60927
Nuclear contribution   :      7.69731       5.69931       2.55156
                        -----------------------------------------
Total Dipole Moment    :      1.19701       1.30621       0.94229
                        -----------------------------------------
Magnitude (a.u.)       :      2.00672
Magnitude (Debye)      :      5.10068

                             ****ORCA TERMINATED NORMALLY****
TOTAL RUN TIME: 0 days 0 hours 10 minutes 58 seconds 971 msec
