                         Program Version 3.0.3 - RELEASE   -
|  1> ! RI-MP2 RIJK def2-TZVP def2-TZVP/C def2-TZVP/JK TIGHTSCF
|  2> % maxcore 2000
|  3> % mp2 density relaxed end
|  4> *xyz 0 1
|  5>  C        0.0754262116     1.6104443035     0.0340915118
|  6>  C       -0.0119653680     0.0762776148     0.0106539528
|  7>  C        0.6427427020    -0.4724801872    -1.2759921141
|  8>  C        0.1340217475    -1.8342744609    -1.7871267412
|  9>  C       -0.1582745727    -2.9122486169    -0.7252885506
| 10>  C        0.8034836790    -2.9537282075     0.4731852549
| 11>  C        0.4245914695    -1.9712797268     1.5917666405
| 12>  O        1.1894476880    -2.2174402798     2.7708094282
| 13>  C        0.6489736390    -0.4905149974     1.2805912344
| 14>  H        1.1206951919     1.9419914795     0.0134230459
| 15>  H       -0.4281495787     2.0487286861    -0.8337859675
| 16>  H       -0.3850739527     2.0242844528     0.9370298089
| 17>  H       -1.0782362696    -0.1939069897     0.0114054427
| 18>  H        0.5090997685     0.2539751291    -2.0864925220
| 19>  H        1.7265183522    -0.5225637574    -1.1070033202
| 20>  H       -0.7820520790    -1.6797129486    -2.3707491509
| 21>  H        0.8744144094    -2.2218786512    -2.4978446069
| 22>  H       -1.1771400890    -2.7796561717    -0.3380868821
| 23>  H       -0.1626191599    -3.8877789526    -1.2239199853
| 24>  H        0.7789382095    -3.9626408110     0.9081003790
| 25>  H        1.8416470461    -2.7813736069     0.1630693766
| 26>  H       -0.6489284804    -2.1198789607     1.8082053047
| 27>  H        1.0664397625    -3.1402238187     3.0150306462
| 28>  H        1.7331213682    -0.3224300273     1.2217921235
| 29>  H        0.3027723452     0.0708619564     2.1560409206
| 30> *
| 31>
| 32>                          ****END OF INPUT****

CARTESIAN COORDINATES (ANGSTROEM)
---------------------------------
  C      0.075426    1.610444    0.034092
  C     -0.011965    0.076278    0.010654
  C      0.642743   -0.472480   -1.275992
  C      0.134022   -1.834274   -1.787127
  C     -0.158275   -2.912249   -0.725289
  C      0.803484   -2.953728    0.473185
  C      0.424591   -1.971280    1.591767
  O      1.189448   -2.217440    2.770809
  C      0.648974   -0.490515    1.280591
  H      1.120695    1.941991    0.013423
  H     -0.428150    2.048729   -0.833786
  H     -0.385074    2.024284    0.937030
  H     -1.078236   -0.193907    0.011405
  H      0.509100    0.253975   -2.086493
  H      1.726518   -0.522564   -1.107003
  H     -0.782052   -1.679713   -2.370749
  H      0.874414   -2.221879   -2.497845
  H     -1.177140   -2.779656   -0.338087
  H     -0.162619   -3.887779   -1.223920
  H      0.778938   -3.962641    0.908100
  H      1.841647   -2.781374    0.163069
  H     -0.648928   -2.119879    1.808205
  H      1.066440   -3.140224    3.015031
  H      1.733121   -0.322430    1.221792
  H      0.302772    0.070862    2.156041

 Total Charge           Charge          ....    0
 Multiplicity           Mult            ....    1
 Number of Electrons    NEL             ....   72
 Basis Dimension        Dim             ....  375

ORBITAL ENERGIES
----------------

  NO   OCC          E(Eh)            E(eV)
   0   2.0000     -20.547476      -559.1253
   1   2.0000     -11.273177      -306.7587
   2   2.0000     -11.224101      -305.4233
   3   2.0000     -11.220527      -305.3261
   4   2.0000     -11.219112      -305.2876
   5   2.0000     -11.217711      -305.2494
   6   2.0000     -11.214070      -305.1504
   7   2.0000     -11.209532      -305.0269
   8   2.0000     -11.209250      -305.0192
   9   2.0000      -1.353793       -36.8386
  10   2.0000      -1.107901       -30.1475
  11   2.0000      -1.046676       -28.4815
  12   2.0000      -1.013842       -27.5881
  13   2.0000      -0.939238       -25.5580
  14   2.0000      -0.885105       -24.0849
  15   2.0000      -0.838260       -22.8102
  16   2.0000      -0.769941       -20.9512
  17   2.0000      -0.751752       -20.4562
  18   2.0000      -0.684356       -18.6223
  19   2.0000      -0.642490       -17.4830
  20   2.0000      -0.623991       -16.9797
  21   2.0000      -0.621489       -16.9116
  22   2.0000      -0.584068       -15.8933
  23   2.0000      -0.572323       -15.5737
  24   2.0000      -0.555186       -15.1074
  25   2.0000      -0.542445       -14.7607
  26   2.0000      -0.538021       -14.6403
  27   2.0000      -0.517836       -14.0910
  28   2.0000      -0.511230       -13.9113
  29   2.0000      -0.487900       -13.2764
  30   2.0000      -0.468701       -12.7540
  31   2.0000      -0.449679       -12.2364
  32   2.0000      -0.444969       -12.1082
  33   2.0000      -0.442443       -12.0395
  34   2.0000      -0.436068       -11.8660
  35   2.0000      -0.425835       -11.5876
  36   0.0000       0.131753         3.5852
  37   0.0000       0.147339         4.0093
  38   0.0000       0.150424         4.0933
  39   0.0000       0.155085         4.2201
  40   0.0000       0.181774         4.9463

MULLIKEN ATOMIC CHARGES
-----------------------
   0 C :   -0.388504
   1 C :   -0.022308
   2 C :   -0.241242
   3 C :   -0.257338
   4 C :   -0.234469
   5 C :   -0.217455
   6 C :    0.063723
   7 O :   -0.457758
   8 C :   -0.251981
   9 H :    0.124107
  10 H :    0.129883
  11 H :    0.130293
  12 H :    0.082468
  13 H :    0.122784
  14 H :    0.110226
  15 H :    0.114263
  16 H :    0.116581
  17 H :    0.108500
  18 H :    0.125809
  19 H :    0.104164
  20 H :    0.115893
  21 H :    0.077925
  22 H :    0.307325
  23 H :    0.115327
  24 H :    0.121784
Sum of atomic charges:    0.0000000

LOEWDIN ATOMIC CHARGES
----------------------
   0 C :   -0.295516
   1 C :   -0.274299
   2 C :   -0.247160
   3 C :   -0.271490
   4 C :   -0.269322
   5 C :   -0.254604
   6 C :   -0.351480
   7 O :   -0.023271
   8 C :   -0.227456
   9 H :    0.124804
  10 H :    0.120767
  11 H :    0.121476
  12 H :    0.150802
  13 H :    0.140330
  14 H :    0.138856
  15 H :    0.136850
  16 H :    0.137272
  17 H :    0.136673
  18 H :    0.137621
  19 H :    0.134952
  20 H :    0.141400
  21 H :    0.132724
  22 H :    0.169068
  23 H :    0.145427
  24 H :    0.145575

  Mayer bond orders larger than 0.1
B(  0-C ,  1-C ) :   0.9032 B(  0-C ,  9-H ) :   0.9328 B(  0-C , 10-H ) :   0.9436
B(  0-C , 11-H ) :   0.9434 B(  1-C ,  2-C ) :   0.8969 B(  1-C ,  8-C ) :   0.9085
B(  1-C , 12-H ) :   0.9288 B(  2-C ,  3-C ) :   0.9253 B(  2-C , 13-H ) :   0.9344
B(  2-C , 14-H ) :   0.9241 B(  3-C ,  4-C ) :   0.9298 B(  3-C , 15-H ) :   0.9387
B(  3-C , 16-H ) :   0.9383 B(  4-C ,  5-C ) :   0.8943 B(  4-C , 17-H ) :   0.9332
B(  4-C , 18-H ) :   0.9284 B(  5-C ,  6-C ) :   0.9081 B(  5-C , 19-H ) :   0.9333
B(  5-C , 20-H ) :   0.9225 B(  6-C ,  7-O ) :   1.0053 B(  6-C ,  8-C ) :   0.9297
B(  6-C , 21-H ) :   0.9495 B(  7-O , 22-H ) :   0.8484 B(  8-C , 23-H ) :   0.9181
B(  8-C , 24-H ) :   0.9326

MP2 TOTAL ENERGY:     -388.842721114 Eh
FINAL SINGLE POINT ENERGY      -388.842721113504

DIPOLE MOMENT
-------------
                                X             Y             Z
Electronic contribution:      1.11438      -2.97811       4.40558
Nuclear contribution   :     -1.47530       2.55546      -4.77724
                        -----------------------------------------
Total Dipole Moment    :     -0.36092      -0.42265      -0.37166
                        -----------------------------------------
Magnitude (a.u.)       :      0.66860
Magnitude (Debye)      :      1.69945

                             ****ORCA TERMINATED NORMALLY****
TOTAL RUN TIME: 0 days 0 hours 22 minutes 11 seconds 768 msec
