                         Program Version 3.0.3 - RELEASE   -
|  1> ! RI-MP2 RIJK def2-TZVP def2-TZVP/C def2-TZVP/JK TIGHTSCF
|  2> % maxcore 2000
|  3> % mp2 density relaxed end
|  4> *xyz 0 1
|  5>  N        0.0421443110     1.3525385098     0.1289857062
|  6>  C       -0.0249222370    -0.0272346255     0.0248232763
|  7>  N       -1.1113744121    -0.7513420416     0.0501081852
|  8>  C       -0.6289170401    -2.0519224305     0.0495603211
|  9>  C        0.7487189522    -2.0742684871     0.0146799398
| 10>  N        1.0850436719    -3.3706570538    -0.0698716855
| 11>  N       -0.0767781390    -4.1307000322    -0.0429715139
| 12>  N       -1.0985356225    -3.3239351476     0.0128488206
| 13>  N        1.1719765140    -0.7661128765    -0.0455274904
| 14>  H        0.6137976334     1.7953995900    -0.5804657718
| 15>  H       -0.8899291966     1.7472148024     0.1327171664
| 16>  H        1.9719088885    -3.8440623865    -0.0660095892
| 17>  H        2.0744004563    -0.3984832207     0.2051910252
| 18> *
| 19>
| 20>                          ****END OF INPUT****

CARTESIAN COORDINATES (ANGSTROEM)
---------------------------------
  N      0.042144    1.352539    0.128986
  C     -0.024922   -0.027235    0.024823
  N     -1.111374   -0.751342    0.050108
  C     -0.628917   -2.051922    0.049560
  C      0.748719   -2.074268    0.014680
  N      1.085044   -3.370657   -0.069872
  N     -0.076778   -4.130700   -0.042972
  N     -1.098536   -3.323935    0.012849
  N      1.171977   -0.766113   -0.045527
  H      0.613798    1.795400   -0.580466
  H     -0.889929    1.747215    0.132717
  H      1.971909   -3.844062   -0.066010
  H      2.074400   -0.398483    0.205191

 Total Charge           Charge          ....    0
 Multiplicity           Mult            ....    1
 Number of Electrons    NEL             ....   64
 Basis Dimension        Dim             ....  303

ORBITAL ENERGIES
----------------

  NO   OCC          E(Eh)            E(eV)
   0   2.0000     -15.656534      -426.0359
   1   2.0000     -15.640506      -425.5998
   2   2.0000     -15.632439      -425.3803
   3   2.0000     -15.597799      -424.4377
   4   2.0000     -15.596673      -424.4070
   5   2.0000     -15.555862      -423.2965
   6   2.0000     -11.363078      -309.2051
   7   2.0000     -11.312964      -307.8414
   8   2.0000     -11.263520      -306.4960
   9   2.0000      -1.427200       -38.8361
  10   2.0000      -1.357514       -36.9398
  11   2.0000      -1.232996       -33.5515
  12   2.0000      -1.214094       -33.0372
  13   2.0000      -1.172335       -31.9009
  14   2.0000      -1.038053       -28.2469
  15   2.0000      -0.885387       -24.0926
  16   2.0000      -0.844709       -22.9857
  17   2.0000      -0.821513       -22.3545
  18   2.0000      -0.797090       -21.6899
  19   2.0000      -0.725971       -19.7547
  20   2.0000      -0.678551       -18.4643
  21   2.0000      -0.667561       -18.1653
  22   2.0000      -0.648105       -17.6358
  23   2.0000      -0.622773       -16.9465
  24   2.0000      -0.585926       -15.9439
  25   2.0000      -0.520579       -14.1657
  26   2.0000      -0.490641       -13.3510
  27   2.0000      -0.463475       -12.6118
  28   2.0000      -0.457968       -12.4620
  29   2.0000      -0.427481       -11.6324
  30   2.0000      -0.385015       -10.4768
  31   2.0000      -0.299406        -8.1472
  32   0.0000       0.101513         2.7623
  33   0.0000       0.124503         3.3879
  34   0.0000       0.142647         3.8816
  35   0.0000       0.146382         3.9833
  36   0.0000       0.178960         4.8698

MULLIKEN ATOMIC CHARGES
-----------------------
   0 N :   -0.523892
   1 C :    0.324273
   2 N :   -0.305632
   3 C :    0.085937
   4 C :    0.090491
   5 N :   -0.129078
   6 N :   -0.103965
   7 N :   -0.156726
   8 N :   -0.341610
   9 H :    0.258548
  10 H :    0.275887
  11 H :    0.264316
  12 H :    0.261451
Sum of atomic charges:    0.0000000

LOEWDIN ATOMIC CHARGES
----------------------
   0 N :   -0.075098
   1 C :   -0.395924
   2 N :    0.120377
   3 C :   -0.341441
   4 C :   -0.318655
   5 N :    0.124568
   6 N :   -0.045347
   7 N :    0.026116
   8 N :    0.169085
   9 H :    0.172377
  10 H :    0.184660
  11 H :    0.186575
  12 H :    0.192706

  Mayer bond orders larger than 0.1
B(  0-N ,  1-C ) :   1.0533 B(  0-N ,  9-H ) :   0.8677 B(  0-N , 10-H ) :   0.8681
B(  1-C ,  2-N ) :   1.6201 B(  1-C ,  8-N ) :   1.0671 B(  2-N ,  3-C ) :   1.2121
B(  3-C ,  4-C ) :   1.2872 B(  3-C ,  7-N ) :   1.3911 B(  4-C ,  5-N ) :   1.1869
B(  4-C ,  6-N ) :   0.1193 B(  4-C ,  8-N ) :   1.0993 B(  5-N ,  6-N ) :   0.9700
B(  5-N , 11-H ) :   0.8574 B(  6-N ,  7-N ) :   1.2861 B(  8-N , 12-H ) :   0.8534

MP2 TOTAL ENERGY:     -444.373087150 Eh
FINAL SINGLE POINT ENERGY      -444.373087149511

DIPOLE MOMENT
-------------
                                X             Y             Z
Electronic contribution:     -0.83744      -3.88013       0.03571
Nuclear contribution   :      3.38114       5.52185      -0.32679
                        -----------------------------------------
Total Dipole Moment    :      2.54370       1.64171      -0.29109
                        -----------------------------------------
Magnitude (a.u.)       :      3.04145
Magnitude (Debye)      :      7.73074

                             ****ORCA TERMINATED NORMALLY****
TOTAL RUN TIME: 0 days 0 hours 15 minutes 19 seconds 353 msec
