                         Program Version 3.0.3 - RELEASE   -
|  1> ! RI-MP2 RIJK def2-TZVP def2-TZVP/C def2-TZVP/JK TIGHTSCF
|  2> % maxcore 2000
|  3> % mp2 density relaxed end
|  4> *xyz 0 1
|  5>  C       -0.0452101575     1.5350351188     0.0593966444
|  6>  C        0.0253113327     0.0171826781     0.0023751057
|  7>  C        0.7111190962    -0.4997653989    -1.2728965582
|  8>  C        0.9187073021    -2.0025089148    -1.2513748393
|  9>  O        0.9354458447    -2.6955801515    -2.2351708379
| 10>  C        1.1015602312    -2.6551812553     0.1550967422
| 11>  O        1.5100254069    -3.7812683154     0.2637218494
| 12>  C        0.6745193218    -1.8125814933     1.3551386131
| 13>  O        0.7672521389    -0.4223594201     1.1366447495
| 14>  H        0.9618949564     1.9623702642     0.0360198599
| 15>  H       -0.6094307728     1.9259937230    -0.7920435417
| 16>  H       -0.5350149501     1.8570702506     0.9816043460
| 17>  H       -0.9962325077    -0.3979022362     0.0592800505
| 18>  H        0.1706044129    -0.2278489537    -2.1844308003
| 19>  H        1.7077396656    -0.0383635871    -1.3270265701
| 20>  H       -0.3611078745    -2.1089171708     1.6060944893
| 21>  H        1.3068840032    -2.0619575575     2.2107773976
| 22> *
| 23>
| 24>                          ****END OF INPUT****

CARTESIAN COORDINATES (ANGSTROEM)
---------------------------------
  C     -0.045210    1.535035    0.059397
  C      0.025311    0.017183    0.002375
  C      0.711119   -0.499765   -1.272897
  C      0.918707   -2.002509   -1.251375
  O      0.935446   -2.695580   -2.235171
  C      1.101560   -2.655181    0.155097
  O      1.510025   -3.781268    0.263722
  C      0.674519   -1.812581    1.355139
  O      0.767252   -0.422359    1.136645
  H      0.961895    1.962370    0.036020
  H     -0.609431    1.925994   -0.792044
  H     -0.535015    1.857070    0.981604
  H     -0.996233   -0.397902    0.059280
  H      0.170604   -0.227849   -2.184431
  H      1.707740   -0.038364   -1.327027
  H     -0.361108   -2.108917    1.606094
  H      1.306884   -2.061958    2.210777

 Total Charge           Charge          ....    0
 Multiplicity           Mult            ....    1
 Number of Electrons    NEL             ....   68
 Basis Dimension        Dim             ....  327

ORBITAL ENERGIES
----------------

  NO   OCC          E(Eh)            E(eV)
   0   2.0000     -20.589191      -560.2604
   1   2.0000     -20.580138      -560.0140
   2   2.0000     -20.577460      -559.9412
   3   2.0000     -11.354245      -308.9647
   4   2.0000     -11.353328      -308.9398
   5   2.0000     -11.315773      -307.9178
   6   2.0000     -11.311608      -307.8045
   7   2.0000     -11.259766      -306.3938
   8   2.0000     -11.238715      -305.8210
   9   2.0000      -1.434524       -39.0354
  10   2.0000      -1.411782       -38.4166
  11   2.0000      -1.402190       -38.1555
  12   2.0000      -1.095801       -29.8183
  13   2.0000      -1.040226       -28.3060
  14   2.0000      -0.969942       -26.3935
  15   2.0000      -0.878638       -23.9090
  16   2.0000      -0.844116       -22.9696
  17   2.0000      -0.748789       -20.3756
  18   2.0000      -0.709127       -19.2963
  19   2.0000      -0.692530       -18.8447
  20   2.0000      -0.675744       -18.3879
  21   2.0000      -0.668960       -18.2033
  22   2.0000      -0.637294       -17.3416
  23   2.0000      -0.617715       -16.8089
  24   2.0000      -0.605357       -16.4726
  25   2.0000      -0.570360       -15.5203
  26   2.0000      -0.560192       -15.2436
  27   2.0000      -0.551864       -15.0170
  28   2.0000      -0.537003       -14.6126
  29   2.0000      -0.514945       -14.0124
  30   2.0000      -0.510792       -13.8994
  31   2.0000      -0.485151       -13.2016
  32   2.0000      -0.451672       -12.2906
  33   2.0000      -0.404406       -11.0044
  34   0.0000       0.057303         1.5593
  35   0.0000       0.122806         3.3417
  36   0.0000       0.141863         3.8603
  37   0.0000       0.162817         4.4305
  38   0.0000       0.172546         4.6952

MULLIKEN ATOMIC CHARGES
-----------------------
   0 C :   -0.369990
   1 C :    0.038917
   2 C :   -0.192319
   3 C :    0.154621
   4 O :   -0.227083
   5 C :    0.131130
   6 O :   -0.230088
   7 C :   -0.076325
   8 O :   -0.295320
   9 H :    0.135837
  10 H :    0.131891
  11 H :    0.145556
  12 H :    0.092286
  13 H :    0.138547
  14 H :    0.139898
  15 H :    0.124980
  16 H :    0.157461
Sum of atomic charges:   -0.0000000

LOEWDIN ATOMIC CHARGES
----------------------
   0 C :   -0.284546
   1 C :   -0.341930
   2 C :   -0.213366
   3 C :   -0.292855
   4 O :    0.197904
   5 C :   -0.290875
   6 O :    0.200523
   7 C :   -0.291820
   8 O :    0.184120
   9 H :    0.129808
  10 H :    0.129991
  11 H :    0.129878
  12 H :    0.139606
  13 H :    0.153990
  14 H :    0.164513
  15 H :    0.138679
  16 H :    0.146381

  Mayer bond orders larger than 0.1
B(  0-C ,  1-C ) :   0.9186 B(  0-C ,  9-H ) :   0.9341 B(  0-C , 10-H ) :   0.9315
B(  0-C , 11-H ) :   0.9379 B(  1-C ,  2-C ) :   0.8894 B(  1-C ,  8-O ) :   0.8947
B(  1-C , 12-H ) :   0.9292 B(  2-C ,  3-C ) :   0.8869 B(  2-C , 13-H ) :   0.9022
B(  2-C , 14-H ) :   0.8889 B(  3-C ,  4-O ) :   2.0138 B(  3-C ,  5-C ) :   0.8731
B(  5-C ,  6-O ) :   1.9925 B(  5-C ,  7-C ) :   0.8582 B(  7-C ,  8-O ) :   0.9416
B(  7-C , 15-H ) :   0.9223 B(  7-C , 16-H ) :   0.9143

MP2 TOTAL ENERGY:     -458.248122011 Eh
FINAL SINGLE POINT ENERGY      -458.248122011338

DIPOLE MOMENT
-------------
                                X             Y             Z
Electronic contribution:      3.27300      -9.65063      -1.54468
Nuclear contribution   :     -3.93173      11.03652       1.96732
                        -----------------------------------------
Total Dipole Moment    :     -0.65873       1.38589       0.42264
                        -----------------------------------------
Magnitude (a.u.)       :      1.59162
Magnitude (Debye)      :      4.04557

                             ****ORCA TERMINATED NORMALLY****
TOTAL RUN TIME: 0 days 0 hours 17 minutes 48 seconds 768 msec
