                         Program Version 3.0.3 - RELEASE   -
|  1> ! RI-MP2 RIJK def2-TZVP def2-TZVP/C def2-TZVP/JK TIGHTSCF
|  2> % maxcore 2000
|  3> % mp2 density relaxed end
|  4> *xyz 0 1
|  5>  O        0.1578114168     1.3851761041     0.0062970684
|  6>  C        0.0171606215    -0.0146478213     0.1668582624
|  7>  C       -1.4017764570    -0.4923274945     0.1611338521
|  8>  C       -2.5129897408     0.2505678362     0.1349284000
|  9>  C       -3.7189349394    -0.6229145982     0.0090564450
| 10>  O       -3.7278601113    -1.4173736683    -1.2144054442
| 11>  C       -3.2509719668    -2.0099988389     0.0014789320
| 12>  C       -1.7199102205    -1.9893385831     0.0662087773
| 13>  O       -1.1228470402    -2.5975168047    -1.0690340552
| 14>  H       -0.1851258287     1.6109023667    -0.8648543976
| 15>  H        0.5794563704    -0.5798714583    -0.5932585256
| 16>  H        0.4847659705    -0.2537794739     1.1316316084
| 17>  H       -2.5493974096     1.3320255192     0.1655382963
| 18>  H       -4.7012632832    -0.3213239004     0.3570996742
| 19>  H       -3.8199219428    -2.8578412770     0.3710048636
| 20>  H       -1.3457066170    -2.5418194114     0.9361507638
| 21>  H       -1.6216267918    -2.2626028262    -1.8270181710
| 22> *
| 23>
| 24>                          ****END OF INPUT****

CARTESIAN COORDINATES (ANGSTROEM)
---------------------------------
  O      0.157811    1.385176    0.006297
  C      0.017161   -0.014648    0.166858
  C     -1.401776   -0.492327    0.161134
  C     -2.512990    0.250568    0.134928
  C     -3.718935   -0.622915    0.009056
  O     -3.727860   -1.417374   -1.214405
  C     -3.250972   -2.009999    0.001479
  C     -1.719910   -1.989339    0.066209
  O     -1.122847   -2.597517   -1.069034
  H     -0.185126    1.610902   -0.864854
  H      0.579456   -0.579871   -0.593259
  H      0.484766   -0.253779    1.131632
  H     -2.549397    1.332026    0.165538
  H     -4.701263   -0.321324    0.357100
  H     -3.819922   -2.857841    0.371005
  H     -1.345707   -2.541819    0.936151
  H     -1.621627   -2.262603   -1.827018

 Total Charge           Charge          ....    0
 Multiplicity           Mult            ....    1
 Number of Electrons    NEL             ....   68
 Basis Dimension        Dim             ....  327

ORBITAL ENERGIES
----------------

  NO   OCC          E(Eh)            E(eV)
   0   2.0000     -20.578994      -559.9829
   1   2.0000     -20.565682      -559.6206
   2   2.0000     -20.564892      -559.5992
   3   2.0000     -11.302672      -307.5614
   4   2.0000     -11.301362      -307.5257
   5   2.0000     -11.293915      -307.3230
   6   2.0000     -11.288893      -307.1864
   7   2.0000     -11.250249      -306.1348
   8   2.0000     -11.240491      -305.8693
   9   2.0000      -1.422985       -38.7214
  10   2.0000      -1.371101       -37.3095
  11   2.0000      -1.367850       -37.2211
  12   2.0000      -1.120721       -30.4964
  13   2.0000      -0.979337       -26.6491
  14   2.0000      -0.969357       -26.3775
  15   2.0000      -0.889331       -24.1999
  16   2.0000      -0.817709       -22.2510
  17   2.0000      -0.757299       -20.6072
  18   2.0000      -0.742644       -20.2084
  19   2.0000      -0.690445       -18.7880
  20   2.0000      -0.675460       -18.3802
  21   2.0000      -0.633900       -17.2493
  22   2.0000      -0.624124       -16.9833
  23   2.0000      -0.619667       -16.8620
  24   2.0000      -0.591969       -16.1083
  25   2.0000      -0.572221       -15.5709
  26   2.0000      -0.555599       -15.1186
  27   2.0000      -0.523803       -14.2534
  28   2.0000      -0.510388       -13.8884
  29   2.0000      -0.482672       -13.1342
  30   2.0000      -0.479538       -13.0489
  31   2.0000      -0.460523       -12.5315
  32   2.0000      -0.426025       -11.5927
  33   2.0000      -0.361485        -9.8365
  34   0.0000       0.120399         3.2762
  35   0.0000       0.138189         3.7603
  36   0.0000       0.157774         4.2933
  37   0.0000       0.163111         4.4385
  38   0.0000       0.170093         4.6285

MULLIKEN ATOMIC CHARGES
-----------------------
   0 O :   -0.471947
   1 C :   -0.054708
   2 C :   -0.070262
   3 C :   -0.240988
   4 C :    0.083640
   5 O :   -0.340353
   6 C :   -0.028761
   7 C :    0.139779
   8 O :   -0.464737
   9 H :    0.319144
  10 H :    0.145110
  11 H :    0.125612
  12 H :    0.146090
  13 H :    0.136756
  14 H :    0.138671
  15 H :    0.108606
  16 H :    0.328347
Sum of atomic charges:    0.0000000

LOEWDIN ATOMIC CHARGES
----------------------
   0 O :   -0.037079
   1 C :   -0.310467
   2 C :   -0.143485
   3 C :   -0.119288
   4 C :   -0.224818
   5 O :    0.149052
   6 C :   -0.234009
   7 C :   -0.273881
   8 O :   -0.011557
   9 H :    0.176618
  10 H :    0.133612
  11 H :    0.142340
  12 H :    0.143565
  13 H :    0.139300
  14 H :    0.136452
  15 H :    0.150398
  16 H :    0.183247

  Mayer bond orders larger than 0.1
B(  0-O ,  1-C ) :   0.9426 B(  0-O ,  9-H ) :   0.8430 B(  1-C ,  2-C ) :   0.8938
B(  1-C , 10-H ) :   0.9603 B(  1-C , 11-H ) :   0.9046 B(  2-C ,  3-C ) :   1.7273
B(  2-C ,  7-C ) :   0.9135 B(  3-C ,  4-C ) :   0.8955 B(  3-C , 12-H ) :   0.9320
B(  4-C ,  5-O ) :   0.8681 B(  4-C ,  6-C ) :   0.9714 B(  4-C , 13-H ) :   0.9338
B(  5-O ,  6-C ) :   0.9033 B(  6-C ,  7-C ) :   0.9244 B(  6-C , 14-H ) :   0.9196
B(  7-C ,  8-O ) :   0.9466 B(  7-C , 15-H ) :   0.9204 B(  8-O , 16-H ) :   0.8232

MP2 TOTAL ENERGY:     -458.204372467 Eh
FINAL SINGLE POINT ENERGY      -458.204372467401

DIPOLE MOMENT
-------------
                                X             Y             Z
Electronic contribution:     -2.16720      -0.63887      -1.18893
Nuclear contribution   :      1.69960       0.73080       1.44664
                        -----------------------------------------
Total Dipole Moment    :     -0.46760       0.09193       0.25771
                        -----------------------------------------
Magnitude (a.u.)       :      0.54177
Magnitude (Debye)      :      1.37707

                             ****ORCA TERMINATED NORMALLY****
TOTAL RUN TIME: 0 days 0 hours 15 minutes 41 seconds 782 msec
