                         Program Version 3.0.3 - RELEASE   -
|  1> ! RI-MP2 RIJK def2-TZVP def2-TZVP/C def2-TZVP/JK TIGHTSCF
|  2> % maxcore 2000
|  3> % mp2 density relaxed end
|  4> *xyz 0 1
|  5>  C       -0.0336931241     1.4912222123    -0.1711079182
|  6>  C        0.0496235675    -0.0218882186    -0.1213265207
|  7>  C        1.4427815951    -0.6668325758    -0.0042498592
|  8>  C        0.5485757145    -0.6806699418     1.1804599327
|  9>  O        0.7761559429     0.1660873591     2.2598395025
| 10>  C       -0.9310391273    -0.8786655093    -0.8377352257
| 11>  O       -0.8729365077    -2.0957663572    -0.8352512564
| 12>  C       -2.1032996626    -0.2925348264    -1.6439008304
| 13>  O       -2.2948404734     0.8671984590    -1.8923166024
| 14>  H        0.7122819770     1.9148399715     0.5036232797
| 15>  H        0.1453477230     1.8686393029    -1.1806439369
| 16>  H       -1.0139520112     1.8526713711     0.1457589826
| 17>  H        1.5937733175    -1.5971437879    -0.5395700151
| 18>  H        2.2727787108     0.0319198567    -0.0046868770
| 19>  H        0.0601735178    -1.6233306483     1.4213776432
| 20>  H        1.6496233268    -0.0269762250     2.6153549474
| 21>  H       -2.7608001667    -1.1109718823    -2.0079782062
| 22> *
| 23>
| 24>                          ****END OF INPUT****

CARTESIAN COORDINATES (ANGSTROEM)
---------------------------------
  C     -0.033693    1.491222   -0.171108
  C      0.049624   -0.021888   -0.121327
  C      1.442782   -0.666833   -0.004250
  C      0.548576   -0.680670    1.180460
  O      0.776156    0.166087    2.259840
  C     -0.931039   -0.878666   -0.837735
  O     -0.872937   -2.095766   -0.835251
  C     -2.103300   -0.292535   -1.643901
  O     -2.294840    0.867198   -1.892317
  H      0.712282    1.914840    0.503623
  H      0.145348    1.868639   -1.180644
  H     -1.013952    1.852671    0.145759
  H      1.593773   -1.597144   -0.539570
  H      2.272779    0.031920   -0.004687
  H      0.060174   -1.623331    1.421378
  H      1.649623   -0.026976    2.615355
  H     -2.760800   -1.110972   -2.007978

 Total Charge           Charge          ....    0
 Multiplicity           Mult            ....    1
 Number of Electrons    NEL             ....   68
 Basis Dimension        Dim             ....  327

ORBITAL ENERGIES
----------------

  NO   OCC          E(Eh)            E(eV)
   0   2.0000     -20.591187      -560.3147
   1   2.0000     -20.580355      -560.0199
   2   2.0000     -20.574710      -559.8663
   3   2.0000     -11.354712      -308.9774
   4   2.0000     -11.353953      -308.9568
   5   2.0000     -11.306998      -307.6791
   6   2.0000     -11.263018      -306.4823
   7   2.0000     -11.250421      -306.1395
   8   2.0000     -11.222543      -305.3809
   9   2.0000      -1.431066       -38.9413
  10   2.0000      -1.410900       -38.3925
  11   2.0000      -1.392547       -37.8931
  12   2.0000      -1.162056       -31.6211
  13   2.0000      -0.990670       -26.9575
  14   2.0000      -0.942724       -25.6528
  15   2.0000      -0.859414       -23.3859
  16   2.0000      -0.843072       -22.9412
  17   2.0000      -0.742492       -20.2042
  18   2.0000      -0.720238       -19.5987
  19   2.0000      -0.695819       -18.9342
  20   2.0000      -0.686806       -18.6889
  21   2.0000      -0.661491       -18.0001
  22   2.0000      -0.626874       -17.0581
  23   2.0000      -0.604621       -16.4526
  24   2.0000      -0.593737       -16.1564
  25   2.0000      -0.561164       -15.2700
  26   2.0000      -0.557260       -15.1638
  27   2.0000      -0.544748       -14.8234
  28   2.0000      -0.526461       -14.3257
  29   2.0000      -0.504162       -13.7190
  30   2.0000      -0.503652       -13.7051
  31   2.0000      -0.449486       -12.2311
  32   2.0000      -0.408399       -11.1131
  33   2.0000      -0.404784       -11.0147
  34   0.0000       0.053920         1.4672
  35   0.0000       0.130306         3.5458
  36   0.0000       0.159267         4.3339
  37   0.0000       0.171287         4.6610
  38   0.0000       0.182303         4.9607

MULLIKEN ATOMIC CHARGES
-----------------------
   0 C :   -0.358924
   1 C :    0.040373
   2 C :   -0.311231
   3 C :    0.027902
   4 O :   -0.466112
   5 C :    0.215899
   6 O :   -0.301528
   7 C :    0.073566
   8 O :   -0.238595
   9 H :    0.139720
  10 H :    0.139272
  11 H :    0.141218
  12 H :    0.153125
  13 H :    0.156050
  14 H :    0.140040
  15 H :    0.333703
  16 H :    0.115520
Sum of atomic charges:    0.0000000

LOEWDIN ATOMIC CHARGES
----------------------
   0 C :   -0.261508
   1 C :   -0.214562
   2 C :   -0.175590
   3 C :   -0.288686
   4 O :    0.012134
   5 C :   -0.290445
   6 O :    0.165157
   7 C :   -0.249649
   8 O :    0.167931
   9 H :    0.132042
  10 H :    0.130122
  11 H :    0.132817
  12 H :    0.144661
  13 H :    0.142841
  14 H :    0.143518
  15 H :    0.185658
  16 H :    0.123557

  Mayer bond orders larger than 0.1
B(  0-C ,  1-C ) :   0.9282 B(  0-C ,  9-H ) :   0.9182 B(  0-C , 10-H ) :   0.9335
B(  0-C , 11-H ) :   0.9298 B(  1-C ,  2-C ) :   0.7969 B(  1-C ,  3-C ) :   0.7668
B(  1-C ,  5-C ) :   0.9692 B(  2-C ,  3-C ) :   0.9440 B(  2-C , 12-H ) :   0.9055
B(  2-C , 13-H ) :   0.9331 B(  3-C ,  4-O ) :   1.0256 B(  3-C , 14-H ) :   0.9402
B(  4-O , 15-H ) :   0.8345 B(  5-C ,  6-O ) :   1.8555 B(  5-C ,  7-C ) :   0.8439
B(  7-C ,  8-O ) :   1.9726 B(  7-C , 16-H ) :   0.9336

MP2 TOTAL ENERGY:     -458.220839116 Eh
FINAL SINGLE POINT ENERGY      -458.220839116263

DIPOLE MOMENT
-------------
                                X             Y             Z
Electronic contribution:     -4.36194      -2.97616      -2.08960
Nuclear contribution   :      5.28304       2.87949       2.40258
                        -----------------------------------------
Total Dipole Moment    :      0.92110      -0.09667       0.31297
                        -----------------------------------------
Magnitude (a.u.)       :      0.97761
Magnitude (Debye)      :      2.48489

                             ****ORCA TERMINATED NORMALLY****
TOTAL RUN TIME: 0 days 0 hours 16 minutes 1 seconds 448 msec
