                         Program Version 3.0.3 - RELEASE   -
|  1> ! RI-MP2 RIJK def2-TZVP def2-TZVP/C def2-TZVP/JK TIGHTSCF
|  2> % maxcore 2000
|  3> % mp2 density relaxed end
|  4> *xyz 0 1
|  5>  O        0.3358493895    -0.1346163187    -0.1351223783
|  6>  C        0.4717340834     1.0169305786    -0.3778119836
|  7>  O        0.4126453214     1.9743949813     0.6175221734
|  8>  C        0.6815022486     3.2553944625     0.2680926457
|  9>  C        1.7409151577     3.8334237913    -0.3117836045
| 10>  O        1.4999536217     5.1897213046    -0.4255202246
| 11>  C        0.2565133892     5.4750994029     0.1123575820
| 12>  O       -0.2270851255     6.5675551112     0.1734734282
| 13>  N       -0.2488266489     4.2557006417     0.5258144696
| 14>  H        0.6590765602     1.4744007821    -1.3640292660
| 15>  H        2.6871003533     3.4590983622    -0.6573077097
| 16>  H       -1.1311717406     4.1480866702     0.9956862777
| 17> *
| 18>
| 19>                          ****END OF INPUT****

CARTESIAN COORDINATES (ANGSTROEM)
---------------------------------
  O      0.335849   -0.134616   -0.135122
  C      0.471734    1.016931   -0.377812
  O      0.412645    1.974395    0.617522
  C      0.681502    3.255394    0.268093
  C      1.740915    3.833424   -0.311784
  O      1.499954    5.189721   -0.425520
  C      0.256513    5.475099    0.112358
  O     -0.227085    6.567555    0.173473
  N     -0.248827    4.255701    0.525814
  H      0.659077    1.474401   -1.364029
  H      2.687100    3.459098   -0.657308
  H     -1.131172    4.148087    0.995686

 Total Charge           Charge          ....    0
 Multiplicity           Mult            ....    1
 Number of Electrons    NEL             ....   66
 Basis Dimension        Dim             ....  297

ORBITAL ENERGIES
----------------

  NO   OCC          E(Eh)            E(eV)
   0   2.0000     -20.669045      -562.4333
   1   2.0000     -20.645674      -561.7973
   2   2.0000     -20.597412      -560.4841
   3   2.0000     -20.551089      -559.2236
   4   2.0000     -15.645129      -425.7256
   5   2.0000     -11.433132      -311.1113
   6   2.0000     -11.426591      -310.9334
   7   2.0000     -11.382275      -309.7274
   8   2.0000     -11.322820      -308.1096
   9   2.0000      -1.525807       -41.5193
  10   2.0000      -1.505800       -40.9749
  11   2.0000      -1.430944       -38.9380
  12   2.0000      -1.397235       -38.0207
  13   2.0000      -1.289092       -35.0780
  14   2.0000      -1.060853       -28.8673
  15   2.0000      -0.943423       -25.6719
  16   2.0000      -0.898911       -24.4606
  17   2.0000      -0.853659       -23.2293
  18   2.0000      -0.807497       -21.9731
  19   2.0000      -0.750322       -20.4173
  20   2.0000      -0.723437       -19.6857
  21   2.0000      -0.702675       -19.1208
  22   2.0000      -0.691572       -18.8186
  23   2.0000      -0.659227       -17.9385
  24   2.0000      -0.655122       -17.8268
  25   2.0000      -0.644060       -17.5258
  26   2.0000      -0.601720       -16.3736
  27   2.0000      -0.549886       -14.9632
  28   2.0000      -0.542030       -14.7494
  29   2.0000      -0.513934       -13.9849
  30   2.0000      -0.499066       -13.5803
  31   2.0000      -0.480736       -13.0815
  32   2.0000      -0.355365        -9.6700
  33   0.0000       0.109848         2.9891
  34   0.0000       0.125512         3.4154
  35   0.0000       0.143028         3.8920
  36   0.0000       0.149742         4.0747
  37   0.0000       0.169897         4.6231

MULLIKEN ATOMIC CHARGES
-----------------------
   0 O :   -0.221879
   1 C :    0.186940
   2 O :   -0.218129
   3 C :    0.184585
   4 C :   -0.041779
   5 O :   -0.202465
   6 C :    0.337286
   7 O :   -0.308752
   8 N :   -0.290043
   9 H :    0.115208
  10 H :    0.182797
  11 H :    0.276231
Sum of atomic charges:   -0.0000000

LOEWDIN ATOMIC CHARGES
----------------------
   0 O :    0.164801
   1 C :   -0.394284
   2 O :    0.301157
   3 C :   -0.363222
   4 C :   -0.238024
   5 O :    0.304299
   6 C :   -0.527690
   7 O :    0.110462
   8 N :    0.177383
   9 H :    0.117013
  10 H :    0.143076
  11 H :    0.205028

  Mayer bond orders larger than 0.1
B(  0-O ,  1-C ) :   2.0693 B(  1-C ,  2-O ) :   0.9462 B(  1-C ,  9-H ) :   0.9121
B(  2-O ,  3-C ) :   1.0223 B(  3-C ,  4-C ) :   1.6400 B(  3-C ,  8-N ) :   1.0492
B(  4-C ,  5-O ) :   0.9707 B(  4-C , 10-H ) :   0.9256 B(  5-O ,  6-C ) :   1.0427
B(  6-C ,  7-O ) :   2.0239 B(  6-C ,  8-N ) :   1.0980 B(  8-N , 11-H ) :   0.8545

MP2 TOTAL ENERGY:     -509.029439762 Eh
FINAL SINGLE POINT ENERGY      -509.029439761516

DIPOLE MOMENT
-------------
                                X             Y             Z
Electronic contribution:     -0.45126       0.56578       0.85571
Nuclear contribution   :      0.56897      -1.28064      -1.09655
                        -----------------------------------------
Total Dipole Moment    :      0.11770      -0.71486      -0.24084
                        -----------------------------------------
Magnitude (a.u.)       :      0.76346
Magnitude (Debye)      :      1.94057

                             ****ORCA TERMINATED NORMALLY****
TOTAL RUN TIME: 0 days 0 hours 10 minutes 45 seconds 581 msec
