                         Program Version 3.0.3 - RELEASE   -
|  1> ! RI-MP2 RIJK def2-TZVP def2-TZVP/C def2-TZVP/JK TIGHTSCF
|  2> % maxcore 2000
|  3> % mp2 density relaxed end
|  4> *xyz 0 1
|  5>  O       -0.7555807481     1.1838847700     0.7311633744
|  6>  C        0.1750735538     0.8989595418     0.0161311162
|  7>  C        1.4161902265     1.7289962299    -0.1217853213
|  8>  C        1.7069448282     2.7707301460     0.9885567942
|  9>  N        1.9281004391     3.8467237550    -0.0215304004
| 10>  C        1.5337819954     2.9496951146    -1.1240345688
| 11>  C        2.7456582619     2.2160560009    -1.7425947717
| 12>  N        2.5335771736     1.0681083650    -0.8154522249
| 13>  H        0.1689274291    -0.0032374562    -0.6338907637
| 14>  H        0.8239244010     2.9153350233     1.6191472913
| 15>  H        2.5787837362     2.5686640390     1.6211600784
| 16>  H        1.2953968639     4.6284965025     0.0986329309
| 17>  H        0.7287826181     3.2877358468    -1.7782260542
| 18>  H        2.6412479759     1.9192840482    -2.7923721413
| 19>  H        3.6781877737     2.7737133031    -1.6111572715
| 20>  H        3.3246810917     0.8246408602    -0.2290411676
| 21> *
| 22>
| 23>                          ****END OF INPUT****

CARTESIAN COORDINATES (ANGSTROEM)
---------------------------------
  O     -0.755581    1.183885    0.731163
  C      0.175074    0.898960    0.016131
  C      1.416190    1.728996   -0.121785
  C      1.706945    2.770730    0.988557
  N      1.928100    3.846724   -0.021530
  C      1.533782    2.949695   -1.124035
  C      2.745658    2.216056   -1.742595
  N      2.533577    1.068108   -0.815452
  H      0.168927   -0.003237   -0.633891
  H      0.823924    2.915335    1.619147
  H      2.578784    2.568664    1.621160
  H      1.295397    4.628497    0.098633
  H      0.728783    3.287736   -1.778226
  H      2.641248    1.919284   -2.792372
  H      3.678188    2.773713   -1.611157
  H      3.324681    0.824641   -0.229041

 Total Charge           Charge          ....    0
 Multiplicity           Mult            ....    1
 Number of Electrons    NEL             ....   60
 Basis Dimension        Dim             ....  296

ORBITAL ENERGIES
----------------

  NO   OCC          E(Eh)            E(eV)
   0   2.0000     -20.558424      -559.4232
   1   2.0000     -15.559397      -423.3927
   2   2.0000     -15.554650      -423.2635
   3   2.0000     -11.329029      -308.2785
   4   2.0000     -11.279996      -306.9443
   5   2.0000     -11.275219      -306.8143
   6   2.0000     -11.263671      -306.5001
   7   2.0000     -11.260886      -306.4243
   8   2.0000      -1.396180       -37.9920
   9   2.0000      -1.285492       -34.9800
  10   2.0000      -1.186136       -32.2764
  11   2.0000      -0.994980       -27.0748
  12   2.0000      -0.953395       -25.9432
  13   2.0000      -0.889474       -24.2038
  14   2.0000      -0.828510       -22.5449
  15   2.0000      -0.726130       -19.7590
  16   2.0000      -0.719052       -19.5664
  17   2.0000      -0.696876       -18.9629
  18   2.0000      -0.650035       -17.6884
  19   2.0000      -0.630975       -17.1697
  20   2.0000      -0.593503       -16.1500
  21   2.0000      -0.580758       -15.8032
  22   2.0000      -0.554145       -15.0791
  23   2.0000      -0.533317       -14.5123
  24   2.0000      -0.519627       -14.1398
  25   2.0000      -0.505520       -13.7559
  26   2.0000      -0.439344       -11.9552
  27   2.0000      -0.436089       -11.8666
  28   2.0000      -0.384442       -10.4612
  29   2.0000      -0.376571       -10.2470
  30   0.0000       0.108172         2.9435
  31   0.0000       0.138186         3.7602
  32   0.0000       0.145375         3.9559
  33   0.0000       0.174157         4.7391
  34   0.0000       0.178786         4.8650

MULLIKEN ATOMIC CHARGES
-----------------------
   0 O :   -0.280764
   1 C :    0.067479
   2 C :    0.089041
   3 C :   -0.158828
   4 N :   -0.337224
   5 C :   -0.031208
   6 C :   -0.143112
   7 N :   -0.324807
   8 H :    0.094725
   9 H :    0.146264
  10 H :    0.097710
  11 H :    0.211895
  12 H :    0.131529
  13 H :    0.105830
  14 H :    0.120503
  15 H :    0.210967
Sum of atomic charges:   -0.0000000

LOEWDIN ATOMIC CHARGES
----------------------
   0 O :    0.130306
   1 C :   -0.266390
   2 C :   -0.279433
   3 C :   -0.221319
   4 N :   -0.013171
   5 C :   -0.199261
   6 C :   -0.243089
   7 N :    0.023005
   8 H :    0.117936
   9 H :    0.132400
  10 H :    0.121580
  11 H :    0.161825
  12 H :    0.130633
  13 H :    0.120854
  14 H :    0.124179
  15 H :    0.159945

  Mayer bond orders larger than 0.1
B(  0-O ,  1-C ) :   1.9696 B(  1-C ,  2-C ) :   0.8796 B(  1-C ,  8-H ) :   0.9377
B(  2-C ,  3-C ) :   0.9195 B(  2-C ,  5-C ) :   0.8616 B(  2-C ,  7-N ) :   1.0146
B(  3-C ,  4-N ) :   0.9638 B(  3-C ,  9-H ) :   0.9003 B(  3-C , 10-H ) :   0.9061
B(  4-N ,  5-C ) :   1.0308 B(  4-N , 11-H ) :   0.8756 B(  5-C ,  6-C ) :   0.8590
B(  5-C , 12-H ) :   0.9035 B(  6-C ,  7-N ) :   0.9728 B(  6-C , 13-H ) :   0.9209
B(  6-C , 14-H ) :   0.9108 B(  7-N , 15-H ) :   0.8720

MP2 TOTAL ENERGY:     -379.232789785 Eh
FINAL SINGLE POINT ENERGY      -379.232789785104

DIPOLE MOMENT
-------------
                                X             Y             Z
Electronic contribution:     -3.23137      -1.75763       1.32259
Nuclear contribution   :      3.78098       2.09107      -1.61755
                        -----------------------------------------
Total Dipole Moment    :      0.54961       0.33344      -0.29496
                        -----------------------------------------
Magnitude (a.u.)       :      0.70728
Magnitude (Debye)      :      1.79777

                             ****ORCA TERMINATED NORMALLY****
TOTAL RUN TIME: 0 days 0 hours 11 minutes 41 seconds 668 msec
