                         Program Version 3.0.3 - RELEASE   -
|  1> ! RI-MP2 RIJK def2-TZVP def2-TZVP/C def2-TZVP/JK TIGHTSCF
|  2> % maxcore 2000
|  3> % mp2 density relaxed end
|  4> *xyz 0 1
|  5>  C        0.0061852983     1.4654392675     0.0051091982
|  6>  N        0.0014591694     0.0158376372     0.0186157257
|  7>  C       -0.0637643057    -0.8134249249    -1.0666578643
|  8>  N       -0.0490493481    -2.0797792298    -0.7352154569
|  9>  C        0.0304961815    -2.0889738175     0.6480978600
| 10>  C        0.0622816803    -0.7943165245     1.1235749702
| 11>  C        0.0702260245    -3.2813967244     1.4102234590
| 12>  C        0.1047569499    -4.2874351574     2.0706225605
| 13>  H        0.9247508797     1.8564700102     0.4526326324
| 14>  H       -0.0514552037     1.8088987484    -1.0292682234
| 15>  H       -0.8525862264     1.8632748321     0.5539267166
| 16>  H       -0.1202998242    -0.4224973494    -2.0725004907
| 17>  H        0.1210170911    -0.3981689421     2.1235368994
| 18>  H        0.1347488134    -5.1794416856     2.6451780933
| 19> *
| 20>
| 21>                          ****END OF INPUT****

CARTESIAN COORDINATES (ANGSTROEM)
---------------------------------
  C      0.006185    1.465439    0.005109
  N      0.001459    0.015838    0.018616
  C     -0.063764   -0.813425   -1.066658
  N     -0.049049   -2.079779   -0.735215
  C      0.030496   -2.088974    0.648098
  C      0.062282   -0.794317    1.123575
  C      0.070226   -3.281397    1.410223
  C      0.104757   -4.287435    2.070623
  H      0.924751    1.856470    0.452633
  H     -0.051455    1.808899   -1.029268
  H     -0.852586    1.863275    0.553927
  H     -0.120300   -0.422497   -2.072500
  H      0.121017   -0.398169    2.123537
  H      0.134749   -5.179442    2.645178

 Total Charge           Charge          ....    0
 Multiplicity           Mult            ....    1
 Number of Electrons    NEL             ....   56
 Basis Dimension        Dim             ....  284

ORBITAL ENERGIES
----------------

  NO   OCC          E(Eh)            E(eV)
   0   2.0000     -15.631450      -425.3534
   1   2.0000     -15.551579      -423.1800
   2   2.0000     -11.299934      -307.4868
   3   2.0000     -11.293449      -307.3104
   4   2.0000     -11.271275      -306.7070
   5   2.0000     -11.269082      -306.6473
   6   2.0000     -11.230097      -305.5865
   7   2.0000     -11.219285      -305.2923
   8   2.0000      -1.355050       -36.8728
   9   2.0000      -1.196563       -32.5601
  10   2.0000      -1.055336       -28.7172
  11   2.0000      -1.009547       -27.4712
  12   2.0000      -0.969285       -26.3756
  13   2.0000      -0.846106       -23.0237
  14   2.0000      -0.798090       -21.7171
  15   2.0000      -0.748133       -20.3577
  16   2.0000      -0.700970       -19.0744
  17   2.0000      -0.660227       -17.9657
  18   2.0000      -0.641709       -17.4618
  19   2.0000      -0.609053       -16.5732
  20   2.0000      -0.602854       -16.4045
  21   2.0000      -0.576645       -15.6913
  22   2.0000      -0.566738       -15.4217
  23   2.0000      -0.446116       -12.1394
  24   2.0000      -0.438458       -11.9311
  25   2.0000      -0.389412       -10.5964
  26   2.0000      -0.381875       -10.3914
  27   2.0000      -0.306663        -8.3447
  28   0.0000       0.124034         3.3751
  29   0.0000       0.125762         3.4222
  30   0.0000       0.161660         4.3990
  31   0.0000       0.166712         4.5365
  32   0.0000       0.168871         4.5952

MULLIKEN ATOMIC CHARGES
-----------------------
   0 C :   -0.332490
   1 N :   -0.027145
   2 C :   -0.000355
   3 N :   -0.282662
   4 C :   -0.117855
   5 C :   -0.116890
   6 C :    0.028786
   7 C :   -0.121559
   8 H :    0.159908
   9 H :    0.152310
  10 H :    0.159908
  11 H :    0.152273
  12 H :    0.156218
  13 H :    0.189553
Sum of atomic charges:   -0.0000000

LOEWDIN ATOMIC CHARGES
----------------------
   0 C :   -0.265138
   1 N :    0.225519
   2 C :   -0.295239
   3 N :    0.127571
   4 C :   -0.253639
   5 C :   -0.172946
   6 C :   -0.070495
   7 C :   -0.081782
   8 H :    0.126348
   9 H :    0.130757
  10 H :    0.126340
  11 H :    0.133868
  12 H :    0.142463
  13 H :    0.126372

  Mayer bond orders larger than 0.1
B(  0-C ,  1-N ) :   0.8624 B(  0-C ,  8-H ) :   0.9292 B(  0-C ,  9-H ) :   0.9313
B(  0-C , 10-H ) :   0.9292 B(  1-N ,  2-C ) :   1.1662 B(  1-N ,  5-C ) :   1.1364
B(  2-C ,  3-N ) :   1.5632 B(  2-C , 11-H ) :   0.9198 B(  3-N ,  4-C ) :   1.2659
B(  4-C ,  5-C ) :   1.4588 B(  4-C ,  6-C ) :   1.2222 B(  4-C ,  7-C ) :  -0.1833
B(  5-C , 12-H ) :   0.9025 B(  6-C ,  7-C ) :   2.6228 B(  7-C , 13-H ) :   0.8730

MP2 TOTAL ENERGY:     -340.971127949 Eh
FINAL SINGLE POINT ENERGY      -340.971127948843

DIPOLE MOMENT
-------------
                                X             Y             Z
Electronic contribution:     -0.01417      -5.52148       0.10128
Nuclear contribution   :      0.03916       7.36349       0.21933
                        -----------------------------------------
Total Dipole Moment    :      0.02498       1.84201       0.32061
                        -----------------------------------------
Magnitude (a.u.)       :      1.86987
Magnitude (Debye)      :      4.75283

                             ****ORCA TERMINATED NORMALLY****
TOTAL RUN TIME: 0 days 0 hours 10 minutes 42 seconds 685 msec
