                         Program Version 3.0.3 - RELEASE   -
|  1> ! RI-MP2 RIJK def2-TZVP def2-TZVP/C def2-TZVP/JK TIGHTSCF
|  2> % maxcore 2000
|  3> % mp2 density relaxed end
|  4> *xyz 0 1
|  5>  C       -0.0156734531     1.5458260414     0.0119901824
|  6>  C       -0.0056299608     0.0496809996     0.0357903198
|  7>  C       -0.0298550877    -0.8018632409    -1.0604509177
|  8>  N       -0.0100929478    -2.1334829392    -0.6664624817
|  9>  C        0.0272442791    -2.1428458310     0.6990377115
| 10>  C        0.0304878515    -0.8436625477     1.1361292760
| 11>  O        0.0681096986    -0.8834635350     2.5055444384
| 12>  C        0.0847850448    -2.2274767071     2.7757229364
| 13>  N        0.0617564339    -3.0282883259     1.7492626172
| 14>  H        0.8807050538     1.9655117618     0.4828716730
| 15>  H       -0.0560823339     1.9170334088    -1.0157819387
| 16>  H       -0.8798735971     1.9543249198     0.5481655784
| 17>  H       -0.0605300888    -0.5465235750    -2.1080802356
| 18>  H       -0.0221989011    -2.9278583071    -1.2804839447
| 19>  H        0.1151150587    -2.4983408925     3.8188676153
| 20> *
| 21>
| 22>                          ****END OF INPUT****

CARTESIAN COORDINATES (ANGSTROEM)
---------------------------------
  C     -0.015673    1.545826    0.011990
  C     -0.005630    0.049681    0.035790
  C     -0.029855   -0.801863   -1.060451
  N     -0.010093   -2.133483   -0.666462
  C      0.027244   -2.142846    0.699038
  C      0.030488   -0.843663    1.136129
  O      0.068110   -0.883464    2.505544
  C      0.084785   -2.227477    2.775723
  N      0.061756   -3.028288    1.749263
  H      0.880705    1.965512    0.482872
  H     -0.056082    1.917033   -1.015782
  H     -0.879874    1.954325    0.548166
  H     -0.060530   -0.546524   -2.108080
  H     -0.022199   -2.927858   -1.280484
  H      0.115115   -2.498341    3.818868

 Total Charge           Charge          ....    0
 Multiplicity           Mult            ....    1
 Number of Electrons    NEL             ....   64
 Basis Dimension        Dim             ....  315

ORBITAL ENERGIES
----------------

  NO   OCC          E(Eh)            E(eV)
   0   2.0000     -20.632238      -561.4317
   1   2.0000     -15.610110      -424.7727
   2   2.0000     -15.574810      -423.8121
   3   2.0000     -11.338113      -308.5257
   4   2.0000     -11.276281      -306.8432
   5   2.0000     -11.264979      -306.5357
   6   2.0000     -11.262041      -306.4557
   7   2.0000     -11.237470      -305.7871
   8   2.0000     -11.226710      -305.4943
   9   2.0000      -1.473164       -40.0868
  10   2.0000      -1.300920       -35.3998
  11   2.0000      -1.227226       -33.3945
  12   2.0000      -1.075929       -29.2775
  13   2.0000      -0.997485       -27.1429
  14   2.0000      -0.937803       -25.5189
  15   2.0000      -0.854603       -23.2549
  16   2.0000      -0.804342       -21.8873
  17   2.0000      -0.776116       -21.1192
  18   2.0000      -0.725368       -19.7383
  19   2.0000      -0.663584       -18.0570
  20   2.0000      -0.661189       -17.9919
  21   2.0000      -0.648875       -17.6568
  22   2.0000      -0.586861       -15.9693
  23   2.0000      -0.577692       -15.7198
  24   2.0000      -0.573460       -15.6046
  25   2.0000      -0.551232       -14.9998
  26   2.0000      -0.540474       -14.7070
  27   2.0000      -0.518896       -14.1199
  28   2.0000      -0.461583       -12.5603
  29   2.0000      -0.451378       -12.2826
  30   2.0000      -0.342164        -9.3107
  31   2.0000      -0.280897        -7.6436
  32   0.0000       0.129212         3.5160
  33   0.0000       0.137527         3.7423
  34   0.0000       0.147126         4.0035
  35   0.0000       0.178462         4.8562
  36   0.0000       0.179786         4.8922

MULLIKEN ATOMIC CHARGES
-----------------------
   0 C :   -0.409984
   1 C :   -0.007446
   2 C :   -0.099860
   3 N :   -0.298309
   4 C :    0.144029
   5 C :    0.097118
   6 O :   -0.230069
   7 C :    0.101821
   8 N :   -0.268924
   9 H :    0.144488
  10 H :    0.134331
  11 H :    0.144553
  12 H :    0.144346
  13 H :    0.252545
  14 H :    0.151360
Sum of atomic charges:    0.0000000

LOEWDIN ATOMIC CHARGES
----------------------
   0 C :   -0.271236
   1 C :   -0.192989
   2 C :   -0.191813
   3 N :    0.191700
   4 C :   -0.307690
   5 C :   -0.220063
   6 O :    0.331289
   7 C :   -0.309846
   8 N :    0.115974
   9 H :    0.131440
  10 H :    0.131640
  11 H :    0.131499
  12 H :    0.135523
  13 H :    0.193651
  14 H :    0.130922

  Mayer bond orders larger than 0.1
B(  0-C ,  1-C ) :   0.8703 B(  0-C ,  9-H ) :   0.9353 B(  0-C , 10-H ) :   0.9476
B(  0-C , 11-H ) :   0.9357 B(  1-C ,  2-C ) :   1.4997 B(  1-C ,  5-C ) :   1.2153
B(  2-C ,  3-N ) :   1.1203 B(  2-C , 12-H ) :   0.9105 B(  3-N ,  4-C ) :   1.0953
B(  3-N , 13-H ) :   0.8674 B(  4-C ,  5-C ) :   1.3460 B(  4-C ,  8-N ) :   1.2505
B(  5-C ,  6-O ) :   1.0408 B(  6-O ,  7-C ) :   1.0674 B(  7-C ,  8-N ) :   1.6145
B(  7-C , 14-H ) :   0.9339

MP2 TOTAL ENERGY:     -416.136906516 Eh
FINAL SINGLE POINT ENERGY      -416.136906516379

DIPOLE MOMENT
-------------
                                X             Y             Z
Electronic contribution:      0.13349      -6.08246       3.43061
Nuclear contribution   :     -0.15386       6.29799      -4.11929
                        -----------------------------------------
Total Dipole Moment    :     -0.02037       0.21553      -0.68868
                        -----------------------------------------
Magnitude (a.u.)       :      0.72191
Magnitude (Debye)      :      1.83494

                             ****ORCA TERMINATED NORMALLY****
TOTAL RUN TIME: 0 days 0 hours 15 minutes 19 seconds 122 msec
