                         Program Version 3.0.3 - RELEASE   -
|  1> ! RI-MP2 RIJK def2-TZVP def2-TZVP/C def2-TZVP/JK TIGHTSCF
|  2> % maxcore 2000
|  3> % mp2 density relaxed end
|  4> *xyz 0 1
|  5>  C        2.7754066259    -0.0057804467    -0.6891427747
|  6>  C        1.5798678129    -0.7813358435    -0.1864241648
|  7>  N        1.8312461490    -1.8632424362     0.7716871641
|  8>  C        1.0149105670    -0.7133532623     1.1972589359
|  9>  C        1.5303893443     0.1880771940     2.3191010707
| 10>  C        2.7214694809    -0.3881171715     3.0828080827
| 11>  O        1.9377995115     1.4874911640     1.8611277693
| 12>  C        0.4092589921     0.4626797183     3.3366752676
| 13>  O       -0.6732851053    -0.0623703622     3.3610991576
| 14>  H        3.4787286036     0.2205546562     0.1119310917
| 15>  H        3.2968511598    -0.5861249140    -1.4580662535
| 16>  H        2.4628995276     0.9417606968    -1.1414139475
| 17>  H        0.8370327329    -0.9838802819    -0.9588950467
| 18>  H        1.2380890000    -2.6672904254     0.5872233316
| 19>  H       -0.0560693642    -0.8835087039     1.2769202446
| 20>  H        3.5578994710    -0.5505307340     2.4018824981
| 21>  H        3.0301583306     0.3071797488     3.8691564994
| 22>  H        2.4616048963    -1.3504468344     3.5302062256
| 23>  H        1.2889868550     1.7887452733     1.2153953063
| 24>  H        0.6929934093     1.2561073346     4.0632754819
| 25> *
| 26>
| 27>                          ****END OF INPUT****

CARTESIAN COORDINATES (ANGSTROEM)
---------------------------------
  C      2.775407   -0.005780   -0.689143
  C      1.579868   -0.781336   -0.186424
  N      1.831246   -1.863242    0.771687
  C      1.014911   -0.713353    1.197259
  C      1.530389    0.188077    2.319101
  C      2.721469   -0.388117    3.082808
  O      1.937800    1.487491    1.861128
  C      0.409259    0.462680    3.336675
  O     -0.673285   -0.062370    3.361099
  H      3.478729    0.220555    0.111931
  H      3.296851   -0.586125   -1.458066
  H      2.462900    0.941761   -1.141414
  H      0.837033   -0.983880   -0.958895
  H      1.238089   -2.667290    0.587223
  H     -0.056069   -0.883509    1.276920
  H      3.557899   -0.550531    2.401882
  H      3.030158    0.307180    3.869156
  H      2.461605   -1.350447    3.530206
  H      1.288987    1.788745    1.215395
  H      0.692993    1.256107    4.063275

 Total Charge           Charge          ....    0
 Multiplicity           Mult            ....    1
 Number of Electrons    NEL             ....   70
 Basis Dimension        Dim             ....  345

ORBITAL ENERGIES
----------------

  NO   OCC          E(Eh)            E(eV)
   0   2.0000     -20.574353      -559.8566
   1   2.0000     -20.567521      -559.6707
   2   2.0000     -15.563415      -423.5021
   3   2.0000     -11.334203      -308.4193
   4   2.0000     -11.308550      -307.7213
   5   2.0000     -11.271485      -306.7127
   6   2.0000     -11.265386      -306.5467
   7   2.0000     -11.224579      -305.4363
   8   2.0000     -11.221120      -305.3422
   9   2.0000      -1.409204       -38.3464
  10   2.0000      -1.378747       -37.5176
  11   2.0000      -1.269501       -34.5449
  12   2.0000      -1.053595       -28.6698
  13   2.0000      -0.994599       -27.0644
  14   2.0000      -0.921698       -25.0807
  15   2.0000      -0.874725       -23.8025
  16   2.0000      -0.815892       -22.2015
  17   2.0000      -0.760198       -20.6860
  18   2.0000      -0.729112       -19.8402
  19   2.0000      -0.694497       -18.8982
  20   2.0000      -0.660460       -17.9720
  21   2.0000      -0.648536       -17.6476
  22   2.0000      -0.612332       -16.6624
  23   2.0000      -0.581473       -15.8227
  24   2.0000      -0.570783       -15.5318
  25   2.0000      -0.560112       -15.2414
  26   2.0000      -0.550880       -14.9902
  27   2.0000      -0.544847       -14.8260
  28   2.0000      -0.521774       -14.1982
  29   2.0000      -0.508707       -13.8426
  30   2.0000      -0.483106       -13.1460
  31   2.0000      -0.472878       -12.8677
  32   2.0000      -0.456706       -12.4276
  33   2.0000      -0.416641       -11.3374
  34   2.0000      -0.395982       -10.7752
  35   0.0000       0.116991         3.1835
  36   0.0000       0.130098         3.5402
  37   0.0000       0.147387         4.0106
  38   0.0000       0.165507         4.5037
  39   0.0000       0.179435         4.8827

MULLIKEN ATOMIC CHARGES
-----------------------
   0 C :   -0.399494
   1 C :    0.028542
   2 N :   -0.398160
   3 C :   -0.212642
   4 C :    0.312255
   5 C :   -0.392446
   6 O :   -0.466298
   7 C :    0.048853
   8 O :   -0.263414
   9 H :    0.151530
  10 H :    0.131280
  11 H :    0.117059
  12 H :    0.119143
  13 H :    0.220848
  14 H :    0.156504
  15 H :    0.148773
  16 H :    0.141121
  17 H :    0.137542
  18 H :    0.318833
  19 H :    0.100172
Sum of atomic charges:   -0.0000000

LOEWDIN ATOMIC CHARGES
----------------------
   0 C :   -0.298608
   1 C :   -0.280894
   2 N :    0.014099
   3 C :   -0.226881
   4 C :   -0.385861
   5 C :   -0.257725
   6 O :    0.020083
   7 C :   -0.256455
   8 O :    0.138323
   9 H :    0.129552
  10 H :    0.126768
  11 H :    0.123546
  12 H :    0.137521
  13 H :    0.166816
  14 H :    0.148914
  15 H :    0.134370
  16 H :    0.130095
  17 H :    0.135456
  18 H :    0.179499
  19 H :    0.121384

  Mayer bond orders larger than 0.1
B(  0-C ,  1-C ) :   0.8905 B(  0-C ,  9-H ) :   0.9407 B(  0-C , 10-H ) :   0.9301
B(  0-C , 11-H ) :   0.9368 B(  1-C ,  2-N ) :   0.8924 B(  1-C ,  3-C ) :   0.9104
B(  1-C , 12-H ) :   0.9292 B(  2-N ,  3-C ) :   0.8998 B(  2-N , 13-H ) :   0.8663
B(  3-C ,  4-C ) :   0.8771 B(  3-C , 14-H ) :   0.9195 B(  4-C ,  5-C ) :   0.9129
B(  4-C ,  6-O ) :   0.8718 B(  4-C ,  7-C ) :   0.8422 B(  5-C , 15-H ) :   0.9209
B(  5-C , 16-H ) :   0.9280 B(  5-C , 17-H ) :   0.9302 B(  6-O , 18-H ) :   0.8393
B(  7-C ,  8-O ) :   1.9939 B(  7-C , 19-H ) :   0.9461

MP2 TOTAL ENERGY:     -439.546623605 Eh
FINAL SINGLE POINT ENERGY      -439.546623604836

DIPOLE MOMENT
-------------
                                X             Y             Z
Electronic contribution:     -5.82940       0.72097       3.97666
Nuclear contribution   :      5.80058      -0.68259      -4.63585
                        -----------------------------------------
Total Dipole Moment    :     -0.02882       0.03838      -0.65920
                        -----------------------------------------
Magnitude (a.u.)       :      0.66094
Magnitude (Debye)      :      1.67998

                             ****ORCA TERMINATED NORMALLY****
TOTAL RUN TIME: 0 days 0 hours 19 minutes 36 seconds 791 msec
