                         Program Version 3.0.3 - RELEASE   -
|  1> ! RI-MP2 RIJK def2-TZVP def2-TZVP/C def2-TZVP/JK TIGHTSCF
|  2> % maxcore 2000
|  3> % mp2 density relaxed end
|  4> *xyz 0 1
|  5>  C       -0.0292274456     1.5631561813     0.0093898992
|  6>  C       -0.0113174199     0.0593271436     0.0012693228
|  7>  C       -1.1576604706    -0.6994569102     0.0038491297
|  8>  O       -2.3674918888    -0.1476526816     0.0137426040
|  9>  O       -1.1510647367    -2.0089884169    -0.0031541614
| 10>  C        0.1431597502    -2.7793514821    -0.0146460573
| 11>  O       -0.0058616727    -3.9580940694    -0.0199127379
| 12>  N        1.2613510119    -2.0242324508    -0.0171472755
| 13>  C        1.1657230587    -0.7126663985    -0.0096400740
| 14>  H        0.9932541981     1.9500523396     0.0034063052
| 15>  H       -0.5467355994     1.9705324487    -0.8654870667
| 16>  H       -0.5328762006     1.9612752147     0.8965529070
| 17>  H       -3.0240398020    -0.8597203364     0.0136546877
| 18>  H        2.1176947874    -0.1796929221    -0.0124306026
| 19> *
| 20>
| 21>                          ****END OF INPUT****

CARTESIAN COORDINATES (ANGSTROEM)
---------------------------------
  C     -0.029227    1.563156    0.009390
  C     -0.011317    0.059327    0.001269
  C     -1.157660   -0.699457    0.003849
  O     -2.367492   -0.147653    0.013743
  O     -1.151065   -2.008988   -0.003154
  C      0.143160   -2.779351   -0.014646
  O     -0.005862   -3.958094   -0.019913
  N      1.261351   -2.024232   -0.017147
  C      1.165723   -0.712666   -0.009640
  H      0.993254    1.950052    0.003406
  H     -0.546736    1.970532   -0.865487
  H     -0.532876    1.961275    0.896553
  H     -3.024040   -0.859720    0.013655
  H      2.117695   -0.179693   -0.012431

 Total Charge           Charge          ....    0
 Multiplicity           Mult            ....    1
 Number of Electrons    NEL             ....   66
 Basis Dimension        Dim             ....  309

ORBITAL ENERGIES
----------------

  NO   OCC          E(Eh)            E(eV)
   0   2.0000     -20.653854      -562.0199
   1   2.0000     -20.649102      -561.8906
   2   2.0000     -20.548483      -559.1527
   3   2.0000     -15.569411      -423.6652
   4   2.0000     -11.427734      -310.9645
   5   2.0000     -11.420179      -310.7589
   6   2.0000     -11.333013      -308.3870
   7   2.0000     -11.251840      -306.1781
   8   2.0000     -11.249060      -306.1025
   9   2.0000      -1.528030       -41.5798
  10   2.0000      -1.452675       -39.5293
  11   2.0000      -1.391972       -37.8775
  12   2.0000      -1.261032       -34.3144
  13   2.0000      -1.114806       -30.3354
  14   2.0000      -0.968577       -26.3563
  15   2.0000      -0.940485       -25.5919
  16   2.0000      -0.888896       -24.1881
  17   2.0000      -0.822650       -22.3854
  18   2.0000      -0.752013       -20.4633
  19   2.0000      -0.706755       -19.2318
  20   2.0000      -0.675083       -18.3699
  21   2.0000      -0.669073       -18.2064
  22   2.0000      -0.660769       -17.9804
  23   2.0000      -0.621171       -16.9029
  24   2.0000      -0.617308       -16.7978
  25   2.0000      -0.590061       -16.0564
  26   2.0000      -0.574147       -15.6233
  27   2.0000      -0.559350       -15.2207
  28   2.0000      -0.539014       -14.6673
  29   2.0000      -0.482774       -13.1370
  30   2.0000      -0.482745       -13.1362
  31   2.0000      -0.443755       -12.0752
  32   2.0000      -0.346023        -9.4158
  33   0.0000       0.066594         1.8121
  34   0.0000       0.117158         3.1880
  35   0.0000       0.138109         3.7581
  36   0.0000       0.166150         4.5212
  37   0.0000       0.168692         4.5904

MULLIKEN ATOMIC CHARGES
-----------------------
   0 C :   -0.387834
   1 C :   -0.088482
   2 C :    0.366805
   3 O :   -0.378931
   4 O :   -0.212651
   5 C :    0.293518
   6 O :   -0.250451
   7 N :   -0.266058
   8 C :   -0.012969
   9 H :    0.140759
  10 H :    0.150340
  11 H :    0.150319
  12 H :    0.356759
  13 H :    0.138877
Sum of atomic charges:    0.0000000

LOEWDIN ATOMIC CHARGES
----------------------
   0 C :   -0.260170
   1 C :   -0.209932
   2 C :   -0.372022
   3 O :    0.138558
   4 O :    0.298194
   5 C :   -0.479779
   6 O :    0.159032
   7 N :    0.117060
   8 C :   -0.158593
   9 H :    0.134297
  10 H :    0.134676
  11 H :    0.134663
  12 H :    0.213550
  13 H :    0.150465

  Mayer bond orders larger than 0.1
B(  0-C ,  1-C ) :   0.8864 B(  0-C ,  9-H ) :   0.9410 B(  0-C , 10-H ) :   0.9300
B(  0-C , 11-H ) :   0.9300 B(  1-C ,  2-C ) :   1.3892 B(  1-C ,  8-C ) :   1.2334
B(  2-C ,  3-O ) :   1.2057 B(  2-C ,  4-O ) :   1.2429 B(  3-O , 12-H ) :   0.8033
B(  4-O ,  5-C ) :   0.7924 B(  5-C ,  6-O ) :   2.0600 B(  5-C ,  7-N ) :   1.2356
B(  7-N ,  8-C ) :   1.5183 B(  8-C , 13-H ) :   0.9457

MP2 TOTAL ENERGY:     -473.128287183 Eh
FINAL SINGLE POINT ENERGY      -473.128287183166

DIPOLE MOMENT
-------------
                                X             Y             Z
Electronic contribution:     -1.27662      -8.30637      -0.03660
Nuclear contribution   :      0.45545      10.11694       0.05082
                        -----------------------------------------
Total Dipole Moment    :     -0.82117       1.81057       0.01422
                        -----------------------------------------
Magnitude (a.u.)       :      1.98814
Magnitude (Debye)      :      5.05345

                             ****ORCA TERMINATED NORMALLY****
TOTAL RUN TIME: 0 days 0 hours 13 minutes 13 seconds 720 msec
