                         Program Version 3.0.3 - RELEASE   -
|  1> ! RI-MP2 RIJK def2-TZVP def2-TZVP/C def2-TZVP/JK TIGHTSCF
|  2> % maxcore 2000
|  3> % mp2 density relaxed end
|  4> *xyz 0 1
|  5>  C        0.2016161205     1.5951154936    -0.1921829661
|  6>  C        0.1387668740     0.1452890723    -0.0900089858
|  7>  C        0.0750676069    -1.0540525003    -0.0057520927
|  8>  C        0.0221543759    -2.5009006092     0.0927380526
|  9>  C        0.8625686506    -3.2019558864    -0.9656162436
| 10>  C        0.1096398940    -3.0806085472     1.5323739272
| 11>  C       -1.3295344426    -3.5179773534     1.2803826381
| 12>  O       -2.1857659002    -4.1018513532     1.8624590909
| 13>  O       -1.3880974398    -2.9893941668     0.0192461801
| 14>  H        0.8195220417     1.9075578431    -1.0406824712
| 15>  H       -0.7985658946     2.0185118874    -0.3336628669
| 16>  H        0.6260784393     2.0393716996     0.7144987945
| 17>  H        1.9130884420    -2.9173309409    -0.8587348922
| 18>  H        0.7742723903    -4.2870133332    -0.8619907238
| 19>  H        0.5261733587    -2.9149174966    -1.9646742912
| 20>  H        0.8179119665    -3.8993774651     1.6695097473
| 21>  H        0.2235668567    -2.3474421338     2.3306867027
| 22> *
| 23>
| 24>                          ****END OF INPUT****

CARTESIAN COORDINATES (ANGSTROEM)
---------------------------------
  C      0.201616    1.595115   -0.192183
  C      0.138767    0.145289   -0.090009
  C      0.075068   -1.054053   -0.005752
  C      0.022154   -2.500901    0.092738
  C      0.862569   -3.201956   -0.965616
  C      0.109640   -3.080609    1.532374
  C     -1.329534   -3.517977    1.280383
  O     -2.185766   -4.101851    1.862459
  O     -1.388097   -2.989394    0.019246
  H      0.819522    1.907558   -1.040682
  H     -0.798566    2.018512   -0.333663
  H      0.626078    2.039372    0.714499
  H      1.913088   -2.917331   -0.858735
  H      0.774272   -4.287013   -0.861991
  H      0.526173   -2.914917   -1.964674
  H      0.817912   -3.899377    1.669510
  H      0.223567   -2.347442    2.330687

 Total Charge           Charge          ....    0
 Multiplicity           Mult            ....    1
 Number of Electrons    NEL             ....   66
 Basis Dimension        Dim             ....  327

ORBITAL ENERGIES
----------------

  NO   OCC          E(Eh)            E(eV)
   0   2.0000     -20.600935      -560.5799
   1   2.0000     -20.550358      -559.2037
   2   2.0000     -11.383686      -309.7658
   3   2.0000     -11.344348      -308.6954
   4   2.0000     -11.266776      -306.5846
   5   2.0000     -11.260621      -306.4171
   6   2.0000     -11.249948      -306.1267
   7   2.0000     -11.243533      -305.9521
   8   2.0000     -11.234155      -305.6969
   9   2.0000      -1.462838       -39.8058
  10   2.0000      -1.377809       -37.4921
  11   2.0000      -1.105049       -30.0699
  12   2.0000      -1.060066       -28.8459
  13   2.0000      -1.009293       -27.4642
  14   2.0000      -0.970784       -26.4164
  15   2.0000      -0.870856       -23.6972
  16   2.0000      -0.762185       -20.7401
  17   2.0000      -0.728994       -19.8369
  18   2.0000      -0.688065       -18.7232
  19   2.0000      -0.679219       -18.4825
  20   2.0000      -0.648363       -17.6428
  21   2.0000      -0.611240       -16.6327
  22   2.0000      -0.601196       -16.3594
  23   2.0000      -0.599765       -16.3204
  24   2.0000      -0.590855       -16.0780
  25   2.0000      -0.570710       -15.5298
  26   2.0000      -0.566709       -15.4209
  27   2.0000      -0.544306       -14.8113
  28   2.0000      -0.510628       -13.8949
  29   2.0000      -0.467056       -12.7092
  30   2.0000      -0.446697       -12.1552
  31   2.0000      -0.394523       -10.7355
  32   2.0000      -0.387814       -10.5530
  33   0.0000       0.120612         3.2820
  34   0.0000       0.138788         3.7766
  35   0.0000       0.158229         4.3056
  36   0.0000       0.158747         4.3197
  37   0.0000       0.161301         4.3892

MULLIKEN ATOMIC CHARGES
-----------------------
   0 C :   -0.482848
   1 C :    0.113975
   2 C :   -0.066022
   3 C :    0.127295
   4 C :   -0.390474
   5 C :   -0.292624
   6 C :    0.243461
   7 O :   -0.260673
   8 O :   -0.237126
   9 H :    0.166487
  10 H :    0.172260
  11 H :    0.165976
  12 H :    0.141431
  13 H :    0.143409
  14 H :    0.149498
  15 H :    0.149596
  16 H :    0.156380
Sum of atomic charges:   -0.0000000

LOEWDIN ATOMIC CHARGES
----------------------
   0 C :   -0.288233
   1 C :   -0.073680
   2 C :   -0.044008
   3 C :   -0.293583
   4 C :   -0.247410
   5 C :   -0.158068
   6 C :   -0.461900
   7 O :    0.152686
   8 O :    0.272594
   9 H :    0.143299
  10 H :    0.146198
  11 H :    0.143262
  12 H :    0.136195
  13 H :    0.132570
  14 H :    0.137374
  15 H :    0.149647
  16 H :    0.153058

  Mayer bond orders larger than 0.1
B(  0-C ,  1-C ) :   0.8459 B(  0-C ,  9-H ) :   0.9476 B(  0-C , 10-H ) :   0.9419
B(  0-C , 11-H ) :   0.9466 B(  1-C ,  2-C ) :   2.6352 B(  1-C ,  3-C ) :  -0.1374
B(  2-C ,  3-C ) :   1.1621 B(  3-C ,  4-C ) :   0.9426 B(  3-C ,  5-C ) :   0.8652
B(  3-C ,  8-O ) :   0.9009 B(  4-C , 12-H ) :   0.9240 B(  4-C , 13-H ) :   0.9281
B(  4-C , 14-H ) :   0.9314 B(  5-C ,  6-C ) :   0.9574 B(  5-C , 15-H ) :   0.9063
B(  5-C , 16-H ) :   0.9042 B(  6-C ,  7-O ) :   2.0615 B(  6-C ,  8-O ) :   1.0975

MP2 TOTAL ENERGY:     -421.117603350 Eh
FINAL SINGLE POINT ENERGY      -421.117603349581

DIPOLE MOMENT
-------------
                                X             Y             Z
Electronic contribution:     -6.08810      -5.13256       2.99612
Nuclear contribution   :      7.65828       6.12811      -3.30645
                        -----------------------------------------
Total Dipole Moment    :      1.57018       0.99555      -0.31033
                        -----------------------------------------
Magnitude (a.u.)       :      1.88491
Magnitude (Debye)      :      4.79106

                             ****ORCA TERMINATED NORMALLY****
TOTAL RUN TIME: 0 days 0 hours 15 minutes 52 seconds 707 msec
