                         Program Version 3.0.3 - RELEASE   -
|  1> ! RI-MP2 RIJK def2-TZVP def2-TZVP/C def2-TZVP/JK TIGHTSCF
|  2> % maxcore 2000
|  3> % mp2 density relaxed end
|  4> *xyz 0 1
|  5>  C       -0.0082570554     1.5456397330     0.0837400470
|  6>  C        1.4550127491     1.9290130745    -0.0326114173
|  7>  C        2.4459054667     1.0488403469     0.7000763231
|  8>  C        2.2083951236     0.8432435472    -0.7829886485
|  9>  C        1.3142313342    -0.4051108722    -0.8288038807
| 10>  C        1.6497276244    -1.2679343322     0.4212733904
| 11>  C        1.9571067371    -0.2034229730     1.4003332986
| 12>  N        0.5383433668    -0.6513826447     1.2267880187
| 13>  C        0.0421528135     0.0280824892    -0.0229884601
| 14>  H       -0.4709450259     1.8581603171     1.0269632753
| 15>  H       -0.5834556890     1.9833822751    -0.7404338952
| 16>  H        1.7234343206     2.9712100320    -0.1717948021
| 17>  H        3.3608688467     1.4997820056     1.0670687150
| 18>  H        2.9542095140     1.0556721267    -1.5394218551
| 19>  H        1.1887015349    -0.8796288418    -1.7999090394
| 20>  H        1.9038574774    -2.3203473783     0.4843834315
| 21>  H        2.3422377530    -0.4423003713     2.3851606405
| 22>  H       -0.8919958517    -0.4471040236    -0.3258438818
| 23> *
| 24>
| 25>                          ****END OF INPUT****

CARTESIAN COORDINATES (ANGSTROEM)
---------------------------------
  C     -0.008257    1.545640    0.083740
  C      1.455013    1.929013   -0.032611
  C      2.445905    1.048840    0.700076
  C      2.208395    0.843244   -0.782989
  C      1.314231   -0.405111   -0.828804
  C      1.649728   -1.267934    0.421273
  C      1.957107   -0.203423    1.400333
  N      0.538343   -0.651383    1.226788
  C      0.042153    0.028082   -0.022988
  H     -0.470945    1.858160    1.026963
  H     -0.583456    1.983382   -0.740434
  H      1.723434    2.971210   -0.171795
  H      3.360869    1.499782    1.067069
  H      2.954210    1.055672   -1.539422
  H      1.188702   -0.879629   -1.799909
  H      1.903857   -2.320347    0.484383
  H      2.342238   -0.442300    2.385161
  H     -0.891996   -0.447104   -0.325844

 Total Charge           Charge          ....    0
 Multiplicity           Mult            ....    1
 Number of Electrons    NEL             ....   64
 Basis Dimension        Dim             ....  333

ORBITAL ENERGIES
----------------

  NO   OCC          E(Eh)            E(eV)
   0   2.0000     -15.551660      -423.1822
   1   2.0000     -11.255624      -306.2811
   2   2.0000     -11.253508      -306.2235
   3   2.0000     -11.251533      -306.1698
   4   2.0000     -11.235157      -305.7242
   5   2.0000     -11.234713      -305.7121
   6   2.0000     -11.232485      -305.6515
   7   2.0000     -11.227613      -305.5189
   8   2.0000     -11.219522      -305.2987
   9   2.0000      -1.301246       -35.4087
  10   2.0000      -1.153634       -31.3920
  11   2.0000      -1.035255       -28.1707
  12   2.0000      -0.978769       -26.6337
  13   2.0000      -0.884821       -24.0772
  14   2.0000      -0.855022       -23.2663
  15   2.0000      -0.789494       -21.4832
  16   2.0000      -0.742368       -20.2009
  17   2.0000      -0.719921       -19.5901
  18   2.0000      -0.698229       -18.9998
  19   2.0000      -0.638974       -17.3874
  20   2.0000      -0.608556       -16.5597
  21   2.0000      -0.587527       -15.9874
  22   2.0000      -0.564162       -15.3516
  23   2.0000      -0.545497       -14.8437
  24   2.0000      -0.522484       -14.2175
  25   2.0000      -0.509259       -13.8576
  26   2.0000      -0.468483       -12.7481
  27   2.0000      -0.450527       -12.2595
  28   2.0000      -0.409392       -11.1401
  29   2.0000      -0.403336       -10.9753
  30   2.0000      -0.391608       -10.6562
  31   2.0000      -0.346911        -9.4399
  32   0.0000       0.142081         3.8662
  33   0.0000       0.165760         4.5106
  34   0.0000       0.170609         4.6425
  35   0.0000       0.179306         4.8792
  36   0.0000       0.191772         5.2184

MULLIKEN ATOMIC CHARGES
-----------------------
   0 C :   -0.219381
   1 C :   -0.162984
   2 C :   -0.064488
   3 C :   -0.223294
   4 C :    0.007029
   5 C :   -0.136656
   6 C :   -0.122900
   7 N :   -0.227162
   8 C :    0.017112
   9 H :    0.117989
  10 H :    0.114431
  11 H :    0.121562
  12 H :    0.130341
  13 H :    0.130863
  14 H :    0.140162
  15 H :    0.130828
  16 H :    0.129527
  17 H :    0.117021
Sum of atomic charges:    0.0000000

LOEWDIN ATOMIC CHARGES
----------------------
   0 C :   -0.216407
   1 C :   -0.170577
   2 C :   -0.157007
   3 C :   -0.145150
   4 C :   -0.148889
   5 C :   -0.168899
   6 C :   -0.202577
   7 N :    0.134052
   8 C :   -0.206927
   9 H :    0.145880
  10 H :    0.143118
  11 H :    0.144723
  12 H :    0.148963
  13 H :    0.139229
  14 H :    0.142725
  15 H :    0.128567
  16 H :    0.146715
  17 H :    0.142463

  Mayer bond orders larger than 0.1
B(  0-C ,  1-C ) :   0.9700 B(  0-C ,  8-C ) :   0.9671 B(  0-C ,  9-H ) :   0.9084
B(  0-C , 10-H ) :   0.9195 B(  1-C ,  2-C ) :   0.8607 B(  1-C ,  3-C ) :   0.8843
B(  1-C , 11-H ) :   0.9360 B(  2-C ,  3-C ) :   0.8970 B(  2-C ,  6-C ) :   0.9161
B(  2-C , 12-H ) :   0.9279 B(  3-C ,  4-C ) :   0.9175 B(  3-C , 13-H ) :   0.9256
B(  4-C ,  5-C ) :   0.8951 B(  4-C ,  8-C ) :   0.9367 B(  4-C , 14-H ) :   0.9125
B(  5-C ,  6-C ) :   0.9360 B(  5-C ,  7-N ) :   0.8483 B(  5-C , 15-H ) :   0.9054
B(  6-C ,  7-N ) :   0.9466 B(  6-C , 16-H ) :   0.9336 B(  7-N ,  8-C ) :   0.9241
B(  8-C , 17-H ) :   0.9224

MP2 TOTAL ENERGY:     -364.116629191 Eh
FINAL SINGLE POINT ENERGY      -364.116629191350

DIPOLE MOMENT
-------------
                                X             Y             Z
Electronic contribution:      0.37342      -1.92142       1.10722
Nuclear contribution   :      0.03651       2.22230      -1.67571
                        -----------------------------------------
Total Dipole Moment    :      0.40993       0.30088      -0.56849
                        -----------------------------------------
Magnitude (a.u.)       :      0.76273
Magnitude (Debye)      :      1.93870

                             ****ORCA TERMINATED NORMALLY****
TOTAL RUN TIME: 0 days 0 hours 21 minutes 3 seconds 454 msec
