                         Program Version 3.0.3 - RELEASE   -
|  1> ! RI-MP2 RIJK def2-TZVP def2-TZVP/C def2-TZVP/JK TIGHTSCF
|  2> % maxcore 2000
|  3> % mp2 density relaxed end
|  4> *xyz 0 1
|  5>  C        0.1332019852     1.5587490013     0.0237577382
|  6>  C        0.0165196901     0.0277397135     0.0351744643
|  7>  C        0.7502876979    -0.5599482740     1.2484391545
|  8>  C       -1.4445957017    -0.4546966728     0.0167160051
|  9>  C       -2.2167437817    -0.0776203365    -1.2653120598
| 10>  C       -3.5671567852    -0.6168119644    -1.3031072552
| 11>  C       -4.6876280661    -1.0692223280    -1.3273788479
| 12>  C       -6.0183585382    -1.6155971603    -1.3208497312
| 13>  O       -6.7577492711    -1.6433066289    -2.2786581755
| 14>  H        1.1827867047     1.8680258719     0.0558455739
| 15>  H       -0.3094805783     2.0047658466    -0.8719927932
| 16>  H       -0.3671200014     1.9943422765     0.8971236643
| 17>  H        0.5055454245    -0.3569598868    -0.8721225257
| 18>  H        0.3009652731    -0.2091220783     2.1851967168
| 19>  H        0.7103274679    -1.6541274779     1.2491776990
| 20>  H        1.8034760069    -0.2614434983     1.2547311167
| 21>  H       -1.4651236026    -1.5453795329     0.1214706878
| 22>  H       -1.9784095551    -0.0508249298     0.8862530312
| 23>  H       -2.2796691516     1.0127104096    -1.3696037605
| 24>  H       -1.6675777704    -0.4314770610    -2.1485616431
| 25>  H       -6.3334832768    -2.0263455496    -0.3393724798
| 26> *
| 27>
| 28>                          ****END OF INPUT****

CARTESIAN COORDINATES (ANGSTROEM)
---------------------------------
  C      0.133202    1.558749    0.023758
  C      0.016520    0.027740    0.035174
  C      0.750288   -0.559948    1.248439
  C     -1.444596   -0.454697    0.016716
  C     -2.216744   -0.077620   -1.265312
  C     -3.567157   -0.616812   -1.303107
  C     -4.687628   -1.069222   -1.327379
  C     -6.018359   -1.615597   -1.320850
  O     -6.757749   -1.643307   -2.278658
  H      1.182787    1.868026    0.055846
  H     -0.309481    2.004766   -0.871993
  H     -0.367120    1.994342    0.897124
  H      0.505545   -0.356960   -0.872123
  H      0.300965   -0.209122    2.185197
  H      0.710327   -1.654127    1.249178
  H      1.803476   -0.261443    1.254731
  H     -1.465124   -1.545380    0.121471
  H     -1.978410   -0.050825    0.886253
  H     -2.279669    1.012710   -1.369604
  H     -1.667578   -0.431477   -2.148562
  H     -6.333483   -2.026346   -0.339372

 Total Charge           Charge          ....    0
 Multiplicity           Mult            ....    1
 Number of Electrons    NEL             ....   68
 Basis Dimension        Dim             ....  351

ORBITAL ENERGIES
----------------

  NO   OCC          E(Eh)            E(eV)
   0   2.0000     -20.563498      -559.5612
   1   2.0000     -11.354125      -308.9615
   2   2.0000     -11.266373      -306.5736
   3   2.0000     -11.264882      -306.5330
   4   2.0000     -11.241282      -305.8908
   5   2.0000     -11.240071      -305.8579
   6   2.0000     -11.237971      -305.8007
   7   2.0000     -11.223598      -305.4096
   8   2.0000     -11.222046      -305.3674
   9   2.0000      -1.398686       -38.0602
  10   2.0000      -1.120504       -30.4905
  11   2.0000      -1.075680       -29.2708
  12   2.0000      -1.014511       -27.6062
  13   2.0000      -0.939962       -25.5777
  14   2.0000      -0.914213       -24.8770
  15   2.0000      -0.871420       -23.7125
  16   2.0000      -0.781120       -21.2554
  17   2.0000      -0.720468       -19.6049
  18   2.0000      -0.665200       -18.1010
  19   2.0000      -0.659445       -17.9444
  20   2.0000      -0.651772       -17.7356
  21   2.0000      -0.619808       -16.8658
  22   2.0000      -0.602287       -16.3891
  23   2.0000      -0.574238       -15.6258
  24   2.0000      -0.549715       -14.9585
  25   2.0000      -0.547118       -14.8878
  26   2.0000      -0.533428       -14.5153
  27   2.0000      -0.520363       -14.1598
  28   2.0000      -0.484607       -13.1868
  29   2.0000      -0.475538       -12.9400
  30   2.0000      -0.473556       -12.8861
  31   2.0000      -0.449810       -12.2400
  32   2.0000      -0.399558       -10.8725
  33   2.0000      -0.397173       -10.8076
  34   0.0000       0.084347         2.2952
  35   0.0000       0.122152         3.3239
  36   0.0000       0.147602         4.0165
  37   0.0000       0.156036         4.2460
  38   0.0000       0.159521         4.3408

MULLIKEN ATOMIC CHARGES
-----------------------
   0 C :   -0.422751
   1 C :   -0.011861
   2 C :   -0.392170
   3 C :   -0.216445
   4 C :   -0.411056
   5 C :    0.018280
   6 C :    0.136518
   7 C :    0.026596
   8 O :   -0.257388
   9 H :    0.136202
  10 H :    0.133642
  11 H :    0.125486
  12 H :    0.084943
  13 H :    0.123782
  14 H :    0.131664
  15 H :    0.134362
  16 H :    0.127046
  17 H :    0.121044
  18 H :    0.156366
  19 H :    0.153169
  20 H :    0.102572
Sum of atomic charges:   -0.0000000

LOEWDIN ATOMIC CHARGES
----------------------
   0 C :   -0.295301
   1 C :   -0.310333
   2 C :   -0.294110
   3 C :   -0.231566
   4 C :   -0.243033
   5 C :   -0.028714
   6 C :   -0.069001
   7 C :   -0.297102
   8 O :    0.143223
   9 H :    0.125279
  10 H :    0.120100
  11 H :    0.124883
  12 H :    0.150057
  13 H :    0.124118
  14 H :    0.122897
  15 H :    0.123688
  16 H :    0.144939
  17 H :    0.143533
  18 H :    0.161444
  19 H :    0.162050
  20 H :    0.122949

  Mayer bond orders larger than 0.1
B(  0-C ,  1-C ) :   0.9062 B(  0-C ,  9-H ) :   0.9378 B(  0-C , 10-H ) :   0.9416
B(  0-C , 11-H ) :   0.9297 B(  1-C ,  2-C ) :   0.9214 B(  1-C ,  3-C ) :   0.9257
B(  1-C , 12-H ) :   0.9272 B(  2-C , 13-H ) :   0.9313 B(  2-C , 14-H ) :   0.9395
B(  2-C , 15-H ) :   0.9416 B(  3-C ,  4-C ) :   0.9376 B(  3-C , 16-H ) :   0.9310
B(  3-C , 17-H ) :   0.9223 B(  4-C ,  5-C ) :   1.0982 B(  4-C ,  6-C ) :  -0.1679
B(  4-C , 18-H ) :   0.9167 B(  4-C , 19-H ) :   0.9142 B(  5-C ,  6-C ) :   2.7096
B(  6-C ,  7-C ) :   0.8223 B(  6-C , 20-H ) :  -0.1098 B(  7-C ,  8-O ) :   2.0165
B(  7-C , 20-H ) :   1.0111

MP2 TOTAL ENERGY:     -386.387473858 Eh
FINAL SINGLE POINT ENERGY      -386.387473858005

DIPOLE MOMENT
-------------
                                X             Y             Z
Electronic contribution:    -18.54929      -5.43295      -7.60815
Nuclear contribution   :     19.90738       5.71469       8.40724
                        -----------------------------------------
Total Dipole Moment    :      1.35808       0.28174       0.79909
                        -----------------------------------------
Magnitude (a.u.)       :      1.60072
Magnitude (Debye)      :      4.06872

                             ****ORCA TERMINATED NORMALLY****
TOTAL RUN TIME: 0 days 0 hours 17 minutes 9 seconds 69 msec
