                         Program Version 3.0.3 - RELEASE   -
|  1> ! RI-MP2 RIJK def2-TZVP def2-TZVP/C def2-TZVP/JK TIGHTSCF
|  2> % maxcore 2000
|  3> % mp2 density relaxed end
|  4> *xyz 0 1
|  5>  C       -0.1042230260     1.5264603693    -0.0984078880
|  6>  C       -0.0943689800     0.0030795142     0.0270326016
|  7>  N       -1.4306646694    -0.5702624273     0.0185921898
|  8>  N       -2.1212266901    -0.8365729362     1.1355572784
|  9>  N       -3.2619143729    -1.2610081387     0.8610928177
| 10>  O       -3.3937639278    -1.2873244687    -0.5683625906
| 11>  C       -2.2199466408    -0.8195684818    -1.0974028585
| 12>  N       -1.8859766429    -0.6380368327    -2.2975833047
| 13>  C       -2.8396340850    -0.9705753038    -3.3457660856
| 14>  H        0.9226701887     1.9030548660    -0.1089144942
| 15>  H       -0.5914366173     1.8265915446    -1.0292670024
| 16>  H       -0.6316219872     1.9850875379     0.7427656378
| 17>  H        0.4358680524    -0.4495197198    -0.8151061878
| 18>  H        0.3810376037    -0.3222279956     0.9549796780
| 19>  H       -3.8827722021    -0.7839539637    -3.0598784939
| 20>  H       -2.6109886991    -0.3751673620    -4.2336269352
| 21>  H       -2.7557729544    -2.0279777118    -3.6291446324
| 22> *
| 23>
| 24>                          ****END OF INPUT****

CARTESIAN COORDINATES (ANGSTROEM)
---------------------------------
  C     -0.104223    1.526460   -0.098408
  C     -0.094369    0.003080    0.027033
  N     -1.430665   -0.570262    0.018592
  N     -2.121227   -0.836573    1.135557
  N     -3.261914   -1.261008    0.861093
  O     -3.393764   -1.287324   -0.568363
  C     -2.219947   -0.819568   -1.097403
  N     -1.885977   -0.638037   -2.297583
  C     -2.839634   -0.970575   -3.345766
  H      0.922670    1.903055   -0.108914
  H     -0.591437    1.826592   -1.029267
  H     -0.631622    1.985088    0.742766
  H      0.435868   -0.449520   -0.815106
  H      0.381038   -0.322228    0.954980
  H     -3.882772   -0.783954   -3.059878
  H     -2.610989   -0.375167   -4.233627
  H     -2.755773   -2.027978   -3.629145

 Total Charge           Charge          ....    0
 Multiplicity           Mult            ....    1
 Number of Electrons    NEL             ....   68
 Basis Dimension        Dim             ....  327

ORBITAL ENERGIES
----------------

  NO   OCC          E(Eh)            E(eV)
   0   2.0000     -20.654918      -562.0489
   1   2.0000     -15.704190      -427.3327
   2   2.0000     -15.702110      -427.2761
   3   2.0000     -15.657235      -426.0550
   4   2.0000     -15.541922      -422.9172
   5   2.0000     -11.386746      -309.8491
   6   2.0000     -11.294049      -307.3267
   7   2.0000     -11.247778      -306.0676
   8   2.0000     -11.234556      -305.7078
   9   2.0000      -1.557313       -42.3766
  10   2.0000      -1.373081       -37.3634
  11   2.0000      -1.285838       -34.9894
  12   2.0000      -1.192451       -32.4482
  13   2.0000      -1.054614       -28.6975
  14   2.0000      -0.963292       -26.2125
  15   2.0000      -0.924045       -25.1446
  16   2.0000      -0.887364       -24.1464
  17   2.0000      -0.829858       -22.5816
  18   2.0000      -0.734224       -19.9793
  19   2.0000      -0.717600       -19.5269
  20   2.0000      -0.658027       -17.9058
  21   2.0000      -0.651384       -17.7250
  22   2.0000      -0.614138       -16.7115
  23   2.0000      -0.601328       -16.3630
  24   2.0000      -0.588859       -16.0237
  25   2.0000      -0.580466       -15.7953
  26   2.0000      -0.571721       -15.5573
  27   2.0000      -0.545415       -14.8415
  28   2.0000      -0.528941       -14.3932
  29   2.0000      -0.524414       -14.2700
  30   2.0000      -0.509553       -13.8656
  31   2.0000      -0.475724       -12.9451
  32   2.0000      -0.420882       -11.4528
  33   2.0000      -0.351125        -9.5546
  34   0.0000       0.115902         3.1539
  35   0.0000       0.136980         3.7274
  36   0.0000       0.159718         4.3462
  37   0.0000       0.172482         4.6935
  38   0.0000       0.189923         5.1681

MULLIKEN ATOMIC CHARGES
-----------------------
   0 C :   -0.417097
   1 C :   -0.109629
   2 N :    0.040195
   3 N :   -0.089610
   4 N :   -0.003534
   5 O :   -0.168132
   6 C :    0.235178
   7 N :   -0.332704
   8 C :   -0.292862
   9 H :    0.137538
  10 H :    0.157966
  11 H :    0.138860
  12 H :    0.146678
  13 H :    0.152558
  14 H :    0.129235
  15 H :    0.140159
  16 H :    0.135201
Sum of atomic charges:   -0.0000000

LOEWDIN ATOMIC CHARGES
----------------------
   0 C :   -0.308267
   1 C :   -0.269911
   2 N :    0.154074
   3 N :   -0.011162
   4 N :   -0.027406
   5 O :    0.199991
   6 C :   -0.462664
   7 N :    0.035753
   8 C :   -0.332182
   9 H :    0.128726
  10 H :    0.130567
  11 H :    0.125547
  12 H :    0.148402
  13 H :    0.143970
  14 H :    0.111430
  15 H :    0.116042
  16 H :    0.117088

  Mayer bond orders larger than 0.1
B(  0-C ,  1-C ) :   0.9257 B(  0-C ,  9-H ) :   0.9325 B(  0-C , 10-H ) :   0.9341
B(  0-C , 11-H ) :   0.9319 B(  1-C ,  2-N ) :   0.8454 B(  1-C , 12-H ) :   0.9166
B(  1-C , 13-H ) :   0.9228 B(  2-N ,  3-N ) :   0.9905 B(  2-N ,  4-N ) :   0.1065
B(  2-N ,  6-C ) :   1.0458 B(  3-N ,  4-N ) :   1.4989 B(  4-N ,  5-O ) :   0.8013
B(  5-O ,  6-C ) :   1.0718 B(  6-C ,  7-N ) :   1.8154 B(  7-N ,  8-C ) :   0.8809
B(  8-C , 14-H ) :   0.9320 B(  8-C , 15-H ) :   0.9419 B(  8-C , 16-H ) :   0.9321

MP2 TOTAL ENERGY:     -450.533573948 Eh
FINAL SINGLE POINT ENERGY      -450.533573948022

DIPOLE MOMENT
-------------
                                X             Y             Z
Electronic contribution:     -5.49964      -5.22689       5.67311
Nuclear contribution   :      6.31314       5.62807      -5.87410
                        -----------------------------------------
Total Dipole Moment    :      0.81350       0.40118      -0.20099
                        -----------------------------------------
Magnitude (a.u.)       :      0.92904
Magnitude (Debye)      :      2.36144

                             ****ORCA TERMINATED NORMALLY****
TOTAL RUN TIME: 0 days 0 hours 17 minutes 39 seconds 452 msec
