                         Program Version 3.0.3 - RELEASE   -
|  1> ! RI-MP2 RIJK def2-TZVP def2-TZVP/C def2-TZVP/JK TIGHTSCF
|  2> % maxcore 2000
|  3> % mp2 density relaxed end
|  4> *xyz 0 1
|  5>  C       -0.3485997785     1.3955255210     0.1642587123
|  6>  C        0.1865186031    -0.0272661997     0.0020653321
|  7>  N        0.8274867769    -0.5221335297     1.2103883238
|  8>  C        0.3517312306    -1.4293893313     2.0965632556
|  9>  C        1.2944626367    -1.5508453755     3.1043367317
| 10>  C        1.2347431234    -2.4457768789     4.3048292683
| 11>  O        0.7968939666    -3.7655019886     3.9958360285
| 12>  C        2.3140687017    -0.6556235614     2.7152960882
| 13>  N        2.0288243311    -0.0316618480     1.5742578058
| 14>  H        0.4640866775     2.0732714357     0.4354532160
| 15>  H       -0.7933970592     1.7394850224    -0.7743813121
| 16>  H       -1.1125328254     1.4398025813     0.9461185683
| 17>  H       -0.6188029069    -0.7246429781    -0.2451432543
| 18>  H        0.9248519122    -0.0676803679    -0.8039791821
| 19>  H       -0.5951701909    -1.9243038818     1.9481279580
| 20>  H        2.2169265613    -2.4519516779     4.8030534049
| 21>  H        0.5113156182    -2.0767420799     5.0411733226
| 22>  H        1.3542906854    -4.0855580574     3.2784997435
| 23>  H        3.2460219261    -0.4467813240     3.2219694587
| 24> *
| 25>
| 26>                          ****END OF INPUT****

CARTESIAN COORDINATES (ANGSTROEM)
---------------------------------
  C     -0.348600    1.395526    0.164259
  C      0.186519   -0.027266    0.002065
  N      0.827487   -0.522134    1.210388
  C      0.351731   -1.429389    2.096563
  C      1.294463   -1.550845    3.104337
  C      1.234743   -2.445777    4.304829
  O      0.796894   -3.765502    3.995836
  C      2.314069   -0.655624    2.715296
  N      2.028824   -0.031662    1.574258
  H      0.464087    2.073271    0.435453
  H     -0.793397    1.739485   -0.774381
  H     -1.112533    1.439803    0.946119
  H     -0.618803   -0.724643   -0.245143
  H      0.924852   -0.067680   -0.803979
  H     -0.595170   -1.924304    1.948128
  H      2.216927   -2.451952    4.803053
  H      0.511316   -2.076742    5.041173
  H      1.354291   -4.085558    3.278500
  H      3.246022   -0.446781    3.221969

 Total Charge           Charge          ....    0
 Multiplicity           Mult            ....    1
 Number of Electrons    NEL             ....   68
 Basis Dimension        Dim             ....  339

ORBITAL ENERGIES
----------------

  NO   OCC          E(Eh)            E(eV)
   0   2.0000     -20.555459      -559.3425
   1   2.0000     -15.638847      -425.5547
   2   2.0000     -15.580919      -423.9784
   3   2.0000     -11.282965      -307.0251
   4   2.0000     -11.278832      -306.9126
   5   2.0000     -11.271048      -306.7008
   6   2.0000     -11.250193      -306.1333
   7   2.0000     -11.225626      -305.4648
   8   2.0000     -11.221215      -305.3448
   9   2.0000      -1.378363       -37.5072
  10   2.0000      -1.358434       -36.9649
  11   2.0000      -1.130767       -30.7697
  12   2.0000      -1.069958       -29.1150
  13   2.0000      -1.013724       -27.5848
  14   2.0000      -0.929144       -25.2833
  15   2.0000      -0.870923       -23.6990
  16   2.0000      -0.791718       -21.5437
  17   2.0000      -0.773992       -21.0614
  18   2.0000      -0.715190       -19.4613
  19   2.0000      -0.679124       -18.4799
  20   2.0000      -0.647197       -17.6111
  21   2.0000      -0.625958       -17.0332
  22   2.0000      -0.603218       -16.4144
  23   2.0000      -0.600147       -16.3308
  24   2.0000      -0.589670       -16.0457
  25   2.0000      -0.555216       -15.1082
  26   2.0000      -0.539399       -14.6778
  27   2.0000      -0.524125       -14.2622
  28   2.0000      -0.517039       -14.0693
  29   2.0000      -0.505123       -13.7451
  30   2.0000      -0.459623       -12.5070
  31   2.0000      -0.448537       -12.2053
  32   2.0000      -0.353712        -9.6250
  33   2.0000      -0.335292        -9.1238
  34   0.0000       0.132848         3.6150
  35   0.0000       0.136680         3.7192
  36   0.0000       0.152366         4.1461
  37   0.0000       0.167659         4.5622
  38   0.0000       0.176214         4.7950

MULLIKEN ATOMIC CHARGES
-----------------------
   0 C :   -0.384321
   1 C :   -0.152007
   2 N :    0.144784
   3 C :   -0.155658
   4 C :   -0.108096
   5 C :    0.004284
   6 O :   -0.473087
   7 C :   -0.131205
   8 N :   -0.260875
   9 H :    0.154602
  10 H :    0.131089
  11 H :    0.129776
  12 H :    0.129626
  13 H :    0.139410
  14 H :    0.156559
  15 H :    0.110449
  16 H :    0.119202
  17 H :    0.313827
  18 H :    0.131640
Sum of atomic charges:    0.0000000

LOEWDIN ATOMIC CHARGES
----------------------
   0 C :   -0.310156
   1 C :   -0.270445
   2 N :    0.198315
   3 C :   -0.195952
   4 C :   -0.223520
   5 C :   -0.307787
   6 O :   -0.052214
   7 C :   -0.253926
   8 N :    0.044262
   9 H :    0.129966
  10 H :    0.125556
  11 H :    0.123726
  12 H :    0.139008
  13 H :    0.141775
  14 H :    0.142842
  15 H :    0.124883
  16 H :    0.135174
  17 H :    0.173460
  18 H :    0.135034

  Mayer bond orders larger than 0.1
B(  0-C ,  1-C ) :   0.9309 B(  0-C ,  9-H ) :   0.9326 B(  0-C , 10-H ) :   0.9313
B(  0-C , 11-H ) :   0.9323 B(  1-C ,  2-N ) :   0.8625 B(  1-C , 12-H ) :   0.9284
B(  1-C , 13-H ) :   0.9271 B(  2-N ,  3-C ) :   1.2198 B(  2-N ,  8-N ) :   1.0223
B(  3-C ,  4-C ) :   1.3952 B(  3-C ,  8-N ) :   0.1034 B(  3-C , 14-H ) :   0.8962
B(  4-C ,  5-C ) :   0.9247 B(  4-C ,  7-C ) :   1.2986 B(  5-C ,  6-O ) :   0.9038
B(  5-C , 15-H ) :   0.9473 B(  5-C , 16-H ) :   0.9191 B(  6-O , 17-H ) :   0.8431
B(  7-C ,  8-N ) :   1.4688 B(  7-C , 18-H ) :   0.9381

MP2 TOTAL ENERGY:     -418.522677761 Eh
FINAL SINGLE POINT ENERGY      -418.522677760945

DIPOLE MOMENT
-------------
                                X             Y             Z
Electronic contribution:      3.17666      -3.47930       2.65471
Nuclear contribution   :     -3.58355       3.60236      -3.29048
                        -----------------------------------------
Total Dipole Moment    :     -0.40689       0.12306      -0.63577
                        -----------------------------------------
Magnitude (a.u.)       :      0.76479
Magnitude (Debye)      :      1.94393

                             ****ORCA TERMINATED NORMALLY****
TOTAL RUN TIME: 0 days 0 hours 18 minutes 12 seconds 571 msec
