                         Program Version 3.0.3 - RELEASE   -
|  1> ! RI-MP2 RIJK def2-TZVP def2-TZVP/C def2-TZVP/JK TIGHTSCF
|  2> % maxcore 2000
|  3> % mp2 density relaxed end
|  4> *xyz 0 1
|  5>  O        0.0585035817     1.4207010623     0.0583457048
|  6>  C        0.0435838516     0.0101778620     0.2009302437
|  7>  C       -1.3265873888    -0.4846464651    -0.2545765828
|  8>  C       -1.4411166372    -1.9919396789    -0.1514238061
|  9>  C       -1.9120454730    -2.6656983646     1.0943671405
| 10>  C       -2.7805000465    -2.7317840295    -0.1587519694
| 11>  C       -4.0696759966    -2.0057776385    -0.1709966163
| 12>  O       -5.0524436667    -2.3785126406    -0.7644507968
| 13>  H        0.9171907405     1.7450557987     0.3445725139
| 14>  H        0.8304475419    -0.4635102414    -0.4093831550
| 15>  H        0.2173161553    -0.2918879068     1.2462346113
| 16>  H       -2.0868767125     0.0143904960     0.3544900579
| 17>  H       -1.4879301769    -0.1586476721    -1.2886840796
| 18>  H       -0.6737358718    -2.5258736489    -0.7077118201
| 19>  H       -1.4466423545    -3.5879402949     1.4222457427
| 20>  H       -2.2729283400    -2.0337425462     1.9009013877
| 21>  H       -2.8127976494    -3.6711219938    -0.6999693514
| 22>  H       -4.0897199370    -1.0709115677     0.4344549250
| 23> *
| 24>
| 25>                          ****END OF INPUT****

CARTESIAN COORDINATES (ANGSTROEM)
---------------------------------
  O      0.058504    1.420701    0.058346
  C      0.043584    0.010178    0.200930
  C     -1.326587   -0.484646   -0.254577
  C     -1.441117   -1.991940   -0.151424
  C     -1.912045   -2.665698    1.094367
  C     -2.780500   -2.731784   -0.158752
  C     -4.069676   -2.005778   -0.170997
  O     -5.052444   -2.378513   -0.764451
  H      0.917191    1.745056    0.344573
  H      0.830448   -0.463510   -0.409383
  H      0.217316   -0.291888    1.246235
  H     -2.086877    0.014390    0.354490
  H     -1.487930   -0.158648   -1.288684
  H     -0.673736   -2.525874   -0.707712
  H     -1.446642   -3.587940    1.422246
  H     -2.272928   -2.033743    1.900901
  H     -2.812798   -3.671122   -0.699969
  H     -4.089720   -1.070912    0.434455

 Total Charge           Charge          ....    0
 Multiplicity           Mult            ....    1
 Number of Electrons    NEL             ....   62
 Basis Dimension        Dim             ....  308

ORBITAL ENERGIES
----------------

  NO   OCC          E(Eh)            E(eV)
   0   2.0000     -20.564535      -559.5895
   1   2.0000     -20.547471      -559.1251
   2   2.0000     -11.328641      -308.2680
   3   2.0000     -11.286651      -307.1254
   4   2.0000     -11.259810      -306.3950
   5   2.0000     -11.251563      -306.1706
   6   2.0000     -11.249177      -306.1057
   7   2.0000     -11.237233      -305.7806
   8   2.0000      -1.386943       -37.7406
   9   2.0000      -1.369229       -37.2586
  10   2.0000      -1.174326       -31.9550
  11   2.0000      -1.034049       -28.1379
  12   2.0000      -0.914266       -24.8784
  13   2.0000      -0.872826       -23.7508
  14   2.0000      -0.815453       -22.1896
  15   2.0000      -0.767032       -20.8720
  16   2.0000      -0.707529       -19.2529
  17   2.0000      -0.692320       -18.8390
  18   2.0000      -0.656123       -17.8540
  19   2.0000      -0.650025       -17.6881
  20   2.0000      -0.623330       -16.9617
  21   2.0000      -0.589200       -16.0329
  22   2.0000      -0.562471       -15.3056
  23   2.0000      -0.549364       -14.9490
  24   2.0000      -0.540807       -14.7161
  25   2.0000      -0.516454       -14.0534
  26   2.0000      -0.504239       -13.7211
  27   2.0000      -0.455424       -12.3927
  28   2.0000      -0.447093       -12.1660
  29   2.0000      -0.419579       -11.4173
  30   2.0000      -0.410801       -11.1785
  31   0.0000       0.124894         3.3986
  32   0.0000       0.131036         3.5657
  33   0.0000       0.145674         3.9640
  34   0.0000       0.149243         4.0611
  35   0.0000       0.175278         4.7696

MULLIKEN ATOMIC CHARGES
-----------------------
   0 O :   -0.462598
   1 C :   -0.076556
   2 C :   -0.170791
   3 C :   -0.124517
   4 C :   -0.299286
   5 C :   -0.026838
   6 C :    0.058999
   7 O :   -0.272682
   8 H :    0.317315
   9 H :    0.094015
  10 H :    0.101369
  11 H :    0.104998
  12 H :    0.132464
  13 H :    0.128390
  14 H :    0.146353
  15 H :    0.139895
  16 H :    0.136071
  17 H :    0.073398
Sum of atomic charges:    0.0000000

LOEWDIN ATOMIC CHARGES
----------------------
   0 O :   -0.048452
   1 C :   -0.347941
   2 C :   -0.248831
   3 C :   -0.198924
   4 C :   -0.192078
   5 C :   -0.193557
   6 C :   -0.292465
   7 O :    0.124955
   8 H :    0.173402
   9 H :    0.115165
  10 H :    0.116119
  11 H :    0.142945
  12 H :    0.147246
  13 H :    0.155831
  14 H :    0.136797
  15 H :    0.140529
  16 H :    0.155703
  17 H :    0.113557

  Mayer bond orders larger than 0.1
B(  0-O ,  1-C ) :   1.0236 B(  0-O ,  8-H ) :   0.8478 B(  1-C ,  2-C ) :   0.9287
B(  1-C ,  9-H ) :   0.9321 B(  1-C , 10-H ) :   0.9307 B(  2-C ,  3-C ) :   0.9128
B(  2-C , 11-H ) :   0.9219 B(  2-C , 12-H ) :   0.9253 B(  3-C ,  4-C ) :   0.8959
B(  3-C ,  5-C ) :   0.8036 B(  3-C , 13-H ) :   0.9169 B(  4-C ,  5-C ) :   0.8332
B(  4-C , 14-H ) :   0.9232 B(  4-C , 15-H ) :   0.9228 B(  5-C ,  6-C ) :   0.9033
B(  5-C , 16-H ) :   0.9184 B(  6-C ,  7-O ) :   1.9846 B(  6-C , 17-H ) :   0.9513

MP2 TOTAL ENERGY:     -384.295206091 Eh
FINAL SINGLE POINT ENERGY      -384.295206091212

DIPOLE MOMENT
-------------
                                X             Y             Z
Electronic contribution:     -5.17954      -0.81206      -1.88457
Nuclear contribution   :      6.85387       0.72493       2.58761
                        -----------------------------------------
Total Dipole Moment    :      1.67433      -0.08712       0.70304
                        -----------------------------------------
Magnitude (a.u.)       :      1.81803
Magnitude (Debye)      :      4.62106

                             ****ORCA TERMINATED NORMALLY****
TOTAL RUN TIME: 0 days 0 hours 11 minutes 18 seconds 338 msec
