                         Program Version 3.0.3 - RELEASE   -
|  1> ! RI-MP2 RIJK def2-TZVP def2-TZVP/C def2-TZVP/JK TIGHTSCF
|  2> % maxcore 2000
|  3> % mp2 density relaxed end
|  4> *xyz 0 1
|  5>  O       -0.0654401313     1.4402356637    -0.3151779488
|  6>  C        0.0153577220     0.0276002753    -0.4537324327
|  7>  C       -1.3010261827    -0.5486803596     0.0779385431
|  8>  C       -2.4873105268    -0.0756639705    -0.7328352395
|  9>  C       -3.0081350045    -1.0397735220    -1.4885085727
| 10>  C       -2.2881938641    -2.3541198030    -1.3193121505
| 11>  C       -1.4271805758    -2.1087649222    -0.0401385962
| 12>  C       -0.1783599208    -2.8563715519    -0.0099948328
| 13>  C        0.8454955884    -3.4876601492     0.0074853248
| 14>  H        0.7578301991     1.8196331460    -0.6351766061
| 15>  H        0.1520372571    -0.2649055906    -1.5066043730
| 16>  H        0.8578235187    -0.3850109911     0.1186695892
| 17>  H       -1.3768574358    -0.2402132965     1.1271144828
| 18>  H       -2.8065026180     0.9588818374    -0.7154028070
| 19>  H       -3.8311944860    -0.9156073011    -2.1837341774
| 20>  H       -2.9588732938    -3.2101923933    -1.1906714878
| 21>  H       -1.6577348550    -2.5805295347    -2.1888004656
| 22>  H       -2.0326098789    -2.4301581358     0.8156530970
| 23>  H        1.7485441382    -4.0457303110     0.0266501731
| 24> *
| 25>
| 26>                          ****END OF INPUT****

CARTESIAN COORDINATES (ANGSTROEM)
---------------------------------
  O     -0.065440    1.440236   -0.315178
  C      0.015358    0.027600   -0.453732
  C     -1.301026   -0.548680    0.077939
  C     -2.487311   -0.075664   -0.732835
  C     -3.008135   -1.039774   -1.488509
  C     -2.288194   -2.354120   -1.319312
  C     -1.427181   -2.108765   -0.040139
  C     -0.178360   -2.856372   -0.009995
  C      0.845496   -3.487660    0.007485
  H      0.757830    1.819633   -0.635177
  H      0.152037   -0.264906   -1.506604
  H      0.857824   -0.385011    0.118670
  H     -1.376857   -0.240213    1.127114
  H     -2.806503    0.958882   -0.715403
  H     -3.831194   -0.915607   -2.183734
  H     -2.958873   -3.210192   -1.190671
  H     -1.657735   -2.580530   -2.188800
  H     -2.032610   -2.430158    0.815653
  H      1.748544   -4.045730    0.026650

 Total Charge           Charge          ....    0
 Multiplicity           Mult            ....    1
 Number of Electrons    NEL             ....   66
 Basis Dimension        Dim             ....  339

ORBITAL ENERGIES
----------------

  NO   OCC          E(Eh)            E(eV)
   0   2.0000     -20.555431      -559.3417
   1   2.0000     -11.273047      -306.7552
   2   2.0000     -11.257680      -306.3370
   3   2.0000     -11.237204      -305.7799
   4   2.0000     -11.233614      -305.6822
   5   2.0000     -11.233327      -305.6744
   6   2.0000     -11.225707      -305.4670
   7   2.0000     -11.222201      -305.3716
   8   2.0000     -11.220549      -305.3267
   9   2.0000      -1.359550       -36.9952
  10   2.0000      -1.150445       -31.3052
  11   2.0000      -1.043103       -28.3843
  12   2.0000      -1.000827       -27.2339
  13   2.0000      -0.964731       -26.2517
  14   2.0000      -0.888660       -24.1817
  15   2.0000      -0.802196       -21.8289
  16   2.0000      -0.733731       -19.9658
  17   2.0000      -0.716894       -19.5077
  18   2.0000      -0.700823       -19.0704
  19   2.0000      -0.671917       -18.2838
  20   2.0000      -0.656311       -17.8591
  21   2.0000      -0.624848       -17.0030
  22   2.0000      -0.568215       -15.4619
  23   2.0000      -0.545952       -14.8561
  24   2.0000      -0.533952       -14.5296
  25   2.0000      -0.520438       -14.1618
  26   2.0000      -0.506492       -13.7824
  27   2.0000      -0.501132       -13.6365
  28   2.0000      -0.483155       -13.1473
  29   2.0000      -0.442179       -12.0323
  30   2.0000      -0.383948       -10.4478
  31   2.0000      -0.381120       -10.3708
  32   2.0000      -0.348789        -9.4910
  33   0.0000       0.131625         3.5817
  34   0.0000       0.141553         3.8518
  35   0.0000       0.161315         4.3896
  36   0.0000       0.163929         4.4607
  37   0.0000       0.168557         4.5867

MULLIKEN ATOMIC CHARGES
-----------------------
   0 O :   -0.472786
   1 C :   -0.119819
   2 C :    0.086124
   3 C :   -0.199200
   4 C :   -0.178850
   5 C :   -0.163587
   6 C :   -0.242650
   7 C :   -0.014100
   8 C :   -0.164094
   9 H :    0.317132
  10 H :    0.103320
  11 H :    0.116706
  12 H :    0.104736
  13 H :    0.136537
  14 H :    0.126837
  15 H :    0.127665
  16 H :    0.123019
  17 H :    0.124463
  18 H :    0.188548
Sum of atomic charges:   -0.0000000

LOEWDIN ATOMIC CHARGES
----------------------
   0 O :   -0.044762
   1 C :   -0.318322
   2 C :   -0.200414
   3 C :   -0.133013
   4 C :   -0.157802
   5 C :   -0.201052
   6 C :   -0.187742
   7 C :   -0.092212
   8 C :   -0.106092
   9 H :    0.172673
  10 H :    0.121703
  11 H :    0.122445
  12 H :    0.157186
  13 H :    0.143054
  14 H :    0.137064
  15 H :    0.139312
  16 H :    0.145641
  17 H :    0.176305
  18 H :    0.126027

  Mayer bond orders larger than 0.1
B(  0-O ,  1-C ) :   1.0202 B(  0-O ,  2-C ) :  -0.1003 B(  0-O ,  9-H ) :   0.8482
B(  1-C ,  2-C ) :   0.8981 B(  1-C , 10-H ) :   0.9230 B(  1-C , 11-H ) :   0.9289
B(  2-C ,  3-C ) :   0.9106 B(  2-C ,  6-C ) :   0.9077 B(  2-C , 12-H ) :   0.9102
B(  3-C ,  4-C ) :   1.7852 B(  3-C , 13-H ) :   0.9241 B(  4-C ,  5-C ) :   0.9310
B(  4-C , 14-H ) :   0.9290 B(  5-C ,  6-C ) :   0.9276 B(  5-C , 15-H ) :   0.9226
B(  5-C , 16-H ) :   0.9082 B(  6-C ,  7-C ) :   1.1172 B(  6-C , 17-H ) :   0.9220
B(  7-C ,  8-C ) :   2.5994 B(  8-C , 18-H ) :   0.8971

MP2 TOTAL ENERGY:     -385.177409687 Eh
FINAL SINGLE POINT ENERGY      -385.177409687380

DIPOLE MOMENT
-------------
                                X             Y             Z
Electronic contribution:      0.76875      -0.15648       1.13981
Nuclear contribution   :     -0.43383       0.02466      -1.40913
                        -----------------------------------------
Total Dipole Moment    :      0.33492      -0.13182      -0.26932
                        -----------------------------------------
Magnitude (a.u.)       :      0.44954
Magnitude (Debye)      :      1.14263

                             ****ORCA TERMINATED NORMALLY****
TOTAL RUN TIME: 0 days 0 hours 31 minutes 25 seconds 402 msec
