                         Program Version 3.0.3 - RELEASE   -
|  1> ! RI-MP2 RIJK def2-TZVP def2-TZVP/C def2-TZVP/JK TIGHTSCF
|  2> % maxcore 2000
|  3> % mp2 density relaxed end
|  4> *xyz 0 1
|  5>  C        0.4794677623     0.7618708222     0.6563960511
|  6>  C       -0.3382000492     0.3005000074    -0.5608993314
|  7>  C        0.5156641434    -0.2639807232    -1.6498363809
|  8>  N        0.6310246047     0.1866371943    -2.8331640284
|  9>  C        1.5812587342    -0.6930197295    -3.5261310830
| 10>  C        1.9806923896    -1.7293052565    -2.4696310042
| 11>  C        2.2092125939    -3.1854693089    -2.7107166802
| 12>  C        3.3514223944    -2.2852836836    -2.2607039413
| 13>  O        1.2367268999    -1.3710542728    -1.3011666626
| 14>  H        1.0543607742    -0.0670197132     1.0767562245
| 15>  H        1.1797719114     1.5551518543     0.3780376065
| 16>  H       -0.1826853948     1.1513944863     1.4345232805
| 17>  H       -1.0528636933    -0.4708597924    -0.2490489782
| 18>  H       -0.9064550749     1.1286569236    -0.9891462642
| 19>  H        1.1032894875    -1.1491071013    -4.4015552407
| 20>  H        2.4379142483    -0.1122029181    -3.8885184571
| 21>  H        1.8085154378    -3.8806618604    -1.9814484856
| 22>  H        2.1952829176    -3.5402232266    -3.7365330882
| 23>  H        4.1225875702    -2.0203894609    -2.9773302762
| 24>  H        3.6957629528    -2.3937869006    -1.2382514604
| 25> *
| 26>
| 27>                          ****END OF INPUT****

CARTESIAN COORDINATES (ANGSTROEM)
---------------------------------
  C      0.479468    0.761871    0.656396
  C     -0.338200    0.300500   -0.560899
  C      0.515664   -0.263981   -1.649836
  N      0.631025    0.186637   -2.833164
  C      1.581259   -0.693020   -3.526131
  C      1.980692   -1.729305   -2.469631
  C      2.209213   -3.185469   -2.710717
  C      3.351422   -2.285284   -2.260704
  O      1.236727   -1.371054   -1.301167
  H      1.054361   -0.067020    1.076756
  H      1.179772    1.555152    0.378038
  H     -0.182685    1.151394    1.434523
  H     -1.052864   -0.470860   -0.249049
  H     -0.906455    1.128657   -0.989146
  H      1.103289   -1.149107   -4.401555
  H      2.437914   -0.112203   -3.888518
  H      1.808515   -3.880662   -1.981448
  H      2.195283   -3.540223   -3.736533
  H      4.122588   -2.020389   -2.977330
  H      3.695763   -2.393787   -1.238251

 Total Charge           Charge          ....    0
 Multiplicity           Mult            ....    1
 Number of Electrons    NEL             ....   68
 Basis Dimension        Dim             ....  345

ORBITAL ENERGIES
----------------

  NO   OCC          E(Eh)            E(eV)
   0   2.0000     -20.590060      -560.2840
   1   2.0000     -15.537304      -422.7915
   2   2.0000     -11.327135      -308.2270
   3   2.0000     -11.296863      -307.4033
   4   2.0000     -11.256628      -306.3084
   5   2.0000     -11.237277      -305.7819
   6   2.0000     -11.233056      -305.6670
   7   2.0000     -11.232439      -305.6502
   8   2.0000     -11.222896      -305.3905
   9   2.0000      -1.436076       -39.0776
  10   2.0000      -1.207226       -32.8503
  11   2.0000      -1.149401       -31.2768
  12   2.0000      -1.056319       -28.7439
  13   2.0000      -0.954993       -25.9867
  14   2.0000      -0.871401       -23.7120
  15   2.0000      -0.839171       -22.8350
  16   2.0000      -0.807038       -21.9606
  17   2.0000      -0.753742       -20.5104
  18   2.0000      -0.683337       -18.5945
  19   2.0000      -0.654806       -17.8182
  20   2.0000      -0.639322       -17.3968
  21   2.0000      -0.633340       -17.2341
  22   2.0000      -0.602692       -16.4001
  23   2.0000      -0.585494       -15.9321
  24   2.0000      -0.566631       -15.4188
  25   2.0000      -0.528215       -14.3735
  26   2.0000      -0.522359       -14.2141
  27   2.0000      -0.518111       -14.0985
  28   2.0000      -0.511934       -13.9304
  29   2.0000      -0.499762       -13.5992
  30   2.0000      -0.450997       -12.2722
  31   2.0000      -0.436704       -11.8833
  32   2.0000      -0.413819       -11.2606
  33   2.0000      -0.358730        -9.7615
  34   0.0000       0.138043         3.7563
  35   0.0000       0.151062         4.1106
  36   0.0000       0.167147         4.5483
  37   0.0000       0.171895         4.6775
  38   0.0000       0.186144         5.0652

MULLIKEN ATOMIC CHARGES
-----------------------
   0 C :   -0.399328
   1 C :   -0.207348
   2 C :    0.193456
   3 N :   -0.260561
   4 C :   -0.108794
   5 C :    0.177413
   6 C :   -0.285137
   7 C :   -0.287119
   8 O :   -0.270220
   9 H :    0.139210
  10 H :    0.132475
  11 H :    0.135196
  12 H :    0.124343
  13 H :    0.141964
  14 H :    0.116938
  15 H :    0.116302
  16 H :    0.137492
  17 H :    0.133368
  18 H :    0.133176
  19 H :    0.137173
Sum of atomic charges:    0.0000000

LOEWDIN ATOMIC CHARGES
----------------------
   0 C :   -0.306003
   1 C :   -0.246221
   2 C :   -0.367297
   3 N :    0.087207
   4 C :   -0.236583
   5 C :   -0.292610
   6 C :   -0.205959
   7 C :   -0.206241
   8 O :    0.281679
   9 H :    0.124812
  10 H :    0.124604
  11 H :    0.122488
  12 H :    0.150031
  13 H :    0.152392
  14 H :    0.135122
  15 H :    0.135184
  16 H :    0.139359
  17 H :    0.134464
  18 H :    0.134387
  19 H :    0.139186

  Mayer bond orders larger than 0.1
B(  0-C ,  1-C ) :   0.9093 B(  0-C ,  9-H ) :   0.9343 B(  0-C , 10-H ) :   0.9362
B(  0-C , 11-H ) :   0.9374 B(  1-C ,  2-C ) :   0.9013 B(  1-C , 12-H ) :   0.9235
B(  1-C , 13-H ) :   0.9449 B(  2-C ,  3-N ) :   1.8786 B(  2-C ,  8-O ) :   1.0464
B(  3-N ,  4-C ) :   0.9460 B(  4-C ,  5-C ) :   0.9244 B(  4-C , 14-H ) :   0.9174
B(  4-C , 15-H ) :   0.9159 B(  5-C ,  6-C ) :   0.8634 B(  5-C ,  7-C ) :   0.8585
B(  5-C ,  8-O ) :   0.9135 B(  6-C ,  7-C ) :   0.9123 B(  6-C , 16-H ) :   0.9204
B(  6-C , 17-H ) :   0.9189 B(  7-C , 18-H ) :   0.9185 B(  7-C , 19-H ) :   0.9197

MP2 TOTAL ENERGY:     -402.460298569 Eh
FINAL SINGLE POINT ENERGY      -402.460298568970

DIPOLE MOMENT
-------------
                                X             Y             Z
Electronic contribution:     -0.85273      -0.67565      -3.05007
Nuclear contribution   :      1.16668       0.23905       3.21921
                        -----------------------------------------
Total Dipole Moment    :      0.31395      -0.43660       0.16914
                        -----------------------------------------
Magnitude (a.u.)       :      0.56373
Magnitude (Debye)      :      1.43289

                             ****ORCA TERMINATED NORMALLY****
TOTAL RUN TIME: 0 days 0 hours 17 minutes 26 seconds 253 msec
