                         Program Version 3.0.3 - RELEASE   -
|  1> ! RI-MP2 RIJK def2-TZVP def2-TZVP/C def2-TZVP/JK TIGHTSCF
|  2> % maxcore 2000
|  3> % mp2 density relaxed end
|  4> *xyz 0 1
|  5>  C       -0.1241351103     1.4189340636     0.0386479319
|  6>  N        0.0017608503    -0.0271704880    -0.0365674953
|  7>  C       -0.0129035709    -0.8021664929     1.1867989628
|  8>  C       -1.4228690794    -0.9340285380     1.8137099335
|  9>  C       -1.3949961573    -1.7075572545     3.0469641381
| 10>  C       -1.3272555709    -2.3526300268     4.0587097422
| 11>  C        0.1531194157    -0.6297541830    -1.2534781635
| 12>  O        0.1699737666    -0.0635184761    -2.3252380614
| 13>  H        0.6505214233     1.8378546419     0.6916801686
| 14>  H       -0.0052545384     1.8129762230    -0.9706773138
| 15>  H       -1.1039625676     1.7218627144     0.4251114567
| 16>  H        0.3726330956    -1.8025980968     0.9699815756
| 17>  H        0.6651075256    -0.3470922896     1.9186021365
| 18>  H       -1.8341932837     0.0629207095     2.0119607467
| 19>  H       -2.0917532030    -1.4064731100     1.0840382486
| 20>  H       -1.2867958962    -2.9207186730     4.9549518478
| 21>  H        0.2671514506    -1.7271553838    -1.1517231952
| 22> *
| 23>
| 24>                          ****END OF INPUT****

CARTESIAN COORDINATES (ANGSTROEM)
---------------------------------
  C     -0.124135    1.418934    0.038648
  N      0.001761   -0.027170   -0.036567
  C     -0.012904   -0.802166    1.186799
  C     -1.422869   -0.934029    1.813710
  C     -1.394996   -1.707557    3.046964
  C     -1.327256   -2.352630    4.058710
  C      0.153119   -0.629754   -1.253478
  O      0.169974   -0.063518   -2.325238
  H      0.650521    1.837855    0.691680
  H     -0.005255    1.812976   -0.970677
  H     -1.103963    1.721863    0.425111
  H      0.372633   -1.802598    0.969982
  H      0.665108   -0.347092    1.918602
  H     -1.834193    0.062921    2.011961
  H     -2.091753   -1.406473    1.084038
  H     -1.286796   -2.920719    4.954952
  H      0.267151   -1.727155   -1.151723

 Total Charge           Charge          ....    0
 Multiplicity           Mult            ....    1
 Number of Electrons    NEL             ....   60
 Basis Dimension        Dim             ....  302

ORBITAL ENERGIES
----------------

  NO   OCC          E(Eh)            E(eV)
   0   2.0000     -20.523994      -558.4863
   1   2.0000     -15.596699      -424.4078
   2   2.0000     -11.349788      -308.8434
   3   2.0000     -11.290056      -307.2180
   4   2.0000     -11.269040      -306.6462
   5   2.0000     -11.264235      -306.5154
   6   2.0000     -11.245672      -306.0103
   7   2.0000     -11.233442      -305.6775
   8   2.0000      -1.386108       -37.7179
   9   2.0000      -1.261284       -34.3213
  10   2.0000      -1.091992       -29.7146
  11   2.0000      -1.009014       -27.4567
  12   2.0000      -0.970376       -26.4053
  13   2.0000      -0.902213       -24.5505
  14   2.0000      -0.785278       -21.3685
  15   2.0000      -0.735585       -20.0163
  16   2.0000      -0.712563       -19.3898
  17   2.0000      -0.677340       -18.4314
  18   2.0000      -0.655701       -17.8425
  19   2.0000      -0.628985       -17.1156
  20   2.0000      -0.621519       -16.9124
  21   2.0000      -0.587039       -15.9741
  22   2.0000      -0.563869       -15.3437
  23   2.0000      -0.548503       -14.9255
  24   2.0000      -0.536776       -14.6064
  25   2.0000      -0.531090       -14.4517
  26   2.0000      -0.433984       -11.8093
  27   2.0000      -0.408377       -11.1125
  28   2.0000      -0.398741       -10.8503
  29   2.0000      -0.376905       -10.2561
  30   0.0000       0.125573         3.4170
  31   0.0000       0.144816         3.9407
  32   0.0000       0.155052         4.2192
  33   0.0000       0.161629         4.3981
  34   0.0000       0.170023         4.6266

MULLIKEN ATOMIC CHARGES
-----------------------
   0 C :   -0.334343
   1 N :   -0.067404
   2 C :   -0.194837
   3 C :   -0.310756
   4 C :   -0.040394
   5 C :   -0.147535
   6 C :    0.142439
   7 O :   -0.360224
   8 H :    0.137573
   9 H :    0.183905
  10 H :    0.134533
  11 H :    0.145645
  12 H :    0.139700
  13 H :    0.149049
  14 H :    0.150842
  15 H :    0.193857
  16 H :    0.077950
Sum of atomic charges:    0.0000000

LOEWDIN ATOMIC CHARGES
----------------------
   0 C :   -0.286066
   1 N :    0.143908
   2 C :   -0.250069
   3 C :   -0.247005
   4 C :   -0.114890
   5 C :   -0.098692
   6 C :   -0.418592
   7 O :    0.057457
   8 H :    0.119497
   9 H :    0.136970
  10 H :    0.116194
  11 H :    0.144436
  12 H :    0.140119
  13 H :    0.156287
  14 H :    0.158396
  15 H :    0.127831
  16 H :    0.114217

  Mayer bond orders larger than 0.1
B(  0-C ,  1-N ) :   0.8657 B(  0-C ,  8-H ) :   0.9314 B(  0-C ,  9-H ) :   0.9186
B(  0-C , 10-H ) :   0.9324 B(  1-N ,  2-C ) :   0.9135 B(  1-N ,  6-C ) :   1.1344
B(  2-C ,  3-C ) :   0.8845 B(  2-C , 11-H ) :   0.9322 B(  2-C , 12-H ) :   0.9397
B(  3-C ,  4-C ) :   1.0595 B(  3-C , 13-H ) :   0.9314 B(  3-C , 14-H ) :   0.9223
B(  4-C ,  5-C ) :   2.6290 B(  5-C , 15-H ) :   0.8997 B(  6-C ,  7-O ) :   1.8992
B(  6-C , 16-H ) :   0.9277

MP2 TOTAL ENERGY:     -363.220745586 Eh
FINAL SINGLE POINT ENERGY      -363.220745585671

DIPOLE MOMENT
-------------
                                X             Y             Z
Electronic contribution:      0.10999      -2.34617      -1.93927
Nuclear contribution   :     -0.19116       2.30044       3.26201
                        -----------------------------------------
Total Dipole Moment    :     -0.08116      -0.04573       1.32274
                        -----------------------------------------
Magnitude (a.u.)       :      1.32601
Magnitude (Debye)      :      3.37046

                             ****ORCA TERMINATED NORMALLY****
TOTAL RUN TIME: 0 days 0 hours 10 minutes 0 seconds 827 msec
