                         Program Version 3.0.3 - RELEASE   -
|  1> ! RI-MP2 RIJK def2-TZVP def2-TZVP/C def2-TZVP/JK TIGHTSCF
|  2> % maxcore 2000
|  3> % mp2 density relaxed end
|  4> *xyz 0 1
|  5>  N       -0.6140314324     0.4710081562    -2.1856030132
|  6>  C       -0.6379942115    -0.8913598570    -2.2768325779
|  7>  O        0.0738583033    -1.5045007304    -3.0541247195
|  8>  C       -1.6255869579    -1.5522069744    -1.3534091086
|  9>  C       -2.1064672517    -2.9210867082    -1.7227137532
| 10>  N       -1.2538218172    -2.7419348075    -0.5674089243
| 11>  C        0.0950860558    -3.2502449780    -0.6079986147
| 12>  C        0.9267262219    -3.0308554013     0.6262495537
| 13>  C        0.3845115957    -4.4052710420     0.3114090754
| 14>  H        0.0749707283     0.9658141207    -2.7282965425
| 15>  H       -1.0961248705     0.9657672021    -1.4560664410
| 16>  H       -2.2995830092    -0.8797065394    -0.8258239992
| 17>  H       -3.1383428118    -3.1971653125    -1.5212456663
| 18>  H       -1.6653977436    -3.3396845964    -2.6246060531
| 19>  H        0.6026486306    -3.2229381793    -1.5677385557
| 20>  H        1.9873883571    -2.8443132774     0.5012915927
| 21>  H        0.4593765082    -2.4918424458     1.4424259099
| 22>  H       -0.4373208946    -4.7642286578     0.9200103069
| 23>  H        1.0688190096    -5.1721372317    -0.0336621595
| 24> *
| 25>
| 26>                          ****END OF INPUT****

CARTESIAN COORDINATES (ANGSTROEM)
---------------------------------
  N     -0.614031    0.471008   -2.185603
  C     -0.637994   -0.891360   -2.276833
  O      0.073858   -1.504501   -3.054125
  C     -1.625587   -1.552207   -1.353409
  C     -2.106467   -2.921087   -1.722714
  N     -1.253822   -2.741935   -0.567409
  C      0.095086   -3.250245   -0.607999
  C      0.926726   -3.030855    0.626250
  C      0.384512   -4.405271    0.311409
  H      0.074971    0.965814   -2.728297
  H     -1.096125    0.965767   -1.456066
  H     -2.299583   -0.879707   -0.825824
  H     -3.138343   -3.197165   -1.521246
  H     -1.665398   -3.339685   -2.624606
  H      0.602649   -3.222938   -1.567739
  H      1.987388   -2.844313    0.501292
  H      0.459377   -2.491842    1.442426
  H     -0.437321   -4.764229    0.920010
  H      1.068819   -5.172137   -0.033662

 Total Charge           Charge          ....    0
 Multiplicity           Mult            ....    1
 Number of Electrons    NEL             ....   68
 Basis Dimension        Dim             ....  339

ORBITAL ENERGIES
----------------

  NO   OCC          E(Eh)            E(eV)
   0   2.0000     -20.520233      -558.3839
   1   2.0000     -15.589215      -424.2041
   2   2.0000     -15.573277      -423.7704
   3   2.0000     -11.358359      -309.0767
   4   2.0000     -11.273126      -306.7573
   5   2.0000     -11.262429      -306.4663
   6   2.0000     -11.249525      -306.1151
   7   2.0000     -11.217448      -305.2423
   8   2.0000     -11.216791      -305.2244
   9   2.0000      -1.387280       -37.7498
  10   2.0000      -1.283273       -34.9196
  11   2.0000      -1.216382       -33.0994
  12   2.0000      -1.130773       -30.7699
  13   2.0000      -0.948264       -25.8036
  14   2.0000      -0.892414       -24.2838
  15   2.0000      -0.818411       -22.2701
  16   2.0000      -0.800080       -21.7713
  17   2.0000      -0.775576       -21.1045
  18   2.0000      -0.720038       -19.5932
  19   2.0000      -0.702666       -19.1205
  20   2.0000      -0.677761       -18.4428
  21   2.0000      -0.636274       -17.3139
  22   2.0000      -0.617636       -16.8067
  23   2.0000      -0.585369       -15.9287
  24   2.0000      -0.571092       -15.5402
  25   2.0000      -0.555653       -15.1201
  26   2.0000      -0.529786       -14.4162
  27   2.0000      -0.505687       -13.7604
  28   2.0000      -0.479576       -13.0499
  29   2.0000      -0.438546       -11.9335
  30   2.0000      -0.428654       -11.6643
  31   2.0000      -0.418537       -11.3890
  32   2.0000      -0.391364       -10.6496
  33   2.0000      -0.373164       -10.1543
  34   0.0000       0.125840         3.4243
  35   0.0000       0.157317         4.2808
  36   0.0000       0.164209         4.4684
  37   0.0000       0.174397         4.7456
  38   0.0000       0.181664         4.9433

MULLIKEN ATOMIC CHARGES
-----------------------
   0 N :   -0.471300
   1 C :    0.282188
   2 O :   -0.370838
   3 C :   -0.074974
   4 C :   -0.168991
   5 N :   -0.214810
   6 C :   -0.081493
   7 C :   -0.237613
   8 C :   -0.238610
   9 H :    0.260989
  10 H :    0.260700
  11 H :    0.118141
  12 H :    0.135306
  13 H :    0.145433
  14 H :    0.147711
  15 H :    0.127292
  16 H :    0.125132
  17 H :    0.127657
  18 H :    0.128077
Sum of atomic charges:   -0.0000000

LOEWDIN ATOMIC CHARGES
----------------------
   0 N :   -0.012071
   1 C :   -0.469149
   2 O :    0.080456
   3 C :   -0.224136
   4 C :   -0.220178
   5 N :    0.150650
   6 C :   -0.274204
   7 C :   -0.229781
   8 C :   -0.227255
   9 H :    0.174353
  10 H :    0.170918
  11 H :    0.141897
  12 H :    0.125878
  13 H :    0.137021
  14 H :    0.145748
  15 H :    0.130162
  16 H :    0.134310
  17 H :    0.135271
  18 H :    0.130108

  Mayer bond orders larger than 0.1
B(  0-N ,  1-C ) :   1.1591 B(  0-N ,  9-H ) :   0.8560 B(  0-N , 10-H ) :   0.8699
B(  1-C ,  2-O ) :   1.9133 B(  1-C ,  3-C ) :   0.9171 B(  3-C ,  4-C ) :   0.9391
B(  3-C ,  5-N ) :   0.8966 B(  3-C , 11-H ) :   0.8988 B(  4-C ,  5-N ) :   0.8859
B(  4-C , 12-H ) :   0.9171 B(  4-C , 13-H ) :   0.9137 B(  5-N ,  6-C ) :   0.9415
B(  6-C ,  7-C ) :   0.8753 B(  6-C ,  8-C ) :   0.8677 B(  6-C , 14-H ) :   0.9214
B(  7-C ,  8-C ) :   0.9343 B(  7-C , 15-H ) :   0.9267 B(  7-C , 16-H ) :   0.9252
B(  8-C , 17-H ) :   0.9223 B(  8-C , 18-H ) :   0.9273

MP2 TOTAL ENERGY:     -418.483890917 Eh
FINAL SINGLE POINT ENERGY      -418.483890916802

DIPOLE MOMENT
-------------
                                X             Y             Z
Electronic contribution:     -1.06493       3.13168      -3.77887
Nuclear contribution   :      0.67326      -2.18715       4.14559
                        -----------------------------------------
Total Dipole Moment    :     -0.39167       0.94453       0.36671
                        -----------------------------------------
Magnitude (a.u.)       :      1.08629
Magnitude (Debye)      :      2.76112

                             ****ORCA TERMINATED NORMALLY****
TOTAL RUN TIME: 0 days 0 hours 17 minutes 33 seconds 271 msec
