                         Program Version 3.0.3 - RELEASE   -
|  1> ! RI-MP2 RIJK def2-TZVP def2-TZVP/C def2-TZVP/JK TIGHTSCF
|  2> % maxcore 2000
|  3> % mp2 density relaxed end
|  4> *xyz 0 1
|  5>  C       -0.3242823111     1.2404353253    -0.0127776728
|  6>  O       -0.1524104537    -0.1538126056     0.0567325853
|  7>  C        0.6569996504    -0.5545839770     1.1400996825
|  8>  C        0.7942285891    -2.0721373732     1.1021272379
|  9>  C        1.5954603530    -2.6624072409     2.2675531621
| 10>  O        2.9264814867    -2.1717821305     2.2929733552
| 11>  C        0.8316856439    -2.6761261293     3.6338093428
| 12>  C        0.4686414414    -4.1635703084     3.3765644453
| 13>  C        1.5720554022    -4.2110001854     2.2857443328
| 14>  H        0.6358707472     1.7658412615    -0.1411837360
| 15>  H       -0.9586273586     1.4501371614    -0.8774809027
| 16>  H       -0.8127012066     1.6391567290     0.8911071471
| 17>  H        1.6486678391    -0.0736021635     1.0634470094
| 18>  H        0.2092287575    -0.2229549789     2.0938550245
| 19>  H       -0.2121648116    -2.5065285824     1.0914179735
| 20>  H        1.2794739089    -2.3571329427     0.1618093463
| 21>  H        2.9036996672    -1.2228612456     2.4543515015
| 22>  H        1.5421215613    -2.5662200713     4.4571842550
| 23>  H        0.0098873745    -1.9682212071     3.7719917938
| 24>  H        0.5730885562    -4.8512362043     4.2177667845
| 25>  H       -0.5353023251    -4.2803425026     2.9604620970
| 26>  H        1.3446593373    -4.7166537035     1.3438515395
| 27>  H        2.5208878609    -4.5873033949     2.6749355554
| 28> *
| 29>
| 30>                          ****END OF INPUT****

CARTESIAN COORDINATES (ANGSTROEM)
---------------------------------
  C     -0.324282    1.240435   -0.012778
  O     -0.152410   -0.153813    0.056733
  C      0.657000   -0.554584    1.140100
  C      0.794229   -2.072137    1.102127
  C      1.595460   -2.662407    2.267553
  O      2.926481   -2.171782    2.292973
  C      0.831686   -2.676126    3.633809
  C      0.468641   -4.163570    3.376564
  C      1.572055   -4.211000    2.285744
  H      0.635871    1.765841   -0.141184
  H     -0.958627    1.450137   -0.877481
  H     -0.812701    1.639157    0.891107
  H      1.648668   -0.073602    1.063447
  H      0.209229   -0.222955    2.093855
  H     -0.212165   -2.506529    1.091418
  H      1.279474   -2.357133    0.161809
  H      2.903700   -1.222861    2.454352
  H      1.542122   -2.566220    4.457184
  H      0.009887   -1.968221    3.771992
  H      0.573089   -4.851236    4.217767
  H     -0.535302   -4.280343    2.960462
  H      1.344659   -4.716654    1.343852
  H      2.520888   -4.587303    2.674936

 Total Charge           Charge          ....    0
 Multiplicity           Mult            ....    1
 Number of Electrons    NEL             ....   72
 Basis Dimension        Dim             ....  363

ORBITAL ENERGIES
----------------

  NO   OCC          E(Eh)            E(eV)
   0   2.0000     -20.558180      -559.4165
   1   2.0000     -20.553003      -559.2757
   2   2.0000     -11.283249      -307.0328
   3   2.0000     -11.279094      -306.9198
   4   2.0000     -11.273039      -306.7550
   5   2.0000     -11.221340      -305.3482
   6   2.0000     -11.219768      -305.3054
   7   2.0000     -11.219592      -305.3006
   8   2.0000     -11.214905      -305.1731
   9   2.0000      -1.379675       -37.5429
  10   2.0000      -1.361675       -37.0530
  11   2.0000      -1.123695       -30.5773
  12   2.0000      -1.032500       -28.0958
  13   2.0000      -0.932238       -25.3675
  14   2.0000      -0.904511       -24.6130
  15   2.0000      -0.871283       -23.7088
  16   2.0000      -0.825883       -22.4734
  17   2.0000      -0.738699       -20.1010
  18   2.0000      -0.691731       -18.8230
  19   2.0000      -0.676523       -18.4091
  20   2.0000      -0.661156       -17.9910
  21   2.0000      -0.644248       -17.5309
  22   2.0000      -0.619472       -16.8567
  23   2.0000      -0.613384       -16.6910
  24   2.0000      -0.591298       -16.0900
  25   2.0000      -0.558917       -15.2089
  26   2.0000      -0.543228       -14.7820
  27   2.0000      -0.518468       -14.1082
  28   2.0000      -0.512094       -13.9348
  29   2.0000      -0.491717       -13.3803
  30   2.0000      -0.483998       -13.1703
  31   2.0000      -0.472517       -12.8578
  32   2.0000      -0.462731       -12.5916
  33   2.0000      -0.427802       -11.6411
  34   2.0000      -0.426255       -11.5990
  35   2.0000      -0.410580       -11.1724
  36   0.0000       0.132633         3.6091
  37   0.0000       0.146475         3.9858
  38   0.0000       0.157346         4.2816
  39   0.0000       0.175103         4.7648
  40   0.0000       0.178474         4.8565

MULLIKEN ATOMIC CHARGES
-----------------------
   0 C :   -0.217805
   1 O :   -0.298358
   2 C :   -0.115569
   3 C :   -0.210689
   4 C :    0.258191
   5 O :   -0.467957
   6 C :   -0.267202
   7 C :   -0.252829
   8 C :   -0.231255
   9 H :    0.110889
  10 H :    0.140646
  11 H :    0.109763
  12 H :    0.079377
  13 H :    0.097699
  14 H :    0.118218
  15 H :    0.123798
  16 H :    0.311395
  17 H :    0.117363
  18 H :    0.113281
  19 H :    0.117493
  20 H :    0.121606
  21 H :    0.117830
  22 H :    0.124115
Sum of atomic charges:   -0.0000000

LOEWDIN ATOMIC CHARGES
----------------------
   0 C :   -0.362813
   1 O :    0.136891
   2 C :   -0.334006
   3 C :   -0.231082
   4 C :   -0.360301
   5 O :    0.006164
   6 C :   -0.213308
   7 C :   -0.243359
   8 C :   -0.199192
   9 H :    0.100883
  10 H :    0.113913
  11 H :    0.100629
  12 H :    0.113907
  13 H :    0.117927
  14 H :    0.150843
  15 H :    0.148056
  16 H :    0.169951
  17 H :    0.137290
  18 H :    0.123131
  19 H :    0.123909
  20 H :    0.130921
  21 H :    0.127730
  22 H :    0.141919

  Mayer bond orders larger than 0.1
B(  0-C ,  1-O ) :   0.9198 B(  0-C ,  9-H ) :   0.9371 B(  0-C , 10-H ) :   0.9395
B(  0-C , 11-H ) :   0.9362 B(  1-O ,  2-C ) :   0.9690 B(  2-C ,  3-C ) :   0.9198
B(  2-C , 12-H ) :   0.9301 B(  2-C , 13-H ) :   0.9219 B(  3-C ,  4-C ) :   0.9201
B(  3-C , 14-H ) :   0.9093 B(  3-C , 15-H ) :   0.9213 B(  4-C ,  5-O ) :   0.9564
B(  4-C ,  6-C ) :   0.9028 B(  4-C ,  8-C ) :   0.8582 B(  5-O , 16-H ) :   0.8435
B(  6-C ,  7-C ) :   0.9501 B(  6-C , 17-H ) :   0.9171 B(  6-C , 18-H ) :   0.9251
B(  7-C ,  8-C ) :   0.9442 B(  7-C , 19-H ) :   0.9284 B(  7-C , 20-H ) :   0.9274
B(  8-C , 21-H ) :   0.9305 B(  8-C , 22-H ) :   0.9217

MP2 TOTAL ENERGY:     -424.699702446 Eh
FINAL SINGLE POINT ENERGY      -424.699702446377

DIPOLE MOMENT
-------------
                                X             Y             Z
Electronic contribution:      2.43893      -0.96884      -1.01205
Nuclear contribution   :     -2.75475       1.57981       1.36087
                        -----------------------------------------
Total Dipole Moment    :     -0.31582       0.61097       0.34882
                        -----------------------------------------
Magnitude (a.u.)       :      0.77117
Magnitude (Debye)      :      1.96016

                             ****ORCA TERMINATED NORMALLY****
TOTAL RUN TIME: 0 days 0 hours 18 minutes 53 seconds 482 msec
