                         Program Version 3.0.3 - RELEASE   -
|  1> ! RI-MP2 RIJK def2-TZVP def2-TZVP/C def2-TZVP/JK TIGHTSCF
|  2> % maxcore 2000
|  3> % mp2 density relaxed end
|  4> *xyz 0 1
|  5>  O       -0.6198106973     0.6453581996     0.4936629325
|  6>  C        0.4025010924     0.6462007052    -0.1423603841
|  7>  C        1.4681860423     1.7167057613    -0.0212527995
|  8>  N        2.7926476320     1.3505994172    -0.5590237199
|  9>  C        2.9425090043     2.6557224128    -1.2557410674
| 10>  C        1.4101792384     2.9082465076    -1.0263082796
| 11>  C        1.1261822689     2.5700221896    -2.5216025474
| 12>  C        2.6526369449     2.4496229526    -2.7599634569
| 13>  O        3.3300796844     2.3067772604    -3.7318620330
| 14>  H        0.6378352667    -0.1445544116    -0.8899229428
| 15>  H        1.4691051063     2.0899078467     1.0110685126
| 16>  H        3.5123452118     1.1226830707     0.1143776371
| 17>  H        3.7542257612     3.3115710070    -0.9326523030
| 18>  H        1.0011746261     3.8448728562    -0.6578461164
| 19>  H        0.5391774939     1.6754855008    -2.7414613794
| 20>  H        0.6930533037     3.4031911439    -3.0836896630
| 21> *
| 22>
| 23>                          ****END OF INPUT****

CARTESIAN COORDINATES (ANGSTROEM)
---------------------------------
  O     -0.619811    0.645358    0.493663
  C      0.402501    0.646201   -0.142360
  C      1.468186    1.716706   -0.021253
  N      2.792648    1.350599   -0.559024
  C      2.942509    2.655722   -1.255741
  C      1.410179    2.908247   -1.026308
  C      1.126182    2.570022   -2.521603
  C      2.652637    2.449623   -2.759963
  O      3.330080    2.306777   -3.731862
  H      0.637835   -0.144554   -0.889923
  H      1.469105    2.089908    1.011069
  H      3.512345    1.122683    0.114378
  H      3.754226    3.311571   -0.932652
  H      1.001175    3.844873   -0.657846
  H      0.539177    1.675486   -2.741461
  H      0.693053    3.403191   -3.083690

 Total Charge           Charge          ....    0
 Multiplicity           Mult            ....    1
 Number of Electrons    NEL             ....   66
 Basis Dimension        Dim             ....  321

ORBITAL ENERGIES
----------------

  NO   OCC          E(Eh)            E(eV)
   0   2.0000     -20.569021      -559.7115
   1   2.0000     -20.564316      -559.5835
   2   2.0000     -15.581088      -423.9830
   3   2.0000     -11.342442      -308.6435
   4   2.0000     -11.338705      -308.5419
   5   2.0000     -11.292322      -307.2797
   6   2.0000     -11.291575      -307.2594
   7   2.0000     -11.270896      -306.6967
   8   2.0000     -11.257928      -306.3438
   9   2.0000      -1.407969       -38.3128
  10   2.0000      -1.406793       -38.2808
  11   2.0000      -1.280859       -34.8540
  12   2.0000      -1.099301       -29.9135
  13   2.0000      -1.003081       -27.2952
  14   2.0000      -0.919667       -25.0254
  15   2.0000      -0.866713       -23.5845
  16   2.0000      -0.782098       -21.2820
  17   2.0000      -0.749879       -20.4053
  18   2.0000      -0.726143       -19.7593
  19   2.0000      -0.680896       -18.5281
  20   2.0000      -0.662450       -18.0262
  21   2.0000      -0.661403       -17.9977
  22   2.0000      -0.620649       -16.8887
  23   2.0000      -0.617577       -16.8051
  24   2.0000      -0.581920       -15.8348
  25   2.0000      -0.560851       -15.2615
  26   2.0000      -0.536720       -14.6049
  27   2.0000      -0.515381       -14.0242
  28   2.0000      -0.497963       -13.5503
  29   2.0000      -0.480445       -13.0736
  30   2.0000      -0.441110       -12.0032
  31   2.0000      -0.416907       -11.3446
  32   2.0000      -0.390562       -10.6277
  33   0.0000       0.092953         2.5294
  34   0.0000       0.112904         3.0723
  35   0.0000       0.148731         4.0472
  36   0.0000       0.151350         4.1184
  37   0.0000       0.157574         4.2878

MULLIKEN ATOMIC CHARGES
-----------------------
   0 O :   -0.254684
   1 C :    0.040664
   2 C :    0.035159
   3 N :   -0.398020
   4 C :    0.002247
   5 C :   -0.048465
   6 C :   -0.279028
   7 C :    0.121161
   8 O :   -0.237193
   9 H :    0.098722
  10 H :    0.113688
  11 H :    0.222728
  12 H :    0.136869
  13 H :    0.148050
  14 H :    0.150074
  15 H :    0.148027
Sum of atomic charges:    0.0000000

LOEWDIN ATOMIC CHARGES
----------------------
   0 O :    0.140172
   1 C :   -0.279453
   2 C :   -0.257443
   3 N :    0.035797
   4 C :   -0.186630
   5 C :   -0.149756
   6 C :   -0.185631
   7 C :   -0.292434
   8 O :    0.176427
   9 H :    0.114732
  10 H :    0.149907
  11 H :    0.164679
  12 H :    0.132617
  13 H :    0.141243
  14 H :    0.145446
  15 H :    0.150327

  Mayer bond orders larger than 0.1
B(  0-O ,  1-C ) :   1.9978 B(  1-C ,  2-C ) :   0.8258 B(  1-C ,  9-H ) :   0.9406
B(  2-C ,  3-N ) :   0.9439 B(  2-C ,  5-C ) :   0.8987 B(  2-C , 10-H ) :   0.9053
B(  3-N ,  4-C ) :   0.9462 B(  3-N , 11-H ) :   0.8786 B(  4-C ,  5-C ) :   0.9013
B(  4-C ,  6-C ) :  -0.1065 B(  4-C ,  7-C ) :   0.8320 B(  4-C , 12-H ) :   0.8929
B(  5-C ,  6-C ) :   0.9098 B(  5-C , 13-H ) :   0.9206 B(  6-C ,  7-C ) :   0.9147
B(  6-C , 14-H ) :   0.8989 B(  6-C , 15-H ) :   0.9002 B(  7-C ,  8-O ) :   2.0472

MP2 TOTAL ENERGY:     -437.129324882 Eh
FINAL SINGLE POINT ENERGY      -437.129324881982

DIPOLE MOMENT
-------------
                                X             Y             Z
Electronic contribution:      0.73137      -1.21931      -0.96431
Nuclear contribution   :     -0.36349       1.89889       1.63871
                        -----------------------------------------
Total Dipole Moment    :      0.36788       0.67958       0.67440
                        -----------------------------------------
Magnitude (a.u.)       :      1.02566
Magnitude (Debye)      :      2.60702

                             ****ORCA TERMINATED NORMALLY****
TOTAL RUN TIME: 0 days 0 hours 15 minutes 43 seconds 808 msec
