                         Program Version 3.0.3 - RELEASE   -
|  1> ! RI-MP2 RIJK def2-TZVP def2-TZVP/C def2-TZVP/JK TIGHTSCF
|  2> % maxcore 2000
|  3> % mp2 density relaxed end
|  4> *xyz 0 1
|  5>  C       -0.2350239201     1.6513508304     0.0387723025
|  6>  C        0.0290728450     0.1431437755     0.0074246400
|  7>  C       -1.2912014320    -0.6390762974    -0.0129739876
|  8>  O       -2.0527500113    -0.2823043924     1.1323133911
|  9>  C        0.9008834185    -0.3093150118    -1.2019718664
| 10>  C        2.0032340591    -1.1903562363    -0.5677223350
| 11>  O        1.5529768395    -1.5029813032     0.7425057810
| 12>  C        0.8822994107    -0.3413060146     1.2027768839
| 13>  H        0.7054051427     2.2119053458     0.0620489295
| 14>  H       -0.7930300400     1.9699200650    -0.8486971474
| 15>  H       -0.8244637295     1.9259140543     0.9172603162
| 16>  H       -1.8392306214    -0.4037786752    -0.9401263965
| 17>  H       -1.0633403858    -1.7155922310    -0.0180969595
| 18>  H       -2.8311630642    -0.8450003195     1.1660202308
| 19>  H        0.3048428886    -0.8722982267    -1.9273673159
| 20>  H        1.3270122174     0.5473920401    -1.7304498310
| 21>  H        2.1799117445    -2.1304065659    -1.0968923513
| 22>  H        2.9566982603    -0.6396924043    -0.5213804867
| 23>  H        1.6071214283     0.4366389816     1.4975090747
| 24>  H        0.2800221697    -0.6102056444     2.0725500576
| 25> *
| 26>
| 27>                          ****END OF INPUT****

CARTESIAN COORDINATES (ANGSTROEM)
---------------------------------
  C     -0.235024    1.651351    0.038772
  C      0.029073    0.143144    0.007425
  C     -1.291201   -0.639076   -0.012974
  O     -2.052750   -0.282304    1.132313
  C      0.900883   -0.309315   -1.201972
  C      2.003234   -1.190356   -0.567722
  O      1.552977   -1.502981    0.742506
  C      0.882299   -0.341306    1.202777
  H      0.705405    2.211905    0.062049
  H     -0.793030    1.969920   -0.848697
  H     -0.824464    1.925914    0.917260
  H     -1.839231   -0.403779   -0.940126
  H     -1.063340   -1.715592   -0.018097
  H     -2.831163   -0.845000    1.166020
  H      0.304843   -0.872298   -1.927367
  H      1.327012    0.547392   -1.730450
  H      2.179912   -2.130407   -1.096892
  H      2.956698   -0.639692   -0.521380
  H      1.607121    0.436639    1.497509
  H      0.280022   -0.610206    2.072550

 Total Charge           Charge          ....    0
 Multiplicity           Mult            ....    1
 Number of Electrons    NEL             ....   64
 Basis Dimension        Dim             ....  320

ORBITAL ENERGIES
----------------

  NO   OCC          E(Eh)            E(eV)
   0   2.0000     -20.556476      -559.3701
   1   2.0000     -20.546601      -559.1014
   2   2.0000     -11.273857      -306.7773
   3   2.0000     -11.269790      -306.6666
   4   2.0000     -11.261181      -306.4323
   5   2.0000     -11.234389      -305.7033
   6   2.0000     -11.223402      -305.4043
   7   2.0000     -11.210991      -305.0666
   8   2.0000      -1.374738       -37.4085
   9   2.0000      -1.360800       -37.0293
  10   2.0000      -1.091492       -29.7010
  11   2.0000      -0.996914       -27.1274
  12   2.0000      -0.926677       -25.2161
  13   2.0000      -0.908304       -24.7162
  14   2.0000      -0.818364       -22.2688
  15   2.0000      -0.747255       -20.3338
  16   2.0000      -0.700842       -19.0709
  17   2.0000      -0.674831       -18.3631
  18   2.0000      -0.657736       -17.8979
  19   2.0000      -0.621724       -16.9180
  20   2.0000      -0.614456       -16.7202
  21   2.0000      -0.588427       -16.0119
  22   2.0000      -0.558650       -15.2017
  23   2.0000      -0.545471       -14.8430
  24   2.0000      -0.540803       -14.7160
  25   2.0000      -0.509107       -13.8535
  26   2.0000      -0.487914       -13.2768
  27   2.0000      -0.480719       -13.0810
  28   2.0000      -0.452859       -12.3229
  29   2.0000      -0.450930       -12.2704
  30   2.0000      -0.437833       -11.9140
  31   2.0000      -0.411749       -11.2043
  32   0.0000       0.128232         3.4894
  33   0.0000       0.150581         4.0975
  34   0.0000       0.167580         4.5601
  35   0.0000       0.172202         4.6859
  36   0.0000       0.195873         5.3300

MULLIKEN ATOMIC CHARGES
-----------------------
   0 C :   -0.450078
   1 C :    0.189591
   2 C :   -0.154675
   3 O :   -0.473585
   4 C :   -0.312239
   5 C :   -0.028058
   6 O :   -0.324090
   7 C :   -0.069390
   8 H :    0.128368
   9 H :    0.127059
  10 H :    0.155713
  11 H :    0.103529
  12 H :    0.122778
  13 H :    0.317090
  14 H :    0.119012
  15 H :    0.127464
  16 H :    0.113801
  17 H :    0.081994
  18 H :    0.088122
  19 H :    0.137594
Sum of atomic charges:    0.0000000

LOEWDIN ATOMIC CHARGES
----------------------
   0 C :   -0.272935
   1 C :   -0.304215
   2 C :   -0.314628
   3 O :   -0.042768
   4 C :   -0.213768
   5 C :   -0.307317
   6 O :    0.148251
   7 C :   -0.269463
   8 H :    0.123953
   9 H :    0.126250
  10 H :    0.132072
  11 H :    0.119079
  12 H :    0.126443
  13 H :    0.173423
  14 H :    0.138829
  15 H :    0.138467
  16 H :    0.123858
  17 H :    0.117349
  18 H :    0.122107
  19 H :    0.135012

  Mayer bond orders larger than 0.1
B(  0-C ,  1-C ) :   0.8941 B(  0-C ,  8-H ) :   0.9321 B(  0-C ,  9-H ) :   0.9360
B(  0-C , 10-H ) :   0.9358 B(  1-C ,  2-C ) :   0.8860 B(  1-C ,  4-C ) :   0.8750
B(  1-C ,  7-C ) :   0.9263 B(  2-C ,  3-O ) :   1.0142 B(  2-C , 11-H ) :   0.9248
B(  2-C , 12-H ) :   0.9255 B(  3-O , 13-H ) :   0.8465 B(  4-C ,  5-C ) :   0.9684
B(  4-C , 14-H ) :   0.9246 B(  4-C , 15-H ) :   0.9210 B(  5-C ,  6-O ) :   0.9504
B(  5-C , 16-H ) :   0.9236 B(  5-C , 17-H ) :   0.9261 B(  6-O ,  7-C ) :   0.9131
B(  7-C , 18-H ) :   0.9247 B(  7-C , 19-H ) :   0.9141

MP2 TOTAL ENERGY:     -385.517384347 Eh
FINAL SINGLE POINT ENERGY      -385.517384347237

DIPOLE MOMENT
-------------
                                X             Y             Z
Electronic contribution:     -0.17145      -3.38983       2.75814
Nuclear contribution   :     -0.21365       3.44410      -3.41323
                        -----------------------------------------
Total Dipole Moment    :     -0.38510       0.05428      -0.65509
                        -----------------------------------------
Magnitude (a.u.)       :      0.76183
Magnitude (Debye)      :      1.93642

                             ****ORCA TERMINATED NORMALLY****
TOTAL RUN TIME: 0 days 0 hours 13 minutes 48 seconds 160 msec
