                         Program Version 3.0.3 - RELEASE   -
|  1> ! RI-MP2 RIJK def2-TZVP def2-TZVP/C def2-TZVP/JK TIGHTSCF
|  2> % maxcore 2000
|  3> % mp2 density relaxed end
|  4> *xyz 0 1
|  5>  O        0.0002538119    -0.1151368475    -0.0007353516
|  6>  C        0.0269577872     1.0892616440     0.0079867583
|  7>  C        1.2491186116     1.9277522773    -0.0004518873
|  8>  C        1.6746163542     3.0046155170     1.0641261184
|  9>  C        2.9657567483     2.1772134725     1.2074134316
| 10>  N        2.6650248199     1.3657896941    -0.0273689556
| 11>  C        2.9308136645     2.2077130824    -1.2497984690
| 12>  C        1.6443855014     3.0305749902    -1.0495016756
| 13>  N        1.8436719207     4.0586754525     0.0175095226
| 14>  H       -0.9141764308     1.6905854626     0.0244582346
| 15>  H        1.1062438326     3.2922539614     1.9501513734
| 16>  H        3.9076958864     2.7312187934     1.1823545178
| 17>  H        2.9430264104     1.5185918883     2.0807898962
| 18>  H        3.8731430503     2.7614723582    -1.2376031972
| 19>  H        2.8833501568     1.5708338869    -2.1381748078
| 20>  H        1.0512190889     3.3398743684    -1.9116704585
| 21>  H        1.0344622256     4.6733642584     0.0366517695
| 22> *
| 23>
| 24>                          ****END OF INPUT****

CARTESIAN COORDINATES (ANGSTROEM)
---------------------------------
  O      0.000254   -0.115137   -0.000735
  C      0.026958    1.089262    0.007987
  C      1.249119    1.927752   -0.000452
  C      1.674616    3.004616    1.064126
  C      2.965757    2.177213    1.207413
  N      2.665025    1.365790   -0.027369
  C      2.930814    2.207713   -1.249798
  C      1.644386    3.030575   -1.049502
  N      1.843672    4.058675    0.017510
  H     -0.914176    1.690585    0.024458
  H      1.106244    3.292254    1.950151
  H      3.907696    2.731219    1.182355
  H      2.943026    1.518592    2.080790
  H      3.873143    2.761472   -1.237603
  H      2.883350    1.570834   -2.138175
  H      1.051219    3.339874   -1.911670
  H      1.034462    4.673364    0.036652

 Total Charge           Charge          ....    0
 Multiplicity           Mult            ....    1
 Number of Electrons    NEL             ....   66
 Basis Dimension        Dim             ....  327

ORBITAL ENERGIES
----------------

  NO   OCC          E(Eh)            E(eV)
   0   2.0000     -20.562688      -559.5392
   1   2.0000     -15.565630      -423.5623
   2   2.0000     -15.559869      -423.4056
   3   2.0000     -11.338349      -308.5322
   4   2.0000     -11.285546      -307.0953
   5   2.0000     -11.285504      -307.0942
   6   2.0000     -11.280600      -306.9607
   7   2.0000     -11.261369      -306.4374
   8   2.0000     -11.261351      -306.4370
   9   2.0000      -1.399738       -38.0888
  10   2.0000      -1.317950       -35.8632
  11   2.0000      -1.182487       -32.1771
  12   2.0000      -1.035507       -28.1776
  13   2.0000      -0.985557       -26.8184
  14   2.0000      -0.888055       -24.1652
  15   2.0000      -0.840653       -22.8753
  16   2.0000      -0.838274       -22.8106
  17   2.0000      -0.732164       -19.9232
  18   2.0000      -0.706164       -19.2157
  19   2.0000      -0.661950       -18.0126
  20   2.0000      -0.657279       -17.8855
  21   2.0000      -0.630443       -17.1552
  22   2.0000      -0.604420       -16.4471
  23   2.0000      -0.585850       -15.9418
  24   2.0000      -0.585030       -15.9195
  25   2.0000      -0.544610       -14.8196
  26   2.0000      -0.529157       -14.3991
  27   2.0000      -0.491397       -13.3716
  28   2.0000      -0.488387       -13.2897
  29   2.0000      -0.438428       -11.9302
  30   2.0000      -0.416393       -11.3306
  31   2.0000      -0.384784       -10.4705
  32   2.0000      -0.372620       -10.1395
  33   0.0000       0.110962         3.0194
  34   0.0000       0.124240         3.3807
  35   0.0000       0.154592         4.2067
  36   0.0000       0.162198         4.4136
  37   0.0000       0.173882         4.7316

MULLIKEN ATOMIC CHARGES
-----------------------
   0 O :   -0.234964
   1 C :    0.019025
   2 C :    0.207763
   3 C :   -0.062280
   4 C :   -0.166004
   5 N :   -0.211690
   6 C :   -0.166092
   7 C :   -0.062186
   8 N :   -0.364837
   9 H :    0.070585
  10 H :    0.131483
  11 H :    0.120202
  12 H :    0.128672
  13 H :    0.120218
  14 H :    0.128628
  15 H :    0.131437
  16 H :    0.210040
Sum of atomic charges:    0.0000000

LOEWDIN ATOMIC CHARGES
----------------------
   0 O :    0.151701
   1 C :   -0.278186
   2 C :   -0.195901
   3 C :   -0.202190
   4 C :   -0.224157
   5 N :    0.114225
   6 C :   -0.224101
   7 C :   -0.202371
   8 N :   -0.004724
   9 H :    0.114975
  10 H :    0.129567
  11 H :    0.126667
  12 H :    0.135539
  13 H :    0.126677
  14 H :    0.135503
  15 H :    0.129562
  16 H :    0.167215

  Mayer bond orders larger than 0.1
B(  0-O ,  1-C ) :   2.0766 B(  0-O ,  2-C ) :  -0.1087 B(  1-C ,  2-C ) :   0.7515
B(  1-C ,  9-H ) :   0.9779 B(  2-C ,  3-C ) :   0.8940 B(  2-C ,  5-N ) :   0.8983
B(  2-C ,  7-C ) :   0.8942 B(  2-C ,  9-H ) :  -0.1018 B(  3-C ,  4-C ) :   0.9190
B(  3-C ,  8-N ) :   0.9689 B(  3-C , 10-H ) :   0.9182 B(  4-C ,  5-N ) :   0.9205
B(  4-C , 11-H ) :   0.9178 B(  4-C , 12-H ) :   0.9232 B(  5-N ,  6-C ) :   0.9204
B(  6-C ,  7-C ) :   0.9190 B(  6-C , 13-H ) :   0.9178 B(  6-C , 14-H ) :   0.9232
B(  7-C ,  8-N ) :   0.9688 B(  7-C , 15-H ) :   0.9184 B(  8-N , 16-H ) :   0.8779

MP2 TOTAL ENERGY:     -417.216394193 Eh
FINAL SINGLE POINT ENERGY      -417.216394193058

DIPOLE MOMENT
-------------
                                X             Y             Z
Electronic contribution:     -2.81597      -3.28091       0.00595
Nuclear contribution   :      2.48008       4.66411       0.01233
                        -----------------------------------------
Total Dipole Moment    :     -0.33589       1.38319       0.01827
                        -----------------------------------------
Magnitude (a.u.)       :      1.42351
Magnitude (Debye)      :      3.61828

                             ****ORCA TERMINATED NORMALLY****
TOTAL RUN TIME: 0 days 0 hours 18 minutes 10 seconds 726 msec
