                         Program Version 3.0.3 - RELEASE   -
|  1> ! RI-MP2 RIJK def2-TZVP def2-TZVP/C def2-TZVP/JK TIGHTSCF
|  2> % maxcore 2000
|  3> % mp2 density relaxed end
|  4> *xyz 0 1
|  5>  C        0.2225578912     1.1720632840    -0.4018389639
|  6>  O       -0.0840326279    -0.1070953117     0.1566134914
|  7>  C       -1.3874262203    -0.4245168483     0.2506512343
|  8>  N       -1.5321097413    -1.7189395355     0.6930870826
|  9>  N       -2.2932714057     0.4103763474    -0.0933748652
| 10>  C       -3.6768878414    -0.0205810233    -0.0669954263
| 11>  C       -4.1702829917    -0.4062509322     1.2700029711
| 12>  N       -4.4962332699    -0.7449080575     2.3270460531
| 13>  H        1.3116692140     1.2265798422    -0.4191941598
| 14>  H       -0.1837798546     1.2616920236    -1.4123208324
| 15>  H       -0.1930882846     1.9728713918     0.2144050019
| 16>  H       -0.6874714648    -2.1249477906     1.0675979530
| 17>  H       -2.3571171904    -1.9161964623     1.2413005956
| 18>  H       -4.3053753264     0.7992764087    -0.4291598476
| 19>  H       -3.8599201162    -0.8777004263    -0.7346939075
| 20> *
| 21>
| 22>                          ****END OF INPUT****

CARTESIAN COORDINATES (ANGSTROEM)
---------------------------------
  C      0.222558    1.172063   -0.401839
  O     -0.084033   -0.107095    0.156613
  C     -1.387426   -0.424517    0.250651
  N     -1.532110   -1.718940    0.693087
  N     -2.293271    0.410376   -0.093375
  C     -3.676888   -0.020581   -0.066995
  C     -4.170283   -0.406251    1.270003
  N     -4.496233   -0.744908    2.327046
  H      1.311669    1.226580   -0.419194
  H     -0.183780    1.261692   -1.412321
  H     -0.193088    1.972871    0.214405
  H     -0.687471   -2.124948    1.067598
  H     -2.357117   -1.916196    1.241301
  H     -4.305375    0.799276   -0.429160
  H     -3.859920   -0.877700   -0.734694

 Total Charge           Charge          ....    0
 Multiplicity           Mult            ....    1
 Number of Electrons    NEL             ....   60
 Basis Dimension        Dim             ....  290

ORBITAL ENERGIES
----------------

  NO   OCC          E(Eh)            E(eV)
   0   2.0000     -20.606498      -560.7313
   1   2.0000     -15.592920      -424.3049
   2   2.0000     -15.575775      -423.8384
   3   2.0000     -15.543498      -422.9601
   4   2.0000     -11.386353      -309.8384
   5   2.0000     -11.308966      -307.7326
   6   2.0000     -11.286442      -307.1197
   7   2.0000     -11.278229      -306.8962
   8   2.0000      -1.451150       -39.4878
   9   2.0000      -1.268435       -34.5159
  10   2.0000      -1.223246       -33.2862
  11   2.0000      -1.190889       -32.4057
  12   2.0000      -1.008887       -27.4532
  13   2.0000      -0.966052       -26.2876
  14   2.0000      -0.801777       -21.8175
  15   2.0000      -0.750778       -20.4297
  16   2.0000      -0.738263       -20.0892
  17   2.0000      -0.692154       -18.8345
  18   2.0000      -0.675271       -18.3750
  19   2.0000      -0.652313       -17.7503
  20   2.0000      -0.627281       -17.0692
  21   2.0000      -0.603250       -16.4153
  22   2.0000      -0.567396       -15.4396
  23   2.0000      -0.548749       -14.9322
  24   2.0000      -0.531264       -14.4564
  25   2.0000      -0.482551       -13.1309
  26   2.0000      -0.473435       -12.8828
  27   2.0000      -0.459928       -12.5153
  28   2.0000      -0.429241       -11.6802
  29   2.0000      -0.389991       -10.6122
  30   0.0000       0.126964         3.4549
  31   0.0000       0.153225         4.1695
  32   0.0000       0.158443         4.3115
  33   0.0000       0.172719         4.6999
  34   0.0000       0.175609         4.7786

MULLIKEN ATOMIC CHARGES
-----------------------
   0 C :   -0.192289
   1 O :   -0.284913
   2 C :    0.406865
   3 N :   -0.522189
   4 N :   -0.359382
   5 C :   -0.059617
   6 C :   -0.199156
   7 N :   -0.073413
   8 H :    0.142934
   9 H :    0.133341
  10 H :    0.138563
  11 H :    0.265603
  12 H :    0.276428
  13 H :    0.165544
  14 H :    0.161681
Sum of atomic charges:   -0.0000000

LOEWDIN ATOMIC CHARGES
----------------------
   0 C :   -0.312418
   1 O :    0.225440
   2 C :   -0.492810
   3 N :   -0.037229
   4 N :    0.050539
   5 C :   -0.293497
   6 C :   -0.205297
   7 N :    0.050557
   8 H :    0.113728
   9 H :    0.112586
  10 H :    0.113539
  11 H :    0.180053
  12 H :    0.179757
  13 H :    0.158326
  14 H :    0.156725

  Mayer bond orders larger than 0.1
B(  0-C ,  1-O ) :   0.8475 B(  0-C ,  8-H ) :   0.9309 B(  0-C ,  9-H ) :   0.9377
B(  0-C , 10-H ) :   0.9387 B(  1-O ,  2-C ) :   1.1112 B(  2-C ,  3-N ) :   1.1112
B(  2-C ,  4-N ) :   1.6954 B(  3-N , 11-H ) :   0.8630 B(  3-N , 12-H ) :   0.8579
B(  4-N ,  5-C ) :   0.9401 B(  5-C ,  6-C ) :   0.8893 B(  5-C , 13-H ) :   0.9139
B(  5-C , 14-H ) :   0.9132 B(  6-C ,  7-N ) :   2.8206

MP2 TOTAL ENERGY:     -395.349555683 Eh
FINAL SINGLE POINT ENERGY      -395.349555682981

DIPOLE MOMENT
-------------
                                X             Y             Z
Electronic contribution:     -3.35320      -1.89917       2.86427
Nuclear contribution   :      4.10903       1.84054      -3.67112
                        -----------------------------------------
Total Dipole Moment    :      0.75583      -0.05864      -0.80685
                        -----------------------------------------
Magnitude (a.u.)       :      1.10713
Magnitude (Debye)      :      2.81410

                             ****ORCA TERMINATED NORMALLY****
TOTAL RUN TIME: 0 days 0 hours 9 minutes 46 seconds 664 msec
