                         Program Version 3.0.3 - RELEASE   -
|  1> ! RI-MP2 RIJK def2-TZVP def2-TZVP/C def2-TZVP/JK TIGHTSCF
|  2> % maxcore 2000
|  3> % mp2 density relaxed end
|  4> *xyz 0 1
|  5>  N        0.4274642413     0.3759557710    -1.9300356209
|  6>  C       -0.0157421011     0.0751017414    -0.7638224284
|  7>  N       -1.3843074321    -0.1517961532    -0.6664375062
|  8>  C       -2.1785568517    -0.4901835407     0.4190363416
|  9>  N       -1.7161314065    -0.6568073014     1.5976497588
| 10>  C       -3.5688906951    -0.6289450854     0.0605633826
| 11>  C       -4.7348106497    -0.7517632295    -0.2078126886
| 12>  C        0.8192125715    -0.0307590492     0.3965041352
| 13>  C        1.6615605105    -0.0746654585     1.2535580582
| 14>  H        1.4339273302     0.5212282814    -1.8933153639
| 15>  H       -1.8496836116    -0.0439143257    -1.5558710196
| 16>  H       -2.4704808538    -0.8992815692     2.2356672053
| 17>  H       -5.7667821299    -0.8622112306    -0.4366881754
| 18>  H        2.3634170479    -0.1275883903     2.0492920315
| 19> *
| 20>
| 21>                          ****END OF INPUT****

CARTESIAN COORDINATES (ANGSTROEM)
---------------------------------
  N      0.427464    0.375956   -1.930036
  C     -0.015742    0.075102   -0.763822
  N     -1.384307   -0.151796   -0.666438
  C     -2.178557   -0.490184    0.419036
  N     -1.716131   -0.656807    1.597650
  C     -3.568891   -0.628945    0.060563
  C     -4.734811   -0.751763   -0.207813
  C      0.819213   -0.030759    0.396504
  C      1.661561   -0.074665    1.253558
  H      1.433927    0.521228   -1.893315
  H     -1.849684   -0.043914   -1.555871
  H     -2.470481   -0.899282    2.235667
  H     -5.766782   -0.862211   -0.436688
  H      2.363417   -0.127588    2.049292

 Total Charge           Charge          ....    0
 Multiplicity           Mult            ....    1
 Number of Electrons    NEL             ....   62
 Basis Dimension        Dim             ....  309

ORBITAL ENERGIES
----------------

  NO   OCC          E(Eh)            E(eV)
   0   2.0000     -15.610218      -424.7756
   1   2.0000     -15.550466      -423.1497
   2   2.0000     -15.548862      -423.1060
   3   2.0000     -11.361453      -309.1609
   4   2.0000     -11.356028      -309.0132
   5   2.0000     -11.269888      -306.6692
   6   2.0000     -11.265059      -306.5378
   7   2.0000     -11.252076      -306.1845
   8   2.0000     -11.248236      -306.0801
   9   2.0000      -1.323149       -36.0047
  10   2.0000      -1.233212       -33.5574
  11   2.0000      -1.159858       -31.5613
  12   2.0000      -1.064699       -28.9719
  13   2.0000      -1.046558       -28.4783
  14   2.0000      -0.929811       -25.3015
  15   2.0000      -0.859915       -23.3995
  16   2.0000      -0.795555       -21.6481
  17   2.0000      -0.743798       -20.2398
  18   2.0000      -0.725935       -19.7537
  19   2.0000      -0.702161       -19.1068
  20   2.0000      -0.654644       -17.8138
  21   2.0000      -0.635549       -17.2942
  22   2.0000      -0.607492       -16.5307
  23   2.0000      -0.508732       -13.8433
  24   2.0000      -0.493315       -13.4238
  25   2.0000      -0.454425       -12.3655
  26   2.0000      -0.427964       -11.6455
  27   2.0000      -0.425695       -11.5838
  28   2.0000      -0.400394       -10.8953
  29   2.0000      -0.398105       -10.8330
  30   2.0000      -0.356852        -9.7104
  31   0.0000       0.078419         2.1339
  32   0.0000       0.122094         3.3224
  33   0.0000       0.140238         3.8161
  34   0.0000       0.149995         4.0816
  35   0.0000       0.154235         4.1970

MULLIKEN ATOMIC CHARGES
-----------------------
   0 N :   -0.352872
   1 C :    0.081336
   2 N :   -0.275872
   3 C :    0.058618
   4 N :   -0.359567
   5 C :   -0.081924
   6 C :   -0.051114
   7 C :    0.048157
   8 C :   -0.185490
   9 H :    0.229619
  10 H :    0.260071
  11 H :    0.226160
  12 H :    0.206519
  13 H :    0.196358
Sum of atomic charges:   -0.0000000

LOEWDIN ATOMIC CHARGES
----------------------
   0 N :   -0.036162
   1 C :   -0.347421
   2 N :    0.183830
   3 C :   -0.360493
   4 N :   -0.017014
   5 C :   -0.075068
   6 C :   -0.052010
   7 C :   -0.069958
   8 C :   -0.044290
   9 H :    0.171072
  10 H :    0.211992
  11 H :    0.171919
  12 H :    0.132918
  13 H :    0.130683

  Mayer bond orders larger than 0.1
B(  0-N ,  1-C ) :   1.9424 B(  0-N ,  9-H ) :   0.8651 B(  1-C ,  2-N ) :   1.0809
B(  1-C ,  7-C ) :   1.1138 B(  2-N ,  3-C ) :   1.0896 B(  2-N , 10-H ) :   0.8551
B(  3-C ,  4-N ) :   1.9433 B(  3-C ,  5-C ) :   1.1154 B(  3-C ,  6-C ) :  -0.1247
B(  4-N ,  8-C ) :   0.1035 B(  4-N , 11-H ) :   0.8584 B(  5-C ,  6-C ) :   2.5879
B(  6-C , 12-H ) :   0.8758 B(  7-C ,  8-C ) :   2.5756 B(  8-C , 13-H ) :   0.8946

MP2 TOTAL ENERGY:     -394.948623480 Eh
FINAL SINGLE POINT ENERGY      -394.948623480291

DIPOLE MOMENT
-------------
                                X             Y             Z
Electronic contribution:     -0.20852      -0.01255      -0.09486
Nuclear contribution   :     -0.38029      -0.12880       0.35623
                        -----------------------------------------
Total Dipole Moment    :     -0.58881      -0.14136       0.26138
                        -----------------------------------------
Magnitude (a.u.)       :      0.65954
Magnitude (Debye)      :      1.67643

                             ****ORCA TERMINATED NORMALLY****
TOTAL RUN TIME: 0 days 0 hours 13 minutes 0 seconds 934 msec
