                         Program Version 3.0.3 - RELEASE   -
|  1> ! RI-MP2 RIJK def2-TZVP def2-TZVP/C def2-TZVP/JK TIGHTSCF
|  2> % maxcore 2000
|  3> % mp2 density relaxed end
|  4> *xyz 0 1
|  5>  C       -0.0196389049    -1.2291485610    -0.3339477118
|  6>  C       -0.0172697294    -0.0467195441    -0.1221388271
|  7>  C       -0.0008509291     1.4020709769     0.0956812875
|  8>  N       -0.6547569047     1.7783848924     1.3734365742
|  9>  C        0.2870627432     1.9641818529     2.4939105289
| 10>  C        1.6620985732     2.4146247676     1.9972256317
| 11>  C        1.5445237282     3.3088381504     0.7440463825
| 12>  C        1.4514595041     1.9346899067     0.0512097281
| 13>  O        2.1714800107     1.3327809599     1.1583247104
| 14>  H       -0.0242548637    -2.2767897092    -0.5065674027
| 15>  H       -0.5734037541     1.8771785965    -0.7119001579
| 16>  H       -1.1617718598     2.6406148421     1.2227194790
| 17>  H       -0.1481782163     2.6862703492     3.1931812710
| 18>  H        0.4198003799     1.0164145435     3.0296133631
| 19>  H        2.3564637738     2.6821833767     2.7984704065
| 20>  H        0.7018656764     3.9998774981     0.6645838326
| 21>  H        2.4801270107     3.8182986459     0.5121226808
| 22>  H        1.9378391920     1.7616939855    -0.9118757467
| 23> *
| 24>
| 25>                          ****END OF INPUT****

CARTESIAN COORDINATES (ANGSTROEM)
---------------------------------
  C     -0.019639   -1.229149   -0.333948
  C     -0.017270   -0.046720   -0.122139
  C     -0.000851    1.402071    0.095681
  N     -0.654757    1.778385    1.373437
  C      0.287063    1.964182    2.493911
  C      1.662099    2.414625    1.997226
  C      1.544524    3.308838    0.744046
  C      1.451460    1.934690    0.051210
  O      2.171480    1.332781    1.158325
  H     -0.024255   -2.276790   -0.506567
  H     -0.573404    1.877179   -0.711900
  H     -1.161772    2.640615    1.222719
  H     -0.148178    2.686270    3.193181
  H      0.419800    1.016415    3.029613
  H      2.356464    2.682183    2.798470
  H      0.701866    3.999877    0.664584
  H      2.480127    3.818299    0.512123
  H      1.937839    1.761694   -0.911876

 Total Charge           Charge          ....    0
 Multiplicity           Mult            ....    1
 Number of Electrons    NEL             ....   66
 Basis Dimension        Dim             ....  333

ORBITAL ENERGIES
----------------

  NO   OCC          E(Eh)            E(eV)
   0   2.0000     -20.549076      -559.1688
   1   2.0000     -15.554773      -423.2669
   2   2.0000     -11.294079      -307.3275
   3   2.0000     -11.288872      -307.1858
   4   2.0000     -11.288471      -307.1749
   5   2.0000     -11.255719      -306.2837
   6   2.0000     -11.238720      -305.8211
   7   2.0000     -11.224440      -305.4325
   8   2.0000     -11.214866      -305.1720
   9   2.0000      -1.389615       -37.8133
  10   2.0000      -1.215207       -33.0675
  11   2.0000      -1.058900       -28.8141
  12   2.0000      -1.021745       -27.8031
  13   2.0000      -0.994284       -27.0559
  14   2.0000      -0.900234       -24.4966
  15   2.0000      -0.861616       -23.4458
  16   2.0000      -0.751787       -20.4572
  17   2.0000      -0.722193       -19.6519
  18   2.0000      -0.707740       -19.2586
  19   2.0000      -0.673591       -18.3293
  20   2.0000      -0.648091       -17.6355
  21   2.0000      -0.635927       -17.3045
  22   2.0000      -0.592875       -16.1330
  23   2.0000      -0.568493       -15.4695
  24   2.0000      -0.558249       -15.1907
  25   2.0000      -0.541334       -14.7305
  26   2.0000      -0.523729       -14.2514
  27   2.0000      -0.468461       -12.7475
  28   2.0000      -0.461123       -12.5478
  29   2.0000      -0.450296       -12.2532
  30   2.0000      -0.383898       -10.4464
  31   2.0000      -0.380615       -10.3571
  32   2.0000      -0.367226        -9.9927
  33   0.0000       0.119875         3.2620
  34   0.0000       0.153400         4.1742
  35   0.0000       0.161367         4.3910
  36   0.0000       0.171538         4.6678
  37   0.0000       0.177326         4.8253

MULLIKEN ATOMIC CHARGES
-----------------------
   0 C :   -0.154307
   1 C :    0.002534
   2 C :   -0.182541
   3 N :   -0.322741
   4 C :   -0.181013
   5 C :    0.076149
   6 C :   -0.287213
   7 C :    0.110245
   8 O :   -0.324540
   9 H :    0.187504
  10 H :    0.122766
  11 H :    0.210730
  12 H :    0.123514
  13 H :    0.121143
  14 H :    0.118867
  15 H :    0.119026
  16 H :    0.131405
  17 H :    0.128470
Sum of atomic charges:    0.0000000

LOEWDIN ATOMIC CHARGES
----------------------
   0 C :   -0.091118
   1 C :   -0.079636
   2 C :   -0.270397
   3 N :    0.015722
   4 C :   -0.279984
   5 C :   -0.275331
   6 C :   -0.207348
   7 C :   -0.247527
   8 O :    0.163589
   9 H :    0.126285
  10 H :    0.165767
  11 H :    0.166981
  12 H :    0.133903
  13 H :    0.140860
  14 H :    0.132861
  15 H :    0.126998
  16 H :    0.140227
  17 H :    0.138147

  Mayer bond orders larger than 0.1
B(  0-C ,  1-C ) :   2.6180 B(  0-C ,  9-H ) :   0.8920 B(  1-C ,  2-C ) :   1.1493
B(  2-C ,  3-N ) :   1.0369 B(  2-C ,  7-C ) :   0.9128 B(  2-C , 10-H ) :   0.9090
B(  3-N ,  4-C ) :   0.9643 B(  3-N , 11-H ) :   0.8854 B(  4-C ,  5-C ) :   0.9232
B(  4-C , 12-H ) :   0.9303 B(  4-C , 13-H ) :   0.9185 B(  5-C ,  6-C ) :   0.9419
B(  5-C ,  8-O ) :   0.9059 B(  5-C , 14-H ) :   0.9127 B(  6-C ,  7-C ) :   0.9141
B(  6-C , 15-H ) :   0.9319 B(  6-C , 16-H ) :   0.9258 B(  7-C ,  8-O ) :   0.9261
B(  7-C , 17-H ) :   0.9193

MP2 TOTAL ENERGY:     -401.189135811 Eh
FINAL SINGLE POINT ENERGY      -401.189135810619

DIPOLE MOMENT
-------------
                                X             Y             Z
Electronic contribution:      0.46342      -3.52169      -1.51427
Nuclear contribution   :     -0.57628       4.62407       1.43513
                        -----------------------------------------
Total Dipole Moment    :     -0.11286       1.10238      -0.07914
                        -----------------------------------------
Magnitude (a.u.)       :      1.11096
Magnitude (Debye)      :      2.82384

                             ****ORCA TERMINATED NORMALLY****
TOTAL RUN TIME: 0 days 0 hours 19 minutes 25 seconds 135 msec
