                         Program Version 3.0.3 - RELEASE   -
|  1> ! RI-MP2 RIJK def2-TZVP def2-TZVP/C def2-TZVP/JK TIGHTSCF
|  2> % maxcore 2000
|  3> % mp2 density relaxed end
|  4> *xyz 0 1
|  5>  O        0.5111043983    -0.2719088087    -1.3965555266
|  6>  C        0.0611382762     0.0382316648    -0.0826840191
|  7>  C       -1.3428408320    -0.5331819865     0.0534845444
|  8>  C       -1.4186317310    -2.0586327148     0.0350357463
|  9>  C       -1.3777353973    -2.5362185802     1.4479074920
| 10>  C       -1.2781263956    -1.3128391395     2.3516110562
| 11>  C       -2.0557818314    -0.3561739374     1.4183684741
| 12>  C       -3.3059528987    -1.2198760236     1.1582397715
| 13>  N       -2.6698921375    -2.4871351438     0.7129378404
| 14>  H        1.4149265128     0.0431764272    -1.4877246868
| 15>  H        0.7346345868    -0.3928057588     0.6721840289
| 16>  H        0.0347211563     1.1281468584     0.0793519439
| 17>  H       -1.9478107704    -0.1041796094    -0.7545988552
| 18>  H       -1.0828881150    -2.6442533756    -0.8104180853
| 19>  H       -1.0154310107    -3.5147999677     1.7381789395
| 20>  H       -1.7816099375    -1.4541134735     3.3135568144
| 21>  H       -0.2468628667    -1.0083067804     2.5478399653
| 22>  H       -2.2131700517     0.6632538576     1.7683645198
| 23>  H       -3.9090660199    -1.3978379981     2.0538724045
| 24>  H       -3.9525432550    -0.8284094699     0.3672961617
| 25> *
| 26>
| 27>                          ****END OF INPUT****

CARTESIAN COORDINATES (ANGSTROEM)
---------------------------------
  O      0.511104   -0.271909   -1.396556
  C      0.061138    0.038232   -0.082684
  C     -1.342841   -0.533182    0.053485
  C     -1.418632   -2.058633    0.035036
  C     -1.377735   -2.536219    1.447907
  C     -1.278126   -1.312839    2.351611
  C     -2.055782   -0.356174    1.418368
  C     -3.305953   -1.219876    1.158240
  N     -2.669892   -2.487135    0.712938
  H      1.414927    0.043176   -1.487725
  H      0.734635   -0.392806    0.672184
  H      0.034721    1.128147    0.079352
  H     -1.947811   -0.104180   -0.754599
  H     -1.082888   -2.644253   -0.810418
  H     -1.015431   -3.514800    1.738179
  H     -1.781610   -1.454113    3.313557
  H     -0.246863   -1.008307    2.547840
  H     -2.213170    0.663254    1.768365
  H     -3.909066   -1.397838    2.053872
  H     -3.952543   -0.828409    0.367296

 Total Charge           Charge          ....    0
 Multiplicity           Mult            ....    1
 Number of Electrons    NEL             ....   68
 Basis Dimension        Dim             ....  345

ORBITAL ENERGIES
----------------

  NO   OCC          E(Eh)            E(eV)
   0   2.0000     -20.558678      -559.4301
   1   2.0000     -15.551122      -423.1675
   2   2.0000     -11.279375      -306.9274
   3   2.0000     -11.249410      -306.1120
   4   2.0000     -11.245831      -306.0146
   5   2.0000     -11.244678      -305.9832
   6   2.0000     -11.232446      -305.6504
   7   2.0000     -11.229567      -305.5720
   8   2.0000     -11.227292      -305.5101
   9   2.0000      -1.362544       -37.0767
  10   2.0000      -1.294077       -35.2136
  11   2.0000      -1.070032       -29.1171
  12   2.0000      -1.005855       -27.3707
  13   2.0000      -0.986485       -26.8436
  14   2.0000      -0.890802       -24.2400
  15   2.0000      -0.781274       -21.2595
  16   2.0000      -0.768652       -20.9161
  17   2.0000      -0.750596       -20.4247
  18   2.0000      -0.710694       -19.3390
  19   2.0000      -0.692353       -18.8399
  20   2.0000      -0.640423       -17.4268
  21   2.0000      -0.627311       -17.0700
  22   2.0000      -0.606852       -16.5133
  23   2.0000      -0.577677       -15.7194
  24   2.0000      -0.549163       -14.9435
  25   2.0000      -0.515537       -14.0285
  26   2.0000      -0.510822       -13.9002
  27   2.0000      -0.501656       -13.6508
  28   2.0000      -0.470212       -12.7951
  29   2.0000      -0.460012       -12.5176
  30   2.0000      -0.453788       -12.3482
  31   2.0000      -0.429142       -11.6775
  32   2.0000      -0.421342       -11.4653
  33   2.0000      -0.370316       -10.0768
  34   0.0000       0.131305         3.5730
  35   0.0000       0.146081         3.9751
  36   0.0000       0.166651         4.5348
  37   0.0000       0.172770         4.7013
  38   0.0000       0.184577         5.0226

MULLIKEN ATOMIC CHARGES
-----------------------
   0 O :   -0.467803
   1 C :   -0.115237
   2 C :   -0.036911
   3 C :   -0.091882
   4 C :   -0.088695
   5 C :   -0.278618
   6 C :   -0.059396
   7 C :   -0.144647
   8 N :   -0.214476
   9 H :    0.314972
  10 H :    0.099587
  11 H :    0.101520
  12 H :    0.103549
  13 H :    0.132193
  14 H :    0.129074
  15 H :    0.122368
  16 H :    0.123472
  17 H :    0.134037
  18 H :    0.119073
  19 H :    0.117821
Sum of atomic charges:    0.0000000

LOEWDIN ATOMIC CHARGES
----------------------
   0 O :   -0.045916
   1 C :   -0.320324
   2 C :   -0.213673
   3 C :   -0.193242
   4 C :   -0.217860
   5 C :   -0.216914
   6 C :   -0.211531
   7 C :   -0.242194
   8 N :    0.127163
   9 H :    0.171952
  10 H :    0.118602
  11 H :    0.118094
  12 H :    0.160943
  13 H :    0.142726
  14 H :    0.137212
  15 H :    0.139678
  16 H :    0.136433
  17 H :    0.144080
  18 H :    0.131776
  19 H :    0.132996

  Mayer bond orders larger than 0.1
B(  0-O ,  1-C ) :   1.0372 B(  0-O ,  2-C ) :  -0.1096 B(  0-O ,  9-H ) :   0.8481
B(  1-C ,  2-C ) :   0.8896 B(  1-C , 10-H ) :   0.9227 B(  1-C , 11-H ) :   0.9353
B(  2-C ,  3-C ) :   0.9161 B(  2-C ,  6-C ) :   0.8843 B(  2-C , 12-H ) :   0.9199
B(  3-C ,  4-C ) :   0.8970 B(  3-C ,  8-N ) :   0.8892 B(  3-C , 13-H ) :   0.9335
B(  4-C ,  5-C ) :   0.9460 B(  4-C ,  8-N ) :   0.9053 B(  4-C , 14-H ) :   0.9276
B(  5-C ,  6-C ) :   0.9056 B(  5-C , 15-H ) :   0.9194 B(  5-C , 16-H ) :   0.9210
B(  6-C ,  7-C ) :   0.9216 B(  6-C , 17-H ) :   0.9136 B(  7-C ,  8-N ) :   0.9498
B(  7-C , 18-H ) :   0.9298 B(  7-C , 19-H ) :   0.9270

MP2 TOTAL ENERGY:     -402.460229831 Eh
FINAL SINGLE POINT ENERGY      -402.460229830943

DIPOLE MOMENT
-------------
                                X             Y             Z
Electronic contribution:     -0.35953      -2.15193      -2.22278
Nuclear contribution   :      1.10233       3.00583       2.78309
                        -----------------------------------------
Total Dipole Moment    :      0.74279       0.85390       0.56031
                        -----------------------------------------
Magnitude (a.u.)       :      1.26287
Magnitude (Debye)      :      3.20995

                             ****ORCA TERMINATED NORMALLY****
TOTAL RUN TIME: 0 days 0 hours 19 minutes 6 seconds 102 msec
