                         Program Version 3.0.3 - RELEASE   -
|  1> ! RI-MP2 RIJK def2-TZVP def2-TZVP/C def2-TZVP/JK TIGHTSCF
|  2> % maxcore 2000
|  3> % mp2 density relaxed end
|  4> *xyz 0 1
|  5>  C        0.0236682414     1.4837736620    -0.0455912637
|  6>  N        1.1997383970     0.6020978252    -0.0396923578
|  7>  C       -0.1442488476     0.0118955149     0.0209260933
|  8>  C       -0.4939864257    -0.6652114609     1.3125632405
|  9>  O       -1.9028654258    -0.6206616846     1.5227307144
| 10>  C       -2.2239531071    -1.7798154653     2.2550038053
| 11>  C       -2.4011650488    -3.0437854212     1.4425279187
| 12>  C       -1.0711807779    -2.7129484738     2.0839506170
| 13>  O       -0.1458340134    -2.0448285031     1.2594702761
| 14>  H       -0.0996432914     2.0848296407     0.8509872816
| 15>  H       -0.2656817439     1.9808995066    -0.9671999624
| 16>  H        1.5796197254     0.5053433201    -0.9767522966
| 17>  H       -0.5351743173    -0.4961263531    -0.8572551514
| 18>  H        0.0314430375    -0.1798008155     2.1523950389
| 19>  H       -2.7538570070    -1.6089582299     3.1855016727
| 20>  H       -2.9863757272    -3.8460730390     1.8811648376
| 21>  H       -2.4730200644    -2.9363586326     0.3665049124
| 22>  H       -0.6387191938    -3.3199454705     2.8715858533
| 23> *
| 24>
| 25>                          ****END OF INPUT****

CARTESIAN COORDINATES (ANGSTROEM)
---------------------------------
  C      0.023668    1.483774   -0.045591
  N      1.199738    0.602098   -0.039692
  C     -0.144249    0.011896    0.020926
  C     -0.493986   -0.665211    1.312563
  O     -1.902865   -0.620662    1.522731
  C     -2.223953   -1.779815    2.255004
  C     -2.401165   -3.043785    1.442528
  C     -1.071181   -2.712948    2.083951
  O     -0.145834   -2.044829    1.259470
  H     -0.099643    2.084830    0.850987
  H     -0.265682    1.980900   -0.967200
  H      1.579620    0.505343   -0.976752
  H     -0.535174   -0.496126   -0.857255
  H      0.031443   -0.179801    2.152395
  H     -2.753857   -1.608958    3.185502
  H     -2.986376   -3.846073    1.881165
  H     -2.473020   -2.936359    0.366505
  H     -0.638719   -3.319945    2.871586

 Total Charge           Charge          ....    0
 Multiplicity           Mult            ....    1
 Number of Electrons    NEL             ....   68
 Basis Dimension        Dim             ....  333

ORBITAL ENERGIES
----------------

  NO   OCC          E(Eh)            E(eV)
   0   2.0000     -20.569649      -559.7286
   1   2.0000     -20.568214      -559.6896
   2   2.0000     -15.562795      -423.4852
   3   2.0000     -11.336739      -308.4883
   4   2.0000     -11.289606      -307.2058
   5   2.0000     -11.288768      -307.1830
   6   2.0000     -11.262040      -306.4557
   7   2.0000     -11.259481      -306.3860
   8   2.0000     -11.234751      -305.7131
   9   2.0000      -1.448172       -39.4068
  10   2.0000      -1.337267       -36.3889
  11   2.0000      -1.266741       -34.4698
  12   2.0000      -1.132828       -30.8258
  13   2.0000      -0.961696       -26.1691
  14   2.0000      -0.883379       -24.0380
  15   2.0000      -0.828833       -22.5537
  16   2.0000      -0.826155       -22.4808
  17   2.0000      -0.805749       -21.9255
  18   2.0000      -0.738805       -20.1039
  19   2.0000      -0.706413       -19.2225
  20   2.0000      -0.670196       -18.2370
  21   2.0000      -0.632851       -17.2208
  22   2.0000      -0.631245       -17.1771
  23   2.0000      -0.603517       -16.4225
  24   2.0000      -0.561322       -15.2744
  25   2.0000      -0.558296       -15.1920
  26   2.0000      -0.532507       -14.4903
  27   2.0000      -0.523583       -14.2474
  28   2.0000      -0.488502       -13.2928
  29   2.0000      -0.479763       -13.0550
  30   2.0000      -0.464380       -12.6364
  31   2.0000      -0.403853       -10.9894
  32   2.0000      -0.398508       -10.8440
  33   2.0000      -0.395063       -10.7502
  34   0.0000       0.142098         3.8667
  35   0.0000       0.157705         4.2914
  36   0.0000       0.164486         4.4759
  37   0.0000       0.176871         4.8129
  38   0.0000       0.190590         5.1862

MULLIKEN ATOMIC CHARGES
-----------------------
   0 C :   -0.203263
   1 N :   -0.389153
   2 C :    0.038923
   3 C :    0.177673
   4 O :   -0.310752
   5 C :    0.017342
   6 C :   -0.269849
   7 C :    0.016032
   8 O :   -0.303915
   9 H :    0.128267
  10 H :    0.129894
  11 H :    0.223553
  12 H :    0.132093
  13 H :    0.089742
  14 H :    0.125951
  15 H :    0.128938
  16 H :    0.141574
  17 H :    0.126950
Sum of atomic charges:    0.0000000

LOEWDIN ATOMIC CHARGES
----------------------
   0 C :   -0.257740
   1 N :   -0.009906
   2 C :   -0.262599
   3 C :   -0.352166
   4 O :    0.202878
   5 C :   -0.280876
   6 C :   -0.206314
   7 C :   -0.280199
   8 O :    0.205803
   9 H :    0.128524
  10 H :    0.122493
  11 H :    0.168126
  12 H :    0.142063
  13 H :    0.134189
  14 H :    0.134320
  15 H :    0.136316
  16 H :    0.140549
  17 H :    0.134540

  Mayer bond orders larger than 0.1
B(  0-C ,  1-N ) :   0.9509 B(  0-C ,  2-C ) :   0.9172 B(  0-C ,  9-H ) :   0.9124
B(  0-C , 10-H ) :   0.9261 B(  1-N ,  2-C ) :   0.8640 B(  1-N , 11-H ) :   0.8677
B(  2-C ,  3-C ) :   0.9474 B(  2-C , 12-H ) :   0.9157 B(  3-C ,  4-O ) :   0.9614
B(  3-C ,  8-O ) :   0.9555 B(  3-C , 13-H ) :   0.9055 B(  4-O ,  5-C ) :   0.9739
B(  5-C ,  6-C ) :   0.8735 B(  5-C ,  7-C ) :   0.9064 B(  5-C , 14-H ) :   0.9355
B(  6-C ,  7-C ) :   0.8708 B(  6-C , 15-H ) :   0.9141 B(  6-C , 16-H ) :   0.9089
B(  7-C ,  8-O ) :   0.9668 B(  7-C , 17-H ) :   0.9357

MP2 TOTAL ENERGY:     -438.303554082 Eh
FINAL SINGLE POINT ENERGY      -438.303554082044

DIPOLE MOMENT
-------------
                                X             Y             Z
Electronic contribution:      0.53885      -0.90240       1.02233
Nuclear contribution   :     -0.99457       0.80913      -1.14353
                        -----------------------------------------
Total Dipole Moment    :     -0.45573      -0.09327      -0.12120
                        -----------------------------------------
Magnitude (a.u.)       :      0.48070
Magnitude (Debye)      :      1.22185

                             ****ORCA TERMINATED NORMALLY****
TOTAL RUN TIME: 0 days 0 hours 14 minutes 47 seconds 513 msec
