                         Program Version 3.0.3 - RELEASE   -
|  1> ! RI-MP2 RIJK def2-TZVP def2-TZVP/C def2-TZVP/JK TIGHTSCF
|  2> % maxcore 2000
|  3> % mp2 density relaxed end
|  4> *xyz 0 1
|  5>  O        0.0953679944     1.4000393688     0.2241166916
|  6>  C       -0.0067712818     0.0026278027     0.0636864542
|  7>  C       -1.4158005126    -0.5199267684    -0.1854384902
|  8>  C       -1.3218306502    -1.9374703681    -0.8189061185
|  9>  O       -2.5342342147    -1.7054791980    -1.6150441739
| 10>  C       -1.7577894195    -0.4585602960    -1.7061314831
| 11>  C       -0.4373685210    -1.2588895513    -1.9065081161
| 12>  C        0.7052454717    -0.5116868009    -1.2510667283
| 13>  O        1.0885000547     0.5726994047    -2.0918485187
| 14>  H        0.0894537868     1.7696107548    -0.6693572105
| 15>  H        0.4312504798    -0.4463000276     0.9617085291
| 16>  H       -2.2059756460    -0.3171637733     0.5352675408
| 17>  H       -1.2030024703    -2.9089316104    -0.3377866401
| 18>  H       -2.1707588470     0.3553437670    -2.3005310995
| 19>  H       -0.2778178696    -1.7737843809    -2.8519855464
| 20>  H        1.5682512467    -1.1542287954    -1.0375862855
| 21>  H        1.8952270085     0.9554566023    -1.7303078146
| 22> *
| 23>
| 24>                          ****END OF INPUT****

CARTESIAN COORDINATES (ANGSTROEM)
---------------------------------
  O      0.095368    1.400039    0.224117
  C     -0.006771    0.002628    0.063686
  C     -1.415801   -0.519927   -0.185438
  C     -1.321831   -1.937470   -0.818906
  O     -2.534234   -1.705479   -1.615044
  C     -1.757789   -0.458560   -1.706131
  C     -0.437369   -1.258890   -1.906508
  C      0.705245   -0.511687   -1.251067
  O      1.088500    0.572699   -2.091849
  H      0.089454    1.769611   -0.669357
  H      0.431250   -0.446300    0.961709
  H     -2.205976   -0.317164    0.535268
  H     -1.203002   -2.908932   -0.337787
  H     -2.170759    0.355344   -2.300531
  H     -0.277818   -1.773784   -2.851986
  H      1.568251   -1.154229   -1.037586
  H      1.895227    0.955457   -1.730308

 Total Charge           Charge          ....    0
 Multiplicity           Mult            ....    1
 Number of Electrons    NEL             ....   68
 Basis Dimension        Dim             ....  327

ORBITAL ENERGIES
----------------

  NO   OCC          E(Eh)            E(eV)
   0   2.0000     -20.581888      -560.0616
   1   2.0000     -20.561346      -559.5027
   2   2.0000     -20.552806      -559.2703
   3   2.0000     -11.307186      -307.6842
   4   2.0000     -11.304419      -307.6089
   5   2.0000     -11.299562      -307.4767
   6   2.0000     -11.291365      -307.2537
   7   2.0000     -11.248490      -306.0870
   8   2.0000     -11.244962      -305.9910
   9   2.0000      -1.408370       -38.3237
  10   2.0000      -1.392850       -37.9014
  11   2.0000      -1.360296       -37.0155
  12   2.0000      -1.140913       -31.0458
  13   2.0000      -0.963738       -26.2246
  14   2.0000      -0.956402       -26.0250
  15   2.0000      -0.891992       -24.2723
  16   2.0000      -0.809716       -22.0335
  17   2.0000      -0.745459       -20.2850
  18   2.0000      -0.724134       -19.7047
  19   2.0000      -0.715903       -19.4807
  20   2.0000      -0.702588       -19.1184
  21   2.0000      -0.638077       -17.3629
  22   2.0000      -0.625073       -17.0091
  23   2.0000      -0.607177       -16.5221
  24   2.0000      -0.569124       -15.4866
  25   2.0000      -0.556205       -15.1351
  26   2.0000      -0.545182       -14.8352
  27   2.0000      -0.518657       -14.1134
  28   2.0000      -0.493001       -13.4152
  29   2.0000      -0.477339       -12.9891
  30   2.0000      -0.458782       -12.4841
  31   2.0000      -0.456086       -12.4107
  32   2.0000      -0.431877       -11.7520
  33   2.0000      -0.399728       -10.8772
  34   0.0000       0.123106         3.3499
  35   0.0000       0.144493         3.9318
  36   0.0000       0.168180         4.5764
  37   0.0000       0.175307         4.7703
  38   0.0000       0.184226         5.0130

MULLIKEN ATOMIC CHARGES
-----------------------
   0 O :   -0.477920
   1 C :    0.038243
   2 C :   -0.028075
   3 C :   -0.056862
   4 O :   -0.318222
   5 C :   -0.058693
   6 C :   -0.013023
   7 C :   -0.004342
   8 O :   -0.484696
   9 H :    0.326224
  10 H :    0.101751
  11 H :    0.132637
  12 H :    0.133537
  13 H :    0.139430
  14 H :    0.132816
  15 H :    0.106916
  16 H :    0.330278
Sum of atomic charges:   -0.0000000

LOEWDIN ATOMIC CHARGES
----------------------
   0 O :   -0.015003
   1 C :   -0.306411
   2 C :   -0.154642
   3 C :   -0.185679
   4 O :    0.131214
   5 C :   -0.180938
   6 C :   -0.151612
   7 C :   -0.295518
   8 O :   -0.016582
   9 H :    0.173884
  10 H :    0.141274
  11 H :    0.145713
  12 H :    0.126511
  13 H :    0.128591
  14 H :    0.146396
  15 H :    0.133259
  16 H :    0.179543

  Mayer bond orders larger than 0.1
B(  0-O ,  1-C ) :   0.9867 B(  0-O ,  9-H ) :   0.8175 B(  1-C ,  2-C ) :   0.8271
B(  1-C ,  7-C ) :   0.9018 B(  1-C , 10-H ) :   0.9227 B(  2-C ,  3-C ) :   0.8731
B(  2-C ,  5-C ) :   0.8893 B(  2-C ,  6-C ) :  -0.1136 B(  2-C , 11-H ) :   0.9263
B(  3-C ,  4-O ) :   0.9224 B(  3-C ,  6-C ) :   0.8897 B(  3-C , 12-H ) :   0.8924
B(  4-O ,  5-C ) :   0.9221 B(  5-C ,  6-C ) :   0.8927 B(  5-C , 13-H ) :   0.8904
B(  6-C ,  7-C ) :   0.8609 B(  6-C , 14-H ) :   0.9182 B(  7-C ,  8-O ) :   1.0520
B(  7-C , 15-H ) :   0.9394 B(  8-O , 16-H ) :   0.8365

MP2 TOTAL ENERGY:     -458.169779898 Eh
FINAL SINGLE POINT ENERGY      -458.169779897775

DIPOLE MOMENT
-------------
                                X             Y             Z
Electronic contribution:     -1.59582      -0.08995      -0.69490
Nuclear contribution   :      2.60356      -0.02633       0.80992
                        -----------------------------------------
Total Dipole Moment    :      1.00774      -0.11627       0.11502
                        -----------------------------------------
Magnitude (a.u.)       :      1.02093
Magnitude (Debye)      :      2.59499

                             ****ORCA TERMINATED NORMALLY****
TOTAL RUN TIME: 0 days 0 hours 15 minutes 15 seconds 667 msec
