                         Program Version 3.0.3 - RELEASE   -
|  1> ! RI-MP2 RIJK def2-TZVP def2-TZVP/C def2-TZVP/JK TIGHTSCF
|  2> % maxcore 2000
|  3> % mp2 density relaxed end
|  4> *xyz 0 1
|  5>  C        0.0184228492     1.4359883778    -0.0640394810
|  6>  N       -0.1138675005    -0.0020773728    -0.1898744912
|  7>  C       -1.2286637805    -0.6737330887     0.2254245126
|  8>  O       -2.1961552089    -0.1348630599     0.7208769818
|  9>  C       -1.1226999382    -2.1972859198     0.0705825871
| 10>  O       -2.3971041633    -2.7063705825    -0.2377780244
| 11>  H        0.9210641357     1.7041316826     0.4958675739
| 12>  H        0.0557530372     1.9250660250    -1.0442544669
| 13>  H       -0.8595424270     1.7943254715     0.4746794281
| 14>  H        0.6132009041    -0.5147041725    -0.6601230496
| 15>  H       -0.3791930326    -2.4535642075    -0.7033659763
| 16>  H       -0.7413164995    -2.5857308924     1.0285444179
| 17>  H       -2.3999873758    -3.6470292307    -0.0415052521
| 18> *
| 19>
| 20>                          ****END OF INPUT****

CARTESIAN COORDINATES (ANGSTROEM)
---------------------------------
  C      0.018423    1.435988   -0.064039
  N     -0.113868   -0.002077   -0.189874
  C     -1.228664   -0.673733    0.225425
  O     -2.196155   -0.134863    0.720877
  C     -1.122700   -2.197286    0.070583
  O     -2.397104   -2.706371   -0.237778
  H      0.921064    1.704132    0.495868
  H      0.055753    1.925066   -1.044254
  H     -0.859542    1.794325    0.474679
  H      0.613201   -0.514704   -0.660123
  H     -0.379193   -2.453564   -0.703366
  H     -0.741316   -2.585731    1.028544
  H     -2.399987   -3.647029   -0.041505

 Total Charge           Charge          ....    0
 Multiplicity           Mult            ....    1
 Number of Electrons    NEL             ....   48
 Basis Dimension        Dim             ....  228

ORBITAL ENERGIES
----------------

  NO   OCC          E(Eh)            E(eV)
   0   2.0000     -20.567020      -559.6571
   1   2.0000     -20.511595      -558.1489
   2   2.0000     -15.585864      -424.1129
   3   2.0000     -11.345932      -308.7385
   4   2.0000     -11.299526      -307.4757
   5   2.0000     -11.258879      -306.3697
   6   2.0000      -1.389798       -37.8183
   7   2.0000      -1.362673       -37.0802
   8   2.0000      -1.230025       -33.4707
   9   2.0000      -1.000436       -27.2232
  10   2.0000      -0.919454       -25.0196
  11   2.0000      -0.788689       -21.4613
  12   2.0000      -0.723236       -19.6803
  13   2.0000      -0.691633       -18.8203
  14   2.0000      -0.665254       -18.1025
  15   2.0000      -0.624307       -16.9883
  16   2.0000      -0.612212       -16.6591
  17   2.0000      -0.587514       -15.9871
  18   2.0000      -0.546114       -14.8605
  19   2.0000      -0.537086       -14.6149
  20   2.0000      -0.523618       -14.2484
  21   2.0000      -0.461626       -12.5615
  22   2.0000      -0.419746       -11.4219
  23   2.0000      -0.392144       -10.6708
  24   0.0000       0.118867         3.2345
  25   0.0000       0.135032         3.6744
  26   0.0000       0.163741         4.4556
  27   0.0000       0.188865         5.1393
  28   0.0000       0.201748         5.4898

MULLIKEN ATOMIC CHARGES
-----------------------
   0 C :   -0.275606
   1 N :   -0.347140
   2 C :    0.313787
   3 O :   -0.359412
   4 C :   -0.097547
   5 O :   -0.440366
   6 H :    0.132736
   7 H :    0.134203
   8 H :    0.177827
   9 H :    0.234553
  10 H :    0.087727
  11 H :    0.120014
  12 H :    0.319223
Sum of atomic charges:   -0.0000000

LOEWDIN ATOMIC CHARGES
----------------------
   0 C :   -0.313694
   1 N :    0.073194
   2 C :   -0.466043
   3 O :    0.095963
   4 C :   -0.330466
   5 O :   -0.023496
   6 H :    0.114521
   7 H :    0.115129
   8 H :    0.135495
   9 H :    0.180870
  10 H :    0.114044
  11 H :    0.128442
  12 H :    0.176038

  Mayer bond orders larger than 0.1
B(  0-C ,  1-N ) :   0.8438 B(  0-C ,  6-H ) :   0.9362 B(  0-C ,  7-H ) :   0.9361
B(  0-C ,  8-H ) :   0.9259 B(  1-N ,  2-C ) :   1.1448 B(  1-N ,  9-H ) :   0.8760
B(  2-C ,  3-O ) :   1.9347 B(  2-C ,  4-C ) :   0.8795 B(  4-C ,  5-O ) :   1.0487
B(  4-C , 10-H ) :   0.9380 B(  4-C , 11-H ) :   0.9080 B(  5-O , 12-H ) :   0.8457

MP2 TOTAL ENERGY:     -323.139406071 Eh
FINAL SINGLE POINT ENERGY      -323.139406070555

DIPOLE MOMENT
-------------
                                X             Y             Z
Electronic contribution:     -3.46944      -1.94669       0.60334
Nuclear contribution   :      5.16281       1.34421      -0.96475
                        -----------------------------------------
Total Dipole Moment    :      1.69337      -0.60248      -0.36141
                        -----------------------------------------
Magnitude (a.u.)       :      1.83333
Magnitude (Debye)      :      4.65997

                             ****ORCA TERMINATED NORMALLY****
TOTAL RUN TIME: 0 days 0 hours 4 minutes 12 seconds 901 msec
