                         Program Version 3.0.3 - RELEASE   -
|  1> ! RI-MP2 RIJK def2-TZVP def2-TZVP/C def2-TZVP/JK TIGHTSCF
|  2> % maxcore 2000
|  3> % mp2 density relaxed end
|  4> *xyz 0 1
|  5>  C        0.1898606940     1.5582568786    -0.0328949512
|  6>  C       -0.0558032523     0.0942671633     0.1258474827
|  7>  C       -1.3842678513    -0.6797389642     0.0085440215
|  8>  C       -0.7989759636    -1.7507285540     0.9835591449
|  9>  C       -1.5229834862    -2.1550913432     2.2818576869
| 10>  O       -1.3066076889    -3.5536733171     2.0158197481
| 11>  C       -0.7471655147    -3.2634151142     0.7145181624
| 12>  C        0.4865354287    -0.9209537594     1.0473424892
| 13>  O        0.9694178510    -0.8197686737    -0.3014804571
| 14>  H        1.2113297354     1.8081939788     0.2656384969
| 15>  H        0.0557749446     1.8629305313    -1.0770672778
| 16>  H       -0.5088706656     2.1387065271     0.5780997789
| 17>  H       -2.2362413715    -0.1502265677     0.4458469672
| 18>  H       -1.6403099982    -1.0161593430    -0.9998129118
| 19>  H       -1.0571478912    -1.8341466903     3.2230274069
| 20>  H       -2.5916586641    -1.8998263140     2.3102024036
| 21>  H       -1.4004175721    -3.6106917481    -0.0970501439
| 22>  H        0.2507631446    -3.6968687530     0.5818542813
| 23>  H        1.2182741414    -0.8554297972     1.8464825211
| 24> *
| 25>
| 26>                          ****END OF INPUT****

CARTESIAN COORDINATES (ANGSTROEM)
---------------------------------
  C      0.189861    1.558257   -0.032895
  C     -0.055803    0.094267    0.125847
  C     -1.384268   -0.679739    0.008544
  C     -0.798976   -1.750729    0.983559
  C     -1.522983   -2.155091    2.281858
  O     -1.306608   -3.553673    2.015820
  C     -0.747166   -3.263415    0.714518
  C      0.486535   -0.920954    1.047342
  O      0.969418   -0.819769   -0.301480
  H      1.211330    1.808194    0.265638
  H      0.055775    1.862931   -1.077067
  H     -0.508871    2.138707    0.578100
  H     -2.236241   -0.150227    0.445847
  H     -1.640310   -1.016159   -0.999813
  H     -1.057148   -1.834147    3.223027
  H     -2.591659   -1.899826    2.310202
  H     -1.400418   -3.610692   -0.097050
  H      0.250763   -3.696869    0.581854
  H      1.218274   -0.855430    1.846483

 Total Charge           Charge          ....    0
 Multiplicity           Mult            ....    1
 Number of Electrons    NEL             ....   68
 Basis Dimension        Dim             ....  339

ORBITAL ENERGIES
----------------

  NO   OCC          E(Eh)            E(eV)
   0   2.0000     -20.568600      -559.7001
   1   2.0000     -20.548691      -559.1583
   2   2.0000     -11.297101      -307.4098
   3   2.0000     -11.287098      -307.1375
   4   2.0000     -11.283117      -307.0292
   5   2.0000     -11.276516      -306.8496
   6   2.0000     -11.250462      -306.1406
   7   2.0000     -11.239609      -305.8453
   8   2.0000     -11.233997      -305.6926
   9   2.0000      -1.420840       -38.6630
  10   2.0000      -1.378156       -37.5015
  11   2.0000      -1.097881       -29.8748
  12   2.0000      -1.016468       -27.6595
  13   2.0000      -0.936930       -25.4952
  14   2.0000      -0.936240       -25.4764
  15   2.0000      -0.892619       -24.2894
  16   2.0000      -0.775329       -21.0978
  17   2.0000      -0.740882       -20.1604
  18   2.0000      -0.697951       -18.9922
  19   2.0000      -0.677736       -18.4421
  20   2.0000      -0.634294       -17.2600
  21   2.0000      -0.621619       -16.9151
  22   2.0000      -0.610061       -16.6006
  23   2.0000      -0.589446       -16.0396
  24   2.0000      -0.569070       -15.4852
  25   2.0000      -0.559880       -15.2351
  26   2.0000      -0.544093       -14.8055
  27   2.0000      -0.527444       -14.3525
  28   2.0000      -0.501256       -13.6399
  29   2.0000      -0.468367       -12.7449
  30   2.0000      -0.453061       -12.3284
  31   2.0000      -0.439951       -11.9717
  32   2.0000      -0.412635       -11.2284
  33   2.0000      -0.393247       -10.7008
  34   0.0000       0.132893         3.6162
  35   0.0000       0.149734         4.0745
  36   0.0000       0.167556         4.5594
  37   0.0000       0.169802         4.6205
  38   0.0000       0.184970         5.0333

MULLIKEN ATOMIC CHARGES
-----------------------
   0 C :   -0.414744
   1 C :    0.171150
   2 C :   -0.232868
   3 C :    0.109880
   4 C :   -0.045472
   5 O :   -0.329955
   6 C :   -0.042146
   7 C :   -0.088369
   8 O :   -0.324557
   9 H :    0.146784
  10 H :    0.141899
  11 H :    0.133916
  12 H :    0.123952
  13 H :    0.119592
  14 H :    0.097899
  15 H :    0.091964
  16 H :    0.093848
  17 H :    0.108972
  18 H :    0.138256
Sum of atomic charges:   -0.0000000

LOEWDIN ATOMIC CHARGES
----------------------
   0 C :   -0.271880
   1 C :   -0.297157
   2 C :   -0.154795
   3 C :   -0.217753
   4 C :   -0.233205
   5 O :    0.110786
   6 C :   -0.227265
   7 C :   -0.192929
   8 O :    0.188996
   9 H :    0.136815
  10 H :    0.134115
  11 H :    0.132772
  12 H :    0.140206
  13 H :    0.135725
  14 H :    0.119158
  15 H :    0.118895
  16 H :    0.120151
  17 H :    0.123179
  18 H :    0.134185

  Mayer bond orders larger than 0.1
B(  0-C ,  1-C ) :   0.8835 B(  0-C ,  9-H ) :   0.9376 B(  0-C , 10-H ) :   0.9379
B(  0-C , 11-H ) :   0.9337 B(  1-C ,  2-C ) :   0.9351 B(  1-C ,  7-C ) :   0.9094
B(  1-C ,  8-O ) :   0.8981 B(  2-C ,  3-C ) :   0.9437 B(  2-C , 12-H ) :   0.9148
B(  2-C , 13-H ) :   0.8916 B(  3-C ,  4-C ) :   0.9532 B(  3-C ,  6-C ) :   0.9562
B(  3-C ,  7-C ) :   0.8513 B(  4-C ,  5-O ) :   0.9720 B(  4-C , 14-H ) :   0.9086
B(  4-C , 15-H ) :   0.9024 B(  5-O ,  6-C ) :   0.9551 B(  6-C , 16-H ) :   0.9055
B(  6-C , 17-H ) :   0.9111 B(  7-C ,  8-O ) :   0.9191 B(  7-C , 18-H ) :   0.9234

MP2 TOTAL ENERGY:     -422.255761677 Eh
FINAL SINGLE POINT ENERGY      -422.255761676599

DIPOLE MOMENT
-------------
                                X             Y             Z
Electronic contribution:      1.64187      -4.27102       0.59047
Nuclear contribution   :     -1.94886       5.27307      -0.50888
                        -----------------------------------------
Total Dipole Moment    :     -0.30700       1.00205       0.08159
                        -----------------------------------------
Magnitude (a.u.)       :      1.05119
Magnitude (Debye)      :      2.67191

                             ****ORCA TERMINATED NORMALLY****
TOTAL RUN TIME: 0 days 0 hours 18 minutes 13 seconds 244 msec
