                         Program Version 3.0.3 - RELEASE   -
|  1> ! RI-MP2 RIJK def2-TZVP def2-TZVP/C def2-TZVP/JK TIGHTSCF
|  2> % maxcore 2000
|  3> % mp2 density relaxed end
|  4> *xyz 0 1
|  5>  C        0.0965543282     1.4667520585    -0.0910391834
|  6>  C       -0.1932851697     0.0700316672     0.4239737142
|  7>  O       -0.0902515301    -0.9302603639    -0.6176686735
|  8>  C        0.6195141776    -1.8396809482     0.2545111905
|  9>  C        2.0253791670    -2.1537356501    -0.2544448010
| 10>  C        2.8449144904    -0.8997378327     0.1043109237
| 11>  C        2.2633691922    -0.4598095102     1.4657301928
| 12>  C        2.6877448938     0.9249242544     1.9586841701
| 13>  C        0.7487629721    -0.7487397212     1.3554699305
| 14>  H        1.0829467564     1.5407396088    -0.5537611064
| 15>  H       -0.6487080685     1.7271618622    -0.8503539268
| 16>  H        0.0268220930     2.2031832222     0.7159736100
| 17>  H       -1.2127818787     0.0615669205     0.8415361711
| 18>  H        0.0174176778    -2.7284201155     0.4763245724
| 19>  H        2.4152653218    -3.0301109821     0.2784556009
| 20>  H        2.0207497097    -2.3882264067    -1.3227578595
| 21>  H        3.9207783075    -1.0923280411     0.1549320248
| 22>  H        2.6901473125    -0.1202385818    -0.6494491735
| 23>  H        2.6277980972    -1.1868896446     2.2074728766
| 24>  H        2.4414267323     1.7141419353     1.2449358623
| 25>  H        2.2037061395     1.1719244575     2.9099753346
| 26>  H        3.7701208360     0.9575567662     2.1238006783
| 27>  H        0.3085284620    -0.9596273848     2.3321432311
| 28> *
| 29>
| 30>                          ****END OF INPUT****

CARTESIAN COORDINATES (ANGSTROEM)
---------------------------------
  C      0.096554    1.466752   -0.091039
  C     -0.193285    0.070032    0.423974
  O     -0.090252   -0.930260   -0.617669
  C      0.619514   -1.839681    0.254511
  C      2.025379   -2.153736   -0.254445
  C      2.844914   -0.899738    0.104311
  C      2.263369   -0.459810    1.465730
  C      2.687745    0.924924    1.958684
  C      0.748763   -0.748740    1.355470
  H      1.082947    1.540740   -0.553761
  H     -0.648708    1.727162   -0.850354
  H      0.026822    2.203183    0.715974
  H     -1.212782    0.061567    0.841536
  H      0.017418   -2.728420    0.476325
  H      2.415265   -3.030111    0.278456
  H      2.020750   -2.388226   -1.322758
  H      3.920778   -1.092328    0.154932
  H      2.690147   -0.120239   -0.649449
  H      2.627798   -1.186890    2.207473
  H      2.441427    1.714142    1.244936
  H      2.203706    1.171924    2.909975
  H      3.770121    0.957557    2.123801
  H      0.308528   -0.959627    2.332143

 Total Charge           Charge          ....    0
 Multiplicity           Mult            ....    1
 Number of Electrons    NEL             ....   70
 Basis Dimension        Dim             ....  363

ORBITAL ENERGIES
----------------

  NO   OCC          E(Eh)            E(eV)
   0   2.0000     -20.536256      -558.8199
   1   2.0000     -11.277681      -306.8813
   2   2.0000     -11.271742      -306.7197
   3   2.0000     -11.229209      -305.5623
   4   2.0000     -11.225637      -305.4651
   5   2.0000     -11.216177      -305.2077
   6   2.0000     -11.215576      -305.1913
   7   2.0000     -11.214425      -305.1600
   8   2.0000     -11.213489      -305.1346
   9   2.0000      -1.370079       -37.2817
  10   2.0000      -1.112714       -30.2785
  11   2.0000      -1.027832       -27.9687
  12   2.0000      -0.989048       -26.9134
  13   2.0000      -0.959586       -26.1117
  14   2.0000      -0.895470       -24.3670
  15   2.0000      -0.825326       -22.4583
  16   2.0000      -0.774283       -21.0693
  17   2.0000      -0.718676       -19.5562
  18   2.0000      -0.687148       -18.6982
  19   2.0000      -0.639242       -17.3947
  20   2.0000      -0.618655       -16.8344
  21   2.0000      -0.605264       -16.4701
  22   2.0000      -0.589606       -16.0440
  23   2.0000      -0.575167       -15.6511
  24   2.0000      -0.563911       -15.3448
  25   2.0000      -0.535964       -14.5843
  26   2.0000      -0.522267       -14.2116
  27   2.0000      -0.511874       -13.9288
  28   2.0000      -0.502441       -13.6721
  29   2.0000      -0.472155       -12.8480
  30   2.0000      -0.468243       -12.7415
  31   2.0000      -0.454804       -12.3758
  32   2.0000      -0.432045       -11.7565
  33   2.0000      -0.423279       -11.5180
  34   2.0000      -0.397788       -10.8244
  35   0.0000       0.129371         3.5204
  36   0.0000       0.148225         4.0334
  37   0.0000       0.164670         4.4809
  38   0.0000       0.170715         4.6454
  39   0.0000       0.193558         5.2670

MULLIKEN ATOMIC CHARGES
-----------------------
   0 C :   -0.415521
   1 C :    0.059908
   2 O :   -0.334398
   3 C :    0.052739
   4 C :   -0.215554
   5 C :   -0.236943
   6 C :   -0.120271
   7 C :   -0.392223
   8 C :   -0.027352
   9 H :    0.128962
  10 H :    0.143860
  11 H :    0.132843
  12 H :    0.073188
  13 H :    0.091301
  14 H :    0.105660
  15 H :    0.126940
  16 H :    0.121020
  17 H :    0.110285
  18 H :    0.085481
  19 H :    0.126076
  20 H :    0.132227
  21 H :    0.133668
  22 H :    0.118102
Sum of atomic charges:    0.0000000

LOEWDIN ATOMIC CHARGES
----------------------
   0 C :   -0.300390
   1 C :   -0.284616
   2 O :    0.153366
   3 C :   -0.248136
   4 C :   -0.239726
   5 C :   -0.232312
   6 C :   -0.254696
   7 C :   -0.293718
   8 C :   -0.167155
   9 H :    0.119968
  10 H :    0.130367
  11 H :    0.127280
  12 H :    0.136131
  13 H :    0.129255
  14 H :    0.140325
  15 H :    0.140638
  16 H :    0.133266
  17 H :    0.137833
  18 H :    0.158467
  19 H :    0.122240
  20 H :    0.124589
  21 H :    0.124596
  22 H :    0.142427

  Mayer bond orders larger than 0.1
B(  0-C ,  1-C ) :   0.8948 B(  0-C ,  9-H ) :   0.9430 B(  0-C , 10-H ) :   0.9296
B(  0-C , 11-H ) :   0.9321 B(  1-C ,  2-O ) :   0.9338 B(  1-C ,  8-C ) :   0.9324
B(  1-C , 12-H ) :   0.9220 B(  2-O ,  3-C ) :   0.9541 B(  3-C ,  4-C ) :   0.9321
B(  3-C ,  8-C ) :   0.9148 B(  3-C , 13-H ) :   0.9280 B(  4-C ,  5-C ) :   0.9414
B(  4-C , 14-H ) :   0.9197 B(  4-C , 15-H ) :   0.9198 B(  5-C ,  6-C ) :   0.9457
B(  5-C , 16-H ) :   0.9285 B(  5-C , 17-H ) :   0.9189 B(  6-C ,  7-C ) :   0.9036
B(  6-C ,  8-C ) :   0.9165 B(  6-C , 18-H ) :   0.9238 B(  7-C , 19-H ) :   0.9320
B(  7-C , 20-H ) :   0.9428 B(  7-C , 21-H ) :   0.9395 B(  8-C , 22-H ) :   0.9207

MP2 TOTAL ENERGY:     -387.624265751 Eh
FINAL SINGLE POINT ENERGY      -387.624265750925

DIPOLE MOMENT
-------------
                                X             Y             Z
Electronic contribution:     -4.00997      -4.24774      -2.10245
Nuclear contribution   :      4.31599       4.31814       2.74715
                        -----------------------------------------
Total Dipole Moment    :      0.30602       0.07040       0.64471
                        -----------------------------------------
Magnitude (a.u.)       :      0.71711
Magnitude (Debye)      :      1.82276

                             ****ORCA TERMINATED NORMALLY****
TOTAL RUN TIME: 0 days 0 hours 20 minutes 25 seconds 370 msec
