                         Program Version 3.0.3 - RELEASE   -
|  1> ! RI-MP2 RIJK def2-TZVP def2-TZVP/C def2-TZVP/JK TIGHTSCF
|  2> % maxcore 2000
|  3> % mp2 density relaxed end
|  4> *xyz 0 1
|  5>  N       -0.1420704612     1.2392123374     0.6322973104
|  6>  C       -0.0516336729     0.0807577802     0.1264765913
|  7>  C       -1.2550613033    -0.8251934125     0.0269328985
|  8>  C       -1.2553862471    -1.6170928866    -1.2857853172
|  9>  C       -0.0010381403    -2.4878817541    -1.3134974506
| 10>  C        0.5948740320    -2.7780451169    -2.7205464770
| 11>  C        1.5585206982    -1.5711054837    -2.5334839716
| 12>  C        1.2634552274    -1.6383674432    -1.0163238322
| 13>  O        1.1441950880    -0.3918978848    -0.3339898304
| 14>  H        0.7738141851     1.6940339345     0.6240462786
| 15>  H       -1.2368481131    -1.5274624416     0.8718392667
| 16>  H       -2.1401934450    -0.1993483854     0.1462249609
| 17>  H       -2.1572401041    -2.2308090605    -1.3734696699
| 18>  H       -1.2629564815    -0.9208092060    -2.1334965968
| 19>  H       -0.1386209416    -3.3515324346    -0.6561688267
| 20>  H        1.1252114937    -3.7326287763    -2.7573350421
| 21>  H       -0.0997891221    -2.7340010713    -3.5623877331
| 22>  H        2.5970354910    -1.6860024036    -2.8491553326
| 23>  H        1.1584855531    -0.6506823816    -2.9657707757
| 24>  H        2.0272814337    -2.2121709593    -0.4828879707
| 25> *
| 26>
| 27>                          ****END OF INPUT****

CARTESIAN COORDINATES (ANGSTROEM)
---------------------------------
  N     -0.142070    1.239212    0.632297
  C     -0.051634    0.080758    0.126477
  C     -1.255061   -0.825193    0.026933
  C     -1.255386   -1.617093   -1.285785
  C     -0.001038   -2.487882   -1.313497
  C      0.594874   -2.778045   -2.720546
  C      1.558521   -1.571105   -2.533484
  C      1.263455   -1.638367   -1.016324
  O      1.144195   -0.391898   -0.333990
  H      0.773814    1.694034    0.624046
  H     -1.236848   -1.527462    0.871839
  H     -2.140193   -0.199348    0.146225
  H     -2.157240   -2.230809   -1.373470
  H     -1.262956   -0.920809   -2.133497
  H     -0.138621   -3.351532   -0.656169
  H      1.125211   -3.732629   -2.757335
  H     -0.099789   -2.734001   -3.562388
  H      2.597035   -1.686002   -2.849155
  H      1.158486   -0.650682   -2.965771
  H      2.027281   -2.212171   -0.482888

 Total Charge           Charge          ....    0
 Multiplicity           Mult            ....    1
 Number of Electrons    NEL             ....   68
 Basis Dimension        Dim             ....  345

ORBITAL ENERGIES
----------------

  NO   OCC          E(Eh)            E(eV)
   0   2.0000     -20.585101      -560.1491
   1   2.0000     -15.519857      -422.3168
   2   2.0000     -11.330555      -308.3201
   3   2.0000     -11.295136      -307.3563
   4   2.0000     -11.242850      -305.9335
   5   2.0000     -11.238486      -305.8147
   6   2.0000     -11.237556      -305.7894
   7   2.0000     -11.235294      -305.7279
   8   2.0000     -11.231719      -305.6306
   9   2.0000      -1.417141       -38.5624
  10   2.0000      -1.189511       -32.3682
  11   2.0000      -1.146535       -31.1988
  12   2.0000      -1.058156       -28.7939
  13   2.0000      -0.931807       -25.3558
  14   2.0000      -0.914973       -24.8977
  15   2.0000      -0.858834       -23.3701
  16   2.0000      -0.798931       -21.7400
  17   2.0000      -0.721933       -19.6448
  18   2.0000      -0.695507       -18.9257
  19   2.0000      -0.687978       -18.7208
  20   2.0000      -0.661588       -18.0027
  21   2.0000      -0.621973       -16.9248
  22   2.0000      -0.592416       -16.1205
  23   2.0000      -0.575559       -15.6618
  24   2.0000      -0.568851       -15.4792
  25   2.0000      -0.551131       -14.9970
  26   2.0000      -0.525739       -14.3061
  27   2.0000      -0.516787       -14.0625
  28   2.0000      -0.479597       -13.0505
  29   2.0000      -0.463782       -12.6201
  30   2.0000      -0.453437       -12.3387
  31   2.0000      -0.438260       -11.9257
  32   2.0000      -0.422800       -11.5050
  33   2.0000      -0.380392       -10.3510
  34   0.0000       0.126821         3.4510
  35   0.0000       0.144787         3.9399
  36   0.0000       0.149704         4.0736
  37   0.0000       0.161934         4.4064
  38   0.0000       0.183857         5.0030

MULLIKEN ATOMIC CHARGES
-----------------------
   0 N :   -0.371264
   1 C :    0.079241
   2 C :   -0.146579
   3 C :   -0.267678
   4 C :   -0.058705
   5 C :   -0.247399
   6 C :   -0.254804
   7 C :    0.051694
   8 O :   -0.256114
   9 H :    0.215016
  10 H :    0.128257
  11 H :    0.147094
  12 H :    0.131979
  13 H :    0.127829
  14 H :    0.113972
  15 H :    0.125020
  16 H :    0.122360
  17 H :    0.126928
  18 H :    0.129129
  19 H :    0.104024
Sum of atomic charges:    0.0000000

LOEWDIN ATOMIC CHARGES
----------------------
   0 N :   -0.066523
   1 C :   -0.410707
   2 C :   -0.220765
   3 C :   -0.234457
   4 C :   -0.214574
   5 C :   -0.217344
   6 C :   -0.217604
   7 C :   -0.250760
   8 O :    0.257787
   9 H :    0.163626
  10 H :    0.153751
  11 H :    0.154873
  12 H :    0.140997
  13 H :    0.145943
  14 H :    0.143247
  15 H :    0.134819
  16 H :    0.128841
  17 H :    0.126216
  18 H :    0.139983
  19 H :    0.142652

  Mayer bond orders larger than 0.1
B(  0-N ,  1-C ) :   2.0705 B(  0-N ,  9-H ) :   0.8591 B(  1-C ,  2-C ) :   0.9288
B(  1-C ,  8-O ) :   1.0835 B(  2-C ,  3-C ) :   0.8951 B(  2-C , 10-H ) :   0.9210
B(  2-C , 11-H ) :   0.9161 B(  3-C ,  4-C ) :   0.9159 B(  3-C , 12-H ) :   0.9324
B(  3-C , 13-H ) :   0.9226 B(  4-C ,  5-C ) :   0.9003 B(  4-C ,  7-C ) :   0.9139
B(  4-C , 14-H ) :   0.9232 B(  5-C ,  6-C ) :   0.9271 B(  5-C , 15-H ) :   0.9252
B(  5-C , 16-H ) :   0.9250 B(  6-C ,  7-C ) :   0.9043 B(  6-C , 17-H ) :   0.9281
B(  6-C , 18-H ) :   0.9254 B(  7-C ,  8-O ) :   0.9064 B(  7-C , 19-H ) :   0.9425

MP2 TOTAL ENERGY:     -402.468547957 Eh
FINAL SINGLE POINT ENERGY      -402.468547956754

DIPOLE MOMENT
-------------
                                X             Y             Z
Electronic contribution:      1.78765       3.96862       3.90360
Nuclear contribution   :     -1.62637      -5.16717      -4.58535
                        -----------------------------------------
Total Dipole Moment    :      0.16128      -1.19855      -0.68176
                        -----------------------------------------
Magnitude (a.u.)       :      1.38828
Magnitude (Debye)      :      3.52872

                             ****ORCA TERMINATED NORMALLY****
TOTAL RUN TIME: 0 days 0 hours 20 minutes 20 seconds 815 msec
