                         Program Version 3.0.3 - RELEASE   -
|  1> ! RI-MP2 RIJK def2-TZVP def2-TZVP/C def2-TZVP/JK TIGHTSCF
|  2> % maxcore 2000
|  3> % mp2 density relaxed end
|  4> *xyz 0 1
|  5>  C       -0.0625013940     1.4624117972     0.0148055158
|  6>  N       -0.0114718316     0.0178285013    -0.0052763613
|  7>  C       -0.0678516769    -0.7656023565    -1.1473272544
|  8>  C        0.0309027332    -2.0775601395    -0.7524842834
|  9>  O        0.0248469266    -3.1390959578    -1.6144582413
| 10>  C        0.1279439610    -2.1073714090     0.6656866135
| 11>  C        0.0946505185    -0.7923014976     1.0949867291
| 12>  N        0.2112275229    -0.2215436679     2.3817325951
| 13>  H        0.3313771894     1.8085343608     0.9716407252
| 14>  H        0.5513562721     1.8671536827    -0.7949020858
| 15>  H       -1.0861504531     1.8391630824    -0.1048858582
| 16>  H       -0.1728625349    -0.3288566814    -2.1256252448
| 17>  H        0.0960377619    -3.9456152413    -1.0968923476
| 18>  H        0.2024706964    -2.9796796301     1.2987490600
| 19>  H        0.7065280952    -0.8481106144     3.0041419271
| 20>  H       -0.6913260769    -0.0213406887     2.8039359809
| 21> *
| 22>
| 23>                          ****END OF INPUT****

CARTESIAN COORDINATES (ANGSTROEM)
---------------------------------
  C     -0.062501    1.462412    0.014806
  N     -0.011472    0.017829   -0.005276
  C     -0.067852   -0.765602   -1.147327
  C      0.030903   -2.077560   -0.752484
  O      0.024847   -3.139096   -1.614458
  C      0.127944   -2.107371    0.665687
  C      0.094651   -0.792301    1.094987
  N      0.211228   -0.221544    2.381733
  H      0.331377    1.808534    0.971641
  H      0.551356    1.867154   -0.794902
  H     -1.086150    1.839163   -0.104886
  H     -0.172863   -0.328857   -2.125625
  H      0.096038   -3.945615   -1.096892
  H      0.202471   -2.979680    1.298749
  H      0.706528   -0.848111    3.004142
  H     -0.691326   -0.021341    2.803936

 Total Charge           Charge          ....    0
 Multiplicity           Mult            ....    1
 Number of Electrons    NEL             ....   60
 Basis Dimension        Dim             ....  296

ORBITAL ENERGIES
----------------

  NO   OCC          E(Eh)            E(eV)
   0   2.0000     -20.569224      -559.7171
   1   2.0000     -15.594373      -424.3445
   2   2.0000     -15.566566      -423.5878
   3   2.0000     -11.288399      -307.1730
   4   2.0000     -11.267649      -306.6083
   5   2.0000     -11.260255      -306.4071
   6   2.0000     -11.223007      -305.3936
   7   2.0000     -11.200154      -304.7717
   8   2.0000      -1.382321       -37.6149
   9   2.0000      -1.301095       -35.4046
  10   2.0000      -1.188224       -32.3332
  11   2.0000      -1.063755       -28.9462
  12   2.0000      -0.949655       -25.8414
  13   2.0000      -0.922402       -25.0998
  14   2.0000      -0.793640       -21.5960
  15   2.0000      -0.746800       -20.3214
  16   2.0000      -0.713181       -19.4066
  17   2.0000      -0.677088       -18.4245
  18   2.0000      -0.660066       -17.9613
  19   2.0000      -0.622172       -16.9302
  20   2.0000      -0.612274       -16.6608
  21   2.0000      -0.585799       -15.9404
  22   2.0000      -0.572206       -15.5705
  23   2.0000      -0.567740       -15.4490
  24   2.0000      -0.537332       -14.6215
  25   2.0000      -0.516137       -14.0448
  26   2.0000      -0.496723       -13.5165
  27   2.0000      -0.437199       -11.8968
  28   2.0000      -0.320554        -8.7227
  29   2.0000      -0.272484        -7.4147
  30   0.0000       0.126939         3.4542
  31   0.0000       0.148046         4.0285
  32   0.0000       0.159165         4.3311
  33   0.0000       0.169916         4.6237
  34   0.0000       0.181558         4.9404

MULLIKEN ATOMIC CHARGES
-----------------------
   0 C :   -0.348196
   1 N :    0.000559
   2 C :   -0.222438
   3 C :    0.201568
   4 O :   -0.445951
   5 C :   -0.316405
   6 C :    0.148955
   7 N :   -0.579408
   8 H :    0.179172
   9 H :    0.144751
  10 H :    0.141686
  11 H :    0.138782
  12 H :    0.329243
  13 H :    0.122261
  14 H :    0.252542
  15 H :    0.252879
Sum of atomic charges:   -0.0000000

LOEWDIN ATOMIC CHARGES
----------------------
   0 C :   -0.278517
   1 N :    0.238952
   2 C :   -0.213855
   3 C :   -0.321647
   4 O :    0.047206
   5 C :   -0.200950
   6 C :   -0.323643
   7 N :   -0.114769
   8 H :    0.131729
   9 H :    0.123977
  10 H :    0.118141
  11 H :    0.135486
  12 H :    0.189215
  13 H :    0.134387
  14 H :    0.168829
  15 H :    0.165457

  Mayer bond orders larger than 0.1
B(  0-C ,  1-N ) :   0.8612 B(  0-C ,  8-H ) :   0.9266 B(  0-C ,  9-H ) :   0.9321
B(  0-C , 10-H ) :   0.9269 B(  1-N ,  2-C ) :   1.0846 B(  1-N ,  6-C ) :   1.1717
B(  2-C ,  3-C ) :   1.4874 B(  2-C , 11-H ) :   0.9168 B(  3-C ,  4-O ) :   1.0680
B(  3-C ,  5-C ) :   1.2643 B(  4-O , 12-H ) :   0.8398 B(  5-C ,  6-C ) :   1.4141
B(  5-C , 13-H ) :   0.8997 B(  6-C ,  7-N ) :   0.9647 B(  7-N , 14-H ) :   0.8905
B(  7-N , 15-H ) :   0.8740

MP2 TOTAL ENERGY:     -379.306799350 Eh
FINAL SINGLE POINT ENERGY      -379.306799350451

DIPOLE MOMENT
-------------
                                X             Y             Z
Electronic contribution:      0.15578      -4.46113      -2.11225
Nuclear contribution   :     -0.36696       4.69941       3.03239
                        -----------------------------------------
Total Dipole Moment    :     -0.21118       0.23828       0.92014
                        -----------------------------------------
Magnitude (a.u.)       :      0.97367
Magnitude (Debye)      :      2.47486

                             ****ORCA TERMINATED NORMALLY****
TOTAL RUN TIME: 0 days 0 hours 11 minutes 37 seconds 242 msec
