                         Program Version 3.0.3 - RELEASE   -
|  1> ! RI-MP2 RIJK def2-TZVP def2-TZVP/C def2-TZVP/JK TIGHTSCF
|  2> % maxcore 2000
|  3> % mp2 density relaxed end
|  4> *xyz 0 1
|  5>  O       -0.1252180154     1.4221683606     0.1541263585
|  6>  C       -0.0597805953     0.0400219446     0.0216759261
|  7>  C        0.9638994750    -0.5642272593    -0.9382630714
|  8>  C        0.2158086396    -1.7474217674    -1.5967685647
|  9>  O       -1.1298761979    -1.7667797547    -1.0625244750
| 10>  C       -1.2926265954    -0.7418481660    -0.1579381660
| 11>  C       -0.5398843022    -0.8047913319     1.2186047174
| 12>  C        0.1158420731    -2.0200522879     1.7262979314
| 13>  O        0.8192667245    -2.7762032310     1.0914140217
| 14>  H        0.6213386564     1.7090425095     0.6923237785
| 15>  H        1.2147821528     0.2141953005    -1.6639052834
| 16>  H        1.8795111169    -0.8960665992    -0.4461139649
| 17>  H        0.1400334530    -1.6355932607    -2.6834933256
| 18>  H        0.6853327893    -2.7007571327    -1.3583575754
| 19>  H       -2.2871734099    -0.3111886055    -0.1345074964
| 20>  H       -1.0425769745    -0.2078000831     1.9741553457
| 21>  H       -0.0946636399    -2.2234495957     2.8003081234
| 22> *
| 23>
| 24>                          ****END OF INPUT****

CARTESIAN COORDINATES (ANGSTROEM)
---------------------------------
  O     -0.125218    1.422168    0.154126
  C     -0.059781    0.040022    0.021676
  C      0.963899   -0.564227   -0.938263
  C      0.215809   -1.747422   -1.596769
  O     -1.129876   -1.766780   -1.062524
  C     -1.292627   -0.741848   -0.157938
  C     -0.539884   -0.804791    1.218605
  C      0.115842   -2.020052    1.726298
  O      0.819267   -2.776203    1.091414
  H      0.621339    1.709043    0.692324
  H      1.214782    0.214195   -1.663905
  H      1.879511   -0.896067   -0.446114
  H      0.140033   -1.635593   -2.683493
  H      0.685333   -2.700757   -1.358358
  H     -2.287173   -0.311189   -0.134507
  H     -1.042577   -0.207800    1.974155
  H     -0.094664   -2.223450    2.800308

 Total Charge           Charge          ....    0
 Multiplicity           Mult            ....    1
 Number of Electrons    NEL             ....   68
 Basis Dimension        Dim             ....  327

ORBITAL ENERGIES
----------------

  NO   OCC          E(Eh)            E(eV)
   0   2.0000     -20.584941      -560.1447
   1   2.0000     -20.566317      -559.6380
   2   2.0000     -20.550902      -559.2185
   3   2.0000     -11.335780      -308.4622
   4   2.0000     -11.312017      -307.8156
   5   2.0000     -11.304497      -307.6110
   6   2.0000     -11.277163      -306.8672
   7   2.0000     -11.247592      -306.0625
   8   2.0000     -11.237315      -305.7829
   9   2.0000      -1.409703       -38.3600
  10   2.0000      -1.390101       -37.8266
  11   2.0000      -1.384631       -37.6777
  12   2.0000      -1.137908       -30.9640
  13   2.0000      -1.035499       -28.1774
  14   2.0000      -0.941352       -25.6155
  15   2.0000      -0.858657       -23.3652
  16   2.0000      -0.797953       -21.7134
  17   2.0000      -0.773220       -21.0404
  18   2.0000      -0.731553       -19.9066
  19   2.0000      -0.682822       -18.5805
  20   2.0000      -0.658057       -17.9066
  21   2.0000      -0.654601       -17.8126
  22   2.0000      -0.634968       -17.2784
  23   2.0000      -0.609235       -16.5781
  24   2.0000      -0.597297       -16.2533
  25   2.0000      -0.586818       -15.9681
  26   2.0000      -0.553470       -15.0607
  27   2.0000      -0.525713       -14.3054
  28   2.0000      -0.515832       -14.0365
  29   2.0000      -0.494161       -13.4468
  30   2.0000      -0.473449       -12.8832
  31   2.0000      -0.440977       -11.9996
  32   2.0000      -0.405261       -11.0277
  33   2.0000      -0.379442       -10.3252
  34   0.0000       0.115802         3.1511
  35   0.0000       0.129838         3.5331
  36   0.0000       0.153190         4.1685
  37   0.0000       0.164763         4.4834
  38   0.0000       0.187585         5.1044

MULLIKEN ATOMIC CHARGES
-----------------------
   0 O :   -0.441591
   1 C :    0.156616
   2 C :   -0.242989
   3 C :   -0.033561
   4 O :   -0.311424
   5 C :    0.077893
   6 C :   -0.224463
   7 C :    0.119837
   8 O :   -0.307336
   9 H :    0.328667
  10 H :    0.133175
  11 H :    0.133455
  12 H :    0.107879
  13 H :    0.132858
  14 H :    0.146659
  15 H :    0.138767
  16 H :    0.085558
Sum of atomic charges:    0.0000000

LOEWDIN ATOMIC CHARGES
----------------------
   0 O :    0.038791
   1 C :   -0.331907
   2 C :   -0.213587
   3 C :   -0.258403
   4 O :    0.197269
   5 C :   -0.235726
   6 C :   -0.178714
   7 C :   -0.294299
   8 O :    0.122892
   9 H :    0.186888
  10 H :    0.145932
  11 H :    0.144411
  12 H :    0.121459
  13 H :    0.128205
  14 H :    0.148937
  15 H :    0.161157
  16 H :    0.116695

  Mayer bond orders larger than 0.1
B(  0-O ,  1-C ) :   1.0383 B(  0-O ,  9-H ) :   0.8353 B(  1-C ,  2-C ) :   0.9584
B(  1-C ,  5-C ) :   0.9026 B(  1-C ,  6-C ) :   0.8320 B(  2-C ,  3-C ) :   0.9660
B(  2-C , 10-H ) :   0.9169 B(  2-C , 11-H ) :   0.9030 B(  3-C ,  4-O ) :   0.8859
B(  3-C , 12-H ) :   0.9182 B(  3-C , 13-H ) :   0.9270 B(  4-O ,  5-C ) :   1.0579
B(  5-C ,  6-C ) :   0.7682 B(  5-C , 14-H ) :   0.9308 B(  6-C ,  7-C ) :   0.9187
B(  6-C , 15-H ) :   0.9076 B(  7-C ,  8-O ) :   1.9123 B(  7-C , 16-H ) :   0.9440

MP2 TOTAL ENERGY:     -458.212106281 Eh
FINAL SINGLE POINT ENERGY      -458.212106281484

DIPOLE MOMENT
-------------
                                X             Y             Z
Electronic contribution:     -1.50013      -0.81513       1.47139
Nuclear contribution   :      1.80799       1.70988      -1.08371
                        -----------------------------------------
Total Dipole Moment    :      0.30786       0.89475       0.38768
                        -----------------------------------------
Magnitude (a.u.)       :      1.02257
Magnitude (Debye)      :      2.59917

                             ****ORCA TERMINATED NORMALLY****
TOTAL RUN TIME: 0 days 0 hours 18 minutes 9 seconds 974 msec
