                         Program Version 3.0.3 - RELEASE   -
|  1> ! RI-MP2 RIJK def2-TZVP def2-TZVP/C def2-TZVP/JK TIGHTSCF
|  2> % maxcore 2000
|  3> % mp2 density relaxed end
|  4> *xyz 0 1
|  5>  C        0.0419363082     1.5286192535     0.0834380064
|  6>  C        0.0339590337     0.0239217591     0.0472732698
|  7>  C        0.7879841621    -0.7112002801    -1.0919429474
|  8>  C        0.5569496219    -2.1827811174    -0.6235515601
|  9>  C       -0.2646632380    -1.8737595702     0.6480944033
| 10>  N        0.4337768033    -0.7216431570     1.2885022985
| 11>  C       -1.2906829223    -0.8263241593     0.1137318757
| 12>  C       -2.2675285806    -0.3620968844     1.0806406288
| 13>  N       -3.0813153702     0.0138137244     1.8110718710
| 14>  H        1.0662998497     1.9018913619     0.1927616393
| 15>  H       -0.3664680488     1.9426421794    -0.8444463424
| 16>  H       -0.5502419716     1.9000576993     0.9233483689
| 17>  H        0.3728833375    -0.5014607381    -2.0820177508
| 18>  H        1.8439672279    -0.4253523080    -1.1058997361
| 19>  H        0.0117912671    -2.7900785787    -1.3516149711
| 20>  H        1.4854832293    -2.7058033687    -0.3789739946
| 21>  H       -0.5768850779    -2.6975591171     1.2887122542
| 22>  H        1.4424789235    -0.8561677992     1.3715753240
| 23>  H       -1.7797800548    -1.0522473891    -0.8364732973
| 24> *
| 25>
| 26>                          ****END OF INPUT****

CARTESIAN COORDINATES (ANGSTROEM)
---------------------------------
  C      0.041936    1.528619    0.083438
  C      0.033959    0.023922    0.047273
  C      0.787984   -0.711200   -1.091943
  C      0.556950   -2.182781   -0.623552
  C     -0.264663   -1.873760    0.648094
  N      0.433777   -0.721643    1.288502
  C     -1.290683   -0.826324    0.113732
  C     -2.267529   -0.362097    1.080641
  N     -3.081315    0.013814    1.811072
  H      1.066300    1.901891    0.192762
  H     -0.366468    1.942642   -0.844446
  H     -0.550242    1.900058    0.923348
  H      0.372883   -0.501461   -2.082018
  H      1.843967   -0.425352   -1.105900
  H      0.011791   -2.790079   -1.351615
  H      1.485483   -2.705803   -0.378974
  H     -0.576885   -2.697559    1.288712
  H      1.442479   -0.856168    1.371575
  H     -1.779780   -1.052247   -0.836473

 Total Charge           Charge          ....    0
 Multiplicity           Mult            ....    1
 Number of Electrons    NEL             ....   66
 Basis Dimension        Dim             ....  339

ORBITAL ENERGIES
----------------

  NO   OCC          E(Eh)            E(eV)
   0   2.0000     -15.562269      -423.4709
   1   2.0000     -15.558494      -423.3681
   2   2.0000     -11.294425      -307.3369
   3   2.0000     -11.287842      -307.1578
   4   2.0000     -11.280239      -306.9509
   5   2.0000     -11.263859      -306.5052
   6   2.0000     -11.245452      -306.0043
   7   2.0000     -11.244433      -305.9766
   8   2.0000     -11.228087      -305.5318
   9   2.0000      -1.291163       -35.1343
  10   2.0000      -1.204983       -32.7893
  11   2.0000      -1.053667       -28.6717
  12   2.0000      -1.028260       -27.9804
  13   2.0000      -1.013334       -27.5742
  14   2.0000      -0.914444       -24.8833
  15   2.0000      -0.815902       -22.2018
  16   2.0000      -0.786212       -21.3939
  17   2.0000      -0.707630       -19.2556
  18   2.0000      -0.677811       -18.4442
  19   2.0000      -0.653580       -17.7848
  20   2.0000      -0.614568       -16.7232
  21   2.0000      -0.596684       -16.2366
  22   2.0000      -0.577936       -15.7264
  23   2.0000      -0.548561       -14.9271
  24   2.0000      -0.541228       -14.7276
  25   2.0000      -0.514973       -14.0131
  26   2.0000      -0.507721       -13.8158
  27   2.0000      -0.501836       -13.6557
  28   2.0000      -0.493203       -13.4207
  29   2.0000      -0.483204       -13.1487
  30   2.0000      -0.445293       -12.1171
  31   2.0000      -0.420457       -11.4412
  32   2.0000      -0.406638       -11.0652
  33   0.0000       0.116406         3.1676
  34   0.0000       0.139475         3.7953
  35   0.0000       0.150109         4.0847
  36   0.0000       0.166428         4.5287
  37   0.0000       0.175391         4.7726

MULLIKEN ATOMIC CHARGES
-----------------------
   0 C :   -0.409523
   1 C :    0.094937
   2 C :   -0.232201
   3 C :   -0.240875
   4 C :   -0.037387
   5 N :   -0.329296
   6 C :    0.021715
   7 C :   -0.250395
   8 N :   -0.047057
   9 H :    0.134274
  10 H :    0.133757
  11 H :    0.169681
  12 H :    0.124870
  13 H :    0.125982
  14 H :    0.122057
  15 H :    0.132642
  16 H :    0.143587
  17 H :    0.195229
  18 H :    0.148005
Sum of atomic charges:    0.0000000

LOEWDIN ATOMIC CHARGES
----------------------
   0 C :   -0.264485
   1 C :   -0.282380
   2 C :   -0.212178
   3 C :   -0.233861
   4 C :   -0.215660
   5 N :    0.059864
   6 C :   -0.158975
   7 C :   -0.168769
   8 N :    0.061070
   9 H :    0.132408
  10 H :    0.133273
  11 H :    0.139271
  12 H :    0.136719
  13 H :    0.136120
  14 H :    0.135512
  15 H :    0.134605
  16 H :    0.137873
  17 H :    0.160725
  18 H :    0.168868

  Mayer bond orders larger than 0.1
B(  0-C ,  1-C ) :   0.8931 B(  0-C ,  9-H ) :   0.9320 B(  0-C , 10-H ) :   0.9328
B(  0-C , 11-H ) :   0.9377 B(  1-C ,  2-C ) :   0.9504 B(  1-C ,  5-N ) :   0.9195
B(  1-C ,  6-C ) :   0.8154 B(  2-C ,  3-C ) :   0.9529 B(  2-C , 12-H ) :   0.9204
B(  2-C , 13-H ) :   0.9253 B(  3-C ,  4-C ) :   0.9328 B(  3-C , 14-H ) :   0.9165
B(  3-C , 15-H ) :   0.9259 B(  4-C ,  5-N ) :   0.9584 B(  4-C ,  6-C ) :   0.8749
B(  4-C , 16-H ) :   0.9136 B(  5-N , 17-H ) :   0.8735 B(  6-C ,  7-C ) :   0.9374
B(  6-C , 18-H ) :   0.9004 B(  7-C ,  8-N ) :   2.8876

MP2 TOTAL ENERGY:     -381.403956816 Eh
FINAL SINGLE POINT ENERGY      -381.403956816449

DIPOLE MOMENT
-------------
                                X             Y             Z
Electronic contribution:     -6.10532      -0.84921       4.57217
Nuclear contribution   :      7.59325       0.27691      -5.98850
                        -----------------------------------------
Total Dipole Moment    :      1.48793      -0.57230      -1.41634
                        -----------------------------------------
Magnitude (a.u.)       :      2.13248
Magnitude (Debye)      :      5.42034

                             ****ORCA TERMINATED NORMALLY****
TOTAL RUN TIME: 0 days 0 hours 19 minutes 8 seconds 196 msec
