                         Program Version 3.0.3 - RELEASE   -
|  1> ! RI-MP2 RIJK def2-TZVP def2-TZVP/C def2-TZVP/JK TIGHTSCF
|  2> % maxcore 2000
|  3> % mp2 density relaxed end
|  4> *xyz 0 1
|  5>  O       -0.0624547538     1.3808772771     0.0656379117
|  6>  C        0.0035562505    -0.0063377589     0.0230274198
|  7>  C        0.9031772726    -0.7407912241     1.0217802711
|  8>  O        0.6140060011    -2.1010202723     0.6871557510
|  9>  C       -0.3379201335    -1.9577827478    -0.3574292854
| 10>  C       -1.3347526711    -0.8039592959    -0.0452177925
| 11>  C       -1.4227993901    -0.5018202807    -1.5601268853
| 12>  C        0.0726641319    -0.8189712508    -1.3287924127
| 13>  H        0.8088558380     1.7366914976    -0.1399952955
| 14>  H        1.9718329677    -0.5282427300     0.8786467874
| 15>  H        0.6363161563    -0.5292410265     2.0645208788
| 16>  H       -0.6775589587    -2.9264889336    -0.7173910027
| 17>  H       -2.1290253000    -0.7973740426     0.7016880246
| 18>  H       -1.9877734360    -1.2098621058    -2.1723368045
| 19>  H       -1.6565261999     0.5300824221    -1.8233228613
| 20>  H        0.8910734648    -0.8299384178    -2.0504723944
| 21> *
| 22>
| 23>                          ****END OF INPUT****

CARTESIAN COORDINATES (ANGSTROEM)
---------------------------------
  O     -0.062455    1.380877    0.065638
  C      0.003556   -0.006338    0.023027
  C      0.903177   -0.740791    1.021780
  O      0.614006   -2.101020    0.687156
  C     -0.337920   -1.957783   -0.357429
  C     -1.334753   -0.803959   -0.045218
  C     -1.422799   -0.501820   -1.560127
  C      0.072664   -0.818971   -1.328792
  H      0.808856    1.736691   -0.139995
  H      1.971833   -0.528243    0.878647
  H      0.636316   -0.529241    2.064521
  H     -0.677559   -2.926489   -0.717391
  H     -2.129025   -0.797374    0.701688
  H     -1.987773   -1.209862   -2.172337
  H     -1.656526    0.530082   -1.823323
  H      0.891073   -0.829938   -2.050472

 Total Charge           Charge          ....    0
 Multiplicity           Mult            ....    1
 Number of Electrons    NEL             ....   60
 Basis Dimension        Dim             ....  296

ORBITAL ENERGIES
----------------

  NO   OCC          E(Eh)            E(eV)
   0   2.0000     -20.574674      -559.8654
   1   2.0000     -20.555604      -559.3464
   2   2.0000     -11.300253      -307.4955
   3   2.0000     -11.289225      -307.1954
   4   2.0000     -11.275507      -306.8221
   5   2.0000     -11.242233      -305.9167
   6   2.0000     -11.241382      -305.8935
   7   2.0000     -11.231557      -305.6262
   8   2.0000      -1.401028       -38.1239
   9   2.0000      -1.376030       -37.4437
  10   2.0000      -1.193452       -32.4755
  11   2.0000      -0.982680       -26.7401
  12   2.0000      -0.902194       -24.5499
  13   2.0000      -0.875769       -23.8309
  14   2.0000      -0.819018       -22.2866
  15   2.0000      -0.754299       -20.5255
  16   2.0000      -0.701111       -19.0782
  17   2.0000      -0.679202       -18.4820
  18   2.0000      -0.648923       -17.6581
  19   2.0000      -0.630189       -17.1483
  20   2.0000      -0.612183       -16.6583
  21   2.0000      -0.573469       -15.6049
  22   2.0000      -0.541461       -14.7339
  23   2.0000      -0.516548       -14.0560
  24   2.0000      -0.512871       -13.9559
  25   2.0000      -0.473679       -12.8895
  26   2.0000      -0.459973       -12.5165
  27   2.0000      -0.439875       -11.9696
  28   2.0000      -0.418537       -11.3890
  29   2.0000      -0.389661       -10.6032
  30   0.0000       0.127453         3.4682
  31   0.0000       0.159720         4.3462
  32   0.0000       0.166475         4.5300
  33   0.0000       0.179332         4.8799
  34   0.0000       0.194060         5.2806

MULLIKEN ATOMIC CHARGES
-----------------------
   0 O :   -0.465062
   1 C :    0.122734
   2 C :   -0.023043
   3 O :   -0.328436
   4 C :    0.035891
   5 C :   -0.123917
   6 C :   -0.241774
   7 C :   -0.154038
   8 H :    0.327621
   9 H :    0.096234
  10 H :    0.111831
  11 H :    0.126760
  12 H :    0.135100
  13 H :    0.118507
  14 H :    0.125243
  15 H :    0.136350
Sum of atomic charges:   -0.0000000

LOEWDIN ATOMIC CHARGES
----------------------
   0 O :    0.034705
   1 C :   -0.330778
   2 C :   -0.256464
   3 O :    0.164003
   4 C :   -0.236565
   5 C :   -0.127885
   6 C :   -0.196384
   7 C :   -0.141798
   8 H :    0.185981
   9 H :    0.122024
  10 H :    0.126840
  11 H :    0.138627
  12 H :    0.129852
  13 H :    0.128213
  14 H :    0.133714
  15 H :    0.125916

  Mayer bond orders larger than 0.1
B(  0-O ,  1-C ) :   1.0849 B(  0-O ,  8-H ) :   0.8340 B(  1-C ,  2-C ) :   0.9971
B(  1-C ,  5-C ) :   0.8824 B(  1-C ,  7-C ) :   0.8647 B(  2-C ,  3-O ) :   0.9419
B(  2-C ,  9-H ) :   0.9076 B(  2-C , 10-H ) :   0.9218 B(  3-O ,  4-C ) :   0.9423
B(  4-C ,  5-C ) :   0.8751 B(  4-C ,  7-C ) :   0.8650 B(  4-C , 11-H ) :   0.9296
B(  5-C ,  6-C ) :   0.9202 B(  5-C , 12-H ) :   0.8926 B(  6-C ,  7-C ) :   0.9137
B(  6-C , 13-H ) :   0.9310 B(  6-C , 14-H ) :   0.9124 B(  7-C , 15-H ) :   0.8876

MP2 TOTAL ENERGY:     -383.062362154 Eh
FINAL SINGLE POINT ENERGY      -383.062362154350

DIPOLE MOMENT
-------------
                                X             Y             Z
Electronic contribution:      1.01921      -0.35657       1.44797
Nuclear contribution   :     -0.74205       0.69750      -1.82124
                        -----------------------------------------
Total Dipole Moment    :      0.27716       0.34092      -0.37327
                        -----------------------------------------
Magnitude (a.u.)       :      0.57652
Magnitude (Debye)      :      1.46540

                             ****ORCA TERMINATED NORMALLY****
TOTAL RUN TIME: 0 days 0 hours 11 minutes 45 seconds 853 msec
