                         Program Version 3.0.3 - RELEASE   -
|  1> ! RI-MP2 RIJK def2-TZVP def2-TZVP/C def2-TZVP/JK TIGHTSCF
|  2> % maxcore 2000
|  3> % mp2 density relaxed end
|  4> *xyz 0 1
|  5>  O       -4.7981192413     0.0888246399    -0.4486455778
|  6>  C       -4.1784343479    -1.1755897083    -0.2745547851
|  7>  C       -2.7823104778    -1.0939033616    -0.8841031041
|  8>  C       -2.0110861163    -2.3832161291    -0.6926175733
|  9>  C       -2.0500371770    -3.4703858116    -1.7108586974
| 10>  N       -0.8175208940    -2.7176368160    -1.4730924748
| 11>  C       -0.3560112885    -1.8094793743    -2.5235296308
| 12>  C        0.8484888286    -2.4373697147    -3.2235904363
| 13>  O        0.5413551135    -3.7008508759    -3.7868635351
| 14>  H       -5.6820051607     0.0458993168    -0.0725391730
| 15>  H       -4.1032680323    -1.4401544166     0.7930823527
| 16>  H       -4.7511995824    -1.9765281787    -0.7686541811
| 17>  H       -2.8815744144    -0.8449794053    -1.9445979655
| 18>  H       -2.2498265855    -0.2605087450    -0.4086058071
| 19>  H       -1.9158471413    -2.6820856812     0.3518842590
| 20>  H       -2.0414379168    -4.5166760844    -1.4145489051
| 21>  H       -2.5916950674    -3.2664387775    -2.6338841055
| 22>  H       -1.1346269148    -1.5888653378    -3.2698115470
| 23>  H       -0.0501194584    -0.8608550179    -2.0651707435
| 24>  H        1.1723210603    -1.7969370530    -4.0509882205
| 25>  H        1.6805902210    -2.5137373455    -2.5075007122
| 26>  H        0.3112861035    -4.2746590622    -3.0481405965
| 27> *
| 28>
| 29>                          ****END OF INPUT****

CARTESIAN COORDINATES (ANGSTROEM)
---------------------------------
  O     -4.798119    0.088825   -0.448646
  C     -4.178434   -1.175590   -0.274555
  C     -2.782310   -1.093903   -0.884103
  C     -2.011086   -2.383216   -0.692618
  C     -2.050037   -3.470386   -1.710859
  N     -0.817521   -2.717637   -1.473092
  C     -0.356011   -1.809479   -2.523530
  C      0.848489   -2.437370   -3.223590
  O      0.541355   -3.700851   -3.786864
  H     -5.682005    0.045899   -0.072539
  H     -4.103268   -1.440154    0.793082
  H     -4.751200   -1.976528   -0.768654
  H     -2.881574   -0.844979   -1.944598
  H     -2.249827   -0.260509   -0.408606
  H     -1.915847   -2.682086    0.351884
  H     -2.041438   -4.516676   -1.414549
  H     -2.591695   -3.266439   -2.633884
  H     -1.134627   -1.588865   -3.269812
  H     -0.050119   -0.860855   -2.065171
  H      1.172321   -1.796937   -4.050988
  H      1.680590   -2.513737   -2.507501
  H      0.311286   -4.274659   -3.048141

 Total Charge           Charge          ....    0
 Multiplicity           Mult            ....    1
 Number of Electrons    NEL             ....   72
 Basis Dimension        Dim             ....  357

ORBITAL ENERGIES
----------------

  NO   OCC          E(Eh)            E(eV)
   0   2.0000     -20.561260      -559.5003
   1   2.0000     -20.546532      -559.0996
   2   2.0000     -15.561841      -423.4592
   3   2.0000     -11.283122      -307.0294
   4   2.0000     -11.267646      -306.6082
   5   2.0000     -11.264510      -306.5229
   6   2.0000     -11.256330      -306.3003
   7   2.0000     -11.251571      -306.1708
   8   2.0000     -11.229646      -305.5742
   9   2.0000      -1.365586       -37.1595
  10   2.0000      -1.353507       -36.8308
  11   2.0000      -1.274658       -34.6852
  12   2.0000      -1.051396       -28.6099
  13   2.0000      -1.016300       -27.6549
  14   2.0000      -0.891298       -24.2534
  15   2.0000      -0.871795       -23.7227
  16   2.0000      -0.819871       -22.3098
  17   2.0000      -0.772186       -21.0122
  18   2.0000      -0.703229       -19.1358
  19   2.0000      -0.700115       -19.0511
  20   2.0000      -0.668022       -18.1778
  21   2.0000      -0.639760       -17.4088
  22   2.0000      -0.638370       -17.3709
  23   2.0000      -0.628732       -17.1087
  24   2.0000      -0.584382       -15.9018
  25   2.0000      -0.572934       -15.5903
  26   2.0000      -0.555996       -15.1294
  27   2.0000      -0.533985       -14.5305
  28   2.0000      -0.514273       -13.9941
  29   2.0000      -0.511786       -13.9264
  30   2.0000      -0.491132       -13.3644
  31   2.0000      -0.455598       -12.3975
  32   2.0000      -0.451232       -12.2786
  33   2.0000      -0.449699       -12.2369
  34   2.0000      -0.435560       -11.8522
  35   2.0000      -0.371031       -10.0963
  36   0.0000       0.130712         3.5569
  37   0.0000       0.146237         3.9793
  38   0.0000       0.157835         4.2949
  39   0.0000       0.162198         4.4136
  40   0.0000       0.163606         4.4519

MULLIKEN ATOMIC CHARGES
-----------------------
   0 O :   -0.463371
   1 C :   -0.082976
   2 C :   -0.165687
   3 C :   -0.071939
   4 C :   -0.221533
   5 N :   -0.257679
   6 C :   -0.126036
   7 C :   -0.005089
   8 O :   -0.488707
   9 H :    0.316636
  10 H :    0.095816
  11 H :    0.101263
  12 H :    0.115502
  13 H :    0.123104
  14 H :    0.117564
  15 H :    0.134284
  16 H :    0.129384
  17 H :    0.098071
  18 H :    0.117067
  19 H :    0.108514
  20 H :    0.100383
  21 H :    0.325428
Sum of atomic charges:   -0.0000000

LOEWDIN ATOMIC CHARGES
----------------------
   0 O :   -0.050210
   1 C :   -0.346675
   2 C :   -0.255586
   3 C :   -0.259063
   4 C :   -0.253917
   5 N :    0.101894
   6 C :   -0.305221
   7 C :   -0.351314
   8 O :   -0.048090
   9 H :    0.172924
  10 H :    0.115511
  11 H :    0.116256
  12 H :    0.144618
  13 H :    0.144961
  14 H :    0.143413
  15 H :    0.122255
  16 H :    0.126994
  17 H :    0.124098
  18 H :    0.136841
  19 H :    0.126933
  20 H :    0.117601
  21 H :    0.175780

  Mayer bond orders larger than 0.1
B(  0-O ,  1-C ) :   1.0207 B(  0-O ,  9-H ) :   0.8483 B(  1-C ,  2-C ) :   0.9374
B(  1-C , 10-H ) :   0.9348 B(  1-C , 11-H ) :   0.9292 B(  2-C ,  3-C ) :   0.8996
B(  2-C , 12-H ) :   0.9228 B(  2-C , 13-H ) :   0.9227 B(  3-C ,  4-C ) :   0.9441
B(  3-C ,  5-N ) :   0.9330 B(  3-C , 14-H ) :   0.9156 B(  4-C ,  5-N ) :   0.8754
B(  4-C , 15-H ) :   0.9219 B(  4-C , 16-H ) :   0.9180 B(  5-N ,  6-C ) :   0.8734
B(  6-C ,  7-C ) :   0.9367 B(  6-C , 17-H ) :   0.9176 B(  6-C , 18-H ) :   0.9161
B(  7-C ,  8-O ) :   0.9398 B(  7-C , 19-H ) :   0.9280 B(  7-C , 20-H ) :   0.9468
B(  8-O , 21-H ) :   0.8397

MP2 TOTAL ENERGY:     -440.725900948 Eh
FINAL SINGLE POINT ENERGY      -440.725900948079

DIPOLE MOMENT
-------------
                                X             Y             Z
Electronic contribution:      0.50252      -0.80703      -0.08730
Nuclear contribution   :     -1.31772       0.79443       0.83664
                        -----------------------------------------
Total Dipole Moment    :     -0.81520      -0.01260       0.74934
                        -----------------------------------------
Magnitude (a.u.)       :      1.10735
Magnitude (Debye)      :      2.81466

                             ****ORCA TERMINATED NORMALLY****
TOTAL RUN TIME: 0 days 0 hours 15 minutes 8 seconds 571 msec
