                         Program Version 3.0.3 - RELEASE   -
|  1> ! RI-MP2 RIJK def2-TZVP def2-TZVP/C def2-TZVP/JK TIGHTSCF
|  2> % maxcore 2000
|  3> % mp2 density relaxed end
|  4> *xyz 0 1
|  5>  C        0.4918576501     0.7976005464    -0.8989880971
|  6>  C       -0.0726193724     0.0987289443     0.3182389557
|  7>  O        0.4679440785     0.1780467808     1.4006985380
|  8>  C       -1.3305231803    -0.7684062301     0.1600382252
|  9>  C       -2.1643929186    -0.7395163664     1.4411798739
| 10>  C       -2.2302745329    -0.6658315283    -1.1358228644
| 11>  C       -1.9155105126    -2.1347602838    -1.4344809729
| 12>  N       -0.4470410009    -2.2109319397    -1.6259332253
| 13>  C       -1.0147562281    -2.2300254044    -0.2573045717
| 14>  H        1.4320478132     1.2829834927    -0.6333059702
| 15>  H        0.6382411859     0.0689581855    -1.7023665597
| 16>  H       -0.2141188771     1.5502459293    -1.2693102499
| 17>  H       -2.6147095110     0.2475698936     1.5893909953
| 18>  H       -2.9711054376    -1.4778938970     1.3926999778
| 19>  H       -1.5334943529    -0.9542058303     2.3059064648
| 20>  H       -3.2753114434    -0.4839502347    -0.8761056041
| 21>  H       -1.9240487409     0.0347753335    -1.9145161566
| 22>  H       -2.5673894539    -2.8797414249    -1.8730612367
| 23>  H       -0.2187843751    -3.1752681845    -1.8654090815
| 24>  H       -0.8102177701    -3.0500861220     0.4208068195
| 25> *
| 26>
| 27>                          ****END OF INPUT****

CARTESIAN COORDINATES (ANGSTROEM)
---------------------------------
  C      0.491858    0.797601   -0.898988
  C     -0.072619    0.098729    0.318239
  O      0.467944    0.178047    1.400699
  C     -1.330523   -0.768406    0.160038
  C     -2.164393   -0.739516    1.441180
  C     -2.230275   -0.665832   -1.135823
  C     -1.915511   -2.134760   -1.434481
  N     -0.447041   -2.210932   -1.625933
  C     -1.014756   -2.230025   -0.257305
  H      1.432048    1.282983   -0.633306
  H      0.638241    0.068958   -1.702367
  H     -0.214119    1.550246   -1.269310
  H     -2.614710    0.247570    1.589391
  H     -2.971105   -1.477894    1.392700
  H     -1.533494   -0.954206    2.305906
  H     -3.275311   -0.483950   -0.876106
  H     -1.924049    0.034775   -1.914516
  H     -2.567389   -2.879741   -1.873061
  H     -0.218784   -3.175268   -1.865409
  H     -0.810218   -3.050086    0.420807

 Total Charge           Charge          ....    0
 Multiplicity           Mult            ....    1
 Number of Electrons    NEL             ....   68
 Basis Dimension        Dim             ....  345

ORBITAL ENERGIES
----------------

  NO   OCC          E(Eh)            E(eV)
   0   2.0000     -20.533358      -558.7411
   1   2.0000     -15.570794      -423.7029
   2   2.0000     -11.320638      -308.0502
   3   2.0000     -11.273193      -306.7592
   4   2.0000     -11.271731      -306.7194
   5   2.0000     -11.253702      -306.2288
   6   2.0000     -11.238932      -305.8269
   7   2.0000     -11.218038      -305.2583
   8   2.0000     -11.218010      -305.2576
   9   2.0000      -1.378263       -37.5045
  10   2.0000      -1.291180       -35.1348
  11   2.0000      -1.089857       -29.6565
  12   2.0000      -0.995980       -27.1020
  13   2.0000      -0.968800       -26.3624
  14   2.0000      -0.887520       -24.1506
  15   2.0000      -0.851357       -23.1666
  16   2.0000      -0.783974       -21.3330
  17   2.0000      -0.727696       -19.8016
  18   2.0000      -0.690455       -18.7882
  19   2.0000      -0.662043       -18.0151
  20   2.0000      -0.621006       -16.8984
  21   2.0000      -0.613718       -16.7001
  22   2.0000      -0.581264       -15.8170
  23   2.0000      -0.562749       -15.3132
  24   2.0000      -0.554792       -15.0967
  25   2.0000      -0.549395       -14.9498
  26   2.0000      -0.532319       -14.4851
  27   2.0000      -0.521613       -14.1938
  28   2.0000      -0.502971       -13.6866
  29   2.0000      -0.487916       -13.2769
  30   2.0000      -0.451509       -12.2862
  31   2.0000      -0.444408       -12.0929
  32   2.0000      -0.404456       -11.0058
  33   2.0000      -0.368036       -10.0148
  34   0.0000       0.133303         3.6274
  35   0.0000       0.140958         3.8356
  36   0.0000       0.154716         4.2100
  37   0.0000       0.160677         4.3722
  38   0.0000       0.168985         4.5983

MULLIKEN ATOMIC CHARGES
-----------------------
   0 C :   -0.426398
   1 C :    0.161214
   2 O :   -0.296908
   3 C :    0.208608
   4 C :   -0.458986
   5 C :   -0.221419
   6 C :   -0.115695
   7 N :   -0.399803
   8 C :   -0.099872
   9 H :    0.145462
  10 H :    0.175722
  11 H :    0.136658
  12 H :    0.136673
  13 H :    0.135919
  14 H :    0.159226
  15 H :    0.132052
  16 H :    0.121971
  17 H :    0.141681
  18 H :    0.218164
  19 H :    0.145729
Sum of atomic charges:   -0.0000000

LOEWDIN ATOMIC CHARGES
----------------------
   0 C :   -0.281064
   1 C :   -0.302535
   2 O :    0.147630
   3 C :   -0.220266
   4 C :   -0.262692
   5 C :   -0.170707
   6 C :   -0.231223
   7 N :    0.003157
   8 C :   -0.191842
   9 H :    0.130732
  10 H :    0.141364
  11 H :    0.134659
  12 H :    0.129189
  13 H :    0.127659
  14 H :    0.134648
  15 H :    0.139979
  16 H :    0.134093
  17 H :    0.128889
  18 H :    0.173245
  19 H :    0.135087

  Mayer bond orders larger than 0.1
B(  0-C ,  1-C ) :   0.9376 B(  0-C ,  9-H ) :   0.9336 B(  0-C , 10-H ) :   0.9039
B(  0-C , 11-H ) :   0.9120 B(  1-C ,  2-O ) :   1.9917 B(  1-C ,  3-C ) :   0.8389
B(  3-C ,  4-C ) :   0.8830 B(  3-C ,  5-C ) :   0.9430 B(  3-C ,  8-C ) :   0.8689
B(  4-C , 12-H ) :   0.9380 B(  4-C , 13-H ) :   0.9329 B(  4-C , 14-H ) :   0.9314
B(  5-C ,  6-C ) :   0.9471 B(  5-C , 15-H ) :   0.9286 B(  5-C , 16-H ) :   0.8983
B(  6-C ,  7-N ) :   0.9565 B(  6-C ,  8-C ) :   0.8939 B(  6-C , 17-H ) :   0.9205
B(  7-N ,  8-C ) :   0.8988 B(  7-N , 18-H ) :   0.8699 B(  8-C , 19-H ) :   0.9185

MP2 TOTAL ENERGY:     -402.429956244 Eh
FINAL SINGLE POINT ENERGY      -402.429956243774

DIPOLE MOMENT
-------------
                                X             Y             Z
Electronic contribution:      3.05197      -1.04038       1.22269
Nuclear contribution   :     -3.94367       0.35722      -1.94823
                        -----------------------------------------
Total Dipole Moment    :     -0.89170      -0.68315      -0.72555
                        -----------------------------------------
Magnitude (a.u.)       :      1.33726
Magnitude (Debye)      :      3.39903

                             ****ORCA TERMINATED NORMALLY****
TOTAL RUN TIME: 0 days 0 hours 22 minutes 18 seconds 538 msec
