                         Program Version 3.0.3 - RELEASE   -
|  1> ! RI-MP2 RIJK def2-TZVP def2-TZVP/C def2-TZVP/JK TIGHTSCF
|  2> % maxcore 2000
|  3> % mp2 density relaxed end
|  4> *xyz 0 1
|  5>  C       -0.0068258797     1.5444603960     0.1668245423
|  6>  C       -0.0587347945     0.0165905062     0.1196829487
|  7>  C       -1.4871856184    -0.5517669551    -0.0415154390
|  8>  C       -2.1140231587    -0.1204497561    -1.2959340319
|  9>  C       -2.6396121299     0.1987924399    -2.3307635769
| 10>  C       -1.5023916984    -2.0753007766     0.0474742616
| 11>  C       -1.7799270042    -2.7571414237     1.3722436087
| 12>  C       -2.8133469487    -2.7812851343     0.2841378741
| 13>  O       -3.9635349970    -2.0148430553     0.4959343966
| 14>  H        1.0225830649     1.8971859987     0.2810259110
| 15>  H       -0.4148565584     1.9806467133    -0.7498145784
| 16>  H       -0.5883971811     1.9342456710     1.0097405123
| 17>  H        0.5623336454    -0.3541598846    -0.7045032094
| 18>  H        0.3590116804    -0.4037990246     1.0417785464
| 19>  H       -2.1023946672    -0.1631520900     0.7798284484
| 20>  H       -3.0950119685     0.4958812319    -3.2430836020
| 21>  H       -0.8040104858    -2.5644760797    -0.6264006200
| 22>  H       -1.2517910032    -3.6731350933     1.6118961741
| 23>  H       -1.9976856215    -2.1206870456     2.2237070588
| 24>  H       -2.9816005346    -3.7243107148    -0.2355014096
| 25>  H       -4.1500134008    -1.5421964633    -0.3246294860
| 26> *
| 27>
| 28>                          ****END OF INPUT****

CARTESIAN COORDINATES (ANGSTROEM)
---------------------------------
  C     -0.006826    1.544460    0.166825
  C     -0.058735    0.016591    0.119683
  C     -1.487186   -0.551767   -0.041515
  C     -2.114023   -0.120450   -1.295934
  C     -2.639612    0.198792   -2.330764
  C     -1.502392   -2.075301    0.047474
  C     -1.779927   -2.757141    1.372244
  C     -2.813347   -2.781285    0.284138
  O     -3.963535   -2.014843    0.495934
  H      1.022583    1.897186    0.281026
  H     -0.414857    1.980647   -0.749815
  H     -0.588397    1.934246    1.009741
  H      0.562334   -0.354160   -0.704503
  H      0.359012   -0.403799    1.041779
  H     -2.102395   -0.163152    0.779828
  H     -3.095012    0.495881   -3.243084
  H     -0.804010   -2.564476   -0.626401
  H     -1.251791   -3.673135    1.611896
  H     -1.997686   -2.120687    2.223707
  H     -2.981601   -3.724311   -0.235501
  H     -4.150013   -1.542196   -0.324629

 Total Charge           Charge          ....    0
 Multiplicity           Mult            ....    1
 Number of Electrons    NEL             ....   68
 Basis Dimension        Dim             ....  351

ORBITAL ENERGIES
----------------

  NO   OCC          E(Eh)            E(eV)
   0   2.0000     -20.558436      -559.4235
   1   2.0000     -11.281210      -306.9773
   2   2.0000     -11.259299      -306.3811
   3   2.0000     -11.237758      -305.7950
   4   2.0000     -11.237135      -305.7780
   5   2.0000     -11.230730      -305.6037
   6   2.0000     -11.227087      -305.5046
   7   2.0000     -11.224653      -305.4383
   8   2.0000     -11.214795      -305.1701
   9   2.0000      -1.368933       -37.2506
  10   2.0000      -1.148605       -31.2551
  11   2.0000      -1.082360       -29.4525
  12   2.0000      -1.019318       -27.7371
  13   2.0000      -0.952620       -25.9221
  14   2.0000      -0.833942       -22.6927
  15   2.0000      -0.815507       -22.1911
  16   2.0000      -0.801843       -21.8193
  17   2.0000      -0.726734       -19.7754
  18   2.0000      -0.695104       -18.9147
  19   2.0000      -0.677415       -18.4334
  20   2.0000      -0.648702       -17.6521
  21   2.0000      -0.618776       -16.8378
  22   2.0000      -0.590415       -16.0660
  23   2.0000      -0.571415       -15.5490
  24   2.0000      -0.553858       -15.0713
  25   2.0000      -0.535296       -14.5661
  26   2.0000      -0.508616       -13.8401
  27   2.0000      -0.499238       -13.5850
  28   2.0000      -0.493063       -13.4169
  29   2.0000      -0.485580       -13.2133
  30   2.0000      -0.419211       -11.4073
  31   2.0000      -0.401728       -10.9316
  32   2.0000      -0.386840       -10.5265
  33   2.0000      -0.386157       -10.5079
  34   0.0000       0.132056         3.5934
  35   0.0000       0.150675         4.1001
  36   0.0000       0.158129         4.3029
  37   0.0000       0.170018         4.6264
  38   0.0000       0.170990         4.6529

MULLIKEN ATOMIC CHARGES
-----------------------
   0 C :   -0.401799
   1 C :   -0.190481
   2 C :   -0.146326
   3 C :   -0.116280
   4 C :   -0.161640
   5 C :   -0.088617
   6 C :   -0.256273
   7 C :    0.047410
   8 O :   -0.469718
   9 H :    0.135725
  10 H :    0.143022
  11 H :    0.123032
  12 H :    0.112059
  13 H :    0.124330
  14 H :    0.128384
  15 H :    0.190140
  16 H :    0.117986
  17 H :    0.134555
  18 H :    0.134051
  19 H :    0.108614
  20 H :    0.331826
Sum of atomic charges:    0.0000000

LOEWDIN ATOMIC CHARGES
----------------------
   0 C :   -0.313414
   1 C :   -0.251271
   2 C :   -0.233027
   3 C :   -0.088625
   4 C :   -0.108780
   5 C :   -0.185531
   6 C :   -0.205383
   7 C :   -0.315603
   8 O :    0.000738
   9 H :    0.122090
  10 H :    0.126774
  11 H :    0.121966
  12 H :    0.140685
  13 H :    0.141886
  14 H :    0.178448
  15 H :    0.126943
  16 H :    0.151960
  17 H :    0.132963
  18 H :    0.141329
  19 H :    0.130535
  20 H :    0.185317

  Mayer bond orders larger than 0.1
B(  0-C ,  1-C ) :   0.9253 B(  0-C ,  9-H ) :   0.9408 B(  0-C , 10-H ) :   0.9360
B(  0-C , 11-H ) :   0.9373 B(  1-C ,  2-C ) :   0.9133 B(  1-C , 12-H ) :   0.9217
B(  1-C , 13-H ) :   0.9354 B(  2-C ,  3-C ) :   1.1170 B(  2-C ,  5-C ) :   0.8770
B(  2-C , 14-H ) :   0.9242 B(  3-C ,  4-C ) :   2.5951 B(  4-C , 15-H ) :   0.8984
B(  5-C ,  6-C ) :   0.8851 B(  5-C ,  7-C ) :   0.8857 B(  5-C , 16-H ) :   0.9129
B(  6-C ,  7-C ) :   0.8803 B(  6-C , 17-H ) :   0.9229 B(  6-C , 18-H ) :   0.9176
B(  7-C ,  8-O ) :   0.9966 B(  7-C , 19-H ) :   0.9636 B(  8-O , 20-H ) :   0.8349

MP2 TOTAL ENERGY:     -386.360047601 Eh
FINAL SINGLE POINT ENERGY      -386.360047600924

DIPOLE MOMENT
-------------
                                X             Y             Z
Electronic contribution:     -5.68565      -3.03340      -2.35882
Nuclear contribution   :      6.14573       3.03709       2.01736
                        -----------------------------------------
Total Dipole Moment    :      0.46008       0.00369      -0.34146
                        -----------------------------------------
Magnitude (a.u.)       :      0.57296
Magnitude (Debye)      :      1.45635

                             ****ORCA TERMINATED NORMALLY****
TOTAL RUN TIME: 0 days 0 hours 18 minutes 52 seconds 910 msec
