                         Program Version 3.0.3 - RELEASE   -
|  1> ! RI-MP2 RIJK def2-TZVP def2-TZVP/C def2-TZVP/JK TIGHTSCF
|  2> % maxcore 2000
|  3> % mp2 density relaxed end
|  4> *xyz 0 1
|  5>  C       -0.0835807449    -1.2592759955    -0.2226651355
|  6>  C       -0.0332725142    -0.0635601043    -0.1024477543
|  7>  C        0.0356595639     1.3716127958     0.0629265660
|  8>  C       -0.2631275277     2.0215270406     1.4554777692
|  9>  C        0.5459720909     1.3651195085     2.6036682986
| 10>  C        1.8155308419     2.0890800951     2.0987588069
| 11>  O        2.3734659332     1.4389173328     0.9315795814
| 12>  C        1.4272448760     2.0858711409     0.0667532000
| 13>  C        0.9360842357     3.0157981475     1.2098284675
| 14>  H       -0.1220319798    -2.3144106021    -0.3355901412
| 15>  H       -0.5874642965     1.8754110451    -0.6870646494
| 16>  H       -1.2929944821     2.3178503217     1.6492201242
| 17>  H        0.2343916677     1.7681363752     3.5728590244
| 18>  H        0.5800484179     0.2741251511     2.6499240899
| 19>  H        2.5901582145     2.3930623150     2.8047626976
| 20>  H        1.8667887894     2.3727211809    -0.8901537187
| 21>  H        0.9047560238     4.1014755418     1.2080294133
| 22> *
| 23>
| 24>                          ****END OF INPUT****

CARTESIAN COORDINATES (ANGSTROEM)
---------------------------------
  C     -0.083581   -1.259276   -0.222665
  C     -0.033273   -0.063560   -0.102448
  C      0.035660    1.371613    0.062927
  C     -0.263128    2.021527    1.455478
  C      0.545972    1.365120    2.603668
  C      1.815531    2.089080    2.098759
  O      2.373466    1.438917    0.931580
  C      1.427245    2.085871    0.066753
  C      0.936084    3.015798    1.209828
  H     -0.122032   -2.314411   -0.335590
  H     -0.587464    1.875411   -0.687065
  H     -1.292994    2.317850    1.649220
  H      0.234392    1.768136    3.572859
  H      0.580048    0.274125    2.649924
  H      2.590158    2.393062    2.804763
  H      1.866789    2.372721   -0.890154
  H      0.904756    4.101476    1.208029

 Total Charge           Charge          ....    0
 Multiplicity           Mult            ....    1
 Number of Electrons    NEL             ....   64
 Basis Dimension        Dim             ....  327

ORBITAL ENERGIES
----------------

  NO   OCC          E(Eh)            E(eV)
   0   2.0000     -20.551317      -559.2298
   1   2.0000     -11.293422      -307.3096
   2   2.0000     -11.287337      -307.1441
   3   2.0000     -11.258472      -306.3586
   4   2.0000     -11.247178      -306.0513
   5   2.0000     -11.241511      -305.8971
   6   2.0000     -11.228945      -305.5551
   7   2.0000     -11.227503      -305.5159
   8   2.0000     -11.218635      -305.2746
   9   2.0000      -1.392133       -37.8819
  10   2.0000      -1.152401       -31.3584
  11   2.0000      -1.054211       -28.6865
  12   2.0000      -1.001567       -27.2540
  13   2.0000      -0.927782       -25.2462
  14   2.0000      -0.851221       -23.1629
  15   2.0000      -0.836000       -22.7487
  16   2.0000      -0.733790       -19.9674
  17   2.0000      -0.724237       -19.7075
  18   2.0000      -0.692420       -18.8417
  19   2.0000      -0.659891       -17.9566
  20   2.0000      -0.635463       -17.2918
  21   2.0000      -0.610478       -16.6120
  22   2.0000      -0.581127       -15.8133
  23   2.0000      -0.560016       -15.2388
  24   2.0000      -0.548374       -14.9220
  25   2.0000      -0.488182       -13.2841
  26   2.0000      -0.471210       -12.8223
  27   2.0000      -0.434781       -11.8310
  28   2.0000      -0.425615       -11.5816
  29   2.0000      -0.407628       -11.0921
  30   2.0000      -0.376458       -10.2439
  31   2.0000      -0.370139       -10.0720
  32   0.0000       0.140585         3.8255
  33   0.0000       0.154828         4.2131
  34   0.0000       0.159941         4.3522
  35   0.0000       0.167312         4.5528
  36   0.0000       0.172418         4.6917

MULLIKEN ATOMIC CHARGES
-----------------------
   0 C :   -0.182088
   1 C :   -0.010211
   2 C :   -0.221005
   3 C :   -0.002520
   4 C :   -0.238632
   5 C :    0.026400
   6 O :   -0.310092
   7 C :    0.078234
   8 C :   -0.197426
   9 H :    0.188106
  10 H :    0.122815
  11 H :    0.126665
  12 H :    0.117419
  13 H :    0.128565
  14 H :    0.114592
  15 H :    0.119415
  16 H :    0.139764
Sum of atomic charges:   -0.0000000

LOEWDIN ATOMIC CHARGES
----------------------
   0 C :   -0.093468
   1 C :   -0.088759
   2 C :   -0.190542
   3 C :   -0.144537
   4 C :   -0.198335
   5 C :   -0.226165
   6 O :    0.171713
   7 C :   -0.202895
   8 C :   -0.123517
   9 H :    0.126448
  10 H :    0.174972
  11 H :    0.133092
  12 H :    0.141831
  13 H :    0.136184
  14 H :    0.124930
  15 H :    0.128027
  16 H :    0.131020

  Mayer bond orders larger than 0.1
B(  0-C ,  1-C ) :   2.5941 B(  0-C ,  9-H ) :   0.9000 B(  1-C ,  2-C ) :   1.1261
B(  2-C ,  3-C ) :   0.9026 B(  2-C ,  7-C ) :   0.8868 B(  2-C , 10-H ) :   0.9055
B(  3-C ,  4-C ) :   0.9429 B(  3-C ,  8-C ) :   0.9699 B(  3-C , 11-H ) :   0.9159
B(  4-C ,  5-C ) :   0.9355 B(  4-C , 12-H ) :   0.9106 B(  4-C , 13-H ) :   0.8960
B(  5-C ,  6-O ) :   0.9565 B(  5-C ,  8-C ) :   0.9564 B(  5-C , 14-H ) :   0.9263
B(  6-O ,  7-C ) :   0.9842 B(  7-C ,  8-C ) :   0.9359 B(  7-C , 15-H ) :   0.9237
B(  8-C , 16-H ) :   0.9091

MP2 TOTAL ENERGY:     -383.915608095 Eh
FINAL SINGLE POINT ENERGY      -383.915608095440

DIPOLE MOMENT
-------------
                                X             Y             Z
Electronic contribution:      1.49524      -1.14890      -2.17572
Nuclear contribution   :     -1.98242       1.78295       2.41540
                        -----------------------------------------
Total Dipole Moment    :     -0.48718       0.63405       0.23967
                        -----------------------------------------
Magnitude (a.u.)       :      0.83475
Magnitude (Debye)      :      2.12177

                             ****ORCA TERMINATED NORMALLY****
TOTAL RUN TIME: 0 days 0 hours 19 minutes 33 seconds 984 msec
