                         Program Version 3.0.3 - RELEASE   -
|  1> ! RI-MP2 RIJK def2-TZVP def2-TZVP/C def2-TZVP/JK TIGHTSCF
|  2> % maxcore 2000
|  3> % mp2 density relaxed end
|  4> *xyz 0 1
|  5>  C        0.2743592094     1.1612540290    -0.0883114437
|  6>  O        0.0082188351    -0.2289493495     0.1191590602
|  7>  C        0.5863085730    -0.7542852302     1.2231707214
|  8>  O        1.3072065831    -0.1421601529     1.9749010119
|  9>  N        0.1679508215    -2.0593200035     1.4101474081
| 10>  C        0.2151834488    -3.1082512197     0.4102530902
| 11>  C        1.0672901014    -3.1745830159     1.6464940623
| 12>  C        2.5642909778    -2.9940921159     1.5706782581
| 13>  H        1.3469008121     1.3410601082    -0.1987268971
| 14>  H       -0.2529059589     1.4290858207    -1.0044035331
| 15>  H       -0.0948936774     1.7559777953     0.7512343282
| 16>  H       -0.6811737674    -3.7158095975     0.3203091357
| 17>  H        0.7138109591    -2.8836260735    -0.5293627439
| 18>  H        0.7271998985    -3.8289671639     2.4475673274
| 19>  H        2.8534777523    -2.4122578955     0.6907221691
| 20>  H        2.9364512948    -2.4679662018     2.4536757285
| 21>  H        3.0544851669    -3.9710882034     1.5128388568
| 22> *
| 23>
| 24>                          ****END OF INPUT****

CARTESIAN COORDINATES (ANGSTROEM)
---------------------------------
  C      0.274359    1.161254   -0.088311
  O      0.008219   -0.228949    0.119159
  C      0.586309   -0.754285    1.223171
  O      1.307207   -0.142160    1.974901
  N      0.167951   -2.059320    1.410147
  C      0.215183   -3.108251    0.410253
  C      1.067290   -3.174583    1.646494
  C      2.564291   -2.994092    1.570678
  H      1.346901    1.341060   -0.198727
  H     -0.252906    1.429086   -1.004404
  H     -0.094894    1.755978    0.751234
  H     -0.681174   -3.715810    0.320309
  H      0.713811   -2.883626   -0.529363
  H      0.727200   -3.828967    2.447567
  H      2.853478   -2.412258    0.690722
  H      2.936451   -2.467966    2.453676
  H      3.054485   -3.971088    1.512839

 Total Charge           Charge          ....    0
 Multiplicity           Mult            ....    1
 Number of Electrons    NEL             ....   62
 Basis Dimension        Dim             ....  302

ORBITAL ENERGIES
----------------

  NO   OCC          E(Eh)            E(eV)
   0   2.0000     -20.600016      -560.5549
   1   2.0000     -20.529408      -558.6336
   2   2.0000     -15.582890      -424.0320
   3   2.0000     -11.398509      -310.1692
   4   2.0000     -11.282919      -307.0238
   5   2.0000     -11.282287      -307.0066
   6   2.0000     -11.274998      -306.8083
   7   2.0000     -11.228026      -305.5301
   8   2.0000      -1.462790       -39.8045
   9   2.0000      -1.356098       -36.9013
  10   2.0000      -1.295566       -35.2541
  11   2.0000      -1.030293       -28.0357
  12   2.0000      -0.977090       -26.5880
  13   2.0000      -0.925732       -25.1904
  14   2.0000      -0.829495       -22.5717
  15   2.0000      -0.762598       -20.7513
  16   2.0000      -0.712605       -19.3910
  17   2.0000      -0.698635       -19.0108
  18   2.0000      -0.671746       -18.2791
  19   2.0000      -0.657477       -17.8908
  20   2.0000      -0.609563       -16.5870
  21   2.0000      -0.585448       -15.9308
  22   2.0000      -0.565728       -15.3942
  23   2.0000      -0.549020       -14.9396
  24   2.0000      -0.533318       -14.5123
  25   2.0000      -0.526233       -14.3195
  26   2.0000      -0.506053       -13.7704
  27   2.0000      -0.485532       -13.2120
  28   2.0000      -0.462087       -12.5740
  29   2.0000      -0.442562       -12.0427
  30   2.0000      -0.396753       -10.7962
  31   0.0000       0.139530         3.7968
  32   0.0000       0.159894         4.3509
  33   0.0000       0.172019         4.6809
  34   0.0000       0.177814         4.8386
  35   0.0000       0.193610         5.2684

MULLIKEN ATOMIC CHARGES
-----------------------
   0 C :   -0.210120
   1 O :   -0.266300
   2 C :    0.360622
   3 O :   -0.357516
   4 N :   -0.189391
   5 C :   -0.165893
   6 C :   -0.011836
   7 C :   -0.387956
   8 H :    0.135811
   9 H :    0.141032
  10 H :    0.140367
  11 H :    0.134736
  12 H :    0.131634
  13 H :    0.125628
  14 H :    0.125887
  15 H :    0.155961
  16 H :    0.137332
Sum of atomic charges:   -0.0000000

LOEWDIN ATOMIC CHARGES
----------------------
   0 C :   -0.311860
   1 O :    0.222246
   2 C :   -0.574267
   3 O :    0.100754
   4 N :    0.185650
   5 C :   -0.215147
   6 C :   -0.252892
   7 C :   -0.290963
   8 H :    0.112278
   9 H :    0.113936
  10 H :    0.114301
  11 H :    0.127299
  12 H :    0.130136
  13 H :    0.144240
  14 H :    0.129278
  15 H :    0.135185
  16 H :    0.129825

  Mayer bond orders larger than 0.1
B(  0-C ,  1-O ) :   0.8477 B(  0-C ,  8-H ) :   0.9385 B(  0-C ,  9-H ) :   0.9329
B(  0-C , 10-H ) :   0.9417 B(  1-O ,  2-C ) :   1.1179 B(  2-C ,  3-O ) :   1.9184
B(  2-C ,  4-N ) :   1.0793 B(  4-N ,  5-C ) :   0.8590 B(  4-N ,  6-C ) :   0.8684
B(  5-C ,  6-C ) :   0.9396 B(  5-C , 11-H ) :   0.9206 B(  5-C , 12-H ) :   0.9171
B(  6-C ,  7-C ) :   0.9323 B(  6-C , 13-H ) :   0.9170 B(  7-C , 14-H ) :   0.9323
B(  7-C , 15-H ) :   0.9302 B(  7-C , 16-H ) :   0.9281

MP2 TOTAL ENERGY:     -400.357009376 Eh
FINAL SINGLE POINT ENERGY      -400.357009376331

DIPOLE MOMENT
-------------
                                X             Y             Z
Electronic contribution:     -3.22172       1.86296       1.74809
Nuclear contribution   :      3.29414      -2.35592      -2.52835
                        -----------------------------------------
Total Dipole Moment    :      0.07241      -0.49296      -0.78026
                        -----------------------------------------
Magnitude (a.u.)       :      0.92578
Magnitude (Debye)      :      2.35314

                             ****ORCA TERMINATED NORMALLY****
TOTAL RUN TIME: 0 days 0 hours 10 minutes 47 seconds 355 msec
