                         Program Version 3.0.3 - RELEASE   -
|  1> ! RI-MP2 RIJK def2-TZVP def2-TZVP/C def2-TZVP/JK TIGHTSCF
|  2> % maxcore 2000
|  3> % mp2 density relaxed end
|  4> *xyz 0 1
|  5>  C        0.0650811849     1.4706867217    -0.0080297242
|  6>  N        0.0736430517     0.0100559187    -0.0035844993
|  7>  C        0.0406383605    -0.6571176775    -1.2259237534
|  8>  C       -0.0287024219    -1.9878011044    -1.3610497607
|  9>  C        0.0480598803    -2.8357780573    -0.1622714849
| 10>  O        1.2486921773    -2.7029725084     0.6269382412
| 11>  C        0.0438346895    -2.1500029059     1.1538991285
| 12>  C       -0.0343033655    -0.6503533643     1.2144469134
| 13>  O       -0.1975420657    -0.0658708610     2.2687727755
| 14>  H        0.9627765387     1.8548821432    -0.5019020513
| 15>  H       -0.8197331929     1.8513521491    -0.5289695896
| 16>  H        0.0432497896     1.8063717114     1.0269097421
| 17>  H        0.0506368139     0.0050446143    -2.0841048134
| 18>  H       -0.0887753535    -2.4333658010    -2.3449191780
| 19>  H       -0.3270476008    -3.8551551192    -0.2164995492
| 20>  H       -0.3414871762    -2.6317713795     2.0494314233
| 21> *
| 22>
| 23>                          ****END OF INPUT****

CARTESIAN COORDINATES (ANGSTROEM)
---------------------------------
  C      0.065081    1.470687   -0.008030
  N      0.073643    0.010056   -0.003584
  C      0.040638   -0.657118   -1.225924
  C     -0.028702   -1.987801   -1.361050
  C      0.048060   -2.835778   -0.162271
  O      1.248692   -2.702973    0.626938
  C      0.043835   -2.150003    1.153899
  C     -0.034303   -0.650353    1.214447
  O     -0.197542   -0.065871    2.268773
  H      0.962777    1.854882   -0.501902
  H     -0.819733    1.851352   -0.528970
  H      0.043250    1.806372    1.026910
  H      0.050637    0.005045   -2.084105
  H     -0.088775   -2.433366   -2.344919
  H     -0.327048   -3.855155   -0.216500
  H     -0.341487   -2.631771    2.049431

 Total Charge           Charge          ....    0
 Multiplicity           Mult            ....    1
 Number of Electrons    NEL             ....   66
 Basis Dimension        Dim             ....  321

ORBITAL ENERGIES
----------------

  NO   OCC          E(Eh)            E(eV)
   0   2.0000     -20.587567      -560.2162
   1   2.0000     -20.537555      -558.8553
   2   2.0000     -15.615150      -424.9098
   3   2.0000     -11.366565      -309.3000
   4   2.0000     -11.310950      -307.7866
   5   2.0000     -11.305764      -307.6455
   6   2.0000     -11.298780      -307.4554
   7   2.0000     -11.270357      -306.6820
   8   2.0000     -11.237782      -305.7956
   9   2.0000      -1.433845       -39.0169
  10   2.0000      -1.397406       -38.0253
  11   2.0000      -1.278511       -34.7901
  12   2.0000      -1.075623       -29.2692
  13   2.0000      -0.998570       -27.1725
  14   2.0000      -0.954232       -25.9660
  15   2.0000      -0.896060       -24.3830
  16   2.0000      -0.846766       -23.0417
  17   2.0000      -0.736545       -20.0424
  18   2.0000      -0.719938       -19.5905
  19   2.0000      -0.695132       -18.9155
  20   2.0000      -0.667099       -18.1527
  21   2.0000      -0.646944       -17.6042
  22   2.0000      -0.629672       -17.1342
  23   2.0000      -0.598894       -16.2967
  24   2.0000      -0.583801       -15.8860
  25   2.0000      -0.562723       -15.3125
  26   2.0000      -0.558623       -15.2009
  27   2.0000      -0.546488       -14.8707
  28   2.0000      -0.483990       -13.1700
  29   2.0000      -0.475093       -12.9279
  30   2.0000      -0.455199       -12.3866
  31   2.0000      -0.433303       -11.7908
  32   2.0000      -0.333571        -9.0769
  33   0.0000       0.112223         3.0537
  34   0.0000       0.135903         3.6981
  35   0.0000       0.152002         4.1362
  36   0.0000       0.153216         4.1692
  37   0.0000       0.172911         4.7051

MULLIKEN ATOMIC CHARGES
-----------------------
   0 C :   -0.350894
   1 N :   -0.042627
   2 C :   -0.065843
   3 C :   -0.219021
   4 C :    0.060740
   5 O :   -0.308352
   6 C :    0.023231
   7 C :    0.200042
   8 O :   -0.347419
   9 H :    0.149658
  10 H :    0.146442
  11 H :    0.188662
  12 H :    0.145141
  13 H :    0.147976
  14 H :    0.127142
  15 H :    0.145122
Sum of atomic charges:    0.0000000

LOEWDIN ATOMIC CHARGES
----------------------
   0 C :   -0.271908
   1 N :    0.207611
   2 C :   -0.175484
   3 C :   -0.181856
   4 C :   -0.241882
   5 O :    0.185113
   6 C :   -0.214443
   7 C :   -0.388559
   8 O :    0.106889
   9 H :    0.122280
  10 H :    0.121141
  11 H :    0.137684
  12 H :    0.150911
  13 H :    0.150487
  14 H :    0.143291
  15 H :    0.148724

  Mayer bond orders larger than 0.1
B(  0-C ,  1-N ) :   0.8474 B(  0-C ,  9-H ) :   0.9313 B(  0-C , 10-H ) :   0.9329
B(  0-C , 11-H ) :   0.9205 B(  1-N ,  2-C ) :   1.0534 B(  1-N ,  7-C ) :   1.1244
B(  2-C ,  3-C ) :   1.6954 B(  2-C , 12-H ) :   0.9168 B(  3-C ,  4-C ) :   0.9333
B(  3-C , 13-H ) :   0.9190 B(  4-C ,  5-O ) :   0.9561 B(  4-C ,  6-C ) :   0.9004
B(  4-C , 14-H ) :   0.9349 B(  5-O ,  6-C ) :   0.8480 B(  6-C ,  7-C ) :   0.9618
B(  6-C , 15-H ) :   0.9142 B(  7-C ,  8-O ) :   1.9016

MP2 TOTAL ENERGY:     -437.175304812 Eh
FINAL SINGLE POINT ENERGY      -437.175304811871

DIPOLE MOMENT
-------------
                                X             Y             Z
Electronic contribution:      0.96646      -3.44174       3.16559
Nuclear contribution   :     -1.47168       3.59393      -4.45360
                        -----------------------------------------
Total Dipole Moment    :     -0.50523       0.15219      -1.28801
                        -----------------------------------------
Magnitude (a.u.)       :      1.39190
Magnitude (Debye)      :      3.53793

                             ****ORCA TERMINATED NORMALLY****
TOTAL RUN TIME: 0 days 0 hours 15 minutes 24 seconds 899 msec
