                         Program Version 3.0.3 - RELEASE   -
|  1> ! RI-MP2 RIJK def2-TZVP def2-TZVP/C def2-TZVP/JK TIGHTSCF
|  2> % maxcore 2000
|  3> % mp2 density relaxed end
|  4> *xyz 0 1
|  5>  C        0.0662488050     1.4392163690    -0.0192122219
|  6>  C       -0.0525439627    -0.0432587526     0.0339571172
|  7>  N       -1.1207268149    -0.7268324912     0.1779694341
|  8>  C       -0.7359246828    -2.1240259321     0.1313539229
|  9>  C       -1.5570877959    -3.0322483341     1.0082891333
| 10>  O       -2.9110489380    -3.0594689140     0.5955126149
| 11>  C       -0.1284069462    -2.5728267449    -1.1831768502
| 12>  C        0.7671985078    -2.1048072580    -0.0706875995
| 13>  O        1.1237516551    -0.7304858132    -0.0861838338
| 14>  H        0.7986860844     1.7875050577     0.7152683442
| 15>  H        0.4158826599     1.7597503642    -1.0058858731
| 16>  H       -0.9044122841     1.8910082703     0.1827403253
| 17>  H       -1.1849661108    -4.0602396548     0.9470837622
| 18>  H       -1.4664354326    -2.7035833691     2.0560360072
| 19>  H       -3.1847843987    -2.1374955917     0.5182899210
| 20>  H       -0.1256258884    -3.6407828915    -1.3743029998
| 21>  H       -0.2538644603    -1.9440644908    -2.0584188531
| 22>  H        1.5133942134    -2.7307758534     0.4017271989
| 23> *
| 24>
| 25>                          ****END OF INPUT****

CARTESIAN COORDINATES (ANGSTROEM)
---------------------------------
  C      0.066249    1.439216   -0.019212
  C     -0.052544   -0.043259    0.033957
  N     -1.120727   -0.726832    0.177969
  C     -0.735925   -2.124026    0.131354
  C     -1.557088   -3.032248    1.008289
  O     -2.911049   -3.059469    0.595513
  C     -0.128407   -2.572827   -1.183177
  C      0.767199   -2.104807   -0.070688
  O      1.123752   -0.730486   -0.086184
  H      0.798686    1.787505    0.715268
  H      0.415883    1.759750   -1.005886
  H     -0.904412    1.891008    0.182740
  H     -1.184966   -4.060240    0.947084
  H     -1.466435   -2.703583    2.056036
  H     -3.184784   -2.137496    0.518290
  H     -0.125626   -3.640783   -1.374303
  H     -0.253864   -1.944064   -2.058419
  H      1.513394   -2.730776    0.401727

 Total Charge           Charge          ....    0
 Multiplicity           Mult            ....    1
 Number of Electrons    NEL             ....   68
 Basis Dimension        Dim             ....  333

ORBITAL ENERGIES
----------------

  NO   OCC          E(Eh)            E(eV)
   0   2.0000     -20.605699      -560.7096
   1   2.0000     -20.549136      -559.1704
   2   2.0000     -15.552436      -423.2033
   3   2.0000     -11.344264      -308.6931
   4   2.0000     -11.300543      -307.5034
   5   2.0000     -11.278856      -306.9133
   6   2.0000     -11.272200      -306.7321
   7   2.0000     -11.244204      -305.9703
   8   2.0000     -11.237815      -305.7965
   9   2.0000      -1.453841       -39.5610
  10   2.0000      -1.356378       -36.9089
  11   2.0000      -1.229660       -33.4608
  12   2.0000      -1.135956       -30.9109
  13   2.0000      -1.008843       -27.4520
  14   2.0000      -0.951766       -25.8989
  15   2.0000      -0.860372       -23.4119
  16   2.0000      -0.808769       -22.0077
  17   2.0000      -0.769671       -20.9438
  18   2.0000      -0.717777       -19.5317
  19   2.0000      -0.668306       -18.1855
  20   2.0000      -0.657028       -17.8786
  21   2.0000      -0.639644       -17.4056
  22   2.0000      -0.610445       -16.6111
  23   2.0000      -0.606509       -16.5040
  24   2.0000      -0.582477       -15.8500
  25   2.0000      -0.573100       -15.5948
  26   2.0000      -0.560005       -15.2385
  27   2.0000      -0.543850       -14.7989
  28   2.0000      -0.515447       -14.0260
  29   2.0000      -0.494716       -13.4619
  30   2.0000      -0.458311       -12.4713
  31   2.0000      -0.450143       -12.2490
  32   2.0000      -0.400465       -10.8972
  33   2.0000      -0.367665       -10.0047
  34   0.0000       0.139571         3.7979
  35   0.0000       0.154313         4.1991
  36   0.0000       0.160562         4.3691
  37   0.0000       0.171795         4.6748
  38   0.0000       0.183782         5.0010

MULLIKEN ATOMIC CHARGES
-----------------------
   0 C :   -0.427200
   1 C :    0.219012
   2 N :   -0.314911
   3 C :    0.096384
   4 C :    0.020901
   5 O :   -0.473620
   6 C :   -0.265090
   7 C :   -0.007228
   8 O :   -0.261597
   9 H :    0.153493
  10 H :    0.151076
  11 H :    0.160293
  12 H :    0.095329
  13 H :    0.098564
  14 H :    0.328445
  15 H :    0.138699
  16 H :    0.143379
  17 H :    0.144070
Sum of atomic charges:   -0.0000000

LOEWDIN ATOMIC CHARGES
----------------------
   0 C :   -0.261410
   1 C :   -0.373206
   2 N :    0.127034
   3 C :   -0.289962
   4 C :   -0.308441
   5 O :   -0.041219
   6 C :   -0.182600
   7 C :   -0.226298
   8 O :    0.272108
   9 H :    0.139525
  10 H :    0.139861
  11 H :    0.141213
  12 H :    0.132955
  13 H :    0.123748
  14 H :    0.180067
  15 H :    0.145372
  16 H :    0.141874
  17 H :    0.139378

  Mayer bond orders larger than 0.1
B(  0-C ,  1-C ) :   0.8762 B(  0-C ,  9-H ) :   0.9311 B(  0-C , 10-H ) :   0.9207
B(  0-C , 11-H ) :   0.9503 B(  1-C ,  2-N ) :   1.8533 B(  1-C ,  8-O ) :   1.0662
B(  2-N ,  3-C ) :   0.9008 B(  3-C ,  4-C ) :   0.9634 B(  3-C ,  6-C ) :   0.8415
B(  3-C ,  7-C ) :   0.8471 B(  4-C ,  5-O ) :   0.9480 B(  4-C , 12-H ) :   0.9109
B(  4-C , 13-H ) :   0.9228 B(  5-O , 14-H ) :   0.8337 B(  6-C ,  7-C ) :   0.8820
B(  6-C , 15-H ) :   0.9214 B(  6-C , 16-H ) :   0.9053 B(  7-C ,  8-O ) :   0.9058
B(  7-C , 17-H ) :   0.9232

MP2 TOTAL ENERGY:     -438.367927422 Eh
FINAL SINGLE POINT ENERGY      -438.367927421868

DIPOLE MOMENT
-------------
                                X             Y             Z
Electronic contribution:      0.37455      -0.78731       0.24681
Nuclear contribution   :      0.40977       1.16221      -0.28828
                        -----------------------------------------
Total Dipole Moment    :      0.78432       0.37490      -0.04147
                        -----------------------------------------
Magnitude (a.u.)       :      0.87030
Magnitude (Debye)      :      2.21213

                             ****ORCA TERMINATED NORMALLY****
TOTAL RUN TIME: 0 days 0 hours 17 minutes 25 seconds 888 msec
