                         Program Version 3.0.3 - RELEASE   -
|  1> ! RI-MP2 RIJK def2-TZVP def2-TZVP/C def2-TZVP/JK TIGHTSCF
|  2> % maxcore 2000
|  3> % mp2 density relaxed end
|  4> *xyz 0 1
|  5>  C        0.0423932287     1.0765258317     0.4984168351
|  6>  O       -0.1369376619     0.0354678433    -0.4486795073
|  7>  C       -1.3324834590    -0.6480298339    -0.2819968378
|  8>  C       -1.4461398529    -2.0422891073    -0.7665066592
|  9>  C       -0.1467201840    -2.7901856387    -1.0852998369
| 10>  C        0.7187818490    -2.7213858829     0.1883372840
| 11>  C       -0.2357067511    -2.3448402271     1.3284161752
| 12>  O       -0.0298120147    -2.5185713145     2.5051886387
| 13>  C       -1.4914195960    -1.7761697057     0.7439993977
| 14>  H        0.9908407764     1.5630502157     0.2621484405
| 15>  H       -0.7669098815     1.8182900606     0.4327466765
| 16>  H        0.0779267140     0.6844272933     1.5234734639
| 17>  H       -2.2178675546    -0.0160745541    -0.3741816302
| 18>  H       -2.3433810384    -2.3254246320    -1.3056963908
| 19>  H       -0.3921959251    -3.8299161926    -1.3222256588
| 20>  H        0.3559049455    -2.3652198944    -1.9582032720
| 21>  H        1.2277609752    -3.6578305466     0.4269223416
| 22>  H        1.4797848020    -1.9383149633     0.1190270858
| 23>  H       -2.3904996317    -1.8073026815     1.3467588441
| 24> *
| 25>
| 26>                          ****END OF INPUT****

CARTESIAN COORDINATES (ANGSTROEM)
---------------------------------
  C      0.042393    1.076526    0.498417
  O     -0.136938    0.035468   -0.448680
  C     -1.332483   -0.648030   -0.281997
  C     -1.446140   -2.042289   -0.766507
  C     -0.146720   -2.790186   -1.085300
  C      0.718782   -2.721386    0.188337
  C     -0.235707   -2.344840    1.328416
  O     -0.029812   -2.518571    2.505189
  C     -1.491420   -1.776170    0.743999
  H      0.990841    1.563050    0.262148
  H     -0.766910    1.818290    0.432747
  H      0.077927    0.684427    1.523473
  H     -2.217868   -0.016075   -0.374182
  H     -2.343381   -2.325425   -1.305696
  H     -0.392196   -3.829916   -1.322226
  H      0.355905   -2.365220   -1.958203
  H      1.227761   -3.657831    0.426922
  H      1.479785   -1.938315    0.119027
  H     -2.390500   -1.807303    1.346759

 Total Charge           Charge          ....    0
 Multiplicity           Mult            ....    1
 Number of Electrons    NEL             ....   68
 Basis Dimension        Dim             ....  339

ORBITAL ENERGIES
----------------

  NO   OCC          E(Eh)            E(eV)
   0   2.0000     -20.575725      -559.8940
   1   2.0000     -20.536452      -558.8253
   2   2.0000     -11.325688      -308.1876
   3   2.0000     -11.303720      -307.5898
   4   2.0000     -11.280909      -306.9691
   5   2.0000     -11.251581      -306.1711
   6   2.0000     -11.241372      -305.8933
   7   2.0000     -11.238428      -305.8132
   8   2.0000     -11.230279      -305.5914
   9   2.0000      -1.400863       -38.1194
  10   2.0000      -1.380209       -37.5574
  11   2.0000      -1.179195       -32.0875
  12   2.0000      -1.038778       -28.2666
  13   2.0000      -0.951027       -25.8788
  14   2.0000      -0.934042       -25.4166
  15   2.0000      -0.847553       -23.0631
  16   2.0000      -0.784148       -21.3378
  17   2.0000      -0.735271       -20.0077
  18   2.0000      -0.715096       -19.4588
  19   2.0000      -0.654886       -17.8203
  20   2.0000      -0.650379       -17.6977
  21   2.0000      -0.646000       -17.5785
  22   2.0000      -0.621123       -16.9016
  23   2.0000      -0.596078       -16.2201
  24   2.0000      -0.587570       -15.9886
  25   2.0000      -0.555857       -15.1256
  26   2.0000      -0.538897       -14.6641
  27   2.0000      -0.521891       -14.2014
  28   2.0000      -0.501518       -13.6470
  29   2.0000      -0.487780       -13.2732
  30   2.0000      -0.475116       -12.9286
  31   2.0000      -0.434415       -11.8210
  32   2.0000      -0.397537       -10.8175
  33   2.0000      -0.394034       -10.7222
  34   0.0000       0.131525         3.5790
  35   0.0000       0.138505         3.7689
  36   0.0000       0.150926         4.1069
  37   0.0000       0.166170         4.5217
  38   0.0000       0.186293         5.0693

MULLIKEN ATOMIC CHARGES
-----------------------
   0 C :   -0.223595
   1 O :   -0.305811
   2 C :    0.015731
   3 C :   -0.066672
   4 C :   -0.255127
   5 C :   -0.148111
   6 C :    0.082520
   7 O :   -0.278709
   8 C :   -0.131489
   9 H :    0.142716
  10 H :    0.117620
  11 H :    0.136985
  12 H :    0.112508
  13 H :    0.137218
  14 H :    0.127836
  15 H :    0.124576
  16 H :    0.135675
  17 H :    0.133706
  18 H :    0.142423
Sum of atomic charges:   -0.0000000

LOEWDIN ATOMIC CHARGES
----------------------
   0 C :   -0.338712
   1 O :    0.178890
   2 C :   -0.277557
   3 C :   -0.166511
   4 C :   -0.221675
   5 C :   -0.216881
   6 C :   -0.309770
   7 O :    0.143854
   8 C :   -0.147505
   9 H :    0.114923
  10 H :    0.105694
  11 H :    0.110637
  12 H :    0.142641
  13 H :    0.147638
  14 H :    0.142234
  15 H :    0.141947
  16 H :    0.145289
  17 H :    0.153783
  18 H :    0.151081

  Mayer bond orders larger than 0.1
B(  0-C ,  1-O ) :   0.8814 B(  0-C ,  9-H ) :   0.9386 B(  0-C , 10-H ) :   0.9345
B(  0-C , 11-H ) :   0.9336 B(  1-O ,  2-C ) :   0.9976 B(  2-C ,  3-C ) :   0.9096
B(  2-C ,  8-C ) :   0.8462 B(  2-C , 12-H ) :   0.9373 B(  3-C ,  4-C ) :   0.9258
B(  3-C ,  8-C ) :   0.7856 B(  3-C , 13-H ) :   0.9139 B(  4-C ,  5-C ) :   0.9419
B(  4-C , 14-H ) :   0.9302 B(  4-C , 15-H ) :   0.9190 B(  5-C ,  6-C ) :   0.9024
B(  5-C ,  8-C ) :  -0.1326 B(  5-C , 16-H ) :   0.9103 B(  5-C , 17-H ) :   0.8946
B(  6-C ,  7-O ) :   2.0248 B(  6-C ,  8-C ) :   0.9374 B(  8-C , 18-H ) :   0.9162

MP2 TOTAL ENERGY:     -422.323222889 Eh
FINAL SINGLE POINT ENERGY      -422.323222889394

DIPOLE MOMENT
-------------
                                X             Y             Z
Electronic contribution:     -0.70333      -2.33706       2.84059
Nuclear contribution   :      0.24983       2.75688      -3.71735
                        -----------------------------------------
Total Dipole Moment    :     -0.45350       0.41982      -0.87675
                        -----------------------------------------
Magnitude (a.u.)       :      1.07267
Magnitude (Debye)      :      2.72650

                             ****ORCA TERMINATED NORMALLY****
TOTAL RUN TIME: 0 days 0 hours 32 minutes 31 seconds 714 msec
