                         Program Version 3.0.3 - RELEASE   -
|  1> ! RI-MP2 RIJK def2-TZVP def2-TZVP/C def2-TZVP/JK TIGHTSCF
|  2> % maxcore 2000
|  3> % mp2 density relaxed end
|  4> *xyz 0 1
|  5>  C        0.0949242586     1.6016965942    -0.0227949795
|  6>  C        0.0533021348     0.0619505020     0.0475791334
|  7>  C        0.6152005289    -0.5409225448    -1.1648875718
|  8>  C        1.0778932168    -1.0151860892    -2.1673140547
|  9>  C        0.7481065111    -0.4743543154     1.2769357372
| 10>  N        1.8001629311     0.1134864873     1.8257950573
| 11>  N        2.0818848945    -0.7133422264     2.8602843215
| 12>  C        1.2066776546    -1.7367350499     2.8924562401
| 13>  N        0.3435358104    -1.6194117007     1.9039588754
| 14>  H        1.1268448920     1.9548620762    -0.0661423174
| 15>  H       -0.4328588777     1.9494095871    -0.9138923113
| 16>  H       -0.3801589820     2.0326532039     0.8626165680
| 17>  H       -0.9910614445    -0.2635135055     0.1279102416
| 18>  H        1.4850447042    -1.4446110813    -3.0487900778
| 19>  H        2.8524309229    -0.5049316391     3.4737805044
| 20>  H        1.2343615646    -2.5188482285     3.6362268236
| 21> *
| 22>
| 23>                          ****END OF INPUT****

CARTESIAN COORDINATES (ANGSTROEM)
---------------------------------
  C      0.094924    1.601697   -0.022795
  C      0.053302    0.061951    0.047579
  C      0.615201   -0.540923   -1.164888
  C      1.077893   -1.015186   -2.167314
  C      0.748107   -0.474354    1.276936
  N      1.800163    0.113486    1.825795
  N      2.081885   -0.713342    2.860284
  C      1.206678   -1.736735    2.892456
  N      0.343536   -1.619412    1.903959
  H      1.126845    1.954862   -0.066142
  H     -0.432859    1.949410   -0.913892
  H     -0.380159    2.032653    0.862617
  H     -0.991061   -0.263514    0.127910
  H      1.485045   -1.444611   -3.048790
  H      2.852431   -0.504932    3.473781
  H      1.234362   -2.518848    3.636227

 Total Charge           Charge          ....    0
 Multiplicity           Mult            ....    1
 Number of Electrons    NEL             ....   64
 Basis Dimension        Dim             ....  321

ORBITAL ENERGIES
----------------

  NO   OCC          E(Eh)            E(eV)
   0   2.0000     -15.653951      -425.9657
   1   2.0000     -15.594329      -424.3433
   2   2.0000     -15.559059      -423.3835
   3   2.0000     -11.322525      -308.1016
   4   2.0000     -11.296629      -307.3969
   5   2.0000     -11.266614      -306.5801
   6   2.0000     -11.229640      -305.5740
   7   2.0000     -11.221347      -305.3484
   8   2.0000     -11.216420      -305.2143
   9   2.0000      -1.415973       -38.5306
  10   2.0000      -1.202210       -32.7138
  11   2.0000      -1.137974       -30.9658
  12   2.0000      -1.070603       -29.1326
  13   2.0000      -0.993105       -27.0238
  14   2.0000      -0.900963       -24.5164
  15   2.0000      -0.861619       -23.4459
  16   2.0000      -0.796599       -21.6766
  17   2.0000      -0.769835       -20.9483
  18   2.0000      -0.712409       -19.3856
  19   2.0000      -0.662189       -18.0191
  20   2.0000      -0.641902       -17.4670
  21   2.0000      -0.620109       -16.8740
  22   2.0000      -0.611704       -16.6453
  23   2.0000      -0.548229       -14.9181
  24   2.0000      -0.525746       -14.3063
  25   2.0000      -0.518900       -14.1200
  26   2.0000      -0.503929       -13.7126
  27   2.0000      -0.451162       -12.2768
  28   2.0000      -0.419467       -11.4143
  29   2.0000      -0.389415       -10.5965
  30   2.0000      -0.381192       -10.3728
  31   2.0000      -0.368391       -10.0244
  32   0.0000       0.126983         3.4554
  33   0.0000       0.138341         3.7644
  34   0.0000       0.148992         4.0543
  35   0.0000       0.171095         4.6557
  36   0.0000       0.172719         4.6999

MULLIKEN ATOMIC CHARGES
-----------------------
   0 C :   -0.381020
   1 C :   -0.063039
   2 C :   -0.084797
   3 C :   -0.168899
   4 C :    0.160860
   5 N :   -0.224449
   6 N :   -0.124194
   7 C :    0.038212
   8 N :   -0.305543
   9 H :    0.145457
  10 H :    0.140632
  11 H :    0.132935
  12 H :    0.121981
  13 H :    0.188261
  14 H :    0.264596
  15 H :    0.159009
Sum of atomic charges:   -0.0000000

LOEWDIN ATOMIC CHARGES
----------------------
   0 C :   -0.263009
   1 C :   -0.233927
   2 C :   -0.077067
   3 C :   -0.098287
   4 C :   -0.320201
   5 N :    0.054045
   6 N :    0.127444
   7 C :   -0.317548
   8 N :    0.108693
   9 H :    0.131425
  10 H :    0.127596
  11 H :    0.126232
  12 H :    0.181890
  13 H :    0.126071
  14 H :    0.191448
  15 H :    0.135196

  Mayer bond orders larger than 0.1
B(  0-C ,  1-C ) :   0.9023 B(  0-C ,  9-H ) :   0.9262 B(  0-C , 10-H ) :   0.9358
B(  0-C , 11-H ) :   0.9365 B(  1-C ,  2-C ) :   1.1556 B(  1-C ,  4-C ) :   0.8889
B(  1-C , 12-H ) :   0.9092 B(  2-C ,  3-C ) :   2.5923 B(  3-C , 13-H ) :   0.8948
B(  4-C ,  5-N ) :   1.5470 B(  4-C ,  8-N ) :   1.3445 B(  5-N ,  6-N ) :   1.0654
B(  6-N ,  7-C ) :   1.2259 B(  6-N , 14-H ) :   0.8656 B(  7-C ,  8-N ) :   1.5045
B(  7-C , 15-H ) :   0.9235

MP2 TOTAL ENERGY:     -396.225975755 Eh
FINAL SINGLE POINT ENERGY      -396.225975754596

DIPOLE MOMENT
-------------
                                X             Y             Z
Electronic contribution:      1.98738      -4.11513       2.95148
Nuclear contribution   :     -1.34749       4.11480      -1.94604
                        -----------------------------------------
Total Dipole Moment    :      0.63989      -0.00033       1.00544
                        -----------------------------------------
Magnitude (a.u.)       :      1.19180
Magnitude (Debye)      :      3.02930

                             ****ORCA TERMINATED NORMALLY****
TOTAL RUN TIME: 0 days 0 hours 15 minutes 32 seconds 714 msec
