                         Program Version 3.0.3 - RELEASE   -
|  1> ! RI-MP2 RIJK def2-TZVP def2-TZVP/C def2-TZVP/JK TIGHTSCF
|  2> % maxcore 2000
|  3> % mp2 density relaxed end
|  4> *xyz 0 1
|  5>  C       -0.1108569711     1.5407496487     0.0554670923
|  6>  C        0.1124373313     0.0620298380     0.0336244652
|  7>  N       -0.7835241863    -0.8958574475     0.7229191830
|  8>  C        0.6748784076    -0.9050466613     1.0149155201
|  9>  C        1.3013903705    -1.7698787830    -0.0728547361
| 10>  C        0.6771272641    -0.7686787260    -1.1566619458
| 11>  N       -0.3402874505    -1.1979814882    -2.0919311489
| 12>  C        1.7415559486    -0.0552036456    -1.8653538559
| 13>  N        2.5998468878     0.5024805717    -2.4025268840
| 14>  H        0.7746367608     2.0744276407    -0.3021850115
| 15>  H       -0.9533182877     1.8162378432    -0.5881130322
| 16>  H       -0.3297412352     1.8847076692     1.0718480881
| 17>  H       -1.2509046790    -0.3790575443     1.4670303883
| 18>  H        1.0409089342    -0.7299250515     2.0186402799
| 19>  H        2.3922902451    -1.7625619051    -0.0754205337
| 20>  H        0.9267702346    -2.7942294436    -0.1378835877
| 21>  H        0.0305266909    -1.8745350916    -2.7515217592
| 22>  H       -1.0786454555    -1.6445538535    -1.5550737818
| 23> *
| 24>
| 25>                          ****END OF INPUT****

CARTESIAN COORDINATES (ANGSTROEM)
---------------------------------
  C     -0.110857    1.540750    0.055467
  C      0.112437    0.062030    0.033624
  N     -0.783524   -0.895857    0.722919
  C      0.674878   -0.905047    1.014916
  C      1.301390   -1.769879   -0.072855
  C      0.677127   -0.768679   -1.156662
  N     -0.340287   -1.197981   -2.091931
  C      1.741556   -0.055204   -1.865354
  N      2.599847    0.502481   -2.402527
  H      0.774637    2.074428   -0.302185
  H     -0.953318    1.816238   -0.588113
  H     -0.329741    1.884708    1.071848
  H     -1.250905   -0.379058    1.467030
  H      1.040909   -0.729925    2.018640
  H      2.392290   -1.762562   -0.075421
  H      0.926770   -2.794229   -0.137884
  H      0.030527   -1.874535   -2.751522
  H     -1.078645   -1.644554   -1.555074

 Total Charge           Charge          ....    0
 Multiplicity           Mult            ....    1
 Number of Electrons    NEL             ....   66
 Basis Dimension        Dim             ....  333

ORBITAL ENERGIES
----------------

  NO   OCC          E(Eh)            E(eV)
   0   2.0000     -15.579182      -423.9311
   1   2.0000     -15.569592      -423.6701
   2   2.0000     -15.559169      -423.3865
   3   2.0000     -11.318313      -307.9870
   4   2.0000     -11.290833      -307.2392
   5   2.0000     -11.280571      -306.9599
   6   2.0000     -11.269937      -306.6706
   7   2.0000     -11.252025      -306.1832
   8   2.0000     -11.239315      -305.8373
   9   2.0000      -1.311820       -35.6964
  10   2.0000      -1.225051       -33.3353
  11   2.0000      -1.193313       -32.4717
  12   2.0000      -1.055443       -28.7201
  13   2.0000      -1.013425       -27.5767
  14   2.0000      -0.916314       -24.9342
  15   2.0000      -0.855030       -23.2665
  16   2.0000      -0.800761       -21.7898
  17   2.0000      -0.701472       -19.0880
  18   2.0000      -0.682794       -18.5798
  19   2.0000      -0.655138       -17.8272
  20   2.0000      -0.618299       -16.8248
  21   2.0000      -0.615151       -16.7391
  22   2.0000      -0.591598       -16.0982
  23   2.0000      -0.574202       -15.6248
  24   2.0000      -0.560082       -15.2406
  25   2.0000      -0.549981       -14.9657
  26   2.0000      -0.515622       -14.0308
  27   2.0000      -0.506865       -13.7925
  28   2.0000      -0.478731       -13.0269
  29   2.0000      -0.458695       -12.4817
  30   2.0000      -0.454020       -12.3545
  31   2.0000      -0.398073       -10.8321
  32   2.0000      -0.383508       -10.4358
  33   0.0000       0.122409         3.3309
  34   0.0000       0.140932         3.8350
  35   0.0000       0.157233         4.2785
  36   0.0000       0.166779         4.5383
  37   0.0000       0.177109         4.8194

MULLIKEN ATOMIC CHARGES
-----------------------
   0 C :   -0.396763
   1 C :    0.160980
   2 N :   -0.394460
   3 C :   -0.214745
   4 C :   -0.105937
   5 C :    0.297852
   6 N :   -0.555615
   7 C :   -0.304881
   8 N :   -0.046700
   9 H :    0.162354
  10 H :    0.158527
  11 H :    0.129069
  12 H :    0.221277
  13 H :    0.147037
  14 H :    0.146647
  15 H :    0.106824
  16 H :    0.235993
  17 H :    0.252542
Sum of atomic charges:   -0.0000000

LOEWDIN ATOMIC CHARGES
----------------------
   0 C :   -0.267570
   1 C :   -0.245293
   2 N :    0.021508
   3 C :   -0.211055
   4 C :   -0.162898
   5 C :   -0.284806
   6 N :   -0.096941
   7 C :   -0.146480
   8 N :    0.068166
   9 H :    0.141002
  10 H :    0.138621
  11 H :    0.131985
  12 H :    0.174544
  13 H :    0.133096
  14 H :    0.143562
  15 H :    0.133209
  16 H :    0.162354
  17 H :    0.166995

  Mayer bond orders larger than 0.1
B(  0-C ,  1-C ) :   0.8884 B(  0-C ,  9-H ) :   0.9220 B(  0-C , 10-H ) :   0.9407
B(  0-C , 11-H ) :   0.9277 B(  1-C ,  2-N ) :   0.8364 B(  1-C ,  3-C ) :   0.8515
B(  1-C ,  5-C ) :   0.7845 B(  2-N ,  3-C ) :   1.0256 B(  2-N ,  4-C ) :  -0.1140
B(  2-N , 12-H ) :   0.8718 B(  3-C ,  4-C ) :   0.9484 B(  3-C , 13-H ) :   0.9126
B(  4-C ,  5-C ) :   0.9140 B(  4-C , 14-H ) :   0.9154 B(  4-C , 15-H ) :   0.8866
B(  5-C ,  6-N ) :   0.9241 B(  5-C ,  7-C ) :   0.9105 B(  6-N , 16-H ) :   0.8803
B(  6-N , 17-H ) :   0.8729 B(  7-C ,  8-N ) :   2.8761

MP2 TOTAL ENERGY:     -397.413432963 Eh
FINAL SINGLE POINT ENERGY      -397.413432962661

DIPOLE MOMENT
-------------
                                X             Y             Z
Electronic contribution:      3.03326      -0.63042      -3.18281
Nuclear contribution   :     -3.69047       0.12413       4.50979
                        -----------------------------------------
Total Dipole Moment    :     -0.65721      -0.50629       1.32698
                        -----------------------------------------
Magnitude (a.u.)       :      1.56497
Magnitude (Debye)      :      3.97784

                             ****ORCA TERMINATED NORMALLY****
TOTAL RUN TIME: 0 days 0 hours 18 minutes 43 seconds 202 msec
