                         Program Version 3.0.3 - RELEASE   -
|  1> ! RI-MP2 RIJK def2-TZVP def2-TZVP/C def2-TZVP/JK TIGHTSCF
|  2> % maxcore 2000
|  3> % mp2 density relaxed end
|  4> *xyz 0 1
|  5>  C       -0.0279885703     1.5264561276    -0.1837933538
|  6>  C       -0.0555515573     0.0518400301     0.2386717190
|  7>  C       -1.4298950042    -0.5593103747     0.0603592057
|  8>  C       -1.8740877647    -1.1673441821    -1.2327415175
|  9>  C       -1.6738670131    -2.0673709903    -0.0184570310
| 10>  C       -0.5122484971    -3.0433979807    -0.0132773718
| 11>  C       -2.9661807458    -2.4880859960     0.6386045316
| 12>  N       -2.9704631521    -3.7138099335     1.2417420246
| 13>  O       -3.9547420366    -1.7722238597     0.6502278513
| 14>  H        0.9671416497     1.9597470995    -0.0430051907
| 15>  H       -0.3003317247     1.6374319266    -1.2384439492
| 16>  H       -0.7375031784     2.1181183655     0.4044162434
| 17>  H        0.6903107875    -0.5010008080    -0.3434473488
| 18>  H        0.2510187453    -0.0317958518     1.2895719852
| 19>  H       -2.2222168147    -0.0459205279     0.5984509896
| 20>  H       -2.8963124509    -1.0021203814    -1.5511850089
| 21>  H       -1.1431417892    -1.2679067071    -2.0297781524
| 22>  H        0.3490144714    -2.6381271521    -0.5478374250
| 23>  H       -0.1777280287    -3.2802040051     1.0039806792
| 24>  H       -0.7787015773    -3.9820998833    -0.5143670631
| 25>  H       -2.2041786116    -4.3582397061     1.1815637045
| 26>  H       -3.8388917670    -4.0277304493     1.6419212182
| 27> *
| 28>
| 29>                          ****END OF INPUT****

CARTESIAN COORDINATES (ANGSTROEM)
---------------------------------
  C     -0.027989    1.526456   -0.183793
  C     -0.055552    0.051840    0.238672
  C     -1.429895   -0.559310    0.060359
  C     -1.874088   -1.167344   -1.232742
  C     -1.673867   -2.067371   -0.018457
  C     -0.512248   -3.043398   -0.013277
  C     -2.966181   -2.488086    0.638605
  N     -2.970463   -3.713810    1.241742
  O     -3.954742   -1.772224    0.650228
  H      0.967142    1.959747   -0.043005
  H     -0.300332    1.637432   -1.238444
  H     -0.737503    2.118118    0.404416
  H      0.690311   -0.501001   -0.343447
  H      0.251019   -0.031796    1.289572
  H     -2.222217   -0.045921    0.598451
  H     -2.896312   -1.002120   -1.551185
  H     -1.143142   -1.267907   -2.029778
  H      0.349014   -2.638127   -0.547837
  H     -0.177728   -3.280204    1.003981
  H     -0.778702   -3.982100   -0.514367
  H     -2.204179   -4.358240    1.181564
  H     -3.838892   -4.027730    1.641921

 Total Charge           Charge          ....    0
 Multiplicity           Mult            ....    1
 Number of Electrons    NEL             ....   70
 Basis Dimension        Dim             ....  357

ORBITAL ENERGIES
----------------

  NO   OCC          E(Eh)            E(eV)
   0   2.0000     -20.504591      -557.9583
   1   2.0000     -15.577927      -423.8970
   2   2.0000     -11.344634      -308.7032
   3   2.0000     -11.247076      -306.0485
   4   2.0000     -11.233988      -305.6924
   5   2.0000     -11.232981      -305.6649
   6   2.0000     -11.226496      -305.4885
   7   2.0000     -11.226430      -305.4867
   8   2.0000     -11.213983      -305.1480
   9   2.0000      -1.372595       -37.3502
  10   2.0000      -1.205533       -32.8042
  11   2.0000      -1.159969       -31.5644
  12   2.0000      -1.032848       -28.1052
  13   2.0000      -0.975940       -26.5567
  14   2.0000      -0.879379       -23.9291
  15   2.0000      -0.861056       -23.4305
  16   2.0000      -0.784043       -21.3349
  17   2.0000      -0.749642       -20.3988
  18   2.0000      -0.718237       -19.5442
  19   2.0000      -0.673414       -18.3245
  20   2.0000      -0.627676       -17.0799
  21   2.0000      -0.613570       -16.6961
  22   2.0000      -0.599622       -16.3165
  23   2.0000      -0.596543       -16.2328
  24   2.0000      -0.562796       -15.3145
  25   2.0000      -0.559984       -15.2379
  26   2.0000      -0.542805       -14.7705
  27   2.0000      -0.528718       -14.3872
  28   2.0000      -0.517969       -14.0947
  29   2.0000      -0.495801       -13.4914
  30   2.0000      -0.475996       -12.9525
  31   2.0000      -0.428376       -11.6567
  32   2.0000      -0.411674       -11.2022
  33   2.0000      -0.403907       -10.9909
  34   2.0000      -0.392339       -10.6761
  35   0.0000       0.123558         3.3622
  36   0.0000       0.143774         3.9123
  37   0.0000       0.164022         4.4633
  38   0.0000       0.171181         4.6581
  39   0.0000       0.182494         4.9659

MULLIKEN ATOMIC CHARGES
-----------------------
   0 C :   -0.390612
   1 C :   -0.185528
   2 C :   -0.128627
   3 C :   -0.302156
   4 C :    0.112566
   5 C :   -0.473810
   6 C :    0.244650
   7 N :   -0.473838
   8 O :   -0.377568
   9 H :    0.132330
  10 H :    0.128606
  11 H :    0.128008
  12 H :    0.092808
  13 H :    0.115639
  14 H :    0.147775
  15 H :    0.154899
  16 H :    0.127170
  17 H :    0.139079
  18 H :    0.145414
  19 H :    0.146063
  20 H :    0.261329
  21 H :    0.255801
Sum of atomic charges:   -0.0000000

LOEWDIN ATOMIC CHARGES
----------------------
   0 C :   -0.312008
   1 C :   -0.271720
   2 C :   -0.181494
   3 C :   -0.172030
   4 C :   -0.215713
   5 C :   -0.275914
   6 C :   -0.439826
   7 N :   -0.011777
   8 O :    0.072857
   9 H :    0.119740
  10 H :    0.122477
  11 H :    0.122589
  12 H :    0.135525
  13 H :    0.139467
  14 H :    0.163445
  15 H :    0.143138
  16 H :    0.136249
  17 H :    0.130637
  18 H :    0.126697
  19 H :    0.126453
  20 H :    0.167968
  21 H :    0.173239

  Mayer bond orders larger than 0.1
B(  0-C ,  1-C ) :   0.9235 B(  0-C ,  9-H ) :   0.9408 B(  0-C , 10-H ) :   0.9390
B(  0-C , 11-H ) :   0.9390 B(  1-C ,  2-C ) :   0.9092 B(  1-C , 12-H ) :   0.9311
B(  1-C , 13-H ) :   0.9334 B(  2-C ,  3-C ) :   0.9381 B(  2-C ,  4-C ) :   0.8242
B(  2-C , 14-H ) :   0.9100 B(  3-C ,  4-C ) :   0.8557 B(  3-C , 15-H ) :   0.9118
B(  3-C , 16-H ) :   0.9249 B(  4-C ,  5-C ) :   0.8476 B(  4-C ,  6-C ) :   0.9321
B(  5-C , 17-H ) :   0.9323 B(  5-C , 18-H ) :   0.9410 B(  5-C , 19-H ) :   0.9404
B(  6-C ,  7-N ) :   1.1618 B(  6-C ,  8-O ) :   1.9405 B(  7-N , 20-H ) :   0.8688
B(  7-N , 21-H ) :   0.8596

MP2 TOTAL ENERGY:     -403.693995978 Eh
FINAL SINGLE POINT ENERGY      -403.693995978247

DIPOLE MOMENT
-------------
                                X             Y             Z
Electronic contribution:     -8.66849      -4.54063       2.23229
Nuclear contribution   :      9.72007       3.63760      -2.18896
                        -----------------------------------------
Total Dipole Moment    :      1.05158      -0.90303       0.04333
                        -----------------------------------------
Magnitude (a.u.)       :      1.38678
Magnitude (Debye)      :      3.52492

                             ****ORCA TERMINATED NORMALLY****
TOTAL RUN TIME: 0 days 0 hours 24 minutes 56 seconds 49 msec
