                         Program Version 3.0.3 - RELEASE   -
|  1> ! RI-MP2 RIJK def2-TZVP def2-TZVP/C def2-TZVP/JK TIGHTSCF
|  2> % maxcore 2000
|  3> % mp2 density relaxed end
|  4> *xyz 0 1
|  5>  N        0.0989377936     1.3372446362     0.1474184666
|  6>  C       -0.0448539044    -0.0280674747     0.0638897513
|  7>  N       -1.1221292751    -0.7283839335     0.0285590380
|  8>  C       -0.6597170282    -2.0658832658     0.0200356184
|  9>  C       -1.4865813962    -3.2040899471    -0.0281926183
| 10>  C       -2.1594390540    -4.2040251527    -0.0759621230
| 11>  C        0.7035889958    -2.0521351685     0.0568619404
| 12>  N        1.6775332558    -3.0223200822     0.1548015946
| 13>  O        1.1211611651    -0.7493867109     0.0878523673
| 14>  H        0.9244955751     1.6979862354    -0.3099270294
| 15>  H       -0.7436162539     1.8242748635    -0.1230540775
| 16>  H       -2.7660341667    -5.0742308134    -0.1107687230
| 17>  H        1.2924988672    -3.9469658536     0.0096082525
| 18>  H        2.4793973059    -2.8620869127    -0.4433996178
| 19> *
| 20>
| 21>                          ****END OF INPUT****

CARTESIAN COORDINATES (ANGSTROEM)
---------------------------------
  N      0.098938    1.337245    0.147418
  C     -0.044854   -0.028067    0.063890
  N     -1.122129   -0.728384    0.028559
  C     -0.659717   -2.065883    0.020036
  C     -1.486581   -3.204090   -0.028193
  C     -2.159439   -4.204025   -0.075962
  C      0.703589   -2.052135    0.056862
  N      1.677533   -3.022320    0.154802
  O      1.121161   -0.749387    0.087852
  H      0.924496    1.697986   -0.309927
  H     -0.743616    1.824275   -0.123054
  H     -2.766034   -5.074231   -0.110769
  H      1.292499   -3.946966    0.009608
  H      2.479397   -2.862087   -0.443400

 Total Charge           Charge          ....    0
 Multiplicity           Mult            ....    1
 Number of Electrons    NEL             ....   64
 Basis Dimension        Dim             ....  309

ORBITAL ENERGIES
----------------

  NO   OCC          E(Eh)            E(eV)
   0   2.0000     -20.642642      -561.7149
   1   2.0000     -15.591656      -424.2705
   2   2.0000     -15.589712      -424.2176
   3   2.0000     -15.550334      -423.1461
   4   2.0000     -11.371137      -309.4244
   5   2.0000     -11.343675      -308.6771
   6   2.0000     -11.264680      -306.5275
   7   2.0000     -11.236582      -305.7629
   8   2.0000     -11.223456      -305.4058
   9   2.0000      -1.498809       -40.7847
  10   2.0000      -1.263664       -34.3860
  11   2.0000      -1.229709       -33.4621
  12   2.0000      -1.208646       -32.8889
  13   2.0000      -1.049267       -28.5520
  14   2.0000      -0.979339       -26.6492
  15   2.0000      -0.871692       -23.7199
  16   2.0000      -0.817379       -22.2420
  17   2.0000      -0.770550       -20.9677
  18   2.0000      -0.717704       -19.5297
  19   2.0000      -0.700526       -19.0623
  20   2.0000      -0.699214       -19.0266
  21   2.0000      -0.682278       -18.5657
  22   2.0000      -0.647268       -17.6131
  23   2.0000      -0.628130       -17.0923
  24   2.0000      -0.601041       -16.3551
  25   2.0000      -0.529632       -14.4120
  26   2.0000      -0.494455       -13.4548
  27   2.0000      -0.469220       -12.7681
  28   2.0000      -0.453567       -12.3422
  29   2.0000      -0.395839       -10.7713
  30   2.0000      -0.393903       -10.7187
  31   2.0000      -0.281691        -7.6652
  32   0.0000       0.124296         3.3823
  33   0.0000       0.132404         3.6029
  34   0.0000       0.141873         3.8605
  35   0.0000       0.163541         4.4502
  36   0.0000       0.178493         4.8570

MULLIKEN ATOMIC CHARGES
-----------------------
   0 N :   -0.504832
   1 C :    0.331166
   2 N :   -0.301088
   3 C :   -0.100717
   4 C :    0.016943
   5 C :   -0.159977
   6 C :    0.209776
   7 N :   -0.502872
   8 O :   -0.245557
   9 H :    0.263443
  10 H :    0.273173
  11 H :    0.190539
  12 H :    0.267733
  13 H :    0.262271
Sum of atomic charges:   -0.0000000

LOEWDIN ATOMIC CHARGES
----------------------
   0 N :   -0.057091
   1 C :   -0.450384
   2 N :    0.124631
   3 C :   -0.249185
   4 C :   -0.083634
   5 C :   -0.087941
   6 C :   -0.319221
   7 N :   -0.060804
   8 O :    0.335947
   9 H :    0.176410
  10 H :    0.183617
  11 H :    0.126700
  12 H :    0.184665
  13 H :    0.176289

  Mayer bond orders larger than 0.1
B(  0-N ,  1-C ) :   1.0896 B(  0-N ,  9-H ) :   0.8650 B(  0-N , 10-H ) :   0.8670
B(  1-C ,  2-N ) :   1.7041 B(  1-C ,  8-O ) :   1.0493 B(  2-N ,  3-C ) :   1.1301
B(  3-C ,  4-C ) :   1.2087 B(  3-C ,  5-C ) :  -0.1525 B(  3-C ,  6-C ) :   1.4941
B(  4-C ,  5-C ) :   2.6120 B(  5-C , 11-H ) :   0.8792 B(  6-C ,  7-N ) :   1.0916
B(  6-C ,  8-O ) :   1.0404 B(  7-N , 12-H ) :   0.8673 B(  7-N , 13-H ) :   0.8632

MP2 TOTAL ENERGY:     -432.139276312 Eh
FINAL SINGLE POINT ENERGY      -432.139276312284

DIPOLE MOMENT
-------------
                                X             Y             Z
Electronic contribution:     -0.72676       0.55559       0.28717
Nuclear contribution   :      1.72827      -0.46578      -1.12469
                        -----------------------------------------
Total Dipole Moment    :      1.00151       0.08981      -0.83753
                        -----------------------------------------
Magnitude (a.u.)       :      1.30864
Magnitude (Debye)      :      3.32630

                             ****ORCA TERMINATED NORMALLY****
TOTAL RUN TIME: 0 days 0 hours 13 minutes 50 seconds 104 msec
