                         Program Version 3.0.3 - RELEASE   -
|  1> ! RI-MP2 RIJK def2-TZVP def2-TZVP/C def2-TZVP/JK TIGHTSCF
|  2> % maxcore 2000
|  3> % mp2 density relaxed end
|  4> *xyz 0 1
|  5>  O       -0.8782040252     0.9866234178     0.4958853207
|  6>  C        0.2081583278     0.8437932621     0.0017112400
|  7>  C        1.2988070940     1.9069096083     0.0733937128
|  8>  C        1.4377299788     2.5233193286     1.4604896793
|  9>  C        2.6366653971     3.4690924802     1.4586371142
| 10>  C        3.8950394979     2.6805084302     1.0825601410
| 11>  C        3.7458841997     1.7199126302    -0.0900745004
| 12>  O        4.6812761022     1.2787398102    -0.6956524431
| 13>  O        2.4956602624     1.2816292943    -0.4139572937
| 14>  H        0.5041777436    -0.0715682427    -0.5536513677
| 15>  H        1.0206582186     2.6955499070    -0.6440739204
| 16>  H        0.5003582808     3.0303365937     1.7015546130
| 17>  H        1.5779855754     1.7291522902     2.2041382556
| 18>  H        2.4661975882     4.2768490464     0.7359147133
| 19>  H        2.7682373015     3.9422203714     2.4361458421
| 20>  H        4.7465727105     3.3256903703     0.8558290365
| 21>  H        4.2047011866     2.0529539119     1.9290445867
| 22> *
| 23>
| 24>                          ****END OF INPUT****

CARTESIAN COORDINATES (ANGSTROEM)
---------------------------------
  O     -0.878204    0.986623    0.495885
  C      0.208158    0.843793    0.001711
  C      1.298807    1.906910    0.073394
  C      1.437730    2.523319    1.460490
  C      2.636665    3.469092    1.458637
  C      3.895039    2.680508    1.082560
  C      3.745884    1.719913   -0.090075
  O      4.681276    1.278740   -0.695652
  O      2.495660    1.281629   -0.413957
  H      0.504178   -0.071568   -0.553651
  H      1.020658    2.695550   -0.644074
  H      0.500358    3.030337    1.701555
  H      1.577986    1.729152    2.204138
  H      2.466198    4.276849    0.735915
  H      2.768237    3.942220    2.436146
  H      4.746573    3.325690    0.855829
  H      4.204701    2.052954    1.929045

 Total Charge           Charge          ....    0
 Multiplicity           Mult            ....    1
 Number of Electrons    NEL             ....   68
 Basis Dimension        Dim             ....  327

ORBITAL ENERGIES
----------------

  NO   OCC          E(Eh)            E(eV)
   0   2.0000     -20.613232      -560.9146
   1   2.0000     -20.577012      -559.9290
   2   2.0000     -20.545388      -559.0684
   3   2.0000     -11.390545      -309.9525
   4   2.0000     -11.349267      -308.8292
   5   2.0000     -11.326480      -308.2092
   6   2.0000     -11.262705      -306.4738
   7   2.0000     -11.258653      -306.3635
   8   2.0000     -11.257796      -306.3402
   9   2.0000      -1.467031       -39.9200
  10   2.0000      -1.417162       -38.5629
  11   2.0000      -1.371958       -37.3329
  12   2.0000      -1.120756       -30.4973
  13   2.0000      -1.060401       -28.8550
  14   2.0000      -0.951989       -25.9049
  15   2.0000      -0.879152       -23.9229
  16   2.0000      -0.821857       -22.3639
  17   2.0000      -0.775907       -21.1135
  18   2.0000      -0.720351       -19.6018
  19   2.0000      -0.691367       -18.8130
  20   2.0000      -0.681777       -18.5521
  21   2.0000      -0.658511       -17.9190
  22   2.0000      -0.647343       -17.6151
  23   2.0000      -0.629433       -17.1277
  24   2.0000      -0.623516       -16.9667
  25   2.0000      -0.591051       -16.0833
  26   2.0000      -0.554984       -15.1019
  27   2.0000      -0.531929       -14.4745
  28   2.0000      -0.520919       -14.1749
  29   2.0000      -0.515600       -14.0302
  30   2.0000      -0.503815       -13.7095
  31   2.0000      -0.469306       -12.7705
  32   2.0000      -0.450930       -12.2704
  33   2.0000      -0.428905       -11.6711
  34   0.0000       0.099160         2.6983
  35   0.0000       0.124479         3.3872
  36   0.0000       0.141956         3.8628
  37   0.0000       0.155703         4.2369
  38   0.0000       0.166144         4.5210

MULLIKEN ATOMIC CHARGES
-----------------------
   0 O :   -0.258336
   1 C :    0.068320
   2 C :    0.104010
   3 C :   -0.272071
   4 C :   -0.199071
   5 C :   -0.257037
   6 C :    0.224881
   7 O :   -0.277587
   8 O :   -0.221689
   9 H :    0.117557
  10 H :    0.119158
  11 H :    0.155608
  12 H :    0.129879
  13 H :    0.124503
  14 H :    0.140472
  15 H :    0.158856
  16 H :    0.142549
Sum of atomic charges:   -0.0000000

LOEWDIN ATOMIC CHARGES
----------------------
   0 O :    0.149405
   1 C :   -0.262151
   2 C :   -0.292737
   3 C :   -0.239498
   4 C :   -0.259658
   5 C :   -0.231885
   6 C :   -0.465357
   7 O :    0.143938
   8 O :    0.271563
   9 H :    0.120825
  10 H :    0.158951
  11 H :    0.154128
  12 H :    0.148351
  13 H :    0.142922
  14 H :    0.142071
  15 H :    0.156811
  16 H :    0.162322

  Mayer bond orders larger than 0.1
B(  0-O ,  1-C ) :   1.9948 B(  1-C ,  2-C ) :   0.8481 B(  1-C ,  9-H ) :   0.9435
B(  2-C ,  3-C ) :   0.9328 B(  2-C ,  8-O ) :   0.8580 B(  2-C , 10-H ) :   0.8986
B(  3-C ,  4-C ) :   0.8929 B(  3-C , 11-H ) :   0.9156 B(  3-C , 12-H ) :   0.9252
B(  4-C ,  5-C ) :   0.9010 B(  4-C , 13-H ) :   0.9302 B(  4-C , 14-H ) :   0.9306
B(  5-C ,  6-C ) :   0.9426 B(  5-C , 15-H ) :   0.9171 B(  5-C , 16-H ) :   0.9075
B(  6-C ,  7-O ) :   2.0386 B(  6-C ,  8-O ) :   1.0989

MP2 TOTAL ENERGY:     -458.274834970 Eh
FINAL SINGLE POINT ENERGY      -458.274834969918

DIPOLE MOMENT
-------------
                                X             Y             Z
Electronic contribution:     -0.58129      -4.85773      -4.57594
Nuclear contribution   :      0.42978       5.84429       5.36250
                        -----------------------------------------
Total Dipole Moment    :     -0.15151       0.98656       0.78655
                        -----------------------------------------
Magnitude (a.u.)       :      1.27079
Magnitude (Debye)      :      3.23010

                             ****ORCA TERMINATED NORMALLY****
TOTAL RUN TIME: 0 days 0 hours 16 minutes 1 seconds 796 msec
