                         Program Version 3.0.3 - RELEASE   -
|  1> ! RI-MP2 RIJK def2-TZVP def2-TZVP/C def2-TZVP/JK TIGHTSCF
|  2> % maxcore 2000
|  3> % mp2 density relaxed end
|  4> *xyz 0 1
|  5>  C        0.0809586264     1.5615446378     0.0600785905
|  6>  C        0.0258146648     0.0356500762    -0.0247328847
|  7>  C       -1.4037301135    -0.5572560123     0.0259226761
|  8>  C       -1.3771721222    -2.0967822857    -0.0178147347
|  9>  O       -2.1238926583    -0.0881402857     1.1995995907
| 10>  C       -1.6642145270    -0.4113144067     2.4235170727
| 11>  N       -2.2750655950     0.0089628157     3.4468381320
| 12>  C       -2.1930350802    -0.0633848480    -1.1081048107
| 13>  C       -2.8094884556     0.3066493193    -2.0697294987
| 14>  H        1.1178655739     1.9063540386     0.0122340319
| 15>  H       -0.4689901389     2.0190127849    -0.7667671654
| 16>  H       -0.3561592695     1.9245125366     0.9938918909
| 17>  H        0.4835435603    -0.3098415813    -0.9582237173
| 18>  H        0.6121380002    -0.4109751750     0.7869389738
| 19>  H       -0.7544650359    -2.5066018552     0.7818793743
| 20>  H       -2.3912267654    -2.4895285980     0.0832025400
| 21>  H       -0.9669263454    -2.4317435550    -0.9734934944
| 22>  H       -0.7645461902    -1.0362930359     2.4284216820
| 23>  H       -1.8059920947    -0.3227251255     4.2873669087
| 24>  H       -3.3659276338     0.6429645151    -2.9098377475
| 25> *
| 26>
| 27>                          ****END OF INPUT****

CARTESIAN COORDINATES (ANGSTROEM)
---------------------------------
  C      0.080959    1.561545    0.060079
  C      0.025815    0.035650   -0.024733
  C     -1.403730   -0.557256    0.025923
  C     -1.377172   -2.096782   -0.017815
  O     -2.123893   -0.088140    1.199600
  C     -1.664215   -0.411314    2.423517
  N     -2.275066    0.008963    3.446838
  C     -2.193035   -0.063385   -1.108105
  C     -2.809488    0.306649   -2.069729
  H      1.117866    1.906354    0.012234
  H     -0.468990    2.019013   -0.766767
  H     -0.356159    1.924513    0.993892
  H      0.483544   -0.309842   -0.958224
  H      0.612138   -0.410975    0.786939
  H     -0.754465   -2.506602    0.781879
  H     -2.391227   -2.489529    0.083203
  H     -0.966926   -2.431744   -0.973493
  H     -0.764546   -1.036293    2.428422
  H     -1.805992   -0.322725    4.287367
  H     -3.365928    0.642965   -2.909838

 Total Charge           Charge          ....    0
 Multiplicity           Mult            ....    1
 Number of Electrons    NEL             ....   68
 Basis Dimension        Dim             ....  345

ORBITAL ENERGIES
----------------

  NO   OCC          E(Eh)            E(eV)
   0   2.0000     -20.591006      -560.3098
   1   2.0000     -15.538923      -422.8356
   2   2.0000     -11.337792      -308.5170
   3   2.0000     -11.336820      -308.4905
   4   2.0000     -11.244963      -305.9910
   5   2.0000     -11.239941      -305.8543
   6   2.0000     -11.239187      -305.8338
   7   2.0000     -11.232822      -305.6606
   8   2.0000     -11.219284      -305.2922
   9   2.0000      -1.426706       -38.8226
  10   2.0000      -1.200106       -32.6566
  11   2.0000      -1.108112       -30.1533
  12   2.0000      -1.028402       -27.9842
  13   2.0000      -1.001592       -27.2547
  14   2.0000      -0.907589       -24.6968
  15   2.0000      -0.864097       -23.5133
  16   2.0000      -0.787884       -21.4394
  17   2.0000      -0.758726       -20.6460
  18   2.0000      -0.707741       -19.2586
  19   2.0000      -0.661901       -18.0112
  20   2.0000      -0.652983       -17.7686
  21   2.0000      -0.642649       -17.4874
  22   2.0000      -0.608329       -16.5535
  23   2.0000      -0.586497       -15.9594
  24   2.0000      -0.565667       -15.3926
  25   2.0000      -0.555458       -15.1148
  26   2.0000      -0.533960       -14.5298
  27   2.0000      -0.503074       -13.6893
  28   2.0000      -0.497849       -13.5472
  29   2.0000      -0.491049       -13.3621
  30   2.0000      -0.434289       -11.8176
  31   2.0000      -0.405665       -11.0387
  32   2.0000      -0.404616       -11.0102
  33   2.0000      -0.391577       -10.6554
  34   0.0000       0.127258         3.4629
  35   0.0000       0.147222         4.0061
  36   0.0000       0.152523         4.1504
  37   0.0000       0.161654         4.3988
  38   0.0000       0.165112         4.4929

MULLIKEN ATOMIC CHARGES
-----------------------
   0 C :   -0.416634
   1 C :   -0.225072
   2 C :    0.064739
   3 C :   -0.387642
   4 O :   -0.211286
   5 C :    0.039925
   6 N :   -0.330910
   7 C :   -0.043308
   8 C :   -0.107211
   9 H :    0.135292
  10 H :    0.144765
  11 H :    0.151744
  12 H :    0.130183
  13 H :    0.115522
  14 H :    0.132141
  15 H :    0.158829
  16 H :    0.148285
  17 H :    0.082844
  18 H :    0.222669
  19 H :    0.195124
Sum of atomic charges:    0.0000000

LOEWDIN ATOMIC CHARGES
----------------------
   0 C :   -0.305601
   1 C :   -0.243187
   2 C :   -0.338757
   3 C :   -0.250771
   4 O :    0.285029
   5 C :   -0.404613
   6 N :   -0.080517
   7 C :   -0.059786
   8 C :   -0.073285
   9 H :    0.123220
  10 H :    0.129670
  11 H :    0.128924
  12 H :    0.149651
  13 H :    0.138135
  14 H :    0.123708
  15 H :    0.137496
  16 H :    0.136664
  17 H :    0.108179
  18 H :    0.166357
  19 H :    0.129485

  Mayer bond orders larger than 0.1
B(  0-C ,  1-C ) :   0.9397 B(  0-C ,  9-H ) :   0.9369 B(  0-C , 10-H ) :   0.9336
B(  0-C , 11-H ) :   0.9333 B(  1-C ,  2-C ) :   0.9195 B(  1-C , 12-H ) :   0.9172
B(  1-C , 13-H ) :   0.9203 B(  2-C ,  3-C ) :   0.9363 B(  2-C ,  4-O ) :   0.8885
B(  2-C ,  7-C ) :   1.1291 B(  2-C ,  8-C ) :  -0.1178 B(  3-C , 14-H ) :   0.9238
B(  3-C , 15-H ) :   0.9373 B(  3-C , 16-H ) :   0.9249 B(  4-O ,  5-C ) :   1.0566
B(  5-C ,  6-N ) :   1.9763 B(  5-C , 17-H ) :   0.9259 B(  6-N , 18-H ) :   0.8500
B(  7-C ,  8-C ) :   2.6152 B(  8-C , 19-H ) :   0.8784

MP2 TOTAL ENERGY:     -402.411958348 Eh
FINAL SINGLE POINT ENERGY      -402.411958348449

DIPOLE MOMENT
-------------
                                X             Y             Z
Electronic contribution:     -6.06067       0.49590       1.04986
Nuclear contribution   :      7.25968      -1.25720      -1.61251
                        -----------------------------------------
Total Dipole Moment    :      1.19901      -0.76130      -0.56265
                        -----------------------------------------
Magnitude (a.u.)       :      1.52767
Magnitude (Debye)      :      3.88304

                             ****ORCA TERMINATED NORMALLY****
TOTAL RUN TIME: 0 days 0 hours 19 minutes 7 seconds 97 msec
