                         Program Version 3.0.3 - RELEASE   -
|  1> ! RI-MP2 RIJK def2-TZVP def2-TZVP/C def2-TZVP/JK TIGHTSCF
|  2> % maxcore 2000
|  3> % mp2 density relaxed end
|  4> *xyz 0 1
|  5>  C        0.1303072515     1.5781658921     0.0874326964
|  6>  C        0.0100612056     0.0449886604     0.0144041765
|  7>  C        0.7663042424    -0.5635926110     1.1845548948
|  8>  O        1.8049537461    -1.1647213075     1.0839219149
|  9>  C       -1.4580703114    -0.4541075628     0.0388861325
| 10>  O       -2.1704450741     0.0277304083     1.1727885936
| 11>  C       -2.2188678098    -0.1525106412    -1.2607190702
| 12>  C       -3.6400217739    -0.6764928504    -1.1902978889
| 13>  O       -4.6196832203    -0.0162706279    -1.4145683835
| 14>  H        1.1797206626     1.8800523865     0.0362307535
| 15>  H       -0.3941327814     2.0630713777    -0.7411282654
| 16>  H       -0.2796942022     1.9634278439     1.0268875015
| 17>  H        0.4928054600    -0.3213326938    -0.8980886011
| 18>  H        0.2814170430    -0.4038640509     2.1727109999
| 19>  H       -1.4409862230    -1.5434195181     0.1753296362
| 20>  H       -2.3917803011     0.9537211618     1.0240301779
| 21>  H       -2.2590042571     0.9205423516    -1.4744066441
| 22>  H       -1.7104178857    -0.6471212215    -2.0997544864
| 23>  H       -3.7196242814    -1.7522613973    -0.9116554380
| 24> *
| 25>
| 26>                          ****END OF INPUT****

CARTESIAN COORDINATES (ANGSTROEM)
---------------------------------
  C      0.130307    1.578166    0.087433
  C      0.010061    0.044989    0.014404
  C      0.766304   -0.563593    1.184555
  O      1.804954   -1.164721    1.083922
  C     -1.458070   -0.454108    0.038886
  O     -2.170445    0.027730    1.172789
  C     -2.218868   -0.152511   -1.260719
  C     -3.640022   -0.676493   -1.190298
  O     -4.619683   -0.016271   -1.414568
  H      1.179721    1.880052    0.036231
  H     -0.394133    2.063071   -0.741128
  H     -0.279694    1.963428    1.026888
  H      0.492805   -0.321333   -0.898089
  H      0.281417   -0.403864    2.172711
  H     -1.440986   -1.543420    0.175330
  H     -2.391780    0.953721    1.024030
  H     -2.259004    0.920542   -1.474407
  H     -1.710418   -0.647121   -2.099754
  H     -3.719624   -1.752261   -0.911655

 Total Charge           Charge          ....    0
 Multiplicity           Mult            ....    1
 Number of Electrons    NEL             ....   70
 Basis Dimension        Dim             ....  339

ORBITAL ENERGIES
----------------

  NO   OCC          E(Eh)            E(eV)
   0   2.0000     -20.585575      -560.1620
   1   2.0000     -20.568216      -559.6896
   2   2.0000     -20.564621      -559.5918
   3   2.0000     -11.344551      -308.7009
   4   2.0000     -11.336186      -308.4733
   5   2.0000     -11.320826      -308.0553
   6   2.0000     -11.262554      -306.4697
   7   2.0000     -11.261154      -306.4316
   8   2.0000     -11.249851      -306.1240
   9   2.0000      -1.408626       -38.3307
  10   2.0000      -1.403362       -38.1874
  11   2.0000      -1.393282       -37.9131
  12   2.0000      -1.112116       -30.2622
  13   2.0000      -1.050488       -28.5852
  14   2.0000      -0.942676       -25.6515
  15   2.0000      -0.871722       -23.7208
  16   2.0000      -0.817029       -22.2325
  17   2.0000      -0.793680       -21.5971
  18   2.0000      -0.710983       -19.3468
  19   2.0000      -0.695835       -18.9346
  20   2.0000      -0.673330       -18.3222
  21   2.0000      -0.654966       -17.8225
  22   2.0000      -0.647988       -17.6327
  23   2.0000      -0.637428       -17.3453
  24   2.0000      -0.620264       -16.8782
  25   2.0000      -0.591188       -16.0871
  26   2.0000      -0.571139       -15.5415
  27   2.0000      -0.555353       -15.1119
  28   2.0000      -0.539027       -14.6677
  29   2.0000      -0.528425       -14.3792
  30   2.0000      -0.514374       -13.9968
  31   2.0000      -0.503952       -13.7132
  32   2.0000      -0.475339       -12.9346
  33   2.0000      -0.437531       -11.9058
  34   2.0000      -0.414348       -11.2750
  35   0.0000       0.113382         3.0853
  36   0.0000       0.118804         3.2328
  37   0.0000       0.134261         3.6534
  38   0.0000       0.139531         3.7968
  39   0.0000       0.159387         4.3371

MULLIKEN ATOMIC CHARGES
-----------------------
   0 C :   -0.495539
   1 C :    0.082328
   2 C :    0.069237
   3 O :   -0.259603
   4 C :   -0.032972
   5 O :   -0.466771
   6 C :   -0.179126
   7 C :    0.106631
   8 O :   -0.257771
   9 H :    0.159984
  10 H :    0.149526
  11 H :    0.140299
  12 H :    0.096164
  13 H :    0.099663
  14 H :    0.121079
  15 H :    0.326258
  16 H :    0.121737
  17 H :    0.140771
  18 H :    0.078105
Sum of atomic charges:   -0.0000000

LOEWDIN ATOMIC CHARGES
----------------------
   0 C :   -0.288934
   1 C :   -0.264865
   2 C :   -0.270047
   3 O :    0.135900
   4 C :   -0.324934
   5 O :   -0.002674
   6 C :   -0.250634
   7 C :   -0.292068
   8 O :    0.136822
   9 H :    0.134308
  10 H :    0.126488
  11 H :    0.126382
  12 H :    0.161871
  13 H :    0.119853
  14 H :    0.154403
  15 H :    0.180081
  16 H :    0.146079
  17 H :    0.158564
  18 H :    0.113404

  Mayer bond orders larger than 0.1
B(  0-C ,  1-C ) :   0.8659 B(  0-C ,  9-H ) :   0.9334 B(  0-C , 10-H ) :   0.9325
B(  0-C , 11-H ) :   0.9321 B(  1-C ,  2-C ) :   0.8495 B(  1-C ,  4-C ) :   0.8827
B(  1-C , 12-H ) :   0.9004 B(  2-C ,  3-O ) :   1.9954 B(  2-C , 13-H ) :   0.9321
B(  4-C ,  5-O ) :   0.9061 B(  4-C ,  6-C ) :   0.9254 B(  4-C , 14-H ) :   0.9261
B(  5-O , 15-H ) :   0.8364 B(  6-C ,  7-C ) :   0.8697 B(  6-C , 16-H ) :   0.8942
B(  6-C , 17-H ) :   0.9093 B(  7-C ,  8-O ) :   2.0036 B(  7-C , 18-H ) :   0.9376

MP2 TOTAL ENERGY:     -459.439475013 Eh
FINAL SINGLE POINT ENERGY      -459.439475012575

DIPOLE MOMENT
-------------
                                X             Y             Z
Electronic contribution:     -2.22221      -3.68863       1.03803
Nuclear contribution   :      2.41886       4.20692      -1.44608
                        -----------------------------------------
Total Dipole Moment    :      0.19666       0.51829      -0.40805
                        -----------------------------------------
Magnitude (a.u.)       :      0.68833
Magnitude (Debye)      :      1.74961

                             ****ORCA TERMINATED NORMALLY****
TOTAL RUN TIME: 0 days 0 hours 16 minutes 46 seconds 24 msec
