                         Program Version 3.0.3 - RELEASE   -
|  1> ! RI-MP2 RIJK def2-TZVP def2-TZVP/C def2-TZVP/JK TIGHTSCF
|  2> % maxcore 2000
|  3> % mp2 density relaxed end
|  4> *xyz 0 1
|  5>  C        0.2191418764     1.5235050056    -0.2345198164
|  6>  C       -0.1295887709     0.0635263379     0.1037716335
|  7>  C        0.6391722304    -0.4840338086     1.2700212421
|  8>  C        0.1265580003    -0.7928225328     2.5095279102
|  9>  N       -1.1648525140    -0.7377115307     3.0857234219
| 10>  N        1.1771728580    -1.2526630614     3.2959442753
| 11>  C        2.3265649460    -1.2353917755     2.5692809075
| 12>  O        3.4671904739    -1.6590361435     3.1759263872
| 13>  C        2.0482344564    -0.7663485963     1.3087849830
| 14>  H        1.2827600767     1.6281173020    -0.4710533618
| 15>  H       -0.3551904171     1.8788502259    -1.0967874471
| 16>  H        0.0063705784     2.1825829686     0.6134167568
| 17>  H       -1.2026911866    -0.0100504267     0.3189770239
| 18>  H        0.0455419353    -0.5571913896    -0.7850763443
| 19>  H       -1.5557716687     0.1976853255     3.0646540306
| 20>  H       -1.8225681844    -1.3529560037     2.6182966902
| 21>  H        1.0864146759    -1.5508293957     4.2517550054
| 22>  H        4.1865979446    -1.5833144484     2.5421712322
| 23>  H        2.7574906394    -0.6423589627     0.5037163098
| 24> *
| 25>
| 26>                          ****END OF INPUT****

CARTESIAN COORDINATES (ANGSTROEM)
---------------------------------
  C      0.219142    1.523505   -0.234520
  C     -0.129589    0.063526    0.103772
  C      0.639172   -0.484034    1.270021
  C      0.126558   -0.792823    2.509528
  N     -1.164853   -0.737712    3.085723
  N      1.177173   -1.252663    3.295944
  C      2.326565   -1.235392    2.569281
  O      3.467190   -1.659036    3.175926
  C      2.048234   -0.766349    1.308785
  H      1.282760    1.628117   -0.471053
  H     -0.355190    1.878850   -1.096787
  H      0.006371    2.182583    0.613417
  H     -1.202691   -0.010050    0.318977
  H      0.045542   -0.557191   -0.785076
  H     -1.555772    0.197685    3.064654
  H     -1.822568   -1.352956    2.618297
  H      1.086415   -1.550829    4.251755
  H      4.186598   -1.583314    2.542171
  H      2.757491   -0.642359    0.503716

 Total Charge           Charge          ....    0
 Multiplicity           Mult            ....    1
 Number of Electrons    NEL             ....   68
 Basis Dimension        Dim             ....  339

ORBITAL ENERGIES
----------------

  NO   OCC          E(Eh)            E(eV)
   0   2.0000     -20.593678      -560.3825
   1   2.0000     -15.587070      -424.1457
   2   2.0000     -15.554527      -423.2602
   3   2.0000     -11.313843      -307.8653
   4   2.0000     -11.266236      -306.5699
   5   2.0000     -11.220963      -305.3379
   6   2.0000     -11.209380      -305.0227
   7   2.0000     -11.207771      -304.9790
   8   2.0000     -11.195044      -304.6326
   9   2.0000      -1.414510       -38.4908
  10   2.0000      -1.284049       -34.9408
  11   2.0000      -1.173607       -31.9355
  12   2.0000      -1.069683       -29.1076
  13   2.0000      -1.000598       -27.2277
  14   2.0000      -0.935617       -25.4594
  15   2.0000      -0.853940       -23.2369
  16   2.0000      -0.800475       -21.7820
  17   2.0000      -0.744163       -20.2497
  18   2.0000      -0.736819       -20.0499
  19   2.0000      -0.666458       -18.1352
  20   2.0000      -0.655342       -17.8327
  21   2.0000      -0.617150       -16.7935
  22   2.0000      -0.610543       -16.6137
  23   2.0000      -0.606529       -16.5045
  24   2.0000      -0.588114       -16.0034
  25   2.0000      -0.564300       -15.3554
  26   2.0000      -0.539238       -14.6734
  27   2.0000      -0.522883       -14.2284
  28   2.0000      -0.500475       -13.6186
  29   2.0000      -0.485747       -13.2178
  30   2.0000      -0.473984       -12.8978
  31   2.0000      -0.418742       -11.3946
  32   2.0000      -0.337319        -9.1789
  33   2.0000      -0.270592        -7.3632
  34   0.0000       0.124746         3.3945
  35   0.0000       0.138404         3.7662
  36   0.0000       0.156401         4.2559
  37   0.0000       0.172717         4.6999
  38   0.0000       0.181508         4.9391

MULLIKEN ATOMIC CHARGES
-----------------------
   0 C :   -0.359912
   1 C :   -0.267002
   2 C :    0.075009
   3 C :    0.058778
   4 N :   -0.551880
   5 N :   -0.249302
   6 C :    0.269019
   7 O :   -0.440180
   8 C :   -0.321686
   9 H :    0.122016
  10 H :    0.122882
  11 H :    0.116739
  12 H :    0.096698
  13 H :    0.119548
  14 H :    0.248867
  15 H :    0.248465
  16 H :    0.245382
  17 H :    0.340524
  18 H :    0.126034
Sum of atomic charges:   -0.0000000

LOEWDIN ATOMIC CHARGES
----------------------
   0 C :   -0.311574
   1 C :   -0.259560
   2 C :   -0.185584
   3 C :   -0.317293
   4 N :   -0.123947
   5 N :    0.211072
   6 C :   -0.368821
   7 O :    0.054038
   8 C :   -0.190020
   9 H :    0.120161
  10 H :    0.116832
  11 H :    0.119474
  12 H :    0.136350
  13 H :    0.141713
  14 H :    0.163933
  15 H :    0.163749
  16 H :    0.194713
  17 H :    0.198451
  18 H :    0.136312

  Mayer bond orders larger than 0.1
B(  0-C ,  1-C ) :   0.9222 B(  0-C ,  9-H ) :   0.9401 B(  0-C , 10-H ) :   0.9360
B(  0-C , 11-H ) :   0.9374 B(  1-C ,  2-C ) :   0.8690 B(  1-C , 12-H ) :   0.9520
B(  1-C , 13-H ) :   0.9385 B(  2-C ,  3-C ) :   1.4858 B(  2-C ,  8-C ) :   1.1585
B(  3-C ,  4-N ) :   1.0697 B(  3-C ,  5-N ) :   1.0991 B(  4-N , 14-H ) :   0.8920
B(  4-N , 15-H ) :   0.8910 B(  5-N ,  6-C ) :   1.1486 B(  5-N , 16-H ) :   0.8614
B(  6-C ,  7-O ) :   1.1018 B(  6-C ,  8-C ) :   1.4795 B(  7-O , 17-H ) :   0.8317
B(  8-C , 18-H ) :   0.9087

MP2 TOTAL ENERGY:     -418.535912003 Eh
FINAL SINGLE POINT ENERGY      -418.535912003231

DIPOLE MOMENT
-------------
                                X             Y             Z
Electronic contribution:      4.89734      -5.65268       6.92014
Nuclear contribution   :     -4.96008       5.70220      -7.13743
                        -----------------------------------------
Total Dipole Moment    :     -0.06274       0.04952      -0.21729
                        -----------------------------------------
Magnitude (a.u.)       :      0.23153
Magnitude (Debye)      :      0.58849

                             ****ORCA TERMINATED NORMALLY****
TOTAL RUN TIME: 0 days 0 hours 17 minutes 13 seconds 538 msec
