                         Program Version 3.0.3 - RELEASE   -
|  1> ! RI-MP2 RIJK def2-TZVP def2-TZVP/C def2-TZVP/JK TIGHTSCF
|  2> % maxcore 2000
|  3> % mp2 density relaxed end
|  4> *xyz 0 1
|  5>  O        0.2065530356     1.2148943958    -0.2643376430
|  6>  C        0.0224875528    -0.1260395044     0.0882197042
|  7>  C       -1.4435087864    -0.5091137636    -0.0060538434
|  8>  O       -2.2998620931     0.2734118067    -0.3434331910
|  9>  O       -1.6530588581    -1.7867879486     0.3371858835
| 10>  C       -2.9955533188    -2.2504592644     0.2712386684
| 11>  C       -3.3583185440    -3.1644169095    -0.8585534053
| 12>  C       -3.1745905508    -3.7051520948     0.5470386386
| 13>  H       -0.6765406805     1.5505334497    -0.4794677884
| 14>  H        0.5957671990    -0.7974535726    -0.5689052814
| 15>  H        0.3649214187    -0.3234625012     1.1150911055
| 16>  H       -3.7121433179    -1.5214244593     0.6269823630
| 17>  H       -4.3571098207    -3.0910656499    -1.2731311764
| 18>  H       -2.5796899998    -3.3889271056    -1.5783425201
| 19>  H       -2.2765241881    -4.2800487587     0.7414848509
| 20>  H       -4.0451791380    -4.0146189796     1.1136104248
| 21> *
| 22>
| 23>                          ****END OF INPUT****

CARTESIAN COORDINATES (ANGSTROEM)
---------------------------------
  O      0.206553    1.214894   -0.264338
  C      0.022488   -0.126040    0.088220
  C     -1.443509   -0.509114   -0.006054
  O     -2.299862    0.273412   -0.343433
  O     -1.653059   -1.786788    0.337186
  C     -2.995553   -2.250459    0.271239
  C     -3.358319   -3.164417   -0.858553
  C     -3.174591   -3.705152    0.547039
  H     -0.676541    1.550533   -0.479468
  H      0.595767   -0.797454   -0.568905
  H      0.364921   -0.323463    1.115091
  H     -3.712143   -1.521424    0.626982
  H     -4.357110   -3.091066   -1.273131
  H     -2.579690   -3.388927   -1.578343
  H     -2.276524   -4.280049    0.741485
  H     -4.045179   -4.014619    1.113610

 Total Charge           Charge          ....    0
 Multiplicity           Mult            ....    1
 Number of Electrons    NEL             ....   62
 Basis Dimension        Dim             ....  296

ORBITAL ENERGIES
----------------

  NO   OCC          E(Eh)            E(eV)
   0   2.0000     -20.622038      -561.1542
   1   2.0000     -20.561797      -559.5149
   2   2.0000     -20.559852      -559.4620
   3   2.0000     -11.394234      -310.0529
   4   2.0000     -11.305790      -307.6462
   5   2.0000     -11.300216      -307.4945
   6   2.0000     -11.243675      -305.9560
   7   2.0000     -11.242403      -305.9213
   8   2.0000      -1.482225       -40.3334
   9   2.0000      -1.391312       -37.8595
  10   2.0000      -1.362661       -37.0799
  11   2.0000      -1.156868       -31.4800
  12   2.0000      -0.997623       -27.1467
  13   2.0000      -0.867633       -23.6095
  14   2.0000      -0.845634       -23.0109
  15   2.0000      -0.787799       -21.4371
  16   2.0000      -0.750568       -20.4240
  17   2.0000      -0.707409       -19.2496
  18   2.0000      -0.689882       -18.7727
  19   2.0000      -0.663059       -18.0428
  20   2.0000      -0.643531       -17.5114
  21   2.0000      -0.613923       -16.7057
  22   2.0000      -0.611498       -16.6397
  23   2.0000      -0.572243       -15.5715
  24   2.0000      -0.535987       -14.5850
  25   2.0000      -0.529493       -14.4082
  26   2.0000      -0.509945       -13.8763
  27   2.0000      -0.471550       -12.8315
  28   2.0000      -0.459876       -12.5139
  29   2.0000      -0.444435       -12.0937
  30   2.0000      -0.423524       -11.5247
  31   0.0000       0.143553         3.9063
  32   0.0000       0.154843         4.2135
  33   0.0000       0.164140         4.4665
  34   0.0000       0.165377         4.5001
  35   0.0000       0.172477         4.6933

MULLIKEN ATOMIC CHARGES
-----------------------
   0 O :   -0.483170
   1 C :   -0.006543
   2 C :    0.289457
   3 O :   -0.359174
   4 O :   -0.239726
   5 C :    0.012871
   6 C :   -0.256646
   7 C :   -0.239491
   8 H :    0.338284
   9 H :    0.122310
  10 H :    0.124370
  11 H :    0.138037
  12 H :    0.138481
  13 H :    0.139361
  14 H :    0.142253
  15 H :    0.139327
Sum of atomic charges:    0.0000000

LOEWDIN ATOMIC CHARGES
----------------------
   0 O :   -0.035227
   1 C :   -0.324800
   2 C :   -0.482557
   3 O :    0.113596
   4 O :    0.291511
   5 C :   -0.271101
   6 C :   -0.221226
   7 C :   -0.221594
   8 H :    0.183542
   9 H :    0.136572
  10 H :    0.137142
  11 H :    0.143901
  12 H :    0.135388
  13 H :    0.139109
  14 H :    0.140540
  15 H :    0.135206

  Mayer bond orders larger than 0.1
B(  0-O ,  1-C ) :   1.0155 B(  0-O ,  8-H ) :   0.8101 B(  1-C ,  2-C ) :   0.9628
B(  1-C ,  9-H ) :   0.9091 B(  1-C , 10-H ) :   0.9095 B(  2-C ,  3-O ) :   1.8470
B(  2-C ,  4-O ) :   1.1161 B(  4-O ,  5-C ) :   0.8584 B(  5-C ,  6-C ) :   0.9118
B(  5-C ,  7-C ) :   0.8860 B(  5-C , 11-H ) :   0.9325 B(  6-C ,  7-C ) :   0.9038
B(  6-C , 12-H ) :   0.9228 B(  6-C , 13-H ) :   0.9240 B(  7-C , 14-H ) :   0.9183
B(  7-C , 15-H ) :   0.9249

MP2 TOTAL ENERGY:     -420.219341280 Eh
FINAL SINGLE POINT ENERGY      -420.219341279552

DIPOLE MOMENT
-------------
                                X             Y             Z
Electronic contribution:      1.68016       4.82374       0.19720
Nuclear contribution   :     -2.16856      -5.92131      -0.01937
                        -----------------------------------------
Total Dipole Moment    :     -0.48840      -1.09757       0.17783
                        -----------------------------------------
Magnitude (a.u.)       :      1.21442
Magnitude (Debye)      :      3.08681

                             ****ORCA TERMINATED NORMALLY****
TOTAL RUN TIME: 0 days 0 hours 9 minutes 28 seconds 463 msec
