                         Program Version 3.0.3 - RELEASE   -
|  1> ! RI-MP2 RIJK def2-TZVP def2-TZVP/C def2-TZVP/JK TIGHTSCF
|  2> % maxcore 2000
|  3> % mp2 density relaxed end
|  4> *xyz 0 1
|  5>  O        0.0549411258     0.0803088512    -0.5931714103
|  6>  C        0.1377873589     1.0269326241     0.1441785738
|  7>  C        1.2920972758     1.9617436237     0.1815267753
|  8>  C        1.6795994956     3.0017270289     1.2473227648
|  9>  C        2.0912935773     3.9270809094     0.0610931731
| 10>  O        2.3766232232     5.0803955959    -0.0276407737
| 11>  C        1.7546956447     2.8363830323    -0.9586665929
| 12>  O        2.4722454132     1.6738310529    -0.5472537545
| 13>  H       -0.6661652280     1.2906711612     0.8657251837
| 14>  H        0.8430924098     3.4413402951     1.7986630395
| 15>  H        2.4623688113     2.6840597894     1.9376719853
| 16>  H        1.4195488025     2.8878654459    -1.9885135040
| 17> *
| 18>
| 19>                          ****END OF INPUT****

CARTESIAN COORDINATES (ANGSTROEM)
---------------------------------
  O      0.054941    0.080309   -0.593171
  C      0.137787    1.026933    0.144179
  C      1.292097    1.961744    0.181527
  C      1.679599    3.001727    1.247323
  C      2.091294    3.927081    0.061093
  O      2.376623    5.080396   -0.027641
  C      1.754696    2.836383   -0.958667
  O      2.472245    1.673831   -0.547254
  H     -0.666165    1.290671    0.865725
  H      0.843092    3.441340    1.798663
  H      2.462369    2.684060    1.937672
  H      1.419549    2.887865   -1.988514

 Total Charge           Charge          ....    0
 Multiplicity           Mult            ....    1
 Number of Electrons    NEL             ....   58
 Basis Dimension        Dim             ....  272

ORBITAL ENERGIES
----------------

  NO   OCC          E(Eh)            E(eV)
   0   2.0000     -20.623518      -561.1945
   1   2.0000     -20.585508      -560.1602
   2   2.0000     -20.584897      -560.1435
   3   2.0000     -11.370572      -309.4090
   4   2.0000     -11.365178      -309.2622
   5   2.0000     -11.340978      -308.6037
   6   2.0000     -11.337496      -308.5089
   7   2.0000     -11.282131      -307.0024
   8   2.0000      -1.480437       -40.2847
   9   2.0000      -1.427835       -38.8534
  10   2.0000      -1.419557       -38.6281
  11   2.0000      -1.116259       -30.3750
  12   2.0000      -0.978487       -26.6260
  13   2.0000      -0.944133       -25.6912
  14   2.0000      -0.807008       -21.9598
  15   2.0000      -0.783547       -21.3214
  16   2.0000      -0.735597       -20.0166
  17   2.0000      -0.693970       -18.8839
  18   2.0000      -0.678599       -18.4656
  19   2.0000      -0.661952       -18.0126
  20   2.0000      -0.631357       -17.1801
  21   2.0000      -0.621755       -16.9188
  22   2.0000      -0.583841       -15.8871
  23   2.0000      -0.565471       -15.3872
  24   2.0000      -0.538828       -14.6622
  25   2.0000      -0.531013       -14.4496
  26   2.0000      -0.463445       -12.6110
  27   2.0000      -0.443480       -12.0677
  28   2.0000      -0.424095       -11.5402
  29   0.0000       0.075784         2.0622
  30   0.0000       0.117512         3.1977
  31   0.0000       0.131523         3.5789
  32   0.0000       0.165557         4.5050
  33   0.0000       0.167377         4.5546

MULLIKEN ATOMIC CHARGES
-----------------------
   0 O :   -0.238854
   1 C :    0.041047
   2 C :    0.182597
   3 C :   -0.206642
   4 C :    0.172128
   5 O :   -0.227991
   6 C :   -0.010706
   7 O :   -0.272185
   8 H :    0.091814
   9 H :    0.148608
  10 H :    0.152844
  11 H :    0.167340
Sum of atomic charges:   -0.0000000

LOEWDIN ATOMIC CHARGES
----------------------
   0 O :    0.161308
   1 C :   -0.271390
   2 C :   -0.278333
   3 C :   -0.163136
   4 C :   -0.290287
   5 O :    0.188390
   6 C :   -0.160708
   7 O :    0.248323
   8 H :    0.121307
   9 H :    0.152945
  10 H :    0.147952
  11 H :    0.143629

  Mayer bond orders larger than 0.1
B(  0-O ,  1-C ) :   2.0297 B(  1-C ,  2-C ) :   0.8273 B(  1-C ,  8-H ) :   0.9578
B(  2-C ,  3-C ) :   0.9071 B(  2-C ,  6-C ) :   0.8504 B(  2-C ,  7-O ) :   0.9087
B(  3-C ,  4-C ) :   0.9193 B(  3-C ,  9-H ) :   0.9033 B(  3-C , 10-H ) :   0.8824
B(  4-C ,  5-O ) :   2.0301 B(  4-C ,  6-C ) :   0.8526 B(  6-C ,  7-O ) :   0.8898
B(  6-C , 11-H ) :   0.9034

MP2 TOTAL ENERGY:     -417.772783187 Eh
FINAL SINGLE POINT ENERGY      -417.772783186717

DIPOLE MOMENT
-------------
                                X             Y             Z
Electronic contribution:      1.17671      -0.23960      -2.04976
Nuclear contribution   :     -1.74619       0.52231       2.70370
                        -----------------------------------------
Total Dipole Moment    :     -0.56947       0.28271       0.65394
                        -----------------------------------------
Magnitude (a.u.)       :      0.91206
Magnitude (Debye)      :      2.31828

                             ****ORCA TERMINATED NORMALLY****
TOTAL RUN TIME: 0 days 0 hours 9 minutes 14 seconds 539 msec
