                         Program Version 3.0.3 - RELEASE   -
|  1> ! RI-MP2 RIJK def2-TZVP def2-TZVP/C def2-TZVP/JK TIGHTSCF
|  2> % maxcore 2000
|  3> % mp2 density relaxed end
|  4> *xyz 0 1
|  5>  O        0.0077340223    -0.0499316371    -0.0848074933
|  6>  C       -0.0189219180     1.1555107936     0.0016370086
|  7>  C       -1.3017972177     1.9735382882     0.0346600072
|  8>  O       -1.4283974576     2.8005488676     1.1856603019
|  9>  C       -0.8126636186     4.0224687637     1.2170570121
| 10>  O       -1.2649860024     4.8809393179     1.9277117097
| 11>  C        0.4253205384     4.2081089368     0.4429626606
| 12>  C        1.2945607179     3.2727393769     0.0186603922
| 13>  N        1.1530744935     1.8995394076     0.0067391125
| 14>  H       -1.3726054180     2.5720027436    -0.8835548444
| 15>  H       -2.1317449624     1.2688461070     0.0685206576
| 16>  H        0.7365535475     5.2426974437     0.3769935408
| 17>  H        2.2574293054     3.5971172051    -0.3646715463
| 18>  H        1.9820427196     1.3400137653    -0.1400503193
| 19> *
| 20>
| 21>                          ****END OF INPUT****

CARTESIAN COORDINATES (ANGSTROEM)
---------------------------------
  O      0.007734   -0.049932   -0.084807
  C     -0.018922    1.155511    0.001637
  C     -1.301797    1.973538    0.034660
  O     -1.428397    2.800549    1.185660
  C     -0.812664    4.022469    1.217057
  O     -1.264986    4.880939    1.927712
  C      0.425321    4.208109    0.442963
  C      1.294561    3.272739    0.018660
  N      1.153074    1.899539    0.006739
  H     -1.372605    2.572003   -0.883555
  H     -2.131745    1.268846    0.068521
  H      0.736554    5.242697    0.376994
  H      2.257429    3.597117   -0.364672
  H      1.982043    1.340014   -0.140050

 Total Charge           Charge          ....    0
 Multiplicity           Mult            ....    1
 Number of Electrons    NEL             ....   66
 Basis Dimension        Dim             ....  309

ORBITAL ENERGIES
----------------

  NO   OCC          E(Eh)            E(eV)
   0   2.0000     -20.617284      -561.0248
   1   2.0000     -20.564623      -559.5918
   2   2.0000     -20.547088      -559.1147
   3   2.0000     -15.639273      -425.5663
   4   2.0000     -11.393981      -310.0460
   5   2.0000     -11.390624      -309.9546
   6   2.0000     -11.340220      -308.5831
   7   2.0000     -11.328903      -308.2751
   8   2.0000     -11.261386      -306.4379
   9   2.0000      -1.469435       -39.9854
  10   2.0000      -1.428434       -38.8697
  11   2.0000      -1.372358       -37.3438
  12   2.0000      -1.294292       -35.2195
  13   2.0000      -1.088226       -29.6121
  14   2.0000      -1.028026       -27.9740
  15   2.0000      -0.934607       -25.4319
  16   2.0000      -0.827425       -22.5154
  17   2.0000      -0.813701       -22.1419
  18   2.0000      -0.756464       -20.5844
  19   2.0000      -0.728935       -19.8353
  20   2.0000      -0.679717       -18.4960
  21   2.0000      -0.675069       -18.3696
  22   2.0000      -0.660387       -17.9701
  23   2.0000      -0.641185       -17.4475
  24   2.0000      -0.615149       -16.7391
  25   2.0000      -0.601215       -16.3599
  26   2.0000      -0.582785       -15.8584
  27   2.0000      -0.534792       -14.5524
  28   2.0000      -0.511712       -13.9244
  29   2.0000      -0.497668       -13.5422
  30   2.0000      -0.465561       -12.6685
  31   2.0000      -0.449153       -12.2221
  32   2.0000      -0.372542       -10.1374
  33   0.0000       0.074525         2.0279
  34   0.0000       0.111733         3.0404
  35   0.0000       0.132684         3.6105
  36   0.0000       0.153925         4.1885
  37   0.0000       0.163560         4.4507

MULLIKEN ATOMIC CHARGES
-----------------------
   0 O :   -0.299410
   1 C :    0.214551
   2 C :   -0.071683
   3 O :   -0.226817
   4 C :    0.307639
   5 O :   -0.281931
   6 C :   -0.287705
   7 C :    0.029741
   8 N :   -0.272534
   9 H :    0.150076
  10 H :    0.166264
  11 H :    0.160317
  12 H :    0.153946
  13 H :    0.257547
Sum of atomic charges:    0.0000000

LOEWDIN ATOMIC CHARGES
----------------------
   0 O :    0.129146
   1 C :   -0.424897
   2 C :   -0.251107
   3 O :    0.257990
   4 C :   -0.473329
   5 O :    0.150243
   6 C :   -0.173699
   7 C :   -0.193138
   8 N :    0.155811
   9 H :    0.145316
  10 H :    0.151431
  11 H :    0.166234
  12 H :    0.153515
  13 H :    0.206483

  Mayer bond orders larger than 0.1
B(  0-O ,  1-C ) :   1.9972 B(  1-C ,  2-C ) :   0.9153 B(  1-C ,  8-N ) :   1.0701
B(  2-C ,  3-O ) :   0.8387 B(  2-C ,  9-H ) :   0.9106 B(  2-C , 10-H ) :   0.9226
B(  3-O ,  4-C ) :   1.0774 B(  4-C ,  5-O ) :   1.9885 B(  4-C ,  6-C ) :   1.0152
B(  6-C ,  7-C ) :   1.6290 B(  6-C , 11-H ) :   0.9115 B(  7-C ,  8-N ) :   1.0570
B(  7-C , 12-H ) :   0.9135 B(  8-N , 13-H ) :   0.8551

MP2 TOTAL ENERGY:     -473.126535842 Eh
FINAL SINGLE POINT ENERGY      -473.126535842185

DIPOLE MOMENT
-------------
                                X             Y             Z
Electronic contribution:     -1.18314      -0.61204       2.10747
Nuclear contribution   :      2.47749       0.64802      -3.38337
                        -----------------------------------------
Total Dipole Moment    :      1.29435       0.03598      -1.27589
                        -----------------------------------------
Magnitude (a.u.)       :      1.81784
Magnitude (Debye)      :      4.62059

                             ****ORCA TERMINATED NORMALLY****
TOTAL RUN TIME: 0 days 0 hours 13 minutes 30 seconds 44 msec
