                         Program Version 3.0.3 - RELEASE   -
|  1> ! RI-MP2 RIJK def2-TZVP def2-TZVP/C def2-TZVP/JK TIGHTSCF
|  2> % maxcore 2000
|  3> % mp2 density relaxed end
|  4> *xyz 0 1
|  5>  C       -0.0274684085     1.5067270747    -0.0504932945
|  6>  C        1.3578483161     2.1642700692     0.0068507990
|  7>  C        2.0991574177     2.0427956995     1.3089572545
|  8>  C        2.0116003056     1.0725843617     2.2310951521
|  9>  C        1.2246706877    -0.1588085217     2.2320544613
| 10>  C        0.3803735632    -0.6468493778     1.3110268799
| 11>  C       -0.0421049319    -0.0265911492     0.0085018155
| 12>  H       -0.6432794633     1.9008417430     0.7662906308
| 13>  H       -0.5124850908     1.8159522214    -0.9837752590
| 14>  H        1.9865419896     1.7719357671    -0.8073336755
| 15>  H        1.2416594228     3.2322990860    -0.2189198311
| 16>  H        2.7923026841     2.8556780832     1.5171024492
| 17>  H        2.6383888381     1.1907712810     3.1128543651
| 18>  H        1.3812953827    -0.7762683845     3.1144054523
| 19>  H       -0.0660204573    -1.6170965799     1.5205604603
| 20>  H       -1.0602500789    -0.3701172210    -0.2162787534
| 21>  H        0.5775693433    -0.4331430128    -0.8056215863
| 22> *
| 23>
| 24>                          ****END OF INPUT****

CARTESIAN COORDINATES (ANGSTROEM)
---------------------------------
  C     -0.027468    1.506727   -0.050493
  C      1.357848    2.164270    0.006851
  C      2.099157    2.042796    1.308957
  C      2.011600    1.072584    2.231095
  C      1.224671   -0.158809    2.232054
  C      0.380374   -0.646849    1.311027
  C     -0.042105   -0.026591    0.008502
  H     -0.643279    1.900842    0.766291
  H     -0.512485    1.815952   -0.983775
  H      1.986542    1.771936   -0.807334
  H      1.241659    3.232299   -0.218920
  H      2.792303    2.855678    1.517102
  H      2.638389    1.190771    3.112854
  H      1.381295   -0.776268    3.114405
  H     -0.066020   -1.617097    1.520560
  H     -1.060250   -0.370117   -0.216279
  H      0.577569   -0.433143   -0.805622

 Total Charge           Charge          ....    0
 Multiplicity           Mult            ....    1
 Number of Electrons    NEL             ....   52
 Basis Dimension        Dim             ....  277

ORBITAL ENERGIES
----------------

  NO   OCC          E(Eh)            E(eV)
   0   2.0000     -11.227457      -305.5146
   1   2.0000     -11.227450      -305.5144
   2   2.0000     -11.225429      -305.4595
   3   2.0000     -11.225392      -305.4584
   4   2.0000     -11.222684      -305.3848
   5   2.0000     -11.221884      -305.3630
   6   2.0000     -11.221769      -305.3599
   7   2.0000      -1.114122       -30.3168
   8   2.0000      -1.034437       -28.1485
   9   2.0000      -1.031761       -28.0756
  10   2.0000      -0.901856       -24.5407
  11   2.0000      -0.866125       -23.5685
  12   2.0000      -0.755507       -20.5584
  13   2.0000      -0.679664       -18.4946
  14   2.0000      -0.676176       -18.3997
  15   2.0000      -0.629007       -17.1161
  16   2.0000      -0.593327       -16.1452
  17   2.0000      -0.576954       -15.6997
  18   2.0000      -0.566586       -15.4176
  19   2.0000      -0.532412       -14.4877
  20   2.0000      -0.496006       -13.4970
  21   2.0000      -0.487472       -13.2648
  22   2.0000      -0.462780       -12.5929
  23   2.0000      -0.452885       -12.3236
  24   2.0000      -0.415184       -11.2977
  25   2.0000      -0.302902        -8.2424
  26   0.0000       0.105041         2.8583
  27   0.0000       0.137623         3.7449
  28   0.0000       0.165748         4.5102
  29   0.0000       0.173823         4.7300
  30   0.0000       0.182209         4.9582

MULLIKEN ATOMIC CHARGES
-----------------------
   0 C :   -0.208521
   1 C :   -0.158684
   2 C :   -0.190827
   3 C :   -0.142590
   4 C :   -0.142585
   5 C :   -0.190828
   6 C :   -0.158685
   7 H :    0.121900
   8 H :    0.119424
   9 H :    0.117474
  10 H :    0.125359
  11 H :    0.116853
  12 H :    0.116010
  13 H :    0.116010
  14 H :    0.116854
  15 H :    0.125359
  16 H :    0.117475
Sum of atomic charges:    0.0000000

LOEWDIN ATOMIC CHARGES
----------------------
   0 C :   -0.256654
   1 C :   -0.259432
   2 C :   -0.163807
   3 C :   -0.178139
   4 C :   -0.178140
   5 C :   -0.163808
   6 C :   -0.259429
   7 H :    0.144534
   8 H :    0.139083
   9 H :    0.148249
  10 H :    0.146178
  11 H :    0.144039
  12 H :    0.149431
  13 H :    0.149431
  14 H :    0.144038
  15 H :    0.146177
  16 H :    0.148249

  Mayer bond orders larger than 0.1
B(  0-C ,  1-C ) :   0.9204 B(  0-C ,  6-C ) :   0.9204 B(  0-C ,  7-H ) :   0.9327
B(  0-C ,  8-H ) :   0.9340 B(  1-C ,  2-C ) :   0.9424 B(  1-C ,  9-H ) :   0.9114
B(  1-C , 10-H ) :   0.9272 B(  2-C ,  3-C ) :   1.7455 B(  2-C , 11-H ) :   0.9270
B(  3-C ,  4-C ) :   1.0162 B(  3-C , 12-H ) :   0.9276 B(  4-C ,  5-C ) :   1.7455
B(  4-C , 13-H ) :   0.9276 B(  5-C ,  6-C ) :   0.9424 B(  5-C , 14-H ) :   0.9270
B(  6-C , 15-H ) :   0.9272 B(  6-C , 16-H ) :   0.9114

MP2 TOTAL ENERGY:     -272.078528211 Eh
FINAL SINGLE POINT ENERGY      -272.078528211357

DIPOLE MOMENT
-------------
                                X             Y             Z
Electronic contribution:      1.29756      -0.82744       2.32014
Nuclear contribution   :     -1.39911       0.89216      -2.57126
                        -----------------------------------------
Total Dipole Moment    :     -0.10155       0.06471      -0.25112
                        -----------------------------------------
Magnitude (a.u.)       :      0.27850
Magnitude (Debye)      :      0.70788

                             ****ORCA TERMINATED NORMALLY****
TOTAL RUN TIME: 0 days 0 hours 8 minutes 38 seconds 517 msec
