                         Program Version 3.0.3 - RELEASE   -
|  1> ! RI-MP2 RIJK def2-TZVP def2-TZVP/C def2-TZVP/JK TIGHTSCF
|  2> % maxcore 2000
|  3> % mp2 density relaxed end
|  4> *xyz 0 1
|  5>  C       -0.0589411586     1.5256422895     0.0108388231
|  6>  C        1.4152428118     1.9125434672    -0.0012031655
|  7>  C        2.2178150704     0.8311597535    -0.0147110167
|  8>  C        1.3969171090    -0.3727841787    -0.0133550577
|  9>  C        1.4445634747    -1.7466545041    -0.0212438095
| 10>  N        0.1356330837    -2.1818396875    -0.0110622709
| 11>  C       -0.7402834203    -1.1126614603     0.0032409922
| 12>  C        0.0229189683     0.0232895287     0.0019647512
| 13>  H       -0.5712568318     1.9280074352     0.8954096993
| 14>  H       -0.5881212889     1.9374956082    -0.8593181820
| 15>  H        1.7447540016     2.9442005380     0.0011964320
| 16>  H        3.3007096259     0.8506653315    -0.0249876792
| 17>  H        2.2610911001    -2.4503568278    -0.0329015566
| 18>  H       -0.1443034843    -3.1467330066    -0.0136199605
| 19>  H       -1.8059040116    -1.2785656068     0.0126008108
| 20> *
| 21>
| 22>                          ****END OF INPUT****

CARTESIAN COORDINATES (ANGSTROEM)
---------------------------------
  C     -0.058941    1.525642    0.010839
  C      1.415243    1.912543   -0.001203
  C      2.217815    0.831160   -0.014711
  C      1.396917   -0.372784   -0.013355
  C      1.444563   -1.746655   -0.021244
  N      0.135633   -2.181840   -0.011062
  C     -0.740283   -1.112661    0.003241
  C      0.022919    0.023290    0.001965
  H     -0.571257    1.928007    0.895410
  H     -0.588121    1.937496   -0.859318
  H      1.744754    2.944201    0.001196
  H      3.300710    0.850665   -0.024988
  H      2.261091   -2.450357   -0.032902
  H     -0.144303   -3.146733   -0.013620
  H     -1.805904   -1.278566    0.012601

 Total Charge           Charge          ....    0
 Multiplicity           Mult            ....    1
 Number of Electrons    NEL             ....   56
 Basis Dimension        Dim             ....  290

ORBITAL ENERGIES
----------------

  NO   OCC          E(Eh)            E(eV)
   0   2.0000     -15.597243      -424.4226
   1   2.0000     -11.249094      -306.1034
   2   2.0000     -11.248770      -306.0946
   3   2.0000     -11.228012      -305.5298
   4   2.0000     -11.224887      -305.4447
   5   2.0000     -11.221227      -305.3451
   6   2.0000     -11.206217      -304.9367
   7   2.0000     -11.204966      -304.9026
   8   2.0000      -1.281926       -34.8830
   9   2.0000      -1.130719       -30.7684
  10   2.0000      -0.992445       -27.0058
  11   2.0000      -0.988498       -26.8984
  12   2.0000      -0.920480       -25.0475
  13   2.0000      -0.806426       -21.9440
  14   2.0000      -0.749116       -20.3845
  15   2.0000      -0.721225       -19.6255
  16   2.0000      -0.695295       -18.9199
  17   2.0000      -0.644736       -17.5442
  18   2.0000      -0.594033       -16.1645
  19   2.0000      -0.578965       -15.7545
  20   2.0000      -0.548255       -14.9188
  21   2.0000      -0.546362       -14.8673
  22   2.0000      -0.537761       -14.6332
  23   2.0000      -0.496814       -13.5190
  24   2.0000      -0.474787       -12.9196
  25   2.0000      -0.403557       -10.9813
  26   2.0000      -0.310977        -8.4621
  27   2.0000      -0.275723        -7.5028
  28   0.0000       0.137207         3.7336
  29   0.0000       0.140982         3.8363
  30   0.0000       0.158600         4.3157
  31   0.0000       0.169588         4.6147
  32   0.0000       0.181321         4.9340

MULLIKEN ATOMIC CHARGES
-----------------------
   0 C :   -0.148090
   1 C :   -0.145333
   2 C :   -0.259850
   3 C :    0.063436
   4 C :   -0.098885
   5 N :   -0.228150
   6 C :   -0.113706
   7 C :   -0.094534
   8 H :    0.125353
   9 H :    0.125359
  10 H :    0.124566
  11 H :    0.121966
  12 H :    0.143429
  13 H :    0.240317
  14 H :    0.144123
Sum of atomic charges:   -0.0000000

LOEWDIN ATOMIC CHARGES
----------------------
   0 C :   -0.200617
   1 C :   -0.147249
   2 C :   -0.124107
   3 C :   -0.156273
   4 C :   -0.214018
   5 N :    0.178084
   6 C :   -0.218528
   7 C :   -0.141446
   8 H :    0.150621
   9 H :    0.150618
  10 H :    0.132393
  11 H :    0.139585
  12 H :    0.131535
  13 H :    0.188023
  14 H :    0.131378

  Mayer bond orders larger than 0.1
B(  0-C ,  1-C ) :   0.9647 B(  0-C ,  7-C ) :   1.0097 B(  0-C ,  8-H ) :   0.8896
B(  0-C ,  9-H ) :   0.8896 B(  1-C ,  2-C ) :   1.7267 B(  1-C , 10-H ) :   0.9322
B(  2-C ,  3-C ) :   1.0213 B(  2-C , 11-H ) :   0.9283 B(  3-C ,  4-C ) :   1.4295
B(  3-C ,  7-C ) :   1.2156 B(  4-C ,  5-N ) :   1.1402 B(  4-C ,  6-C ) :   0.1039
B(  4-C , 12-H ) :   0.9027 B(  5-N ,  6-C ) :   1.1484 B(  5-N , 13-H ) :   0.8781
B(  6-C ,  7-C ) :   1.4717 B(  6-C , 14-H ) :   0.8991

MP2 TOTAL ENERGY:     -324.967089871 Eh
FINAL SINGLE POINT ENERGY      -324.967089871096

DIPOLE MOMENT
-------------
                                X             Y             Z
Electronic contribution:      0.41053      -2.42397      -0.01703
Nuclear contribution   :     -0.72355       1.78892       0.01659
                        -----------------------------------------
Total Dipole Moment    :     -0.31303      -0.63505      -0.00044
                        -----------------------------------------
Magnitude (a.u.)       :      0.70801
Magnitude (Debye)      :      1.79961

                             ****ORCA TERMINATED NORMALLY****
TOTAL RUN TIME: 0 days 0 hours 11 minutes 22 seconds 648 msec
