                         Program Version 3.0.3 - RELEASE   -
|  1> ! RI-MP2 RIJK def2-TZVP def2-TZVP/C def2-TZVP/JK TIGHTSCF
|  2> % maxcore 2000
|  3> % mp2 density relaxed end
|  4> *xyz 0 1
|  5>  C       -0.1779623825     1.3818458000    -0.1551309295
|  6>  C        1.2609991788     0.9972820449     0.0884473252
|  7>  C        0.2051340244    -0.0701466224    -0.0349629158
|  8>  N       -0.1813377953    -0.7690313834     1.1447561866
|  9>  C        0.5478257039    -2.0090861974     1.5103238191
| 10>  C       -0.8014624734    -2.6487855030     1.8403767131
| 11>  C       -1.2048118833    -4.0371553412     2.0311830445
| 12>  O       -1.1441239701    -3.1137213803     3.1306461744
| 13>  C       -1.4928581064    -1.4636997755     1.1648968483
| 14>  H       -0.7249719615     1.8122164942     0.6754005270
| 15>  H       -0.4566198359     1.7590989439    -1.1325882258
| 16>  H        1.9730673134     1.1097608267    -0.7213058170
| 17>  H        1.6619940270     1.1742996236     1.0794513235
| 18>  H        0.2074044715    -0.6510235322    -0.9654765919
| 19>  H        1.0586808592    -2.4912061037     0.6621224690
| 20>  H        1.2517905928    -1.9001942708     2.3417986447
| 21>  H       -2.2063575843    -4.3565216149     1.7445226818
| 22>  H       -0.4524545899    -4.8252649370     2.0414060849
| 23>  H       -2.2717085266    -0.9585151533     1.7453750052
| 24>  H       -1.8839926918    -1.7047569283     0.1640156126
| 25> *
| 26>
| 27>                          ****END OF INPUT****

CARTESIAN COORDINATES (ANGSTROEM)
---------------------------------
  C     -0.177962    1.381846   -0.155131
  C      1.260999    0.997282    0.088447
  C      0.205134   -0.070147   -0.034963
  N     -0.181338   -0.769031    1.144756
  C      0.547826   -2.009086    1.510324
  C     -0.801462   -2.648786    1.840377
  C     -1.204812   -4.037155    2.031183
  O     -1.144124   -3.113721    3.130646
  C     -1.492858   -1.463700    1.164897
  H     -0.724972    1.812216    0.675401
  H     -0.456620    1.759099   -1.132588
  H      1.973067    1.109761   -0.721306
  H      1.661994    1.174300    1.079451
  H      0.207404   -0.651024   -0.965477
  H      1.058681   -2.491206    0.662122
  H      1.251791   -1.900194    2.341799
  H     -2.206358   -4.356522    1.744523
  H     -0.452455   -4.825265    2.041406
  H     -2.271709   -0.958515    1.745375
  H     -1.883993   -1.704757    0.164016

 Total Charge           Charge          ....    0
 Multiplicity           Mult            ....    1
 Number of Electrons    NEL             ....   68
 Basis Dimension        Dim             ....  345

ORBITAL ENERGIES
----------------

  NO   OCC          E(Eh)            E(eV)
   0   2.0000     -20.568550      -559.6987
   1   2.0000     -15.551288      -423.1721
   2   2.0000     -11.293536      -307.3127
   3   2.0000     -11.284051      -307.0546
   4   2.0000     -11.256659      -306.3093
   5   2.0000     -11.256641      -306.3088
   6   2.0000     -11.255963      -306.2903
   7   2.0000     -11.223239      -305.3999
   8   2.0000     -11.222581      -305.3820
   9   2.0000      -1.415382       -38.5145
  10   2.0000      -1.255659       -34.1682
  11   2.0000      -1.130815       -30.7711
  12   2.0000      -0.966586       -26.3021
  13   2.0000      -0.932735       -25.3810
  14   2.0000      -0.908558       -24.7231
  15   2.0000      -0.821739       -22.3607
  16   2.0000      -0.787349       -21.4248
  17   2.0000      -0.750473       -20.4214
  18   2.0000      -0.696879       -18.9630
  19   2.0000      -0.677754       -18.4426
  20   2.0000      -0.665647       -18.1132
  21   2.0000      -0.641386       -17.4530
  22   2.0000      -0.605196       -16.4682
  23   2.0000      -0.564507       -15.3610
  24   2.0000      -0.560617       -15.2552
  25   2.0000      -0.557282       -15.1644
  26   2.0000      -0.512995       -13.9593
  27   2.0000      -0.510376       -13.8880
  28   2.0000      -0.493316       -13.4238
  29   2.0000      -0.446464       -12.1489
  30   2.0000      -0.433049       -11.7839
  31   2.0000      -0.428991       -11.6734
  32   2.0000      -0.405091       -11.0231
  33   2.0000      -0.358195        -9.7470
  34   0.0000       0.143894         3.9155
  35   0.0000       0.160109         4.3568
  36   0.0000       0.163552         4.4505
  37   0.0000       0.166255         4.5240
  38   0.0000       0.181336         4.9344

MULLIKEN ATOMIC CHARGES
-----------------------
   0 C :   -0.239426
   1 C :   -0.239426
   2 C :   -0.089501
   3 N :   -0.126967
   4 C :   -0.150074
   5 C :    0.127545
   6 C :   -0.088535
   7 O :   -0.331807
   8 C :   -0.150075
   9 H :    0.132705
  10 H :    0.128110
  11 H :    0.128110
  12 H :    0.132705
  13 H :    0.089870
  14 H :    0.100833
  15 H :    0.118866
  16 H :    0.118684
  17 H :    0.118684
  18 H :    0.118866
  19 H :    0.100833
Sum of atomic charges:   -0.0000000

LOEWDIN ATOMIC CHARGES
----------------------
   0 C :   -0.226974
   1 C :   -0.226974
   2 C :   -0.292400
   3 N :    0.116488
   4 C :   -0.200321
   5 C :   -0.315995
   6 C :   -0.242098
   7 O :    0.170068
   8 C :   -0.200322
   9 H :    0.136508
  10 H :    0.129668
  11 H :    0.129668
  12 H :    0.136508
  13 H :    0.130189
  14 H :    0.126377
  15 H :    0.129603
  16 H :    0.122013
  17 H :    0.122013
  18 H :    0.129603
  19 H :    0.126377

  Mayer bond orders larger than 0.1
B(  0-C ,  1-C ) :   0.9253 B(  0-C ,  2-C ) :   0.8732 B(  0-C ,  9-H ) :   0.9281
B(  0-C , 10-H ) :   0.9285 B(  1-C ,  2-C ) :   0.8732 B(  1-C , 11-H ) :   0.9285
B(  1-C , 12-H ) :   0.9281 B(  2-C ,  3-N ) :   0.9840 B(  2-C , 13-H ) :   0.9191
B(  3-N ,  4-C ) :   0.9435 B(  3-N ,  8-C ) :   0.9435 B(  4-C ,  5-C ) :   0.9391
B(  4-C , 14-H ) :   0.9143 B(  4-C , 15-H ) :   0.9071 B(  5-C ,  6-C ) :   0.9741
B(  5-C ,  7-O ) :   0.8967 B(  5-C ,  8-C ) :   0.9391 B(  6-C ,  7-O ) :   0.8990
B(  6-C , 16-H ) :   0.9122 B(  6-C , 17-H ) :   0.9122 B(  8-C , 18-H ) :   0.9071
B(  8-C , 19-H ) :   0.9143

MP2 TOTAL ENERGY:     -402.378082990 Eh
FINAL SINGLE POINT ENERGY      -402.378082989901

DIPOLE MOMENT
-------------
                                X             Y             Z
Electronic contribution:     -1.71105      -3.63655       4.36682
Nuclear contribution   :      1.77850       3.31206      -5.27763
                        -----------------------------------------
Total Dipole Moment    :      0.06745      -0.32449      -0.91081
                        -----------------------------------------
Magnitude (a.u.)       :      0.96923
Magnitude (Debye)      :      2.46360

                             ****ORCA TERMINATED NORMALLY****
TOTAL RUN TIME: 0 days 0 hours 15 minutes 41 seconds 995 msec
