                         Program Version 3.0.3 - RELEASE   -
|  1> ! RI-MP2 RIJK def2-TZVP def2-TZVP/C def2-TZVP/JK TIGHTSCF
|  2> % maxcore 2000
|  3> % mp2 density relaxed end
|  4> *xyz 0 1
|  5>  C        0.6519437074     1.5030423876     0.1415117483
|  6>  O        0.8065146692     0.1038241345     0.1722459755
|  7>  C       -0.1961441307    -0.5405122074     0.9281071761
|  8>  C        0.0699003437    -2.0319689739     0.9097521365
|  9>  C        1.2465093674    -2.6337112652     1.7393149624
| 10>  C        0.3090701929    -3.7657233770     2.2751008029
| 11>  C        0.3054755264    -4.1452732277     3.7491717085
| 12>  C       -0.8651767537    -2.9279824270     1.7417588756
| 13>  O       -2.0334425680    -2.8788149741     2.0049487886
| 14>  H        0.7044018312     1.9427041365     1.1503272132
| 15>  H        1.4663863792     1.9091680443    -0.4631972825
| 16>  H       -0.3085033128     1.7983007375    -0.3098126102
| 17>  H       -0.1978564282    -0.1656174149     1.9666511673
| 18>  H       -1.1964187953    -0.3364941364     0.5115304958
| 19>  H        0.1016790255    -2.3802303017    -0.1296315177
| 20>  H        2.1259773294    -2.9495268976     1.1781956780
| 21>  H        1.5597317187    -1.9563777957     2.5392121112
| 22>  H        0.4094841661    -4.6628814886     1.6499728949
| 23>  H        0.2158346002    -3.2569968385     4.3829758675
| 24>  H       -0.5403454902    -4.8015435341     3.9746237189
| 25>  H        1.2267761518    -4.6672658907     4.0260343791
| 26> *
| 27>
| 28>                          ****END OF INPUT****

CARTESIAN COORDINATES (ANGSTROEM)
---------------------------------
  C      0.651944    1.503042    0.141512
  O      0.806515    0.103824    0.172246
  C     -0.196144   -0.540512    0.928107
  C      0.069900   -2.031969    0.909752
  C      1.246509   -2.633711    1.739315
  C      0.309070   -3.765723    2.275101
  C      0.305476   -4.145273    3.749172
  C     -0.865177   -2.927982    1.741759
  O     -2.033443   -2.878815    2.004949
  H      0.704402    1.942704    1.150327
  H      1.466386    1.909168   -0.463197
  H     -0.308503    1.798301   -0.309813
  H     -0.197856   -0.165617    1.966651
  H     -1.196419   -0.336494    0.511530
  H      0.101679   -2.380230   -0.129632
  H      2.125977   -2.949527    1.178196
  H      1.559732   -1.956378    2.539212
  H      0.409484   -4.662881    1.649973
  H      0.215835   -3.256997    4.382976
  H     -0.540345   -4.801544    3.974624
  H      1.226776   -4.667266    4.026034

 Total Charge           Charge          ....    0
 Multiplicity           Mult            ....    1
 Number of Electrons    NEL             ....   70
 Basis Dimension        Dim             ....  351

ORBITAL ENERGIES
----------------

  NO   OCC          E(Eh)            E(eV)
   0   2.0000     -20.561614      -559.5100
   1   2.0000     -20.551818      -559.2434
   2   2.0000     -11.327605      -308.2398
   3   2.0000     -11.283427      -307.0376
   4   2.0000     -11.274782      -306.8024
   5   2.0000     -11.244494      -305.9782
   6   2.0000     -11.241829      -305.9057
   7   2.0000     -11.236424      -305.7586
   8   2.0000     -11.225564      -305.4631
   9   2.0000      -1.394024       -37.9333
  10   2.0000      -1.382228       -37.6123
  11   2.0000      -1.145216       -31.1629
  12   2.0000      -1.026715       -27.9383
  13   2.0000      -0.963490       -26.2179
  14   2.0000      -0.899149       -24.4671
  15   2.0000      -0.858290       -23.3553
  16   2.0000      -0.823300       -22.4031
  17   2.0000      -0.726470       -19.7683
  18   2.0000      -0.675258       -18.3747
  19   2.0000      -0.667153       -18.1542
  20   2.0000      -0.657559       -17.8931
  21   2.0000      -0.651337       -17.7238
  22   2.0000      -0.617671       -16.8077
  23   2.0000      -0.590985       -16.0815
  24   2.0000      -0.580135       -15.7863
  25   2.0000      -0.559889       -15.2354
  26   2.0000      -0.547003       -14.8847
  27   2.0000      -0.537345       -14.6219
  28   2.0000      -0.514570       -14.0022
  29   2.0000      -0.497764       -13.5449
  30   2.0000      -0.483122       -13.1464
  31   2.0000      -0.473383       -12.8814
  32   2.0000      -0.457082       -12.4378
  33   2.0000      -0.428332       -11.6555
  34   2.0000      -0.391033       -10.6406
  35   0.0000       0.115648         3.1469
  36   0.0000       0.143019         3.8917
  37   0.0000       0.154945         4.2163
  38   0.0000       0.165108         4.4928
  39   0.0000       0.174573         4.7504

MULLIKEN ATOMIC CHARGES
-----------------------
   0 C :   -0.216797
   1 O :   -0.301745
   2 C :   -0.095405
   3 C :    0.064425
   4 C :   -0.329667
   5 C :    0.050487
   6 C :   -0.413735
   7 C :    0.015841
   8 O :   -0.257781
   9 H :    0.111517
  10 H :    0.139716
  11 H :    0.113666
  12 H :    0.092134
  13 H :    0.113444
  14 H :    0.127116
  15 H :    0.131084
  16 H :    0.124907
  17 H :    0.122403
  18 H :    0.126174
  19 H :    0.144603
  20 H :    0.137612
Sum of atomic charges:    0.0000000

LOEWDIN ATOMIC CHARGES
----------------------
   0 C :   -0.360343
   1 O :    0.135455
   2 C :   -0.306673
   3 C :   -0.200801
   4 C :   -0.185541
   5 C :   -0.225829
   6 C :   -0.292176
   7 C :   -0.278782
   8 O :    0.162431
   9 H :    0.101499
  10 H :    0.113680
  11 H :    0.102240
  12 H :    0.123214
  13 H :    0.128424
  14 H :    0.167138
  15 H :    0.129687
  16 H :    0.139734
  17 H :    0.163108
  18 H :    0.126019
  19 H :    0.131485
  20 H :    0.126031

  Mayer bond orders larger than 0.1
B(  0-C ,  1-O ) :   0.9194 B(  0-C ,  9-H ) :   0.9364 B(  0-C , 10-H ) :   0.9389
B(  0-C , 11-H ) :   0.9377 B(  1-O ,  2-C ) :   0.9536 B(  2-C ,  3-C ) :   0.9188
B(  2-C , 12-H ) :   0.9174 B(  2-C , 13-H ) :   0.9256 B(  3-C ,  4-C ) :   0.9321
B(  3-C ,  5-C ) :  -0.1310 B(  3-C ,  7-C ) :   0.8267 B(  3-C , 14-H ) :   0.8835
B(  4-C ,  5-C ) :   0.9265 B(  4-C , 15-H ) :   0.9299 B(  4-C , 16-H ) :   0.9166
B(  5-C ,  6-C ) :   0.8849 B(  5-C ,  7-C ) :   0.8528 B(  5-C , 17-H ) :   0.8944
B(  6-C , 18-H ) :   0.9355 B(  6-C , 19-H ) :   0.9350 B(  6-C , 20-H ) :   0.9395
B(  7-C ,  8-O ) :   2.0462

MP2 TOTAL ENERGY:     -423.512610293 Eh
FINAL SINGLE POINT ENERGY      -423.512610293287

DIPOLE MOMENT
-------------
                                X             Y             Z
Electronic contribution:     -4.11480      -2.46154      -2.20066
Nuclear contribution   :      4.82985       2.66513       2.20942
                        -----------------------------------------
Total Dipole Moment    :      0.71505       0.20359       0.00876
                        -----------------------------------------
Magnitude (a.u.)       :      0.74352
Magnitude (Debye)      :      1.88987

                             ****ORCA TERMINATED NORMALLY****
TOTAL RUN TIME: 0 days 0 hours 16 minutes 47 seconds 27 msec
