                         Program Version 3.0.3 - RELEASE   -
|  1> ! RI-MP2 RIJK def2-TZVP def2-TZVP/C def2-TZVP/JK TIGHTSCF
|  2> % maxcore 2000
|  3> % mp2 density relaxed end
|  4> *xyz 0 1
|  5>  C       -0.0597680448     1.4874388623     0.0097274828
|  6>  C       -0.0080099765     0.0317103566    -0.0034411089
|  7>  C        0.0432901513    -1.1719818411    -0.0070580939
|  8>  C        0.0573370887    -2.6369216310    -0.0223779545
|  9>  C       -1.3852432598    -3.1659069955     0.1416208615
| 10>  C        0.7827792730    -3.1707761820    -1.2920987542
| 11>  C        2.2251709654    -2.6548551708    -1.3703573262
| 12>  C        0.7597258796    -4.7012772593    -1.3503740314
| 13>  O        1.4271753978    -5.1096299179    -2.5372974472
| 14>  H        0.7454822773     1.9103511957     0.6208814334
| 15>  H        0.0418214001     1.8996877298    -1.0004061278
| 16>  H       -1.0095645944     1.8494597771     0.4191501045
| 17>  H        0.6380869311    -2.9774075514     0.8488374456
| 18>  H       -1.4019602949    -4.2442834512     0.3193029760
| 19>  H       -1.8696737595    -2.6779264703     0.9911240750
| 20>  H       -1.9802827681    -2.9519848222    -0.7520579600
| 21>  H        0.2312817985    -2.8035097616    -2.1677971896
| 22>  H        2.8049523224    -2.9958275820    -0.5031243298
| 23>  H        2.7153201477    -3.0310935180    -2.2696739613
| 24>  H        2.2477511619    -1.5629365782    -1.3809850245
| 25>  H        1.2595110420    -5.1087859442    -0.4538384870
| 26>  H       -0.2744381555    -5.0716050120    -1.3492549213
| 27>  H        1.3970920866    -6.0693720630    -2.5817564311
| 28> *
| 29>
| 30>                          ****END OF INPUT****

CARTESIAN COORDINATES (ANGSTROEM)
---------------------------------
  C     -0.059768    1.487439    0.009727
  C     -0.008010    0.031710   -0.003441
  C      0.043290   -1.171982   -0.007058
  C      0.057337   -2.636922   -0.022378
  C     -1.385243   -3.165907    0.141621
  C      0.782779   -3.170776   -1.292099
  C      2.225171   -2.654855   -1.370357
  C      0.759726   -4.701277   -1.350374
  O      1.427175   -5.109630   -2.537297
  H      0.745482    1.910351    0.620881
  H      0.041821    1.899688   -1.000406
  H     -1.009565    1.849460    0.419150
  H      0.638087   -2.977408    0.848837
  H     -1.401960   -4.244283    0.319303
  H     -1.869674   -2.677926    0.991124
  H     -1.980283   -2.951985   -0.752058
  H      0.231282   -2.803510   -2.167797
  H      2.804952   -2.995828   -0.503124
  H      2.715320   -3.031094   -2.269674
  H      2.247751   -1.562937   -1.380985
  H      1.259511   -5.108786   -0.453838
  H     -0.274438   -5.071605   -1.349255
  H      1.397092   -6.069372   -2.581756

 Total Charge           Charge          ....    0
 Multiplicity           Mult            ....    1
 Number of Electrons    NEL             ....   70
 Basis Dimension        Dim             ....  363

ORBITAL ENERGIES
----------------

  NO   OCC          E(Eh)            E(eV)
   0   2.0000     -20.554355      -559.3124
   1   2.0000     -11.273532      -306.7684
   2   2.0000     -11.250649      -306.1457
   3   2.0000     -11.241642      -305.9006
   4   2.0000     -11.227463      -305.5148
   5   2.0000     -11.219329      -305.2935
   6   2.0000     -11.214761      -305.1692
   7   2.0000     -11.209294      -305.0204
   8   2.0000     -11.198726      -304.7328
   9   2.0000      -1.358877       -36.9769
  10   2.0000      -1.109248       -30.1842
  11   2.0000      -1.043018       -28.3820
  12   2.0000      -1.000399       -27.2222
  13   2.0000      -0.944303       -25.6958
  14   2.0000      -0.911987       -24.8164
  15   2.0000      -0.862224       -23.4623
  16   2.0000      -0.773835       -21.0571
  17   2.0000      -0.703471       -19.1424
  18   2.0000      -0.670143       -18.2355
  19   2.0000      -0.635036       -17.2802
  20   2.0000      -0.616260       -16.7693
  21   2.0000      -0.589564       -16.0429
  22   2.0000      -0.587444       -15.9852
  23   2.0000      -0.578379       -15.7385
  24   2.0000      -0.575959       -15.6726
  25   2.0000      -0.563102       -15.3228
  26   2.0000      -0.542632       -14.7658
  27   2.0000      -0.526255       -14.3201
  28   2.0000      -0.510740       -13.8979
  29   2.0000      -0.478048       -13.0083
  30   2.0000      -0.469643       -12.7796
  31   2.0000      -0.458809       -12.4848
  32   2.0000      -0.440072       -11.9750
  33   2.0000      -0.360280        -9.8037
  34   2.0000      -0.359617        -9.7857
  35   0.0000       0.129881         3.5342
  36   0.0000       0.140676         3.8280
  37   0.0000       0.153426         4.1749
  38   0.0000       0.163122         4.4388
  39   0.0000       0.179226         4.8770

MULLIKEN ATOMIC CHARGES
-----------------------
   0 C :   -0.493414
   1 C :    0.077255
   2 C :   -0.045244
   3 C :   -0.183588
   4 C :   -0.399595
   5 C :    0.005831
   6 C :   -0.408288
   7 C :   -0.097523
   8 O :   -0.465353
   9 H :    0.161664
  10 H :    0.161543
  11 H :    0.160744
  12 H :    0.103815
  13 H :    0.130432
  14 H :    0.144273
  15 H :    0.132153
  16 H :    0.089684
  17 H :    0.108383
  18 H :    0.155166
  19 H :    0.146083
  20 H :    0.091613
  21 H :    0.109030
  22 H :    0.315333
Sum of atomic charges:   -0.0000000

LOEWDIN ATOMIC CHARGES
----------------------
   0 C :   -0.297757
   1 C :   -0.106654
   2 C :   -0.065883
   3 C :   -0.245483
   4 C :   -0.275797
   5 C :   -0.253736
   6 C :   -0.286953
   7 C :   -0.328950
   8 O :   -0.045372
   9 H :    0.139894
  10 H :    0.139871
  11 H :    0.139751
  12 H :    0.167964
  13 H :    0.118978
  14 H :    0.128444
  15 H :    0.127609
  16 H :    0.158231
  17 H :    0.122711
  18 H :    0.128496
  19 H :    0.128075
  20 H :    0.117510
  21 H :    0.117232
  22 H :    0.171820

  Mayer bond orders larger than 0.1
B(  0-C ,  1-C ) :   0.8304 B(  0-C ,  9-H ) :   0.9521 B(  0-C , 10-H ) :   0.9488
B(  0-C , 11-H ) :   0.9510 B(  1-C ,  2-C ) :   2.6750 B(  1-C ,  3-C ) :  -0.1232
B(  2-C ,  3-C ) :   1.1140 B(  3-C ,  4-C ) :   0.8951 B(  3-C ,  5-C ) :   0.9323
B(  3-C , 12-H ) :   0.9034 B(  4-C , 13-H ) :   0.9393 B(  4-C , 14-H ) :   0.9372
B(  4-C , 15-H ) :   0.9313 B(  5-C ,  6-C ) :   0.9230 B(  5-C ,  7-C ) :   0.9095
B(  5-C , 16-H ) :   0.9097 B(  6-C , 17-H ) :   0.9278 B(  6-C , 18-H ) :   0.9341
B(  6-C , 19-H ) :   0.9369 B(  7-C ,  8-O ) :   1.0282 B(  7-C , 20-H ) :   0.9194
B(  7-C , 21-H ) :   0.9411 B(  8-O , 22-H ) :   0.8484

MP2 TOTAL ENERGY:     -387.588721427 Eh
FINAL SINGLE POINT ENERGY      -387.588721426524

DIPOLE MOMENT
-------------
                                X             Y             Z
Electronic contribution:      0.48711      -0.57371      -1.01925
Nuclear contribution   :     -0.76057       0.25437       1.35128
                        -----------------------------------------
Total Dipole Moment    :     -0.27346      -0.31935       0.33203
                        -----------------------------------------
Magnitude (a.u.)       :      0.53573
Magnitude (Debye)      :      1.36171

                             ****ORCA TERMINATED NORMALLY****
TOTAL RUN TIME: 0 days 0 hours 18 minutes 43 seconds 31 msec
