                         Program Version 3.0.3 - RELEASE   -
|  1> ! RI-MP2 RIJK def2-TZVP def2-TZVP/C def2-TZVP/JK TIGHTSCF
|  2> % maxcore 2000
|  3> % mp2 density relaxed end
|  4> *xyz 0 1
|  5>  C        0.3882880691     1.4011497450    -0.2902728563
|  6>  N        0.4030283294    -0.0551708314    -0.2409663312
|  7>  C        0.4419042184    -0.6008745185     0.8970198056
|  8>  N        0.4599236262    -0.1866853827     2.2234833638
|  9>  C        0.8600145647    -1.5228247107     2.7364104298
| 10>  C        0.0618923206    -2.0272752561     3.9243500936
| 11>  C        0.5997796544    -2.0720467904     1.2830338418
| 12>  C       -0.6142577238    -2.9616159307     1.0640131458
| 13>  O        1.7666966423    -2.6503308676     0.7272163364
| 14>  H        1.3816307390     1.8221223960    -0.0747101955
| 15>  H        0.1067419534     1.7296085553    -1.2941587069
| 16>  H       -0.3229319840     1.8449611737     0.4224445086
| 17>  H        0.8168306765     0.6980032312     2.5575251464
| 18>  H        1.9355649365    -1.5870313498     2.9350513115
| 19>  H       -1.0139608630    -1.9593817665     3.7435190436
| 20>  H        0.3164652998    -3.0696762205     4.1422764909
| 21>  H        0.2900394183    -1.4370674308     4.8184937188
| 22>  H       -1.5167955497    -2.5372499539     1.5124975126
| 23>  H       -0.7917575832    -3.0726670483    -0.0099316631
| 24>  H       -0.4379465256    -3.9544155943     1.4888291239
| 25>  H        1.8306487206    -2.3131088989    -0.1750292199
| 26> *
| 27>
| 28>                          ****END OF INPUT****

CARTESIAN COORDINATES (ANGSTROEM)
---------------------------------
  C      0.388288    1.401150   -0.290273
  N      0.403028   -0.055171   -0.240966
  C      0.441904   -0.600875    0.897020
  N      0.459924   -0.186685    2.223483
  C      0.860015   -1.522825    2.736410
  C      0.061892   -2.027275    3.924350
  C      0.599780   -2.072047    1.283034
  C     -0.614258   -2.961616    1.064013
  O      1.766697   -2.650331    0.727216
  H      1.381631    1.822122   -0.074710
  H      0.106742    1.729609   -1.294159
  H     -0.322932    1.844961    0.422445
  H      0.816831    0.698003    2.557525
  H      1.935565   -1.587031    2.935051
  H     -1.013961   -1.959382    3.743519
  H      0.316465   -3.069676    4.142276
  H      0.290039   -1.437067    4.818494
  H     -1.516796   -2.537250    1.512498
  H     -0.791758   -3.072667   -0.009932
  H     -0.437947   -3.954416    1.488829
  H      1.830649   -2.313109   -0.175029

 Total Charge           Charge          ....    0
 Multiplicity           Mult            ....    1
 Number of Electrons    NEL             ....   70
 Basis Dimension        Dim             ....  351

ORBITAL ENERGIES
----------------

  NO   OCC          E(Eh)            E(eV)
   0   2.0000     -20.558456      -559.4240
   1   2.0000     -15.576089      -423.8469
   2   2.0000     -15.531388      -422.6305
   3   2.0000     -11.303678      -307.5887
   4   2.0000     -11.296226      -307.3859
   5   2.0000     -11.273902      -306.7785
   6   2.0000     -11.242571      -305.9259
   7   2.0000     -11.223867      -305.4170
   8   2.0000     -11.219559      -305.2997
   9   2.0000      -1.373961       -37.3874
  10   2.0000      -1.284277       -34.9469
  11   2.0000      -1.187806       -32.3218
  12   2.0000      -1.032637       -28.0995
  13   2.0000      -0.999016       -27.1846
  14   2.0000      -0.937147       -25.5011
  15   2.0000      -0.898912       -24.4606
  16   2.0000      -0.809507       -22.0278
  17   2.0000      -0.750388       -20.4191
  18   2.0000      -0.687840       -18.7171
  19   2.0000      -0.674743       -18.3607
  20   2.0000      -0.637434       -17.3455
  21   2.0000      -0.615513       -16.7489
  22   2.0000      -0.609691       -16.5905
  23   2.0000      -0.588645       -16.0178
  24   2.0000      -0.567075       -15.4309
  25   2.0000      -0.564098       -15.3499
  26   2.0000      -0.549547       -14.9539
  27   2.0000      -0.539990       -14.6939
  28   2.0000      -0.526691       -14.3320
  29   2.0000      -0.512843       -13.9552
  30   2.0000      -0.470072       -12.7913
  31   2.0000      -0.459346       -12.4994
  32   2.0000      -0.437887       -11.9155
  33   2.0000      -0.396678       -10.7942
  34   2.0000      -0.355873        -9.6838
  35   0.0000       0.126478         3.4416
  36   0.0000       0.145041         3.9468
  37   0.0000       0.163328         4.4444
  38   0.0000       0.170341         4.6352
  39   0.0000       0.180550         4.9130

MULLIKEN ATOMIC CHARGES
-----------------------
   0 C :   -0.319831
   1 N :   -0.272579
   2 C :   -0.059487
   3 N :   -0.350668
   4 C :   -0.041717
   5 C :   -0.376152
   6 C :    0.443621
   7 C :   -0.418952
   8 O :   -0.484261
   9 H :    0.130477
  10 H :    0.146436
  11 H :    0.122432
  12 H :    0.235440
  13 H :    0.111393
  14 H :    0.127536
  15 H :    0.134725
  16 H :    0.132772
  17 H :    0.131760
  18 H :    0.138103
  19 H :    0.135745
  20 H :    0.333208
Sum of atomic charges:   -0.0000000

LOEWDIN ATOMIC CHARGES
----------------------
   0 C :   -0.340579
   1 N :    0.049402
   2 C :   -0.330250
   3 N :    0.113142
   4 C :   -0.227831
   5 C :   -0.296813
   6 C :   -0.325031
   7 C :   -0.266984
   8 O :    0.012720
   9 H :    0.112331
  10 H :    0.116129
  11 H :    0.108476
  12 H :    0.169690
  13 H :    0.145331
  14 H :    0.125164
  15 H :    0.130547
  16 H :    0.126003
  17 H :    0.129638
  18 H :    0.133161
  19 H :    0.130126
  20 H :    0.185630

  Mayer bond orders larger than 0.1
B(  0-C ,  1-N ) :   0.8774 B(  0-C ,  9-H ) :   0.9280 B(  0-C , 10-H ) :   0.9485
B(  0-C , 11-H ) :   0.9307 B(  1-N ,  2-C ) :   1.9981 B(  2-C ,  3-N ) :   1.1398
B(  2-C ,  6-C ) :   0.8111 B(  3-N ,  4-C ) :   0.9208 B(  3-N , 12-H ) :   0.8609
B(  4-C ,  5-C ) :   0.8969 B(  4-C ,  6-C ) :   0.8228 B(  4-C , 13-H ) :   0.9454
B(  5-C , 14-H ) :   0.9365 B(  5-C , 15-H ) :   0.9361 B(  5-C , 16-H ) :   0.9358
B(  6-C ,  7-C ) :   0.8844 B(  6-C ,  8-O ) :   0.9554 B(  7-C , 17-H ) :   0.9372
B(  7-C , 18-H ) :   0.9235 B(  7-C , 19-H ) :   0.9340 B(  8-O , 20-H ) :   0.8264

MP2 TOTAL ENERGY:     -419.697050184 Eh
FINAL SINGLE POINT ENERGY      -419.697050184069

DIPOLE MOMENT
-------------
                                X             Y             Z
Electronic contribution:      3.12210       0.06768      -2.69891
Nuclear contribution   :     -3.15504       0.46810       3.43188
                        -----------------------------------------
Total Dipole Moment    :     -0.03294       0.53578       0.73297
                        -----------------------------------------
Magnitude (a.u.)       :      0.90851
Magnitude (Debye)      :      2.30925

                             ****ORCA TERMINATED NORMALLY****
TOTAL RUN TIME: 0 days 0 hours 18 minutes 59 seconds 411 msec
