                         Program Version 3.0.3 - RELEASE   -
|  1> ! RI-MP2 RIJK def2-TZVP def2-TZVP/C def2-TZVP/JK TIGHTSCF
|  2> % maxcore 2000
|  3> % mp2 density relaxed end
|  4> *xyz 0 1
|  5>  C       -0.7936832453     1.1726090430     0.0290225077
|  6>  C        0.1353325684    -0.0343069289    -0.0684968083
|  7>  C        1.3054032076     0.1085268778    -1.0676136702
|  8>  C        2.3641287310    -0.8222924706    -0.5121720995
|  9>  C        3.5585977750    -1.2275726931    -1.3164265382
| 10>  C        2.0746177255    -1.1614852900     0.7448165398
| 11>  C        0.8030702366    -0.5120496906     1.2554873792
| 12>  C        1.1227679736     0.6049073409     2.2594843208
| 13>  O       -0.1061391297    -1.4438580595     1.8560989182
| 14>  H       -0.2559087550     2.0825436762     0.3163270081
| 15>  H       -1.2741944849     1.3671743430    -0.9357383443
| 16>  H       -1.5860540810     0.9983808857     0.7639707720
| 17>  H       -0.4581801178    -0.8997791810    -0.3843146110
| 18>  H        1.0142697988    -0.1427307318    -2.0951690833
| 19>  H        1.6808801418     1.1429674119    -1.1029727967
| 20>  H        4.1393952903    -0.3512587222    -1.6324183888
| 21>  H        4.2218881329    -1.8893173646    -0.7527996600
| 22>  H        3.2571608126    -1.7459181943    -2.2357618164
| 23>  H        2.6885511347    -1.7928130076     1.3813408927
| 24>  H        1.7375230102     1.3886317562     1.8063205401
| 25>  H        0.2042937457     1.0564923327     2.6456608568
| 26>  H        1.6878933468     0.2001571695     3.1084303257
| 27>  H        0.2292723622    -1.6640463427     2.7315800455
| 28> *
| 29>
| 30>                          ****END OF INPUT****

CARTESIAN COORDINATES (ANGSTROEM)
---------------------------------
  C     -0.793683    1.172609    0.029023
  C      0.135333   -0.034307   -0.068497
  C      1.305403    0.108527   -1.067614
  C      2.364129   -0.822292   -0.512172
  C      3.558598   -1.227573   -1.316427
  C      2.074618   -1.161485    0.744817
  C      0.803070   -0.512050    1.255487
  C      1.122768    0.604907    2.259484
  O     -0.106139   -1.443858    1.856099
  H     -0.255909    2.082544    0.316327
  H     -1.274194    1.367174   -0.935738
  H     -1.586054    0.998381    0.763971
  H     -0.458180   -0.899779   -0.384315
  H      1.014270   -0.142731   -2.095169
  H      1.680880    1.142967   -1.102973
  H      4.139395   -0.351259   -1.632418
  H      4.221888   -1.889317   -0.752800
  H      3.257161   -1.745918   -2.235762
  H      2.688551   -1.792813    1.381341
  H      1.737523    1.388632    1.806321
  H      0.204294    1.056492    2.645661
  H      1.687893    0.200157    3.108430
  H      0.229272   -1.664046    2.731580

 Total Charge           Charge          ....    0
 Multiplicity           Mult            ....    1
 Number of Electrons    NEL             ....   70
 Basis Dimension        Dim             ....  363

ORBITAL ENERGIES
----------------

  NO   OCC          E(Eh)            E(eV)
   0   2.0000     -20.545850      -559.0810
   1   2.0000     -11.280775      -306.9655
   2   2.0000     -11.230874      -305.6076
   3   2.0000     -11.222540      -305.3808
   4   2.0000     -11.220405      -305.3227
   5   2.0000     -11.219462      -305.2971
   6   2.0000     -11.215245      -305.1823
   7   2.0000     -11.208908      -305.0099
   8   2.0000     -11.208081      -304.9874
   9   2.0000      -1.352891       -36.8140
  10   2.0000      -1.136554       -30.9272
  11   2.0000      -1.032632       -28.0993
  12   2.0000      -0.995643       -27.0928
  13   2.0000      -0.947009       -25.7694
  14   2.0000      -0.910216       -24.7682
  15   2.0000      -0.855869       -23.2894
  16   2.0000      -0.743698       -20.2370
  17   2.0000      -0.721226       -19.6256
  18   2.0000      -0.673335       -18.3224
  19   2.0000      -0.632197       -17.2029
  20   2.0000      -0.625714       -17.0265
  21   2.0000      -0.587866       -15.9966
  22   2.0000      -0.581127       -15.8133
  23   2.0000      -0.567721       -15.4485
  24   2.0000      -0.558928       -15.2092
  25   2.0000      -0.543969       -14.8021
  26   2.0000      -0.540958       -14.7202
  27   2.0000      -0.526241       -14.3197
  28   2.0000      -0.508399       -13.8342
  29   2.0000      -0.497064       -13.5258
  30   2.0000      -0.473522       -12.8852
  31   2.0000      -0.456036       -12.4094
  32   2.0000      -0.443200       -12.0601
  33   2.0000      -0.423823       -11.5328
  34   2.0000      -0.339452        -9.2370
  35   0.0000       0.128169         3.4877
  36   0.0000       0.145960         3.9718
  37   0.0000       0.154320         4.1993
  38   0.0000       0.162658         4.4262
  39   0.0000       0.184680         5.0254

MULLIKEN ATOMIC CHARGES
-----------------------
   0 C :   -0.431335
   1 C :   -0.043019
   2 C :   -0.242812
   3 C :    0.043180
   4 C :   -0.444078
   5 C :   -0.251184
   6 C :    0.329834
   7 C :   -0.473174
   8 O :   -0.470031
   9 H :    0.123874
  10 H :    0.134733
  11 H :    0.146779
  12 H :    0.096857
  13 H :    0.123942
  14 H :    0.108829
  15 H :    0.137162
  16 H :    0.136527
  17 H :    0.140889
  18 H :    0.112405
  19 H :    0.135563
  20 H :    0.150810
  21 H :    0.125304
  22 H :    0.308944
Sum of atomic charges:   -0.0000000

LOEWDIN ATOMIC CHARGES
----------------------
   0 C :   -0.295885
   1 C :   -0.216059
   2 C :   -0.190403
   3 C :   -0.179642
   4 C :   -0.274453
   5 C :   -0.110630
   6 C :   -0.356528
   7 C :   -0.277357
   8 O :   -0.001212
   9 H :    0.121443
  10 H :    0.124858
  11 H :    0.128183
  12 H :    0.164838
  13 H :    0.138787
  14 H :    0.142746
  15 H :    0.131086
  16 H :    0.129617
  17 H :    0.131739
  18 H :    0.137007
  19 H :    0.130254
  20 H :    0.127301
  21 H :    0.123453
  22 H :    0.170856

  Mayer bond orders larger than 0.1
B(  0-C ,  1-C ) :   0.9085 B(  0-C ,  9-H ) :   0.9308 B(  0-C , 10-H ) :   0.9394
B(  0-C , 11-H ) :   0.9453 B(  1-C ,  2-C ) :   0.9512 B(  1-C ,  6-C ) :   0.8613
B(  1-C , 12-H ) :   0.9320 B(  2-C ,  3-C ) :   0.9491 B(  2-C , 13-H ) :   0.9240
B(  2-C , 14-H ) :   0.8921 B(  3-C ,  4-C ) :   0.8871 B(  3-C ,  5-C ) :   1.7494
B(  4-C , 15-H ) :   0.9272 B(  4-C , 16-H ) :   0.9500 B(  4-C , 17-H ) :   0.9379
B(  5-C ,  6-C ) :   0.9137 B(  5-C , 18-H ) :   0.9097 B(  6-C ,  7-C ) :   0.8994
B(  6-C ,  8-O ) :   0.9640 B(  7-C , 19-H ) :   0.9345 B(  7-C , 20-H ) :   0.9388
B(  7-C , 21-H ) :   0.9227 B(  8-O , 22-H ) :   0.8442

MP2 TOTAL ENERGY:     -387.642507343 Eh
FINAL SINGLE POINT ENERGY      -387.642507343021

DIPOLE MOMENT
-------------
                                X             Y             Z
Electronic contribution:     -0.80646      -4.26768       1.81837
Nuclear contribution   :      1.34937       4.52004      -1.71240
                        -----------------------------------------
Total Dipole Moment    :      0.54291       0.25236       0.10597
                        -----------------------------------------
Magnitude (a.u.)       :      0.60800
Magnitude (Debye)      :      1.54542

                             ****ORCA TERMINATED NORMALLY****
TOTAL RUN TIME: 0 days 0 hours 22 minutes 14 seconds 118 msec
