                         Program Version 3.0.3 - RELEASE   -
|  1> ! RI-MP2 RIJK def2-TZVP def2-TZVP/C def2-TZVP/JK TIGHTSCF
|  2> % maxcore 2000
|  3> % mp2 density relaxed end
|  4> *xyz 0 1
|  5>  C       -0.1192956143     1.3774714120     0.1063955040
|  6>  N       -0.0713402261    -0.0547797936    -0.1876681703
|  7>  C        0.7543504259    -0.4750806925    -1.3275743358
|  8>  C        0.1589608493     0.0853312029    -2.6314988207
|  9>  C        2.1518871430     0.0367104675    -1.1934080969
| 10>  N        3.2197946430     0.4521106788    -1.0344087754
| 11>  C        0.8366454748    -2.0051421120    -1.2872026206
| 12>  C       -0.1996099804    -2.9000893189    -1.9112450127
| 13>  C        1.1995457286    -2.8570215218    -2.4740099679
| 14>  H        0.8702347112     1.8527541245     0.1950311442
| 15>  H       -0.6858325161     1.9057795177    -0.6657103575
| 16>  H       -0.6525858489     1.5144547377     1.0505996521
| 17>  H        0.2437125773    -0.5532471321     0.6377916395
| 18>  H        0.2234454685     1.1748749324    -2.6472622260
| 19>  H        0.6995036591    -0.2847362935    -3.5047011126
| 20>  H       -0.8930731167    -0.1989220635    -2.6999026869
| 21>  H        1.2429254459    -2.3518538934    -0.3397287221
| 22>  H       -0.5121838869    -3.7745149551    -1.3517891538
| 23>  H       -0.9904298633    -2.4453021470    -2.4953208820
| 24>  H        1.3411803027    -2.3786390271    -3.4362061334
| 25>  H        1.8600433736    -3.6992586129    -2.3025729350
| 26> *
| 27>
| 28>                          ****END OF INPUT****

CARTESIAN COORDINATES (ANGSTROEM)
---------------------------------
  C     -0.119296    1.377471    0.106396
  N     -0.071340   -0.054780   -0.187668
  C      0.754350   -0.475081   -1.327574
  C      0.158961    0.085331   -2.631499
  C      2.151887    0.036710   -1.193408
  N      3.219795    0.452111   -1.034409
  C      0.836645   -2.005142   -1.287203
  C     -0.199610   -2.900089   -1.911245
  C      1.199546   -2.857022   -2.474010
  H      0.870235    1.852754    0.195031
  H     -0.685833    1.905780   -0.665710
  H     -0.652586    1.514455    1.050600
  H      0.243713   -0.553247    0.637792
  H      0.223445    1.174875   -2.647262
  H      0.699504   -0.284736   -3.504701
  H     -0.893073   -0.198922   -2.699903
  H      1.242925   -2.351854   -0.339729
  H     -0.512184   -3.774515   -1.351789
  H     -0.990430   -2.445302   -2.495321
  H      1.341180   -2.378639   -3.436206
  H      1.860043   -3.699259   -2.302573

 Total Charge           Charge          ....    0
 Multiplicity           Mult            ....    1
 Number of Electrons    NEL             ....   68
 Basis Dimension        Dim             ....  351

ORBITAL ENERGIES
----------------

  NO   OCC          E(Eh)            E(eV)
   0   2.0000     -15.565133      -423.5488
   1   2.0000     -15.564405      -423.5290
   2   2.0000     -11.319726      -308.0254
   3   2.0000     -11.263272      -306.4892
   4   2.0000     -11.253275      -306.2172
   5   2.0000     -11.252954      -306.2084
   6   2.0000     -11.239273      -305.8362
   7   2.0000     -11.238619      -305.8184
   8   2.0000     -11.238234      -305.8079
   9   2.0000      -1.247669       -33.9508
  10   2.0000      -1.202670       -32.7263
  11   2.0000      -1.154717       -31.4214
  12   2.0000      -1.041214       -28.3329
  13   2.0000      -0.944495       -25.7010
  14   2.0000      -0.879220       -23.9248
  15   2.0000      -0.836775       -22.7698
  16   2.0000      -0.805036       -21.9062
  17   2.0000      -0.714484       -19.4421
  18   2.0000      -0.699985       -19.0476
  19   2.0000      -0.663840       -18.0640
  20   2.0000      -0.620873       -16.8948
  21   2.0000      -0.602073       -16.3832
  22   2.0000      -0.580864       -15.8061
  23   2.0000      -0.575075       -15.6486
  24   2.0000      -0.556844       -15.1525
  25   2.0000      -0.545062       -14.8319
  26   2.0000      -0.528136       -14.3713
  27   2.0000      -0.521397       -14.1879
  28   2.0000      -0.507877       -13.8200
  29   2.0000      -0.464479       -12.6391
  30   2.0000      -0.456120       -12.4117
  31   2.0000      -0.434473       -11.8226
  32   2.0000      -0.429202       -11.6792
  33   2.0000      -0.398376       -10.8404
  34   0.0000       0.128502         3.4967
  35   0.0000       0.141386         3.8473
  36   0.0000       0.158718         4.3189
  37   0.0000       0.162766         4.4291
  38   0.0000       0.177138         4.8202

MULLIKEN ATOMIC CHARGES
-----------------------
   0 C :   -0.323102
   1 N :   -0.321182
   2 C :    0.286300
   3 C :   -0.461234
   4 C :   -0.247690
   5 N :   -0.053732
   6 C :   -0.102931
   7 C :   -0.233378
   8 C :   -0.280565
   9 H :    0.136594
  10 H :    0.134645
  11 H :    0.142103
  12 H :    0.205957
  13 H :    0.157398
  14 H :    0.143070
  15 H :    0.150915
  16 H :    0.125739
  17 H :    0.135948
  18 H :    0.132144
  19 H :    0.134235
  20 H :    0.138765
Sum of atomic charges:   -0.0000000

LOEWDIN ATOMIC CHARGES
----------------------
   0 C :   -0.339751
   1 N :    0.016987
   2 C :   -0.338078
   3 C :   -0.241101
   4 C :   -0.156792
   5 N :    0.056907
   6 C :   -0.185180
   7 C :   -0.213971
   8 C :   -0.215581
   9 H :    0.110277
  10 H :    0.115577
  11 H :    0.119535
  12 H :    0.176383
  13 H :    0.133880
  14 H :    0.132659
  15 H :    0.133851
  16 H :    0.156434
  17 H :    0.133734
  18 H :    0.135419
  19 H :    0.134230
  20 H :    0.134583

  Mayer bond orders larger than 0.1
B(  0-C ,  1-N ) :   0.9156 B(  0-C ,  9-H ) :   0.9218 B(  0-C , 10-H ) :   0.9389
B(  0-C , 11-H ) :   0.9351 B(  1-N ,  2-C ) :   0.9803 B(  1-N , 12-H ) :   0.8743
B(  2-C ,  3-C ) :   0.8394 B(  2-C ,  4-C ) :   0.8959 B(  2-C ,  6-C ) :   0.8934
B(  3-C , 13-H ) :   0.9239 B(  3-C , 14-H ) :   0.9348 B(  3-C , 15-H ) :   0.9472
B(  4-C ,  5-N ) :   2.8871 B(  6-C ,  7-C ) :   0.8828 B(  6-C ,  8-C ) :   0.8980
B(  6-C , 16-H ) :   0.9112 B(  7-C ,  8-C ) :   0.8952 B(  7-C , 17-H ) :   0.9303
B(  7-C , 18-H ) :   0.9299 B(  8-C , 19-H ) :   0.9298 B(  8-C , 20-H ) :   0.9282

MP2 TOTAL ENERGY:     -382.585026303 Eh
FINAL SINGLE POINT ENERGY      -382.585026303074

DIPOLE MOMENT
-------------
                                X             Y             Z
Electronic contribution:      5.75280       0.50779       1.60095
Nuclear contribution   :     -6.87113      -0.98157      -1.63908
                        -----------------------------------------
Total Dipole Moment    :     -1.11833      -0.47378      -0.03814
                        -----------------------------------------
Magnitude (a.u.)       :      1.21515
Magnitude (Debye)      :      3.08866

                             ****ORCA TERMINATED NORMALLY****
TOTAL RUN TIME: 0 days 0 hours 20 minutes 58 seconds 769 msec
