                         Program Version 3.0.3 - RELEASE   -
|  1> ! RI-MP2 RIJK def2-TZVP def2-TZVP/C def2-TZVP/JK TIGHTSCF
|  2> % maxcore 2000
|  3> % mp2 density relaxed end
|  4> *xyz 0 1
|  5>  C       -0.0989450793     1.4768660267     0.0679874509
|  6>  C        0.0842494449    -0.0131869120     0.0471748907
|  7>  C        0.9400925126    -0.7849355434    -0.9908312856
|  8>  C        0.8077563344    -1.9179753780     0.0330891863
|  9>  C       -0.7283361906    -1.9847984846     0.4293485407
| 10>  C       -0.3456506606    -1.6640460293     1.8917855345
| 11>  C        0.7740375191    -0.8705090640     1.2038065646
| 12>  O       -1.1760817730    -0.7109290767    -0.0541753718
| 13>  H        0.8693790867     1.9837497329     0.1112604771
| 14>  H       -0.6218432011     1.8096114046    -0.8347536811
| 15>  H       -0.6915561518     1.7821771377     0.9358580832
| 16>  H        0.5169938760    -0.8962202080    -1.9927683184
| 17>  H        1.9705442451    -0.4206156727    -1.0398549223
| 18>  H        1.4003892928    -2.8306581608     0.0460145034
| 19>  H       -1.4098857702    -2.7808839834     0.1332111519
| 20>  H       -1.0964477500    -1.1483833584     2.4962691314
| 21>  H        0.0576470285    -2.5293502329     2.4256834147
| 22>  H        1.6595687565    -0.4707392976     1.6952933397
| 23> *
| 24>
| 25>                          ****END OF INPUT****

CARTESIAN COORDINATES (ANGSTROEM)
---------------------------------
  C     -0.098945    1.476866    0.067987
  C      0.084249   -0.013187    0.047175
  C      0.940093   -0.784936   -0.990831
  C      0.807756   -1.917975    0.033089
  C     -0.728336   -1.984798    0.429349
  C     -0.345651   -1.664046    1.891786
  C      0.774038   -0.870509    1.203807
  O     -1.176082   -0.710929   -0.054175
  H      0.869379    1.983750    0.111260
  H     -0.621843    1.809611   -0.834754
  H     -0.691556    1.782177    0.935858
  H      0.516994   -0.896220   -1.992768
  H      1.970544   -0.420616   -1.039855
  H      1.400389   -2.830658    0.046015
  H     -1.409886   -2.780884    0.133211
  H     -1.096448   -1.148383    2.496269
  H      0.057647   -2.529350    2.425683
  H      1.659569   -0.470739    1.695293

 Total Charge           Charge          ....    0
 Multiplicity           Mult            ....    1
 Number of Electrons    NEL             ....   60
 Basis Dimension        Dim             ....  308

ORBITAL ENERGIES
----------------

  NO   OCC          E(Eh)            E(eV)
   0   2.0000     -20.545332      -559.0669
   1   2.0000     -11.286358      -307.1174
   2   2.0000     -11.280809      -306.9664
   3   2.0000     -11.234517      -305.7068
   4   2.0000     -11.233706      -305.6847
   5   2.0000     -11.221339      -305.3482
   6   2.0000     -11.219697      -305.3035
   7   2.0000     -11.215436      -305.1875
   8   2.0000      -1.390500       -37.8374
   9   2.0000      -1.136709       -30.9314
  10   2.0000      -1.043924       -28.4066
  11   2.0000      -0.975947       -26.5569
  12   2.0000      -0.883748       -24.0480
  13   2.0000      -0.834204       -22.6998
  14   2.0000      -0.762480       -20.7481
  15   2.0000      -0.742100       -20.1936
  16   2.0000      -0.675959       -18.3938
  17   2.0000      -0.641773       -17.4635
  18   2.0000      -0.629878       -17.1399
  19   2.0000      -0.595660       -16.2087
  20   2.0000      -0.570129       -15.5140
  21   2.0000      -0.558081       -15.1862
  22   2.0000      -0.520037       -14.1509
  23   2.0000      -0.512065       -13.9340
  24   2.0000      -0.496969       -13.5232
  25   2.0000      -0.468738       -12.7550
  26   2.0000      -0.460017       -12.5177
  27   2.0000      -0.426104       -11.5949
  28   2.0000      -0.405546       -11.0355
  29   2.0000      -0.390522       -10.6266
  30   0.0000       0.142144         3.8679
  31   0.0000       0.158314         4.3079
  32   0.0000       0.165198         4.4953
  33   0.0000       0.182346         4.9619
  34   0.0000       0.196579         5.3492

MULLIKEN ATOMIC CHARGES
-----------------------
   0 C :   -0.433850
   1 C :    0.169471
   2 C :   -0.224227
   3 C :   -0.139350
   4 C :    0.040629
   5 C :   -0.247394
   6 C :   -0.100826
   7 O :   -0.318226
   8 H :    0.128993
   9 H :    0.143026
  10 H :    0.138360
  11 H :    0.116297
  12 H :    0.110059
  13 H :    0.129409
  14 H :    0.126122
  15 H :    0.117336
  16 H :    0.114655
  17 H :    0.129514
Sum of atomic charges:    0.0000000

LOEWDIN ATOMIC CHARGES
----------------------
   0 C :   -0.272303
   1 C :   -0.303027
   2 C :   -0.192262
   3 C :   -0.164815
   4 C :   -0.237733
   5 C :   -0.214707
   6 C :   -0.146512
   7 O :    0.203733
   8 H :    0.129976
   9 H :    0.133811
  10 H :    0.131820
  11 H :    0.128360
  12 H :    0.141830
  13 H :    0.132818
  14 H :    0.126870
  15 H :    0.126966
  16 H :    0.140982
  17 H :    0.134193

  Mayer bond orders larger than 0.1
B(  0-C ,  1-C ) :   0.8432 B(  0-C ,  8-H ) :   0.9442 B(  0-C ,  9-H ) :   0.9425
B(  0-C , 10-H ) :   0.9421 B(  1-C ,  2-C ) :   0.9335 B(  1-C ,  6-C ) :   0.8605
B(  1-C ,  7-O ) :   0.9140 B(  2-C ,  3-C ) :   0.9495 B(  2-C , 11-H ) :   0.9135
B(  2-C , 12-H ) :   0.9203 B(  3-C ,  4-C ) :   0.8826 B(  3-C ,  6-C ) :   0.8718
B(  3-C , 13-H ) :   0.9112 B(  4-C ,  5-C ) :   0.9325 B(  4-C ,  7-O ) :   0.9269
B(  4-C , 14-H ) :   0.9133 B(  5-C ,  6-C ) :   0.9441 B(  5-C , 15-H ) :   0.9161
B(  5-C , 16-H ) :   0.9225 B(  6-C , 17-H ) :   0.9061

MP2 TOTAL ENERGY:     -347.167736469 Eh
FINAL SINGLE POINT ENERGY      -347.167736469367

DIPOLE MOMENT
-------------
                                X             Y             Z
Electronic contribution:     -1.81160      -2.28366      -0.51838
Nuclear contribution   :      2.38164       2.17160       0.71338
                        -----------------------------------------
Total Dipole Moment    :      0.57005      -0.11206       0.19499
                        -----------------------------------------
Magnitude (a.u.)       :      0.61281
Magnitude (Debye)      :      1.55763

                             ****ORCA TERMINATED NORMALLY****
TOTAL RUN TIME: 0 days 0 hours 14 minutes 21 seconds 190 msec
