                         Program Version 3.0.3 - RELEASE   -
|  1> ! RI-MP2 RIJK def2-TZVP def2-TZVP/C def2-TZVP/JK TIGHTSCF
|  2> % maxcore 2000
|  3> % mp2 density relaxed end
|  4> *xyz 0 1
|  5>  N        0.4927906946     0.9054872729    -1.7281189202
|  6>  C       -0.0194747605     0.3177046982    -0.7312657714
|  7>  C       -1.4793583016    -0.1340886882    -0.7980001720
|  8>  C       -2.1856595801    -0.1274781437     0.4771738290
|  9>  C       -2.7324170313    -0.1386379374     1.5482944611
| 10>  N        0.6246793327    -0.0346807848     0.4705165124
| 11>  C        1.9447448810     0.1764681672     0.7815335741
| 12>  O        2.7746911135     0.6673441401     0.0500612223
| 13>  H        1.4807300700     1.1020720597    -1.5625911805
| 14>  H       -1.9726314510     0.5108318577    -1.5294313946
| 15>  H       -1.4981402028    -1.1499845401    -1.2157913540
| 16>  H       -3.2434105766    -0.1340519408     2.4797451988
| 17>  H        0.0333986378    -0.4081723640     1.2013234259
| 18>  H        2.1770948444    -0.1667322668     1.8077213292
| 19> *
| 20>
| 21>                          ****END OF INPUT****

CARTESIAN COORDINATES (ANGSTROEM)
---------------------------------
  N      0.492791    0.905487   -1.728119
  C     -0.019475    0.317705   -0.731266
  C     -1.479358   -0.134089   -0.798000
  C     -2.185660   -0.127478    0.477174
  C     -2.732417   -0.138638    1.548294
  N      0.624679   -0.034681    0.470517
  C      1.944745    0.176468    0.781534
  O      2.774691    0.667344    0.050061
  H      1.480730    1.102072   -1.562591
  H     -1.972631    0.510832   -1.529431
  H     -1.498140   -1.149985   -1.215791
  H     -3.243411   -0.134052    2.479745
  H      0.033399   -0.408172    1.201323
  H      2.177095   -0.166732    1.807721

 Total Charge           Charge          ....    0
 Multiplicity           Mult            ....    1
 Number of Electrons    NEL             ....   58
 Basis Dimension        Dim             ....  284

ORBITAL ENERGIES
----------------

  NO   OCC          E(Eh)            E(eV)
   0   2.0000     -20.554889      -559.3270
   1   2.0000     -15.622409      -425.1073
   2   2.0000     -15.540559      -422.8801
   3   2.0000     -11.377956      -309.6099
   4   2.0000     -11.339258      -308.5569
   5   2.0000     -11.280201      -306.9499
   6   2.0000     -11.261799      -306.4491
   7   2.0000     -11.249791      -306.1224
   8   2.0000      -1.414986       -38.5037
   9   2.0000      -1.294425       -35.2231
  10   2.0000      -1.187672       -32.3182
  11   2.0000      -1.092571       -29.7304
  12   2.0000      -1.001249       -27.2454
  13   2.0000      -0.902844       -24.5676
  14   2.0000      -0.786841       -21.4110
  15   2.0000      -0.774262       -21.0687
  16   2.0000      -0.740599       -20.1527
  17   2.0000      -0.701304       -19.0835
  18   2.0000      -0.653641       -17.7865
  19   2.0000      -0.640628       -17.4324
  20   2.0000      -0.619838       -16.8667
  21   2.0000      -0.599125       -16.3030
  22   2.0000      -0.598369       -16.2824
  23   2.0000      -0.494056       -13.4439
  24   2.0000      -0.483140       -13.1469
  25   2.0000      -0.435745       -11.8572
  26   2.0000      -0.416290       -11.3278
  27   2.0000      -0.409598       -11.1457
  28   2.0000      -0.392556       -10.6820
  29   0.0000       0.116956         3.1825
  30   0.0000       0.125183         3.4064
  31   0.0000       0.145374         3.9558
  32   0.0000       0.153264         4.1705
  33   0.0000       0.159106         4.3295

MULLIKEN ATOMIC CHARGES
-----------------------
   0 N :   -0.345397
   1 C :    0.132425
   2 C :   -0.274072
   3 C :   -0.070857
   4 C :   -0.156877
   5 N :   -0.301462
   6 C :    0.215130
   7 O :   -0.350372
   8 H :    0.248890
   9 H :    0.174570
  10 H :    0.167986
  11 H :    0.199145
  12 H :    0.259296
  13 H :    0.101593
Sum of atomic charges:   -0.0000000

LOEWDIN ATOMIC CHARGES
----------------------
   0 N :   -0.022108
   1 C :   -0.338335
   2 C :   -0.205140
   3 C :   -0.120764
   4 C :   -0.098371
   5 N :    0.127316
   6 C :   -0.395665
   7 O :    0.083542
   8 H :    0.169229
   9 H :    0.175087
  10 H :    0.173037
  11 H :    0.130130
  12 H :    0.204979
  13 H :    0.117063

  Mayer bond orders larger than 0.1
B(  0-N ,  1-C ) :   2.0510 B(  0-N ,  8-H ) :   0.8468 B(  1-C ,  2-C ) :   0.9004
B(  1-C ,  5-N ) :   0.9627 B(  2-C ,  3-C ) :   1.0186 B(  2-C ,  9-H ) :   0.9242
B(  2-C , 10-H ) :   0.9211 B(  3-C ,  4-C ) :   2.6335 B(  4-C , 11-H ) :   0.9039
B(  5-N ,  6-C ) :   1.0897 B(  5-N , 12-H ) :   0.8493 B(  6-C ,  7-O ) :   1.8640
B(  6-C , 13-H ) :   0.9287

MP2 TOTAL ENERGY:     -378.073139592 Eh
FINAL SINGLE POINT ENERGY      -378.073139592156

DIPOLE MOMENT
-------------
                                X             Y             Z
Electronic contribution:      2.08079       0.64743       0.16568
Nuclear contribution   :     -2.95744      -1.43606       1.11600
                        -----------------------------------------
Total Dipole Moment    :     -0.87665      -0.78863       1.28169
                        -----------------------------------------
Magnitude (a.u.)       :      1.74160
Magnitude (Debye)      :      4.42680

                             ****ORCA TERMINATED NORMALLY****
TOTAL RUN TIME: 0 days 0 hours 9 minutes 17 seconds 753 msec
