                         Program Version 3.0.3 - RELEASE   -
|  1> ! RI-MP2 RIJK def2-TZVP def2-TZVP/C def2-TZVP/JK TIGHTSCF
|  2> % maxcore 2000
|  3> % mp2 density relaxed end
|  4> *xyz 0 1
|  5>  C        0.2747540736     1.4441171047    -0.4983327520
|  6>  C       -0.0145780514     0.0321699929    -0.0441799312
|  7>  C       -1.2467085935    -0.6155189132    -0.6401039816
|  8>  O        1.1228088419    -0.8243325538     0.0635960347
|  9>  C        0.4694810581    -0.4777296986     1.2758641450
| 10>  C        1.2164025085     0.3946497750     2.2450596769
| 11>  O        2.2070080819     1.0323798512     1.9613326883
| 12>  C        0.6276310639     0.4334935966     3.5744765725
| 13>  C        0.1305594238     0.4509093878     4.6708305849
| 14>  H        1.1825841105     1.8285159049    -0.0339196392
| 15>  H        0.4081479486     1.4547231285    -1.5854580559
| 16>  H       -0.5648326291     2.1052175521    -0.2593652388
| 17>  H       -1.1707286396    -0.6280877972    -1.7327778727
| 18>  H       -1.3569344533    -1.6450141714    -0.2919963784
| 19>  H       -2.1477677882    -0.0536450180    -0.3738667408
| 20>  H       -0.1054283346    -1.2762906459     1.7460493416
| 21>  H       -0.2956236211     0.4813996042     5.6444170666
| 22> *
| 23>
| 24>                          ****END OF INPUT****

CARTESIAN COORDINATES (ANGSTROEM)
---------------------------------
  C      0.274754    1.444117   -0.498333
  C     -0.014578    0.032170   -0.044180
  C     -1.246709   -0.615519   -0.640104
  O      1.122809   -0.824333    0.063596
  C      0.469481   -0.477730    1.275864
  C      1.216403    0.394650    2.245060
  O      2.207008    1.032380    1.961333
  C      0.627631    0.433494    3.574477
  C      0.130559    0.450909    4.670831
  H      1.182584    1.828516   -0.033920
  H      0.408148    1.454723   -1.585458
  H     -0.564833    2.105218   -0.259365
  H     -1.170729   -0.628088   -1.732778
  H     -1.356934   -1.645014   -0.291996
  H     -2.147768   -0.053645   -0.373867
  H     -0.105428   -1.276291    1.746049
  H     -0.295624    0.481400    5.644417

 Total Charge           Charge          ....    0
 Multiplicity           Mult            ....    1
 Number of Electrons    NEL             ....   66
 Basis Dimension        Dim             ....  327

ORBITAL ENERGIES
----------------

  NO   OCC          E(Eh)            E(eV)
   0   2.0000     -20.582652      -560.0824
   1   2.0000     -20.569388      -559.7215
   2   2.0000     -11.369031      -309.3671
   3   2.0000     -11.315900      -307.9213
   4   2.0000     -11.304772      -307.6185
   5   2.0000     -11.271382      -306.7099
   6   2.0000     -11.261230      -306.4336
   7   2.0000     -11.235320      -305.7286
   8   2.0000     -11.225748      -305.4681
   9   2.0000      -1.437705       -39.1220
  10   2.0000      -1.404074       -38.2068
  11   2.0000      -1.077345       -29.3160
  12   2.0000      -1.052318       -28.6350
  13   2.0000      -0.987547       -26.8725
  14   2.0000      -0.960064       -26.1247
  15   2.0000      -0.859394       -23.3853
  16   2.0000      -0.792485       -21.5646
  17   2.0000      -0.745113       -20.2756
  18   2.0000      -0.722269       -19.6539
  19   2.0000      -0.669139       -18.2082
  20   2.0000      -0.657169       -17.8825
  21   2.0000      -0.623297       -16.9608
  22   2.0000      -0.599482       -16.3127
  23   2.0000      -0.573212       -15.5979
  24   2.0000      -0.564507       -15.3610
  25   2.0000      -0.549599       -14.9554
  26   2.0000      -0.530705       -14.4412
  27   2.0000      -0.526777       -14.3343
  28   2.0000      -0.468653       -12.7527
  29   2.0000      -0.449642       -12.2354
  30   2.0000      -0.430754       -11.7214
  31   2.0000      -0.427777       -11.6404
  32   2.0000      -0.425058       -11.5664
  33   0.0000       0.066219         1.8019
  34   0.0000       0.132355         3.6016
  35   0.0000       0.149908         4.0792
  36   0.0000       0.156682         4.2635
  37   0.0000       0.169024         4.5994

MULLIKEN ATOMIC CHARGES
-----------------------
   0 C :   -0.411841
   1 C :    0.211512
   2 C :   -0.387278
   3 O :   -0.313703
   4 C :   -0.037762
   5 C :    0.081556
   6 O :   -0.261616
   7 C :    0.020228
   8 C :   -0.110119
   9 H :    0.176641
  10 H :    0.139005
  11 H :    0.131022
  12 H :    0.140318
  13 H :    0.142256
  14 H :    0.134760
  15 H :    0.140076
  16 H :    0.204946
Sum of atomic charges:    0.0000000

LOEWDIN ATOMIC CHARGES
----------------------
   0 C :   -0.262793
   1 C :   -0.332268
   2 C :   -0.263443
   3 O :    0.217566
   4 C :   -0.224212
   5 C :   -0.317933
   6 O :    0.190121
   7 C :   -0.057277
   8 C :   -0.038409
   9 H :    0.139674
  10 H :    0.134386
  11 H :    0.132422
  12 H :    0.133222
  13 H :    0.132332
  14 H :    0.132443
  15 H :    0.150894
  16 H :    0.133275

  Mayer bond orders larger than 0.1
B(  0-C ,  1-C ) :   0.9000 B(  0-C ,  9-H ) :   0.9289 B(  0-C , 10-H ) :   0.9308
B(  0-C , 11-H ) :   0.9281 B(  1-C ,  2-C ) :   0.9053 B(  1-C ,  3-O ) :   0.8865
B(  1-C ,  4-C ) :   0.9276 B(  2-C , 12-H ) :   0.9327 B(  2-C , 13-H ) :   0.9362
B(  2-C , 14-H ) :   0.9278 B(  3-O ,  4-C ) :   0.8878 B(  4-C ,  5-C ) :   0.9882
B(  4-C ,  7-C ) :  -0.1203 B(  4-C , 15-H ) :   0.8948 B(  5-C ,  6-O ) :   1.9947
B(  5-C ,  7-C ) :   0.9693 B(  7-C ,  8-C ) :   2.6120 B(  8-C , 16-H ) :   0.8931

MP2 TOTAL ENERGY:     -421.068569119 Eh
FINAL SINGLE POINT ENERGY      -421.068569118823

DIPOLE MOMENT
-------------
                                X             Y             Z
Electronic contribution:      6.31754      -0.66981       7.26823
Nuclear contribution   :     -7.79931       0.57729      -6.92224
                        -----------------------------------------
Total Dipole Moment    :     -1.48177      -0.09252       0.34599
                        -----------------------------------------
Magnitude (a.u.)       :      1.52444
Magnitude (Debye)      :      3.87482

                             ****ORCA TERMINATED NORMALLY****
TOTAL RUN TIME: 0 days 0 hours 17 minutes 16 seconds 599 msec
