                         Program Version 3.0.3 - RELEASE   -
|  1> ! RI-MP2 RIJK def2-TZVP def2-TZVP/C def2-TZVP/JK TIGHTSCF
|  2> % maxcore 2000
|  3> % mp2 density relaxed end
|  4> *xyz 0 1
|  5>  N       -0.0055740234    -1.1394293226    -0.0490726577
|  6>  C        0.0153595368     0.0168734055    -0.0336413399
|  7>  C        0.0358205662     1.4609802687    -0.0026565588
|  8>  C       -0.2821728053     2.2786866011     1.3093385425
|  9>  C        0.4555014068     3.4085579822     0.5105961102
| 10>  C        1.3669630687     2.2773478158    -0.0382807892
| 11>  C       -0.5608324504     3.6244722173    -0.6306282501
| 12>  N       -0.1402120027     3.0969858316    -1.9505654421
| 13>  C       -0.8678240828     2.2274718512    -1.0060746264
| 14>  H       -1.3374668214     2.4246193507     1.5539401525
| 15>  H        0.2727739679     1.9175402483     2.1774093313
| 16>  H        0.8686479556     4.2856870639     1.0049226734
| 17>  H        2.0671074403     1.9168971127     0.7155171286
| 18>  H        1.8459967902     2.4115358312    -1.0043719512
| 19>  H       -1.3129368461     4.4018102566    -0.5668338783
| 20>  H       -0.7929752506     3.4211959220    -2.6612965332
| 21>  H       -1.8557211297     1.8508885340    -1.2404188816
| 22> *
| 23>
| 24>                          ****END OF INPUT****

CARTESIAN COORDINATES (ANGSTROEM)
---------------------------------
  N     -0.005574   -1.139429   -0.049073
  C      0.015360    0.016873   -0.033641
  C      0.035821    1.460980   -0.002657
  C     -0.282173    2.278687    1.309339
  C      0.455501    3.408558    0.510596
  C      1.366963    2.277348   -0.038281
  C     -0.560832    3.624472   -0.630628
  N     -0.140212    3.096986   -1.950565
  C     -0.867824    2.227472   -1.006075
  H     -1.337467    2.424619    1.553940
  H      0.272774    1.917540    2.177409
  H      0.868648    4.285687    1.004923
  H      2.067107    1.916897    0.715517
  H      1.845997    2.411536   -1.004372
  H     -1.312937    4.401810   -0.566834
  H     -0.792975    3.421196   -2.661297
  H     -1.855721    1.850889   -1.240419

 Total Charge           Charge          ....    0
 Multiplicity           Mult            ....    1
 Number of Electrons    NEL             ....   64
 Basis Dimension        Dim             ....  327

ORBITAL ENERGIES
----------------

  NO   OCC          E(Eh)            E(eV)
   0   2.0000     -15.578661      -423.9169
   1   2.0000     -15.565957      -423.5712
   2   2.0000     -11.292536      -307.2855
   3   2.0000     -11.282652      -307.0166
   4   2.0000     -11.277344      -306.8721
   5   2.0000     -11.268138      -306.6216
   6   2.0000     -11.260512      -306.4141
   7   2.0000     -11.257560      -306.3338
   8   2.0000     -11.246320      -306.0279
   9   2.0000      -1.303879       -35.4804
  10   2.0000      -1.214832       -33.0573
  11   2.0000      -1.165117       -31.7045
  12   2.0000      -0.984235       -26.7824
  13   2.0000      -0.936298       -25.4780
  14   2.0000      -0.909733       -24.7551
  15   2.0000      -0.822143       -22.3716
  16   2.0000      -0.771555       -20.9951
  17   2.0000      -0.748368       -20.3641
  18   2.0000      -0.694239       -18.8912
  19   2.0000      -0.666428       -18.1344
  20   2.0000      -0.584052       -15.8929
  21   2.0000      -0.566029       -15.4024
  22   2.0000      -0.561460       -15.2781
  23   2.0000      -0.539912       -14.6918
  24   2.0000      -0.520923       -14.1750
  25   2.0000      -0.508794       -13.8450
  26   2.0000      -0.502639       -13.6775
  27   2.0000      -0.492677       -13.4064
  28   2.0000      -0.469897       -12.7865
  29   2.0000      -0.442720       -12.0470
  30   2.0000      -0.431860       -11.7515
  31   2.0000      -0.381892       -10.3918
  32   0.0000       0.122849         3.3429
  33   0.0000       0.140303         3.8178
  34   0.0000       0.149498         4.0680
  35   0.0000       0.151596         4.1252
  36   0.0000       0.180616         4.9148

MULLIKEN ATOMIC CHARGES
-----------------------
   0 N :   -0.040040
   1 C :   -0.232174
   2 C :    0.286095
   3 C :   -0.292325
   4 C :   -0.005397
   5 C :   -0.296687
   6 C :   -0.120308
   7 N :   -0.370246
   8 C :   -0.156215
   9 H :    0.131454
  10 H :    0.139490
  11 H :    0.147537
  12 H :    0.141748
  13 H :    0.162803
  14 H :    0.137622
  15 H :    0.221731
  16 H :    0.144913
Sum of atomic charges:    0.0000000

LOEWDIN ATOMIC CHARGES
----------------------
   0 N :    0.065800
   1 C :   -0.152735
   2 C :   -0.207825
   3 C :   -0.141310
   4 C :   -0.177442
   5 C :   -0.148207
   6 C :   -0.216308
   7 N :    0.013640
   8 C :   -0.188555
   9 H :    0.133197
  10 H :    0.140808
  11 H :    0.137085
  12 H :    0.146020
  13 H :    0.141380
  14 H :    0.137901
  15 H :    0.173491
  16 H :    0.143061

  Mayer bond orders larger than 0.1
B(  0-N ,  1-C ) :   2.9064 B(  1-C ,  2-C ) :   0.8589 B(  2-C ,  3-C ) :   0.8682
B(  2-C ,  5-C ) :   0.9081 B(  2-C ,  6-C ) :  -0.1011 B(  2-C ,  7-N ) :  -0.1045
B(  2-C ,  8-C ) :   0.7934 B(  3-C ,  4-C ) :   0.9064 B(  3-C ,  9-H ) :   0.9235
B(  3-C , 10-H ) :   0.9230 B(  4-C ,  5-C ) :   0.9330 B(  4-C ,  6-C ) :   0.8575
B(  4-C , 11-H ) :   0.9049 B(  5-C ,  7-N ) :   0.1012 B(  5-C , 12-H ) :   0.9313
B(  5-C , 13-H ) :   0.9005 B(  6-C ,  7-N ) :   0.9851 B(  6-C ,  8-C ) :   0.9764
B(  6-C , 14-H ) :   0.9282 B(  7-N ,  8-C ) :   1.0482 B(  7-N , 15-H ) :   0.8721
B(  8-C , 16-H ) :   0.9338

MP2 TOTAL ENERGY:     -380.163310388 Eh
FINAL SINGLE POINT ENERGY      -380.163310387902

DIPOLE MOMENT
-------------
                                X             Y             Z
Electronic contribution:     -0.32629      -4.81529      -1.42496
Nuclear contribution   :     -0.20943       6.60803       1.64099
                        -----------------------------------------
Total Dipole Moment    :     -0.53572       1.79274       0.21602
                        -----------------------------------------
Magnitude (a.u.)       :      1.88350
Magnitude (Debye)      :      4.78749

                             ****ORCA TERMINATED NORMALLY****
TOTAL RUN TIME: 0 days 0 hours 17 minutes 38 seconds 128 msec
