                         Program Version 3.0.3 - RELEASE   -
|  1> ! RI-MP2 RIJK def2-TZVP def2-TZVP/C def2-TZVP/JK TIGHTSCF
|  2> % maxcore 2000
|  3> % mp2 density relaxed end
|  4> *xyz 0 1
|  5>  C       -0.3163948389     1.3039098906    -0.4167898681
|  6>  N       -0.8625796357    -0.0249596123    -0.2297920604
|  7>  C       -0.6280805414    -0.7574718818     0.8854692109
|  8>  O        0.0488849349    -0.3890974029     1.8270678930
|  9>  C       -1.2871415724    -2.1546137923     0.9211581267
| 10>  C       -2.0846713912    -2.5374272786    -0.2337352733
| 11>  C       -2.7384940722    -2.8290036420    -1.2005917638
| 12>  H        0.3340238762     1.3457573669    -1.2974640367
| 13>  H       -1.1123783965     2.0475086163    -0.5343298957
| 14>  H        0.2691367585     1.5450153062     0.4711837496
| 15>  H       -1.4406945148    -0.4335583880    -0.9475791876
| 16>  H       -0.4734805975    -2.8708545249     1.0815053715
| 17>  H       -1.8932863391    -2.1818775913     1.8336231378
| 18>  H       -3.3204010098    -3.1056413460    -2.0449693037
| 19> *
| 20>
| 21>                          ****END OF INPUT****

CARTESIAN COORDINATES (ANGSTROEM)
---------------------------------
  C     -0.316395    1.303910   -0.416790
  N     -0.862580   -0.024960   -0.229792
  C     -0.628081   -0.757472    0.885469
  O      0.048885   -0.389097    1.827068
  C     -1.287142   -2.154614    0.921158
  C     -2.084671   -2.537427   -0.233735
  C     -2.738494   -2.829004   -1.200592
  H      0.334024    1.345757   -1.297464
  H     -1.112378    2.047509   -0.534330
  H      0.269137    1.545015    0.471184
  H     -1.440695   -0.433558   -0.947579
  H     -0.473481   -2.870855    1.081505
  H     -1.893286   -2.181878    1.833623
  H     -3.320401   -3.105641   -2.044969

 Total Charge           Charge          ....    0
 Multiplicity           Mult            ....    1
 Number of Electrons    NEL             ....   52
 Basis Dimension        Dim             ....  259

ORBITAL ENERGIES
----------------

  NO   OCC          E(Eh)            E(eV)
   0   2.0000     -20.515529      -558.2559
   1   2.0000     -15.586925      -424.1418
   2   2.0000     -11.356750      -309.0329
   3   2.0000     -11.272825      -306.7492
   4   2.0000     -11.260379      -306.4105
   5   2.0000     -11.255440      -306.2761
   6   2.0000     -11.243025      -305.9383
   7   2.0000      -1.383926       -37.6585
   8   2.0000      -1.235242       -33.6126
   9   2.0000      -1.088401       -29.6169
  10   2.0000      -1.000198       -27.2168
  11   2.0000      -0.942435       -25.6450
  12   2.0000      -0.794527       -21.6202
  13   2.0000      -0.749864       -20.4048
  14   2.0000      -0.706246       -19.2179
  15   2.0000      -0.668324       -18.1860
  16   2.0000      -0.646564       -17.5939
  17   2.0000      -0.617046       -16.7907
  18   2.0000      -0.603882       -16.4325
  19   2.0000      -0.576221       -15.6798
  20   2.0000      -0.548762       -14.9326
  21   2.0000      -0.521876       -14.2010
  22   2.0000      -0.448431       -12.2024
  23   2.0000      -0.409723       -11.1491
  24   2.0000      -0.398248       -10.8369
  25   2.0000      -0.392140       -10.6707
  26   0.0000       0.134392         3.6570
  27   0.0000       0.147521         4.0143
  28   0.0000       0.157221         4.2782
  29   0.0000       0.160762         4.3746
  30   0.0000       0.165771         4.5109

MULLIKEN ATOMIC CHARGES
-----------------------
   0 C :   -0.287366
   1 N :   -0.310375
   2 C :    0.258621
   3 O :   -0.377461
   4 C :   -0.276953
   5 C :   -0.074005
   6 C :   -0.163530
   7 H :    0.136558
   8 H :    0.136559
   9 H :    0.177836
  10 H :    0.253860
  11 H :    0.164900
  12 H :    0.164913
  13 H :    0.196441
Sum of atomic charges:   -0.0000000

LOEWDIN ATOMIC CHARGES
----------------------
   0 C :   -0.308589
   1 N :    0.093770
   2 C :   -0.454393
   3 O :    0.074025
   4 C :   -0.212796
   5 C :   -0.122322
   6 C :   -0.105479
   7 H :    0.116244
   8 H :    0.116248
   9 H :    0.135121
  10 H :    0.193435
  11 H :    0.173047
  12 H :    0.173047
  13 H :    0.128641

  Mayer bond orders larger than 0.1
B(  0-C ,  1-N ) :   0.8451 B(  0-C ,  7-H ) :   0.9358 B(  0-C ,  8-H ) :   0.9358
B(  0-C ,  9-H ) :   0.9251 B(  1-N ,  2-C ) :   1.2274 B(  1-N , 10-H ) :   0.8572
B(  2-C ,  3-O ) :   1.9119 B(  2-C ,  4-C ) :   0.8847 B(  4-C ,  5-C ) :   0.9951
B(  4-C , 11-H ) :   0.9192 B(  4-C , 12-H ) :   0.9193 B(  5-C ,  6-C ) :   2.6521
B(  6-C , 13-H ) :   0.9023

MP2 TOTAL ENERGY:     -324.018127655 Eh
FINAL SINGLE POINT ENERGY      -324.018127655429

DIPOLE MOMENT
-------------
                                X             Y             Z
Electronic contribution:     -0.48921      -2.95103       1.78399
Nuclear contribution   :     -0.13264       2.94445      -2.95326
                        -----------------------------------------
Total Dipole Moment    :     -0.62185      -0.00658      -1.16927
                        -----------------------------------------
Magnitude (a.u.)       :      1.32436
Magnitude (Debye)      :      3.36626

                             ****ORCA TERMINATED NORMALLY****
TOTAL RUN TIME: 0 days 0 hours 7 minutes 0 seconds 112 msec
