                         Program Version 3.0.3 - RELEASE   -
|  1> ! RI-MP2 RIJK def2-TZVP def2-TZVP/C def2-TZVP/JK TIGHTSCF
|  2> % maxcore 2000
|  3> % mp2 density relaxed end
|  4> *xyz 0 1
|  5>  N        0.4897293345     0.1497778770     0.8850496608
|  6>  C       -0.1355139391     0.4170225945    -0.2864383302
|  7>  O        0.2195213802     1.2600099631    -1.0871637541
|  8>  C       -1.3932780996    -0.4143733879    -0.5617903677
|  9>  C       -1.3699511586    -1.1109825911    -1.9496635009
| 10>  N       -1.3308874447    -2.5505573402    -1.6431416259
| 11>  C       -1.4296220838    -2.6464005662    -0.3881222772
| 12>  O       -1.5315719351    -1.5168967770     0.3728915823
| 13>  H        1.3237351286     0.6618129953     1.1193339604
| 14>  H        0.1580490145    -0.5858809193     1.4844321957
| 15>  H       -2.2561199385     0.2438106601    -0.4318044651
| 16>  H       -2.2618896375    -0.8892862716    -2.5430864445
| 17>  H       -0.4993013068    -0.8071122231    -2.5353750333
| 18>  H       -1.4500335141    -3.5685644136     0.1814372398
| 19> *
| 20>
| 21>                          ****END OF INPUT****

CARTESIAN COORDINATES (ANGSTROEM)
---------------------------------
  N      0.489729    0.149778    0.885050
  C     -0.135514    0.417023   -0.286438
  O      0.219521    1.260010   -1.087164
  C     -1.393278   -0.414373   -0.561790
  C     -1.369951   -1.110983   -1.949664
  N     -1.330887   -2.550557   -1.643142
  C     -1.429622   -2.646401   -0.388122
  O     -1.531572   -1.516897    0.372892
  H      1.323735    0.661813    1.119334
  H      0.158049   -0.585881    1.484432
  H     -2.256120    0.243811   -0.431804
  H     -2.261890   -0.889286   -2.543086
  H     -0.499301   -0.807112   -2.535375
  H     -1.450034   -3.568564    0.181437

 Total Charge           Charge          ....    0
 Multiplicity           Mult            ....    1
 Number of Electrons    NEL             ....   60
 Basis Dimension        Dim             ....  284

ORBITAL ENERGIES
----------------

  NO   OCC          E(Eh)            E(eV)
   0   2.0000     -20.616072      -560.9918
   1   2.0000     -20.528026      -558.5960
   2   2.0000     -15.593420      -424.3185
   3   2.0000     -15.564475      -423.5309
   4   2.0000     -11.362983      -309.2025
   5   2.0000     -11.344533      -308.7004
   6   2.0000     -11.318259      -307.9855
   7   2.0000     -11.272796      -306.7484
   8   2.0000      -1.456813       -39.6419
   9   2.0000      -1.392067       -37.8801
  10   2.0000      -1.232731       -33.5443
  11   2.0000      -1.220073       -33.1999
  12   2.0000      -1.053208       -28.6593
  13   2.0000      -0.903770       -24.5928
  14   2.0000      -0.831718       -22.6322
  15   2.0000      -0.799548       -21.7568
  16   2.0000      -0.757277       -20.6066
  17   2.0000      -0.727410       -19.7938
  18   2.0000      -0.683874       -18.6091
  19   2.0000      -0.663933       -18.0665
  20   2.0000      -0.619053       -16.8453
  21   2.0000      -0.588298       -16.0084
  22   2.0000      -0.582876       -15.8609
  23   2.0000      -0.573678       -15.6106
  24   2.0000      -0.558939       -15.2095
  25   2.0000      -0.529587       -14.4108
  26   2.0000      -0.451576       -12.2880
  27   2.0000      -0.442270       -12.0348
  28   2.0000      -0.425805       -11.5867
  29   2.0000      -0.396639       -10.7931
  30   0.0000       0.128371         3.4932
  31   0.0000       0.139391         3.7930
  32   0.0000       0.159503         4.3403
  33   0.0000       0.170146         4.6299
  34   0.0000       0.188443         5.1278

MULLIKEN ATOMIC CHARGES
-----------------------
   0 N :   -0.468364
   1 C :    0.213312
   2 O :   -0.349659
   3 C :    0.109171
   4 C :   -0.146859
   5 N :   -0.254056
   6 C :    0.100208
   7 O :   -0.314632
   8 H :    0.263228
   9 H :    0.278199
  10 H :    0.133790
  11 H :    0.126790
  12 H :    0.157504
  13 H :    0.151368
Sum of atomic charges:    0.0000000

LOEWDIN ATOMIC CHARGES
----------------------
   0 N :    0.001199
   1 C :   -0.476594
   2 O :    0.088361
   3 C :   -0.229139
   4 C :   -0.243315
   5 N :    0.072684
   6 C :   -0.347220
   7 O :    0.209582
   8 H :    0.176496
   9 H :    0.176142
  10 H :    0.156469
  11 H :    0.135925
  12 H :    0.144659
  13 H :    0.134749

  Mayer bond orders larger than 0.1
B(  0-N ,  1-C ) :   1.1877 B(  0-N ,  8-H ) :   0.8579 B(  0-N ,  9-H ) :   0.8519
B(  1-C ,  2-O ) :   1.9755 B(  1-C ,  3-C ) :   0.8856 B(  3-C ,  4-C ) :   0.9323
B(  3-C ,  7-O ) :   0.8267 B(  3-C , 10-H ) :   0.9103 B(  4-C ,  5-N ) :   0.9204
B(  4-C , 11-H ) :   0.9205 B(  4-C , 12-H ) :   0.9191 B(  5-N ,  6-C ) :   1.8489
B(  6-C ,  7-O ) :   1.0229 B(  6-C , 13-H ) :   0.9200

MP2 TOTAL ENERGY:     -415.240494248 Eh
FINAL SINGLE POINT ENERGY      -415.240494248444

DIPOLE MOMENT
-------------
                                X             Y             Z
Electronic contribution:      0.13331      -0.02889       0.65069
Nuclear contribution   :     -0.23999      -0.29284       0.56204
                        -----------------------------------------
Total Dipole Moment    :     -0.10668      -0.32173       1.21273
                        -----------------------------------------
Magnitude (a.u.)       :      1.25921
Magnitude (Debye)      :      3.20066

                             ****ORCA TERMINATED NORMALLY****
TOTAL RUN TIME: 0 days 0 hours 9 minutes 40 seconds 616 msec
