                         Program Version 3.0.3 - RELEASE   -
|  1> ! RI-MP2 RIJK def2-TZVP def2-TZVP/C def2-TZVP/JK TIGHTSCF
|  2> % maxcore 2000
|  3> % mp2 density relaxed end
|  4> *xyz 0 1
|  5>  C       -0.0264166870     1.4205319400    -0.1075387084
|  6>  O        0.4473517257     0.0907258138    -0.1267735687
|  7>  C       -0.0421567421    -0.6600180302    -1.2282803812
|  8>  C        0.3964464398    -2.1006408535    -1.0638733747
|  9>  C        0.0021589273    -2.7376712649     0.2617157867
| 10>  O        0.8134775953    -2.2940814998     1.3321960625
| 11>  O        0.1722279654    -2.9078801763    -2.2272908790
| 12>  C        1.5295437484    -2.6774956883    -1.8066126279
| 13>  C        2.4405184825    -1.9390967893    -2.7512652719
| 14>  H        0.2809632379     1.9676384318    -1.0109865412
| 15>  H       -1.1237307119     1.4573550597    -0.0358452646
| 16>  H        0.4060807537     1.9092369317     0.7680860644
| 17>  H       -1.1447273422    -0.6282511866    -1.2460844997
| 18>  H        0.3120898356    -0.2353836518    -2.1767180171
| 19>  H       -1.0675141511    -2.5465733142     0.4543100309
| 20>  H        0.1305246543    -3.8211636163     0.1798795090
| 21>  H        0.8029911952    -1.3289999575     1.2896654636
| 22>  H        1.9867218341    -3.5543626627    -1.3438482680
| 23>  H        1.9538669659    -1.0739470769    -3.2055387041
| 24>  H        3.3364675295    -1.5997000873    -2.2208464411
| 25>  H        2.7609310239    -2.6053019814    -3.5590331294
| 26> *
| 27>
| 28>                          ****END OF INPUT****

CARTESIAN COORDINATES (ANGSTROEM)
---------------------------------
  C     -0.026417    1.420532   -0.107539
  O      0.447352    0.090726   -0.126774
  C     -0.042157   -0.660018   -1.228280
  C      0.396446   -2.100641   -1.063873
  C      0.002159   -2.737671    0.261716
  O      0.813478   -2.294081    1.332196
  O      0.172228   -2.907880   -2.227291
  C      1.529544   -2.677496   -1.806613
  C      2.440518   -1.939097   -2.751265
  H      0.280963    1.967638   -1.010987
  H     -1.123731    1.457355   -0.035845
  H      0.406081    1.909237    0.768086
  H     -1.144727   -0.628251   -1.246084
  H      0.312090   -0.235384   -2.176718
  H     -1.067514   -2.546573    0.454310
  H      0.130525   -3.821164    0.179880
  H      0.802991   -1.329000    1.289665
  H      1.986722   -3.554363   -1.343848
  H      1.953867   -1.073947   -3.205539
  H      3.336468   -1.599700   -2.220846
  H      2.760931   -2.605302   -3.559033

 Total Charge           Charge          ....    0
 Multiplicity           Mult            ....    1
 Number of Electrons    NEL             ....   72
 Basis Dimension        Dim             ....  351

ORBITAL ENERGIES
----------------

  NO   OCC          E(Eh)            E(eV)
   0   2.0000     -20.580372      -560.0204
   1   2.0000     -20.567780      -559.6778
   2   2.0000     -20.543105      -559.0063
   3   2.0000     -11.293051      -307.2995
   4   2.0000     -11.290259      -307.2236
   5   2.0000     -11.288536      -307.1767
   6   2.0000     -11.288519      -307.1762
   7   2.0000     -11.274233      -306.7875
   8   2.0000     -11.228085      -305.5317
   9   2.0000      -1.415646       -38.5217
  10   2.0000      -1.396205       -37.9927
  11   2.0000      -1.349681       -36.7267
  12   2.0000      -1.034481       -28.1497
  13   2.0000      -1.012635       -27.5552
  14   2.0000      -0.954931       -25.9850
  15   2.0000      -0.900868       -24.5139
  16   2.0000      -0.853933       -23.2367
  17   2.0000      -0.779212       -21.2034
  18   2.0000      -0.715031       -19.4570
  19   2.0000      -0.675844       -18.3907
  20   2.0000      -0.674257       -18.3475
  21   2.0000      -0.660721       -17.9791
  22   2.0000      -0.644788       -17.5456
  23   2.0000      -0.606946       -16.5158
  24   2.0000      -0.599976       -16.3262
  25   2.0000      -0.585092       -15.9212
  26   2.0000      -0.577882       -15.7250
  27   2.0000      -0.558290       -15.1919
  28   2.0000      -0.538935       -14.6652
  29   2.0000      -0.520303       -14.1582
  30   2.0000      -0.512375       -13.9424
  31   2.0000      -0.483493       -13.1565
  32   2.0000      -0.460777       -12.5384
  33   2.0000      -0.445853       -12.1323
  34   2.0000      -0.434487       -11.8230
  35   2.0000      -0.415223       -11.2988
  36   0.0000       0.128475         3.4960
  37   0.0000       0.154947         4.2163
  38   0.0000       0.167296         4.5524
  39   0.0000       0.172942         4.7060
  40   0.0000       0.183100         4.9824

MULLIKEN ATOMIC CHARGES
-----------------------
   0 C :   -0.217901
   1 O :   -0.346590
   2 C :   -0.062841
   3 C :    0.126919
   4 C :   -0.003581
   5 O :   -0.486447
   6 O :   -0.342462
   7 C :    0.037566
   8 C :   -0.380279
   9 H :    0.120348
  10 H :    0.120380
  11 H :    0.144894
  12 H :    0.117385
  13 H :    0.104444
  14 H :    0.095151
  15 H :    0.120051
  16 H :    0.330436
  17 H :    0.115726
  18 H :    0.125860
  19 H :    0.137992
  20 H :    0.142948
Sum of atomic charges:    0.0000000

LOEWDIN ATOMIC CHARGES
----------------------
   0 C :   -0.352460
   1 O :    0.124482
   2 C :   -0.277646
   3 C :   -0.321152
   4 C :   -0.305302
   5 O :   -0.044724
   6 O :    0.181833
   7 C :   -0.261392
   8 C :   -0.290958
   9 H :    0.106285
  10 H :    0.104577
  11 H :    0.115684
  12 H :    0.130659
  13 H :    0.126982
  14 H :    0.122055
  15 H :    0.136378
  16 H :    0.170474
  17 H :    0.144033
  18 H :    0.124822
  19 H :    0.134136
  20 H :    0.131233

  Mayer bond orders larger than 0.1
B(  0-C ,  1-O ) :   0.8985 B(  0-C ,  9-H ) :   0.9358 B(  0-C , 10-H ) :   0.9372
B(  0-C , 11-H ) :   0.9380 B(  1-O ,  2-C ) :   0.9032 B(  2-C ,  3-C ) :   0.9275
B(  2-C , 12-H ) :   0.9305 B(  2-C , 13-H ) :   0.9219 B(  3-C ,  4-C ) :   0.8977
B(  3-C ,  6-O ) :   0.9043 B(  3-C ,  7-C ) :   0.9646 B(  4-C ,  5-O ) :   0.9453
B(  4-C , 14-H ) :   0.9282 B(  4-C , 15-H ) :   0.9235 B(  5-O , 16-H ) :   0.8203
B(  6-O ,  7-C ) :   0.8661 B(  7-C ,  8-C ) :   0.8883 B(  7-C , 17-H ) :   0.9123
B(  8-C , 18-H ) :   0.9421 B(  8-C , 19-H ) :   0.9248 B(  8-C , 20-H ) :   0.9345

MP2 TOTAL ENERGY:     -460.596903185 Eh
FINAL SINGLE POINT ENERGY      -460.596903185386

DIPOLE MOMENT
-------------
                                X             Y             Z
Electronic contribution:     -1.03251      -4.46635       1.64907
Nuclear contribution   :      0.99980       5.57454      -2.05369
                        -----------------------------------------
Total Dipole Moment    :     -0.03271       1.10819      -0.40462
                        -----------------------------------------
Magnitude (a.u.)       :      1.18020
Magnitude (Debye)      :      2.99984

                             ****ORCA TERMINATED NORMALLY****
TOTAL RUN TIME: 0 days 0 hours 16 minutes 20 seconds 393 msec
