                         Program Version 3.0.3 - RELEASE   -
|  1> ! RI-MP2 RIJK def2-TZVP def2-TZVP/C def2-TZVP/JK TIGHTSCF
|  2> % maxcore 2000
|  3> % mp2 density relaxed end
|  4> *xyz 0 1
|  5>  C       -0.1119225137     1.4431778198     0.0179488806
|  6>  N       -0.0144817436     0.0024612766     0.0384271711
|  7>  C       -0.0257598333    -0.7659660891    -1.1297796463
|  8>  O       -0.0610690432    -0.3595569592    -2.2785471637
|  9>  N        0.0044218789    -2.0639692359    -0.6675766729
| 10>  C        0.0392150409    -2.1051555630     0.7356212306
| 11>  C        0.0181492270    -0.8226773885     1.1625318166
| 12>  N       -0.0744602782    -0.2592699156     2.4412854345
| 13>  H        0.8250795286     1.9226541230     0.3267365978
| 14>  H       -0.3247492793     1.7297116870    -1.0135769407
| 15>  H       -0.9159581024     1.7846339000     0.6760429556
| 16>  H       -0.0163350252    -2.8497468975    -1.2913184909
| 17>  H        0.0730751728    -3.0271082996     1.2879252659
| 18>  H       -0.1421836135    -0.9762103485     3.1527169484
| 19>  H        0.7124848841     0.3433201307     2.6638000933
| 20> *
| 21>
| 22>                          ****END OF INPUT****

CARTESIAN COORDINATES (ANGSTROEM)
---------------------------------
  C     -0.111923    1.443178    0.017949
  N     -0.014482    0.002461    0.038427
  C     -0.025760   -0.765966   -1.129780
  O     -0.061069   -0.359557   -2.278547
  N      0.004422   -2.063969   -0.667577
  C      0.039215   -2.105156    0.735621
  C      0.018149   -0.822677    1.162532
  N     -0.074460   -0.259270    2.441285
  H      0.825080    1.922654    0.326737
  H     -0.324749    1.729712   -1.013577
  H     -0.915958    1.784634    0.676043
  H     -0.016335   -2.849747   -1.291318
  H      0.073075   -3.027108    1.287925
  H     -0.142184   -0.976210    3.152717
  H      0.712485    0.343320    2.663800

 Total Charge           Charge          ....    0
 Multiplicity           Mult            ....    1
 Number of Electrons    NEL             ....   60
 Basis Dimension        Dim             ....  290

ORBITAL ENERGIES
----------------

  NO   OCC          E(Eh)            E(eV)
   0   2.0000     -20.497840      -557.7746
   1   2.0000     -15.598499      -424.4567
   2   2.0000     -15.591966      -424.2790
   3   2.0000     -15.584256      -424.0692
   4   2.0000     -11.364195      -309.2355
   5   2.0000     -11.308873      -307.7301
   6   2.0000     -11.262667      -306.4727
   7   2.0000     -11.253944      -306.2354
   8   2.0000      -1.391048       -37.8523
   9   2.0000      -1.306773       -35.5591
  10   2.0000      -1.227592       -33.4045
  11   2.0000      -1.190168       -32.3861
  12   2.0000      -1.003847       -27.3161
  13   2.0000      -0.950433       -25.8626
  14   2.0000      -0.836759       -22.7694
  15   2.0000      -0.788109       -21.4455
  16   2.0000      -0.728514       -19.8239
  17   2.0000      -0.681118       -18.5342
  18   2.0000      -0.659767       -17.9532
  19   2.0000      -0.650312       -17.6959
  20   2.0000      -0.635133       -17.2829
  21   2.0000      -0.601994       -16.3811
  22   2.0000      -0.598959       -16.2985
  23   2.0000      -0.574956       -15.6454
  24   2.0000      -0.544157       -14.8073
  25   2.0000      -0.506124       -13.7723
  26   2.0000      -0.456065       -12.4102
  27   2.0000      -0.430234       -11.7073
  28   2.0000      -0.413023       -11.2389
  29   2.0000      -0.284787        -7.7494
  30   0.0000       0.117354         3.1934
  31   0.0000       0.144816         3.9406
  32   0.0000       0.155413         4.2290
  33   0.0000       0.182581         4.9683
  34   0.0000       0.190278         5.1777

MULLIKEN ATOMIC CHARGES
-----------------------
   0 C :   -0.353112
   1 N :   -0.083805
   2 C :    0.267117
   3 O :   -0.408594
   4 N :   -0.295885
   5 C :   -0.150804
   6 C :    0.175589
   7 N :   -0.538618
   8 H :    0.134100
   9 H :    0.184230
  10 H :    0.159470
  11 H :    0.250904
  12 H :    0.152615
  13 H :    0.248514
  14 H :    0.258277
Sum of atomic charges:   -0.0000000

LOEWDIN ATOMIC CHARGES
----------------------
   0 C :   -0.280038
   1 N :    0.222201
   2 C :   -0.505256
   3 O :    0.025794
   4 N :    0.154147
   5 C :   -0.248496
   6 C :   -0.328744
   7 N :   -0.091017
   8 H :    0.116563
   9 H :    0.140135
  10 H :    0.125081
  11 H :    0.191316
  12 H :    0.134416
  13 H :    0.173448
  14 H :    0.170448

  Mayer bond orders larger than 0.1
B(  0-C ,  1-N ) :   0.8597 B(  0-C ,  8-H ) :   0.9334 B(  0-C ,  9-H ) :   0.9199
B(  0-C , 10-H ) :   0.9277 B(  1-N ,  2-C ) :   1.0748 B(  1-N ,  6-C ) :   1.0759
B(  2-C ,  3-O ) :   1.9367 B(  2-C ,  4-N ) :   1.1337 B(  4-N ,  5-C ) :   1.0079
B(  4-N , 11-H ) :   0.8695 B(  5-C ,  6-C ) :   1.6499 B(  5-C , 12-H ) :   0.9121
B(  6-C ,  7-N ) :   1.0004 B(  7-N , 13-H ) :   0.8834 B(  7-N , 14-H ) :   0.8643

MP2 TOTAL ENERGY:     -395.382392774 Eh
FINAL SINGLE POINT ENERGY      -395.382392773925

DIPOLE MOMENT
-------------
                                X             Y             Z
Electronic contribution:      0.00444      -3.31670      -3.42450
Nuclear contribution   :      0.36687       2.84718       5.17364
                        -----------------------------------------
Total Dipole Moment    :      0.37131      -0.46953       1.74914
                        -----------------------------------------
Magnitude (a.u.)       :      1.84874
Magnitude (Debye)      :      4.69911

                             ****ORCA TERMINATED NORMALLY****
TOTAL RUN TIME: 0 days 0 hours 11 minutes 28 seconds 447 msec
