                         Program Version 3.0.3 - RELEASE   -
|  1> ! RI-MP2 RIJK def2-TZVP def2-TZVP/C def2-TZVP/JK TIGHTSCF
|  2> % maxcore 2000
|  3> % mp2 density relaxed end
|  4> *xyz 0 1
|  5>  O       -0.0778584476     0.0061914019     0.0012399297
|  6>  C       -0.0168409457     1.1998604542     0.0068937211
|  7>  C        1.3535897273     1.9244098993    -0.0005511999
|  8>  O        2.4014142225     1.3416108415    -0.0120739854
|  9>  C        1.2551732794     3.3946973412     0.0078618064
| 10>  N        1.1141053667     4.5427521793     0.0149400431
| 11>  H       -0.9035942427     1.8662530427     0.0176072250
| 12> *
| 13>
| 14>                          ****END OF INPUT****

CARTESIAN COORDINATES (ANGSTROEM)
---------------------------------
  O     -0.077858    0.006191    0.001240
  C     -0.016841    1.199860    0.006894
  C      1.353590    1.924410   -0.000551
  O      2.401414    1.341611   -0.012074
  C      1.255173    3.394697    0.007862
  N      1.114105    4.542752    0.014940
  H     -0.903594    1.866253    0.017607

 Total Charge           Charge          ....    0
 Multiplicity           Mult            ....    1
 Number of Electrons    NEL             ....   42
 Basis Dimension        Dim             ....  192

ORBITAL ENERGIES
----------------

  NO   OCC          E(Eh)            E(eV)
   0   2.0000     -20.642024      -561.6980
   1   2.0000     -20.627317      -561.2978
   2   2.0000     -15.639237      -425.5653
   3   2.0000     -11.427118      -310.9477
   4   2.0000     -11.393953      -310.0452
   5   2.0000     -11.323937      -308.1400
   6   2.0000      -1.485913       -40.4337
   7   2.0000      -1.453726       -39.5579
   8   2.0000      -1.273019       -34.6406
   9   2.0000      -1.037548       -28.2331
  10   2.0000      -0.881022       -23.9738
  11   2.0000      -0.790201       -21.5025
  12   2.0000      -0.726724       -19.7752
  13   2.0000      -0.702525       -19.1167
  14   2.0000      -0.641853       -17.4657
  15   2.0000      -0.622418       -16.9369
  16   2.0000      -0.570138       -15.5143
  17   2.0000      -0.563555       -15.3351
  18   2.0000      -0.525080       -14.2882
  19   2.0000      -0.513569       -13.9749
  20   2.0000      -0.475483       -12.9385
  21   0.0000      -0.009829        -0.2674
  22   0.0000       0.124859         3.3976
  23   0.0000       0.125792         3.4230
  24   0.0000       0.136724         3.7204
  25   0.0000       0.179164         4.8753

MULLIKEN ATOMIC CHARGES
-----------------------
   0 O :   -0.187189
   1 C :    0.070320
   2 C :    0.349855
   3 O :   -0.184466
   4 C :   -0.151270
   5 N :   -0.028028
   6 H :    0.130778
Sum of atomic charges:   -0.0000000

LOEWDIN ATOMIC CHARGES
----------------------
   0 O :    0.206752
   1 C :   -0.248836
   2 C :   -0.313238
   3 O :    0.252960
   4 C :   -0.142097
   5 N :    0.118858
   6 H :    0.125602

  Mayer bond orders larger than 0.1
B(  0-O ,  1-C ) :   1.9994 B(  1-C ,  2-C ) :   0.8353 B(  1-C ,  6-H ) :   0.9175
B(  2-C ,  3-O ) :   1.9629 B(  2-C ,  4-C ) :   0.8365 B(  4-C ,  5-N ) :   2.7412

MP2 TOTAL ENERGY:     -319.514648886 Eh
FINAL SINGLE POINT ENERGY      -319.514648885876

DIPOLE MOMENT
-------------
                                X             Y             Z
Electronic contribution:      1.18408       0.16110      -0.00888
Nuclear contribution   :     -1.77996      -0.14229       0.01381
                        -----------------------------------------
Total Dipole Moment    :     -0.59588       0.01881       0.00494
                        -----------------------------------------
Magnitude (a.u.)       :      0.59620
Magnitude (Debye)      :      1.51541

                             ****ORCA TERMINATED NORMALLY****
TOTAL RUN TIME: 0 days 0 hours 2 minutes 39 seconds 524 msec
