                         Program Version 3.0.3 - RELEASE   -
|  1> ! RI-MP2 RIJK def2-TZVP def2-TZVP/C def2-TZVP/JK TIGHTSCF
|  2> % maxcore 2000
|  3> % mp2 density relaxed end
|  4> *xyz 0 1
|  5>  C       -0.0459139505     1.5139050595     0.0178066313
|  6>  C        0.0124184978     0.0074340906    -0.0260174570
|  7>  C        0.4303759235    -0.7422736538    -1.2935657594
|  8>  C       -0.5202880891    -1.8461906130    -0.7780462101
|  9>  C        0.2858959254    -2.7720462390     0.1287594109
| 10>  O        1.0843777901    -1.9748637307     1.0085421334
| 11>  C        0.4254455435    -0.7495216024     1.2966366688
| 12>  C       -1.0869975924    -0.9800661114     1.4982352620
| 13>  N       -1.2985490714    -0.7949858652     0.0238275579
| 14>  H        0.9642060240     1.9356886220    -0.0416455799
| 15>  H       -0.6306348488     1.9001885916    -0.8228615108
| 16>  H       -0.5039072673     1.8781164306     0.9437183687
| 17>  H        0.0522961757    -0.2401637816    -2.1872575140
| 18>  H        1.4829581743    -1.0036727474    -1.4216898126
| 19>  H       -1.1376012112    -2.3985395199    -1.4904130597
| 20>  H       -0.3678155434    -3.4453954781     0.7009305347
| 21>  H        0.9718686116    -3.3926705126    -0.4579832893
| 22>  H        1.0278530719    -0.2320575598     2.0478951773
| 23>  H       -1.4079981485    -1.9291443885     1.9358476702
| 24>  H       -1.5865302050    -0.1641690509     2.0275547075
| 25> *
| 26>
| 27>                          ****END OF INPUT****

CARTESIAN COORDINATES (ANGSTROEM)
---------------------------------
  C     -0.045914    1.513905    0.017807
  C      0.012418    0.007434   -0.026017
  C      0.430376   -0.742274   -1.293566
  C     -0.520288   -1.846191   -0.778046
  C      0.285896   -2.772046    0.128759
  O      1.084378   -1.974864    1.008542
  C      0.425446   -0.749522    1.296637
  C     -1.086998   -0.980066    1.498235
  N     -1.298549   -0.794986    0.023828
  H      0.964206    1.935689   -0.041646
  H     -0.630635    1.900189   -0.822862
  H     -0.503907    1.878116    0.943718
  H      0.052296   -0.240164   -2.187258
  H      1.482958   -1.003673   -1.421690
  H     -1.137601   -2.398540   -1.490413
  H     -0.367816   -3.445395    0.700931
  H      0.971869   -3.392671   -0.457983
  H      1.027853   -0.232058    2.047895
  H     -1.407998   -1.929144    1.935848
  H     -1.586530   -0.164169    2.027555

 Total Charge           Charge          ....    0
 Multiplicity           Mult            ....    1
 Number of Electrons    NEL             ....   68
 Basis Dimension        Dim             ....  345

ORBITAL ENERGIES
----------------

  NO   OCC          E(Eh)            E(eV)
   0   2.0000     -20.556756      -559.3778
   1   2.0000     -15.546752      -423.0486
   2   2.0000     -11.283075      -307.0281
   3   2.0000     -11.276543      -306.8503
   4   2.0000     -11.263178      -306.4867
   5   2.0000     -11.260315      -306.4088
   6   2.0000     -11.248559      -306.0888
   7   2.0000     -11.223397      -305.4042
   8   2.0000     -11.219806      -305.3064
   9   2.0000      -1.386589       -37.7310
  10   2.0000      -1.251973       -34.0679
  11   2.0000      -1.055903       -28.7326
  12   2.0000      -1.019187       -27.7335
  13   2.0000      -0.944415       -25.6988
  14   2.0000      -0.904036       -24.6001
  15   2.0000      -0.836775       -22.7698
  16   2.0000      -0.817698       -22.2507
  17   2.0000      -0.700347       -19.0574
  18   2.0000      -0.682085       -18.5605
  19   2.0000      -0.668577       -18.1929
  20   2.0000      -0.630929       -17.1684
  21   2.0000      -0.618698       -16.8356
  22   2.0000      -0.594260       -16.1706
  23   2.0000      -0.566998       -15.4288
  24   2.0000      -0.559067       -15.2130
  25   2.0000      -0.547829       -14.9072
  26   2.0000      -0.539390       -14.6775
  27   2.0000      -0.517992       -14.0953
  28   2.0000      -0.506671       -13.7872
  29   2.0000      -0.467548       -12.7226
  30   2.0000      -0.449514       -12.2319
  31   2.0000      -0.427544       -11.6341
  32   2.0000      -0.392443       -10.6789
  33   2.0000      -0.356764        -9.7080
  34   0.0000       0.140056         3.8111
  35   0.0000       0.153139         4.1671
  36   0.0000       0.166244         4.5237
  37   0.0000       0.183688         4.9984
  38   0.0000       0.186784         5.0827

MULLIKEN ATOMIC CHARGES
-----------------------
   0 C :   -0.422618
   1 C :    0.079653
   2 C :   -0.257156
   3 C :   -0.000911
   4 C :   -0.100152
   5 O :   -0.323000
   6 C :    0.070388
   7 C :   -0.212035
   8 N :   -0.205640
   9 H :    0.136485
  10 H :    0.136908
  11 H :    0.130472
  12 H :    0.118161
  13 H :    0.127217
  14 H :    0.121943
  15 H :    0.110317
  16 H :    0.122990
  17 H :    0.115833
  18 H :    0.123319
  19 H :    0.127826
Sum of atomic charges:    0.0000000

LOEWDIN ATOMIC CHARGES
----------------------
   0 C :   -0.271893
   1 C :   -0.262603
   2 C :   -0.184994
   3 C :   -0.237712
   4 C :   -0.291137
   5 O :    0.169985
   6 C :   -0.255575
   7 C :   -0.247024
   8 N :    0.125707
   9 H :    0.132137
  10 H :    0.131232
  11 H :    0.129314
  12 H :    0.141936
  13 H :    0.135665
  14 H :    0.136951
  15 H :    0.123134
  16 H :    0.134210
  17 H :    0.132043
  18 H :    0.124416
  19 H :    0.134208

  Mayer bond orders larger than 0.1
B(  0-C ,  1-C ) :   0.8769 B(  0-C ,  9-H ) :   0.9380 B(  0-C , 10-H ) :   0.9376
B(  0-C , 11-H ) :   0.9316 B(  1-C ,  2-C ) :   0.9693 B(  1-C ,  6-C ) :   0.8688
B(  1-C ,  8-N ) :   0.9059 B(  2-C ,  3-C ) :   0.9373 B(  2-C , 12-H ) :   0.9064
B(  2-C , 13-H ) :   0.9083 B(  3-C ,  4-C ) :   0.9578 B(  3-C ,  8-N ) :   0.9492
B(  3-C , 14-H ) :   0.9057 B(  4-C ,  5-O ) :   0.9171 B(  4-C , 15-H ) :   0.9344
B(  4-C , 16-H ) :   0.9154 B(  5-O ,  6-C ) :   0.9544 B(  6-C ,  7-C ) :   0.9146
B(  6-C , 17-H ) :   0.9250 B(  7-C ,  8-N ) :   0.9321 B(  7-C , 18-H ) :   0.9204
B(  7-C , 19-H ) :   0.9210

MP2 TOTAL ENERGY:     -402.417636814 Eh
FINAL SINGLE POINT ENERGY      -402.417636814304

DIPOLE MOMENT
-------------
                                X             Y             Z
Electronic contribution:      0.50767      -2.91718       1.06285
Nuclear contribution   :     -0.39714       2.95896      -1.12768
                        -----------------------------------------
Total Dipole Moment    :      0.11053       0.04178      -0.06483
                        -----------------------------------------
Magnitude (a.u.)       :      0.13478
Magnitude (Debye)      :      0.34258

                             ****ORCA TERMINATED NORMALLY****
TOTAL RUN TIME: 0 days 0 hours 24 minutes 32 seconds 752 msec
