                         Program Version 3.0.3 - RELEASE   -
|  1> ! RI-MP2 RIJK def2-TZVP def2-TZVP/C def2-TZVP/JK TIGHTSCF
|  2> % maxcore 2000
|  3> % mp2 density relaxed end
|  4> *xyz 0 1
|  5>  O       -0.0802041538     1.4462542768     0.0397054543
|  6>  C        0.0031583036     0.0377476089     0.0256054031
|  7>  C        0.6720128221    -0.5766268279     1.2793631458
|  8>  C        0.0348575596    -1.9874197102     1.4168532972
|  9>  C        0.0609047976    -2.5196607550     2.7772287578
| 10>  N        0.0853761441    -2.9458414972     3.8510569445
| 11>  C       -1.3745221599    -1.7891153869     0.8480615669
| 12>  O       -2.0048006943    -0.6033370511     1.3173090995
| 13>  C       -1.3829104279    -0.5758255146     0.0254892387
| 14>  H        0.8107246833     1.8061092086    -0.0141006594
| 15>  H        0.5158762270    -0.3147969197    -0.8859845455
| 16>  H        1.7605761829    -0.6224748154     1.2099200337
| 17>  H        0.3999736945     0.0351760649     2.1406436922
| 18>  H        0.5581219137    -2.7039117269     0.7704310389
| 19>  H       -2.0188447153    -2.6464662873     0.6768467332
| 20>  H       -2.0514775270    -0.4293586970    -0.8176108010
| 21> *
| 22>
| 23>                          ****END OF INPUT****

CARTESIAN COORDINATES (ANGSTROEM)
---------------------------------
  O     -0.080204    1.446254    0.039705
  C      0.003158    0.037748    0.025605
  C      0.672013   -0.576627    1.279363
  C      0.034858   -1.987420    1.416853
  C      0.060905   -2.519661    2.777229
  N      0.085376   -2.945841    3.851057
  C     -1.374522   -1.789115    0.848062
  O     -2.004801   -0.603337    1.317309
  C     -1.382910   -0.575826    0.025489
  H      0.810725    1.806109   -0.014101
  H      0.515876   -0.314797   -0.885985
  H      1.760576   -0.622475    1.209920
  H      0.399974    0.035176    2.140644
  H      0.558122   -2.703912    0.770431
  H     -2.018845   -2.646466    0.676847
  H     -2.051478   -0.429359   -0.817611

 Total Charge           Charge          ....    0
 Multiplicity           Mult            ....    1
 Number of Electrons    NEL             ....   66
 Basis Dimension        Dim             ....  321

ORBITAL ENERGIES
----------------

  NO   OCC          E(Eh)            E(eV)
   0   2.0000     -20.590019      -560.2829
   1   2.0000     -20.579968      -560.0094
   2   2.0000     -15.573384      -423.7733
   3   2.0000     -11.316714      -307.9434
   4   2.0000     -11.313725      -307.8621
   5   2.0000     -11.306229      -307.6581
   6   2.0000     -11.301361      -307.5257
   7   2.0000     -11.276260      -306.8426
   8   2.0000     -11.258703      -306.3649
   9   2.0000      -1.442859       -39.2622
  10   2.0000      -1.386393       -37.7257
  11   2.0000      -1.222945       -33.2780
  12   2.0000      -1.128434       -30.7062
  13   2.0000      -1.016614       -27.6635
  14   2.0000      -0.953013       -25.9328
  15   2.0000      -0.857390       -23.3308
  16   2.0000      -0.813481       -22.1359
  17   2.0000      -0.752791       -20.4845
  18   2.0000      -0.731391       -19.9022
  19   2.0000      -0.696903       -18.9637
  20   2.0000      -0.661632       -18.0039
  21   2.0000      -0.637758       -17.3543
  22   2.0000      -0.595164       -16.1952
  23   2.0000      -0.575999       -15.6737
  24   2.0000      -0.559616       -15.2279
  25   2.0000      -0.556754       -15.1500
  26   2.0000      -0.546611       -14.8740
  27   2.0000      -0.524056       -14.2603
  28   2.0000      -0.486638       -13.2421
  29   2.0000      -0.472203       -12.8493
  30   2.0000      -0.465241       -12.6599
  31   2.0000      -0.449191       -12.2231
  32   2.0000      -0.441285       -12.0080
  33   0.0000       0.110741         3.0134
  34   0.0000       0.125773         3.4225
  35   0.0000       0.152796         4.1578
  36   0.0000       0.161212         4.3868
  37   0.0000       0.172455         4.6927

MULLIKEN ATOMIC CHARGES
-----------------------
   0 O :   -0.444735
   1 C :    0.088063
   2 C :   -0.285237
   3 C :    0.072839
   4 C :   -0.221771
   5 N :   -0.049743
   6 C :   -0.005072
   7 O :   -0.307028
   8 C :    0.027819
   9 H :    0.320511
  10 H :    0.084631
  11 H :    0.143534
  12 H :    0.153787
  13 H :    0.137403
  14 H :    0.144993
  15 H :    0.140007
Sum of atomic charges:   -0.0000000

LOEWDIN ATOMIC CHARGES
----------------------
   0 O :   -0.003346
   1 C :   -0.329262
   2 C :   -0.191543
   3 C :   -0.213237
   4 C :   -0.164946
   5 N :    0.067853
   6 C :   -0.224019
   7 O :    0.198934
   8 C :   -0.224544
   9 H :    0.179568
  10 H :    0.141430
  11 H :    0.138743
  12 H :    0.157788
  13 H :    0.181589
  14 H :    0.142827
  15 H :    0.142165

  Mayer bond orders larger than 0.1
B(  0-O ,  1-C ) :   1.0720 B(  0-O ,  9-H ) :   0.8422 B(  1-C ,  2-C ) :   0.9039
B(  1-C ,  8-C ) :   0.8985 B(  1-C , 10-H ) :   0.9459 B(  2-C ,  3-C ) :   0.9008
B(  2-C , 11-H ) :   0.9235 B(  2-C , 12-H ) :   0.9123 B(  3-C ,  4-C ) :   0.9043
B(  3-C ,  6-C ) :   0.8699 B(  3-C , 13-H ) :   0.8945 B(  4-C ,  5-N ) :   2.8746
B(  6-C ,  7-O ) :   0.9605 B(  6-C ,  8-C ) :   0.9456 B(  6-C , 14-H ) :   0.9216
B(  7-O ,  8-C ) :   0.9086 B(  8-C , 15-H ) :   0.9261

MP2 TOTAL ENERGY:     -437.169594096 Eh
FINAL SINGLE POINT ENERGY      -437.169594095623

DIPOLE MOMENT
-------------
                                X             Y             Z
Electronic contribution:     -2.02323      -1.72785       3.32558
Nuclear contribution   :      2.90346       1.84364      -5.26333
                        -----------------------------------------
Total Dipole Moment    :      0.88023       0.11579      -1.93776
                        -----------------------------------------
Magnitude (a.u.)       :      2.13146
Magnitude (Debye)      :      5.41773

                             ****ORCA TERMINATED NORMALLY****
TOTAL RUN TIME: 0 days 0 hours 15 minutes 34 seconds 777 msec
