                         Program Version 3.0.3 - RELEASE   -
|  1> ! RI-MP2 RIJK def2-TZVP def2-TZVP/C def2-TZVP/JK TIGHTSCF
|  2> % maxcore 2000
|  3> % mp2 density relaxed end
|  4> *xyz 0 1
|  5>  C       -0.0484036458     1.4619382255    -0.0581749916
|  6>  C       -0.0902150409    -0.0277943618    -0.0696086292
|  7>  O        0.7888996780    -0.7242458674    -0.9101848320
|  8>  C       -0.0420520029    -1.9602769038    -0.7607012067
|  9>  C        0.6111047849    -2.7591719459     0.3238105313
| 10>  C        0.4512335915    -2.0884272710     1.4795204801
| 11>  C       -0.4035474018    -0.9073243952     1.2621290184
| 12>  C       -1.1346465833    -1.0705853522    -0.0506490939
| 13>  O       -2.4872028909    -1.0025517830    -0.2736001928
| 14>  H        0.9334956788     1.8149585803     0.2733875079
| 15>  H       -0.2348505755     1.8608396173    -1.0603685514
| 16>  H       -0.8070402419     1.8606059995     0.6203866547
| 17>  H       -0.2370429251    -2.4067411764    -1.7340957701
| 18>  H        1.2376152843    -3.6243728855     0.1542306270
| 19>  H        0.9332878380    -2.3167471526     2.4226301017
| 20>  H       -0.8668937433    -0.3447423388     2.0641808763
| 21>  H       -2.9226563842    -1.6520654490     0.2916806805
| 22> *
| 23>
| 24>                          ****END OF INPUT****

CARTESIAN COORDINATES (ANGSTROEM)
---------------------------------
  C     -0.048404    1.461938   -0.058175
  C     -0.090215   -0.027794   -0.069609
  O      0.788900   -0.724246   -0.910185
  C     -0.042052   -1.960277   -0.760701
  C      0.611105   -2.759172    0.323811
  C      0.451234   -2.088427    1.479520
  C     -0.403547   -0.907324    1.262129
  C     -1.134647   -1.070585   -0.050649
  O     -2.487203   -1.002552   -0.273600
  H      0.933496    1.814959    0.273388
  H     -0.234851    1.860840   -1.060369
  H     -0.807040    1.860606    0.620387
  H     -0.237043   -2.406741   -1.734096
  H      1.237615   -3.624373    0.154231
  H      0.933288   -2.316747    2.422630
  H     -0.866894   -0.344742    2.064181
  H     -2.922656   -1.652065    0.291681

 Total Charge           Charge          ....    0
 Multiplicity           Mult            ....    1
 Number of Electrons    NEL             ....   66
 Basis Dimension        Dim             ....  327

ORBITAL ENERGIES
----------------

  NO   OCC          E(Eh)            E(eV)
   0   2.0000     -20.583523      -560.1061
   1   2.0000     -20.555234      -559.3364
   2   2.0000     -11.300171      -307.4933
   3   2.0000     -11.295864      -307.3761
   4   2.0000     -11.293316      -307.3067
   5   2.0000     -11.238690      -305.8203
   6   2.0000     -11.236747      -305.7674
   7   2.0000     -11.227362      -305.5121
   8   2.0000     -11.223780      -305.4146
   9   2.0000      -1.410287       -38.3759
  10   2.0000      -1.380053       -37.5531
  11   2.0000      -1.143066       -31.1044
  12   2.0000      -1.056462       -28.7478
  13   2.0000      -0.978518       -26.6268
  14   2.0000      -0.932837       -25.3838
  15   2.0000      -0.810062       -22.0429
  16   2.0000      -0.776136       -21.1197
  17   2.0000      -0.742562       -20.2061
  18   2.0000      -0.707427       -19.2501
  19   2.0000      -0.664560       -18.0836
  20   2.0000      -0.653078       -17.7711
  21   2.0000      -0.610815       -16.6211
  22   2.0000      -0.600002       -16.3269
  23   2.0000      -0.573142       -15.5960
  24   2.0000      -0.565039       -15.3755
  25   2.0000      -0.550465       -14.9789
  26   2.0000      -0.536834       -14.6080
  27   2.0000      -0.524317       -14.2674
  28   2.0000      -0.512382       -13.9426
  29   2.0000      -0.445239       -12.1156
  30   2.0000      -0.416025       -11.3206
  31   2.0000      -0.376323       -10.2403
  32   2.0000      -0.331218        -9.0129
  33   0.0000       0.125675         3.4198
  34   0.0000       0.135496         3.6870
  35   0.0000       0.153590         4.1794
  36   0.0000       0.169397         4.6095
  37   0.0000       0.182123         4.9558

MULLIKEN ATOMIC CHARGES
-----------------------
   0 C :   -0.426170
   1 C :    0.207328
   2 O :   -0.301419
   3 C :    0.128154
   4 C :   -0.236917
   5 C :   -0.171380
   6 C :   -0.168999
   7 C :    0.103201
   8 O :   -0.443150
   9 H :    0.149920
  10 H :    0.147010
  11 H :    0.138726
  12 H :    0.132476
  13 H :    0.134531
  14 H :    0.132510
  15 H :    0.140578
  16 H :    0.333601
Sum of atomic charges:   -0.0000000

LOEWDIN ATOMIC CHARGES
----------------------
   0 C :   -0.263312
   1 C :   -0.268407
   2 O :    0.206870
   3 C :   -0.161882
   4 C :   -0.155023
   5 C :   -0.133699
   6 C :   -0.143856
   7 C :   -0.290522
   8 O :    0.044589
   9 H :    0.137601
  10 H :    0.135673
  11 H :    0.137424
  12 H :    0.138206
  13 H :    0.136566
  14 H :    0.139397
  15 H :    0.149809
  16 H :    0.190566

  Mayer bond orders larger than 0.1
B(  0-C ,  1-C ) :   0.8760 B(  0-C ,  9-H ) :   0.9363 B(  0-C , 10-H ) :   0.9343
B(  0-C , 11-H ) :   0.9332 B(  1-C ,  2-O ) :   1.0529 B(  1-C ,  6-C ) :   0.7235
B(  1-C ,  7-C ) :   0.9217 B(  2-O ,  3-C ) :   0.8589 B(  3-C ,  4-C ) :   0.9587
B(  3-C ,  7-C ) :   0.9173 B(  3-C , 12-H ) :   0.9103 B(  4-C ,  5-C ) :   1.7143
B(  4-C , 13-H ) :   0.9198 B(  5-C ,  6-C ) :   0.9790 B(  5-C , 14-H ) :   0.9159
B(  6-C ,  7-C ) :   0.8493 B(  6-C , 15-H ) :   0.9241 B(  7-C ,  8-O ) :   1.0583
B(  8-O , 16-H ) :   0.8285

MP2 TOTAL ENERGY:     -421.074103562 Eh
FINAL SINGLE POINT ENERGY      -421.074103562414

DIPOLE MOMENT
-------------
                                X             Y             Z
Electronic contribution:     -0.78779      -3.01628      -1.60522
Nuclear contribution   :      0.38027       2.79422       2.24096
                        -----------------------------------------
Total Dipole Moment    :     -0.40752      -0.22206       0.63574
                        -----------------------------------------
Magnitude (a.u.)       :      0.78712
Magnitude (Debye)      :      2.00069

                             ****ORCA TERMINATED NORMALLY****
TOTAL RUN TIME: 0 days 0 hours 16 minutes 57 seconds 395 msec
