                         Program Version 3.0.3 - RELEASE   -
|  1> ! RI-MP2 RIJK def2-TZVP def2-TZVP/C def2-TZVP/JK TIGHTSCF
|  2> % maxcore 2000
|  3> % mp2 density relaxed end
|  4> *xyz 0 1
|  5>  N       -0.0209494843     0.9399229336     1.2102012466
|  6>  C        0.0302597255     0.1157631848     0.2290473483
|  7>  N        1.2544755055    -0.3431785913    -0.2878160122
|  8>  N        1.6301166927    -1.1711466488    -1.2663986497
|  9>  C        0.8606962263    -1.8225609271    -2.0627707029
| 10>  C       -0.6113174767    -1.9122684011    -2.2063533666
| 11>  O       -1.0630571221    -2.6353867991    -3.0802098051
| 12>  C       -1.5325736390    -1.1612393717    -1.3330833524
| 13>  C       -1.2516848308    -0.3245621756    -0.3271043832
| 14>  H        0.9082365603     1.2030671590     1.5460892167
| 15>  H        2.0614353367     0.0374132547     0.1861661894
| 16>  H        1.3858796176    -2.4405176093    -2.7870264369
| 17>  H       -2.5741749836    -1.3459187040    -1.5790826027
| 18>  H       -2.0725340582     0.1405674260     0.2083341405
| 19> *
| 20>
| 21>                          ****END OF INPUT****

CARTESIAN COORDINATES (ANGSTROEM)
---------------------------------
  N     -0.020949    0.939923    1.210201
  C      0.030260    0.115763    0.229047
  N      1.254476   -0.343179   -0.287816
  N      1.630117   -1.171147   -1.266399
  C      0.860696   -1.822561   -2.062771
  C     -0.611317   -1.912268   -2.206353
  O     -1.063057   -2.635387   -3.080210
  C     -1.532574   -1.161239   -1.333083
  C     -1.251685   -0.324562   -0.327104
  H      0.908237    1.203067    1.546089
  H      2.061435    0.037413    0.186166
  H      1.385880   -2.440518   -2.787026
  H     -2.574175   -1.345919   -1.579083
  H     -2.072534    0.140567    0.208334

 Total Charge           Charge          ....    0
 Multiplicity           Mult            ....    1
 Number of Electrons    NEL             ....   64
 Basis Dimension        Dim             ....  309

ORBITAL ENERGIES
----------------

  NO   OCC          E(Eh)            E(eV)
   0   2.0000     -20.568453      -559.6961
   1   2.0000     -15.658768      -426.0967
   2   2.0000     -15.652871      -425.9363
   3   2.0000     -15.563215      -423.4966
   4   2.0000     -11.358725      -309.0866
   5   2.0000     -11.358054      -309.0684
   6   2.0000     -11.293467      -307.3109
   7   2.0000     -11.288432      -307.1738
   8   2.0000     -11.276893      -306.8599
   9   2.0000      -1.408942       -38.3393
  10   2.0000      -1.383198       -37.6387
  11   2.0000      -1.251244       -34.0481
  12   2.0000      -1.136195       -30.9174
  13   2.0000      -1.106840       -30.1187
  14   2.0000      -0.950660       -25.8688
  15   2.0000      -0.934616       -25.4322
  16   2.0000      -0.816564       -22.2198
  17   2.0000      -0.813735       -22.1428
  18   2.0000      -0.747888       -20.3511
  19   2.0000      -0.675109       -18.3707
  20   2.0000      -0.669131       -18.2080
  21   2.0000      -0.643690       -17.5157
  22   2.0000      -0.636106       -17.3093
  23   2.0000      -0.627274       -17.0690
  24   2.0000      -0.563801       -15.3418
  25   2.0000      -0.555831       -15.1249
  26   2.0000      -0.516057       -14.0426
  27   2.0000      -0.504824       -13.7370
  28   2.0000      -0.467875       -12.7315
  29   2.0000      -0.434974       -11.8362
  30   2.0000      -0.403629       -10.9833
  31   2.0000      -0.359131        -9.7725
  32   0.0000       0.039372         1.0714
  33   0.0000       0.075000         2.0409
  34   0.0000       0.119516         3.2522
  35   0.0000       0.157605         4.2886
  36   0.0000       0.174476         4.7477

MULLIKEN ATOMIC CHARGES
-----------------------
   0 N :   -0.337578
   1 C :    0.137134
   2 N :   -0.188200
   3 N :   -0.125695
   4 C :   -0.133169
   5 C :    0.289686
   6 O :   -0.292082
   7 C :   -0.190752
   8 C :   -0.073950
   9 H :    0.198928
  10 H :    0.247405
  11 H :    0.155807
  12 H :    0.150077
  13 H :    0.162389
Sum of atomic charges:   -0.0000000

LOEWDIN ATOMIC CHARGES
----------------------
   0 N :   -0.042427
   1 C :   -0.353520
   2 N :    0.077617
   3 N :    0.076649
   4 C :   -0.225280
   5 C :   -0.339467
   6 O :    0.159954
   7 C :   -0.104752
   8 C :   -0.089901
   9 H :    0.156364
  10 H :    0.193162
  11 H :    0.154570
  12 H :    0.164982
  13 H :    0.172049

  Mayer bond orders larger than 0.1
B(  0-N ,  1-C ) :   1.9552 B(  0-N ,  9-H ) :   0.8617 B(  1-C ,  2-N ) :   1.0656
B(  1-C ,  8-C ) :   0.9699 B(  2-N ,  3-N ) :   0.9654 B(  2-N , 10-H ) :   0.8704
B(  3-N ,  4-C ) :   1.7379 B(  4-C ,  5-C ) :   0.9687 B(  4-C , 11-H ) :   0.9192
B(  5-C ,  6-O ) :   1.8315 B(  5-C ,  7-C ) :   1.0188 B(  7-C ,  8-C ) :   1.5809
B(  7-C , 12-H ) :   0.9264 B(  8-C , 13-H ) :   0.9182

MP2 TOTAL ENERGY:     -432.122885129 Eh
FINAL SINGLE POINT ENERGY      -432.122885128799

DIPOLE MOMENT
-------------
                                X             Y             Z
Electronic contribution:      0.52941      -1.58190      -1.87411
Nuclear contribution   :      0.00586       2.07178       2.47185
                        -----------------------------------------
Total Dipole Moment    :      0.53527       0.48988       0.59774
                        -----------------------------------------
Magnitude (a.u.)       :      0.94010
Magnitude (Debye)      :      2.38955

                             ****ORCA TERMINATED NORMALLY****
TOTAL RUN TIME: 0 days 0 hours 14 minutes 55 seconds 391 msec
