                         Program Version 3.0.3 - RELEASE   -
|  1> ! RI-MP2 RIJK def2-TZVP def2-TZVP/C def2-TZVP/JK TIGHTSCF
|  2> % maxcore 2000
|  3> % mp2 density relaxed end
|  4> *xyz 0 1
|  5>  C        0.0749808081     1.5968411438     0.0371004145
|  6>  C        1.2966599532     0.7223798030    -0.0432161652
|  7>  O        2.1579676028     0.7051433091     1.0686216246
|  8>  C        2.0855479059    -0.5100800346     1.7920055901
|  9>  C        2.2981527737    -0.4317923421     3.3304511094
| 10>  C        1.0305647270    -1.3390698168     3.5123476751
| 11>  C        0.6789832347    -0.9743988135     2.0856570559
| 12>  C       -0.3669359151    -0.6203470682     1.3511927670
| 13>  C       -0.0660193860     0.0788380588     0.0699571601
| 14>  H       -0.0664975315     2.1233615086     0.9742107947
| 15>  H       -0.2489219445     2.1311769130    -0.8499884964
| 16>  H        1.8218593970     0.6512909792    -0.9938509077
| 17>  H        2.7244964228    -1.2780024742     1.3296496554
| 18>  H        3.2468857333    -0.7972955277     3.7278275318
| 19>  H        2.1165699812     0.5869214460     3.6783031069
| 20>  H        1.2969782580    -2.3941397322     3.6372028888
| 21>  H        0.3175273332    -1.0675809123     4.2942995827
| 22>  H       -1.3989137195    -0.7613515923     1.6623557342
| 23>  H       -0.4574841945    -0.3778374877    -0.8356365019
| 24> *
| 25>
| 26>                          ****END OF INPUT****

CARTESIAN COORDINATES (ANGSTROEM)
---------------------------------
  C      0.074981    1.596841    0.037100
  C      1.296660    0.722380   -0.043216
  O      2.157968    0.705143    1.068622
  C      2.085548   -0.510080    1.792006
  C      2.298153   -0.431792    3.330451
  C      1.030565   -1.339070    3.512348
  C      0.678983   -0.974399    2.085657
  C     -0.366936   -0.620347    1.351193
  C     -0.066019    0.078838    0.069957
  H     -0.066498    2.123362    0.974211
  H     -0.248922    2.131177   -0.849988
  H      1.821859    0.651291   -0.993851
  H      2.724496   -1.278002    1.329650
  H      3.246886   -0.797296    3.727828
  H      2.116570    0.586921    3.678303
  H      1.296978   -2.394140    3.637203
  H      0.317527   -1.067581    4.294300
  H     -1.398914   -0.761352    1.662356
  H     -0.457484   -0.377837   -0.835637

 Total Charge           Charge          ....    0
 Multiplicity           Mult            ....    1
 Number of Electrons    NEL             ....   66
 Basis Dimension        Dim             ....  339

ORBITAL ENERGIES
----------------

  NO   OCC          E(Eh)            E(eV)
   0   2.0000     -20.555257      -559.3370
   1   2.0000     -11.279188      -306.9223
   2   2.0000     -11.277708      -306.8820
   3   2.0000     -11.235779      -305.7411
   4   2.0000     -11.234426      -305.7043
   5   2.0000     -11.229647      -305.5742
   6   2.0000     -11.228048      -305.5307
   7   2.0000     -11.225464      -305.4604
   8   2.0000     -11.223995      -305.4204
   9   2.0000      -1.379569       -37.5400
  10   2.0000      -1.140775       -31.0421
  11   2.0000      -1.136222       -30.9182
  12   2.0000      -0.996410       -27.1137
  13   2.0000      -0.905287       -24.6341
  14   2.0000      -0.845717       -23.0131
  15   2.0000      -0.813405       -22.1339
  16   2.0000      -0.798304       -21.7230
  17   2.0000      -0.713879       -19.4256
  18   2.0000      -0.678790       -18.4708
  19   2.0000      -0.675452       -18.3800
  20   2.0000      -0.635543       -17.2940
  21   2.0000      -0.616555       -16.7773
  22   2.0000      -0.577142       -15.7048
  23   2.0000      -0.563640       -15.3374
  24   2.0000      -0.540554       -14.7092
  25   2.0000      -0.528562       -14.3829
  26   2.0000      -0.508237       -13.8298
  27   2.0000      -0.476523       -12.9668
  28   2.0000      -0.461158       -12.5488
  29   2.0000      -0.448703       -12.2098
  30   2.0000      -0.403530       -10.9806
  31   2.0000      -0.398021       -10.8307
  32   2.0000      -0.336574        -9.1586
  33   0.0000       0.137629         3.7451
  34   0.0000       0.149966         4.0808
  35   0.0000       0.157193         4.2775
  36   0.0000       0.175111         4.7650
  37   0.0000       0.180236         4.9045

MULLIKEN ATOMIC CHARGES
-----------------------
   0 C :   -0.281992
   1 C :    0.033852
   2 O :   -0.304957
   3 C :    0.090109
   4 C :   -0.206610
   5 C :   -0.203577
   6 C :   -0.060921
   7 C :   -0.227463
   8 C :   -0.049199
   9 H :    0.139151
  10 H :    0.128340
  11 H :    0.108322
  12 H :    0.084164
  13 H :    0.121703
  14 H :    0.121862
  15 H :    0.126811
  16 H :    0.124300
  17 H :    0.127790
  18 H :    0.128315
Sum of atomic charges:   -0.0000000

LOEWDIN ATOMIC CHARGES
----------------------
   0 C :   -0.198284
   1 C :   -0.269460
   2 O :    0.205391
   3 C :   -0.250461
   4 C :   -0.198332
   5 C :   -0.197734
   6 C :   -0.146204
   7 C :   -0.128667
   8 C :   -0.193440
   9 H :    0.139985
  10 H :    0.130937
  11 H :    0.133155
  12 H :    0.139640
  13 H :    0.124440
  14 H :    0.140960
  15 H :    0.140762
  16 H :    0.132263
  17 H :    0.143663
  18 H :    0.151385

  Mayer bond orders larger than 0.1
B(  0-C ,  1-C ) :   0.8743 B(  0-C ,  8-C ) :   0.8809 B(  0-C ,  9-H ) :   0.9193
B(  0-C , 10-H ) :   0.9235 B(  1-C ,  2-O ) :   0.9645 B(  1-C ,  8-C ) :   0.8843
B(  1-C , 11-H ) :   0.9493 B(  2-O ,  3-C ) :   0.9855 B(  3-C ,  4-C ) :   0.9096
B(  3-C ,  6-C ) :   0.9398 B(  3-C , 12-H ) :   0.9299 B(  4-C ,  5-C ) :   0.9367
B(  4-C , 13-H ) :   0.9285 B(  4-C , 14-H ) :   0.9169 B(  5-C ,  6-C ) :   0.9174
B(  5-C , 15-H ) :   0.9125 B(  5-C , 16-H ) :   0.9120 B(  6-C ,  7-C ) :   1.7755
B(  7-C ,  8-C ) :   0.9066 B(  7-C , 17-H ) :   0.9325 B(  8-C , 18-H ) :   0.9179

MP2 TOTAL ENERGY:     -385.171993491 Eh
FINAL SINGLE POINT ENERGY      -385.171993491086

DIPOLE MOMENT
-------------
                                X             Y             Z
Electronic contribution:      0.79190       0.19327      -1.78127
Nuclear contribution   :     -1.07077      -0.51076       1.79730
                        -----------------------------------------
Total Dipole Moment    :     -0.27887      -0.31748       0.01603
                        -----------------------------------------
Magnitude (a.u.)       :      0.42287
Magnitude (Debye)      :      1.07486

                             ****ORCA TERMINATED NORMALLY****
TOTAL RUN TIME: 0 days 0 hours 18 minutes 49 seconds 708 msec
