                         Program Version 3.0.3 - RELEASE   -
|  1> ! RI-MP2 RIJK def2-TZVP def2-TZVP/C def2-TZVP/JK TIGHTSCF
|  2> % maxcore 2000
|  3> % mp2 density relaxed end
|  4> *xyz 0 1
|  5>  C       -0.1025407505     1.5934439608     0.0148259841
|  6>  C        0.0641191970     0.0822144238     0.0290360262
|  7>  O       -1.2016352270    -0.5700803993    -0.0858281435
|  8>  C        1.1367395948    -0.5881315100    -0.9043126405
|  9>  C        1.7220016223    -1.3232318470     0.3075264945
| 10>  C        2.1870311553    -0.3031770335     1.3285571452
| 11>  C        0.7325374952    -0.5948451561     1.2329581995
| 12>  O        0.0123795881    -1.0001191230     2.3319267111
| 13>  H        0.8562208474     2.1011159132     0.1522123962
| 14>  H       -0.5182107554     1.9322102320    -0.9429940640
| 15>  H       -0.7805853622     1.9075392531     0.8141239486
| 16>  H       -1.6657547774    -0.2055445578    -0.8460295984
| 17>  H        0.6537651895    -1.2469307830    -1.6290804681
| 18>  H        1.8196088070     0.0919342610    -1.4266883031
| 19>  H        2.0788610319    -2.3451148959     0.3220205098
| 20>  H        2.6483979712    -0.7305432920     2.2135372660
| 21>  H        2.6137753128     0.6500892796     1.0198518639
| 22>  H       -0.8287481101    -1.3285954958     1.9870023126
| 23> *
| 24>
| 25>                          ****END OF INPUT****

CARTESIAN COORDINATES (ANGSTROEM)
---------------------------------
  C     -0.102541    1.593444    0.014826
  C      0.064119    0.082214    0.029036
  O     -1.201635   -0.570080   -0.085828
  C      1.136740   -0.588132   -0.904313
  C      1.722002   -1.323232    0.307526
  C      2.187031   -0.303177    1.328557
  C      0.732537   -0.594845    1.232958
  O      0.012380   -1.000119    2.331927
  H      0.856221    2.101116    0.152212
  H     -0.518211    1.932210   -0.942994
  H     -0.780585    1.907539    0.814124
  H     -1.665755   -0.205545   -0.846030
  H      0.653765   -1.246931   -1.629080
  H      1.819609    0.091934   -1.426688
  H      2.078861   -2.345115    0.322021
  H      2.648398   -0.730543    2.213537
  H      2.613775    0.650089    1.019852
  H     -0.828748   -1.328595    1.987002

 Total Charge           Charge          ....    0
 Multiplicity           Mult            ....    1
 Number of Electrons    NEL             ....   62
 Basis Dimension        Dim             ....  308

ORBITAL ENERGIES
----------------

  NO   OCC          E(Eh)            E(eV)
   0   2.0000     -20.566151      -559.6334
   1   2.0000     -20.558725      -559.4313
   2   2.0000     -11.293572      -307.3137
   3   2.0000     -11.283673      -307.0444
   4   2.0000     -11.228214      -305.5352
   5   2.0000     -11.226997      -305.5021
   6   2.0000     -11.225254      -305.4547
   7   2.0000     -11.222384      -305.3766
   8   2.0000      -1.388380       -37.7797
   9   2.0000      -1.359647       -36.9979
  10   2.0000      -1.175012       -31.9737
  11   2.0000      -1.013677       -27.5836
  12   2.0000      -0.951691       -25.8968
  13   2.0000      -0.864289       -23.5185
  14   2.0000      -0.792391       -21.5621
  15   2.0000      -0.755651       -20.5623
  16   2.0000      -0.707996       -19.2655
  17   2.0000      -0.673570       -18.3288
  18   2.0000      -0.640453       -17.4276
  19   2.0000      -0.610127       -16.6024
  20   2.0000      -0.600263       -16.3340
  21   2.0000      -0.585463       -15.9313
  22   2.0000      -0.573657       -15.6100
  23   2.0000      -0.541647       -14.7390
  24   2.0000      -0.534333       -14.5399
  25   2.0000      -0.521866       -14.2007
  26   2.0000      -0.502474       -13.6730
  27   2.0000      -0.466509       -12.6944
  28   2.0000      -0.433574       -11.7981
  29   2.0000      -0.410721       -11.1763
  30   2.0000      -0.355639        -9.6774
  31   0.0000       0.126139         3.4324
  32   0.0000       0.163048         4.4368
  33   0.0000       0.170603         4.6423
  34   0.0000       0.183874         5.0035
  35   0.0000       0.193645         5.2694

MULLIKEN ATOMIC CHARGES
-----------------------
   0 C :   -0.438398
   1 C :    0.188805
   2 O :   -0.494479
   3 C :   -0.225804
   4 C :   -0.146283
   5 C :   -0.294835
   6 C :    0.200962
   7 O :   -0.460422
   8 H :    0.125816
   9 H :    0.124261
  10 H :    0.148326
  11 H :    0.319451
  12 H :    0.107334
  13 H :    0.109404
  14 H :    0.136099
  15 H :    0.134627
  16 H :    0.124363
  17 H :    0.340772
Sum of atomic charges:    0.0000000

LOEWDIN ATOMIC CHARGES
----------------------
   0 C :   -0.280761
   1 C :   -0.342504
   2 O :   -0.000160
   3 C :   -0.184341
   4 C :   -0.165171
   5 C :   -0.183288
   6 C :   -0.316151
   7 O :    0.042367
   8 H :    0.129384
   9 H :    0.123693
  10 H :    0.132328
  11 H :    0.177107
  12 H :    0.136067
  13 H :    0.127897
  14 H :    0.134324
  15 H :    0.148098
  16 H :    0.127978
  17 H :    0.193133

  Mayer bond orders larger than 0.1
B(  0-C ,  1-C ) :   0.9357 B(  0-C ,  8-H ) :   0.9262 B(  0-C ,  9-H ) :   0.9244
B(  0-C , 10-H ) :   0.9396 B(  1-C ,  2-O ) :   0.9648 B(  1-C ,  3-C ) :   0.9397
B(  1-C ,  6-C ) :   0.9234 B(  2-O , 11-H ) :   0.8406 B(  3-C ,  4-C ) :   0.9036
B(  3-C , 12-H ) :   0.9172 B(  3-C , 13-H ) :   0.8917 B(  4-C ,  5-C ) :   0.8774
B(  4-C ,  6-C ) :   0.7956 B(  4-C , 14-H ) :   0.9070 B(  5-C ,  6-C ) :   0.9149
B(  5-C , 15-H ) :   0.9236 B(  5-C , 16-H ) :   0.9128 B(  6-C ,  7-O ) :   1.0570
B(  7-O , 17-H ) :   0.8192

MP2 TOTAL ENERGY:     -384.283067764 Eh
FINAL SINGLE POINT ENERGY      -384.283067764285

DIPOLE MOMENT
-------------
                                X             Y             Z
Electronic contribution:     -1.89472      -3.53181       2.61345
Nuclear contribution   :      1.74742       3.87727      -3.49607
                        -----------------------------------------
Total Dipole Moment    :     -0.14730       0.34546      -0.88262
                        -----------------------------------------
Magnitude (a.u.)       :      0.95920
Magnitude (Debye)      :      2.43809

                             ****ORCA TERMINATED NORMALLY****
TOTAL RUN TIME: 0 days 0 hours 12 minutes 52 seconds 326 msec
