                         Program Version 3.0.3 - RELEASE   -
|  1> ! RI-MP2 RIJK def2-TZVP def2-TZVP/C def2-TZVP/JK TIGHTSCF
|  2> % maxcore 2000
|  3> % mp2 density relaxed end
|  4> *xyz 0 1
|  5>  C        0.0140973777     1.5715365596     0.0250302009
|  6>  C        0.0616129588     0.0608466086     0.0844713093
|  7>  C        1.3069322578    -0.7378468254    -0.1760863796
|  8>  O        2.4712424754    -0.0377988410     0.2761747950
|  9>  C        1.9884241573    -0.1039290050     1.6439178917
| 10>  C        0.6814433317    -0.7653368510     1.2056499472
| 11>  C       -0.0448298626    -1.8304662881     1.9735300213
| 12>  H        1.0009946482     1.9989590364     0.2175909934
| 13>  H       -0.2992916896     1.9065714851    -0.9694073213
| 14>  H       -0.6924513768     1.9828090864     0.7540430926
| 15>  H       -0.8255614012    -0.4379509949    -0.3046367638
| 16>  H        1.4413948153    -1.4884665465    -0.9479419278
| 17>  H        2.6244354097    -0.7701435117     2.2398141496
| 18>  H        1.9398084948     0.8817973500     2.1220015933
| 19>  H       -0.5967711665    -1.4073029497     2.8219097283
| 20>  H       -0.7713184543    -2.3476771729     1.3385802318
| 21>  H        0.6475541641    -2.5824730500     2.3693524381
| 22> *
| 23>
| 24>                          ****END OF INPUT****

CARTESIAN COORDINATES (ANGSTROEM)
---------------------------------
  C      0.014097    1.571537    0.025030
  C      0.061613    0.060847    0.084471
  C      1.306932   -0.737847   -0.176086
  O      2.471242   -0.037799    0.276175
  C      1.988424   -0.103929    1.643918
  C      0.681443   -0.765337    1.205650
  C     -0.044830   -1.830466    1.973530
  H      1.000995    1.998959    0.217591
  H     -0.299292    1.906571   -0.969407
  H     -0.692451    1.982809    0.754043
  H     -0.825561   -0.437951   -0.304637
  H      1.441395   -1.488467   -0.947942
  H      2.624435   -0.770144    2.239814
  H      1.939808    0.881797    2.122002
  H     -0.596771   -1.407303    2.821910
  H     -0.771318   -2.347677    1.338580
  H      0.647554   -2.582473    2.369352

 Total Charge           Charge          ....    0
 Multiplicity           Mult            ....    1
 Number of Electrons    NEL             ....   54
 Basis Dimension        Dim             ....  277

ORBITAL ENERGIES
----------------

  NO   OCC          E(Eh)            E(eV)
   0   2.0000     -20.549373      -559.1769
   1   2.0000     -11.280190      -306.9496
   2   2.0000     -11.279142      -306.9211
   3   2.0000     -11.239651      -305.8465
   4   2.0000     -11.234660      -305.7106
   5   2.0000     -11.226832      -305.4976
   6   2.0000     -11.213151      -305.1253
   7   2.0000      -1.387062       -37.7439
   8   2.0000      -1.127938       -30.6927
   9   2.0000      -0.999559       -27.1994
  10   2.0000      -0.943576       -25.6760
  11   2.0000      -0.925019       -25.1710
  12   2.0000      -0.779148       -21.2017
  13   2.0000      -0.736975       -20.0541
  14   2.0000      -0.676704       -18.4140
  15   2.0000      -0.635792       -17.3008
  16   2.0000      -0.625191       -17.0123
  17   2.0000      -0.579755       -15.7759
  18   2.0000      -0.564537       -15.3618
  19   2.0000      -0.559139       -15.2149
  20   2.0000      -0.555292       -15.1103
  21   2.0000      -0.536739       -14.6054
  22   2.0000      -0.501621       -13.6498
  23   2.0000      -0.481849       -13.1118
  24   2.0000      -0.460309       -12.5256
  25   2.0000      -0.385285       -10.4841
  26   2.0000      -0.368207       -10.0194
  27   0.0000       0.133869         3.6428
  28   0.0000       0.156925         4.2702
  29   0.0000       0.174369         4.7448
  30   0.0000       0.185970         5.0605
  31   0.0000       0.198131         5.3914

MULLIKEN ATOMIC CHARGES
-----------------------
   0 C :   -0.413814
   1 C :   -0.110927
   2 C :    0.060936
   3 O :   -0.345584
   4 C :   -0.017388
   5 C :   -0.041651
   6 C :   -0.399433
   7 H :    0.154217
   8 H :    0.131218
   9 H :    0.129284
  10 H :    0.113370
  11 H :    0.129489
  12 H :    0.104011
  13 H :    0.108207
  14 H :    0.136649
  15 H :    0.130124
  16 H :    0.131292
Sum of atomic charges:    0.0000000

LOEWDIN ATOMIC CHARGES
----------------------
   0 C :   -0.293152
   1 C :   -0.204471
   2 C :   -0.216733
   3 O :    0.141131
   4 C :   -0.222363
   5 C :   -0.228125
   6 C :   -0.277800
   7 H :    0.132534
   8 H :    0.126649
   9 H :    0.124054
  10 H :    0.157919
  11 H :    0.129379
  12 H :    0.125531
  13 H :    0.118457
  14 H :    0.129050
  15 H :    0.130355
  16 H :    0.127586

  Mayer bond orders larger than 0.1
B(  0-C ,  1-C ) :   0.9100 B(  0-C ,  7-H ) :   0.9321 B(  0-C ,  8-H ) :   0.9367
B(  0-C ,  9-H ) :   0.9380 B(  1-C ,  2-C ) :   0.8628 B(  1-C ,  5-C ) :   0.8618
B(  1-C , 10-H ) :   0.9272 B(  2-C ,  3-O ) :   0.9430 B(  2-C ,  5-C ) :   0.8933
B(  2-C , 11-H ) :   0.9156 B(  3-O ,  4-C ) :   0.9180 B(  4-C ,  5-C ) :   0.9768
B(  4-C , 12-H ) :   0.9081 B(  4-C , 13-H ) :   0.9186 B(  5-C ,  6-C ) :   0.8930
B(  6-C , 14-H ) :   0.9374 B(  6-C , 15-H ) :   0.9350 B(  6-C , 16-H ) :   0.9358

MP2 TOTAL ENERGY:     -309.139405607 Eh
FINAL SINGLE POINT ENERGY      -309.139405606794

DIPOLE MOMENT
-------------
                                X             Y             Z
Electronic contribution:      3.97830      -0.54147      -1.88955
Nuclear contribution   :     -4.59622       0.22779       2.22608
                        -----------------------------------------
Total Dipole Moment    :     -0.61791      -0.31368       0.33653
                        -----------------------------------------
Magnitude (a.u.)       :      0.77037
Magnitude (Debye)      :      1.95812

                             ****ORCA TERMINATED NORMALLY****
TOTAL RUN TIME: 0 days 0 hours 8 minutes 59 seconds 556 msec
