                         Program Version 3.0.3 - RELEASE   -
|  1> ! RI-MP2 RIJK def2-TZVP def2-TZVP/C def2-TZVP/JK TIGHTSCF
|  2> % maxcore 2000
|  3> % mp2 density relaxed end
|  4> *xyz 0 1
|  5>  N        1.2496456715    -0.8285795936    -1.4009049772
|  6>  C        0.9791776672     0.2184369726    -0.9926732519
|  7>  C        0.5531025868     1.5378749733    -0.5573270741
|  8>  C        0.5275995497     1.8265574507     0.9764099406
|  9>  N        2.0353559403     1.6838430488     0.9130713756
| 10>  C        1.6584227003     2.5931117255    -0.2397490710
| 11>  C        0.6227572939     3.3700466775     0.6623610932
| 12>  C       -0.5625763796     4.1036161312     0.0227996728
| 13>  C        1.1863893058     4.2788362058     1.7588749852
| 14>  H       -0.3001014574     1.8638047993    -1.1452956597
| 15>  H       -0.0718049793     1.3090771589     1.7274427909
| 16>  H        2.4793189600     2.2152977258     1.6609028184
| 17>  H        2.4029651561     2.9866693465    -0.9339353516
| 18>  H       -1.0610348557     3.5617361752    -0.7813533830
| 19>  H       -1.3186370262     4.3253686437     0.7839354709
| 20>  H       -0.2298942403     5.0631757779    -0.3878549233
| 21>  H        1.5002807336     5.2352610133     1.3274892979
| 22>  H        0.4101472108     4.4968993541     2.4999876156
| 23>  H        2.0434657125     3.8720855638     2.2995962806
| 24> *
| 25>
| 26>                          ****END OF INPUT****

CARTESIAN COORDINATES (ANGSTROEM)
---------------------------------
  N      1.249646   -0.828580   -1.400905
  C      0.979178    0.218437   -0.992673
  C      0.553103    1.537875   -0.557327
  C      0.527600    1.826557    0.976410
  N      2.035356    1.683843    0.913071
  C      1.658423    2.593112   -0.239749
  C      0.622757    3.370047    0.662361
  C     -0.562576    4.103616    0.022800
  C      1.186389    4.278836    1.758875
  H     -0.300101    1.863805   -1.145296
  H     -0.071805    1.309077    1.727443
  H      2.479319    2.215298    1.660903
  H      2.402965    2.986669   -0.933935
  H     -1.061035    3.561736   -0.781353
  H     -1.318637    4.325369    0.783935
  H     -0.229894    5.063176   -0.387855
  H      1.500281    5.235261    1.327489
  H      0.410147    4.496899    2.499988
  H      2.043466    3.872086    2.299596

 Total Charge           Charge          ....    0
 Multiplicity           Mult            ....    1
 Number of Electrons    NEL             ....   66
 Basis Dimension        Dim             ....  339

ORBITAL ENERGIES
----------------

  NO   OCC          E(Eh)            E(eV)
   0   2.0000     -15.568901      -423.6513
   1   2.0000     -15.555458      -423.2855
   2   2.0000     -11.302516      -307.5571
   3   2.0000     -11.302444      -307.5551
   4   2.0000     -11.286431      -307.1194
   5   2.0000     -11.275236      -306.8148
   6   2.0000     -11.260989      -306.4271
   7   2.0000     -11.239101      -305.8315
   8   2.0000     -11.238004      -305.8016
   9   2.0000      -1.310911       -35.6717
  10   2.0000      -1.202131       -32.7117
  11   2.0000      -1.077323       -29.3155
  12   2.0000      -1.034470       -28.1494
  13   2.0000      -0.949253       -25.8305
  14   2.0000      -0.903147       -24.5759
  15   2.0000      -0.895499       -24.3678
  16   2.0000      -0.755717       -20.5641
  17   2.0000      -0.714540       -19.4436
  18   2.0000      -0.706631       -19.2284
  19   2.0000      -0.635213       -17.2850
  20   2.0000      -0.621903       -16.9229
  21   2.0000      -0.578173       -15.7329
  22   2.0000      -0.558238       -15.1904
  23   2.0000      -0.557993       -15.1838
  24   2.0000      -0.550553       -14.9813
  25   2.0000      -0.532167       -14.4810
  26   2.0000      -0.526489       -14.3265
  27   2.0000      -0.509474       -13.8635
  28   2.0000      -0.490112       -13.3366
  29   2.0000      -0.447714       -12.1829
  30   2.0000      -0.441367       -12.0102
  31   2.0000      -0.427432       -11.6310
  32   2.0000      -0.406178       -11.0527
  33   0.0000       0.117871         3.2074
  34   0.0000       0.147620         4.0169
  35   0.0000       0.152404         4.1471
  36   0.0000       0.157573         4.2878
  37   0.0000       0.169877         4.6226

MULLIKEN ATOMIC CHARGES
-----------------------
   0 N :   -0.044153
   1 C :   -0.253071
   2 C :    0.050217
   3 C :   -0.075678
   4 N :   -0.308819
   5 C :   -0.075622
   6 C :    0.086198
   7 C :   -0.403912
   8 C :   -0.404989
   9 H :    0.133317
  10 H :    0.148250
  11 H :    0.189117
  12 H :    0.148256
  13 H :    0.134130
  14 H :    0.138284
  15 H :    0.138294
  16 H :    0.143149
  17 H :    0.143149
  18 H :    0.113882
Sum of atomic charges:   -0.0000000

LOEWDIN ATOMIC CHARGES
----------------------
   0 N :    0.061511
   1 C :   -0.171757
   2 C :   -0.176959
   3 C :   -0.147849
   4 N :    0.032051
   5 C :   -0.147846
   6 C :   -0.247367
   7 C :   -0.270087
   8 C :   -0.274094
   9 H :    0.163039
  10 H :    0.130354
  11 H :    0.151678
  12 H :    0.130356
  13 H :    0.122158
  14 H :    0.131367
  15 H :    0.131357
  16 H :    0.131784
  17 H :    0.131771
  18 H :    0.118531

  Mayer bond orders larger than 0.1
B(  0-N ,  1-C ) :   2.8994 B(  1-C ,  2-C ) :   0.9374 B(  2-C ,  3-C ) :   0.8461
B(  2-C ,  5-C ) :   0.8461 B(  2-C ,  9-H ) :   0.9055 B(  3-C ,  4-N ) :   0.9445
B(  3-C ,  6-C ) :   0.9267 B(  3-C , 10-H ) :   0.8818 B(  4-N ,  5-C ) :   0.9445
B(  4-N , 11-H ) :   0.8866 B(  5-C ,  6-C ) :   0.9266 B(  5-C , 12-H ) :   0.8818
B(  6-C ,  7-C ) :   0.9266 B(  6-C ,  8-C ) :   0.9332 B(  7-C , 13-H ) :   0.9283
B(  7-C , 14-H ) :   0.9297 B(  7-C , 15-H ) :   0.9297 B(  8-C , 16-H ) :   0.9375
B(  8-C , 17-H ) :   0.9375 B(  8-C , 18-H ) :   0.9211

MP2 TOTAL ENERGY:     -381.338457749 Eh
FINAL SINGLE POINT ENERGY      -381.338457748645

DIPOLE MOMENT
-------------
                                X             Y             Z
Electronic contribution:      2.43442     -10.39904      -4.29053
Nuclear contribution   :     -3.06519      12.59093       5.08539
                        -----------------------------------------
Total Dipole Moment    :     -0.63077       2.19190       0.79487
                        -----------------------------------------
Magnitude (a.u.)       :      2.41539
Magnitude (Debye)      :      6.13943

                             ****ORCA TERMINATED NORMALLY****
TOTAL RUN TIME: 0 days 0 hours 22 minutes 9 seconds 994 msec
