                         Program Version 3.0.3 - RELEASE   -
|  1> ! RI-MP2 RIJK def2-TZVP def2-TZVP/C def2-TZVP/JK TIGHTSCF
|  2> % maxcore 2000
|  3> % mp2 density relaxed end
|  4> *xyz 0 1
|  5>  C        1.3097580590     1.6480872805    -0.0863308199
|  6>  C        0.0821644203     0.8531608139     0.2702510173
|  7>  O        0.1027572459    -0.5407212271     0.0144386952
|  8>  C        0.0162245836    -0.1420362422     1.3793801357
|  9>  C        1.2109837542    -0.4304401126     2.2447310912
| 10>  O        2.3111549329    -0.6818240218     1.8066594593
| 11>  C        0.9974027481    -0.3714898735     3.7342956576
| 12>  C        0.2881338472     0.7692073193     4.3532816080
| 13>  O       -0.3352797563    -0.5001784767     4.2386841639
| 14>  H        2.2163181569     1.1261107571     0.2215501752
| 15>  H        1.3443058219     1.7996478531    -1.1702084950
| 16>  H        1.2755237840     2.6353066327     0.3869269979
| 17>  H       -0.8706343486     1.3296724633     0.0269894753
| 18>  H       -0.9464302260    -0.3172665459     1.8548505049
| 19>  H        1.7730892944    -0.8771252875     4.3060387200
| 20>  H        0.5680570221     1.0721323323     5.3605290848
| 21>  H       -0.1229743795     1.5549210154     3.7214685686
| 22> *
| 23>
| 24>                          ****END OF INPUT****

CARTESIAN COORDINATES (ANGSTROEM)
---------------------------------
  C      1.309758    1.648087   -0.086331
  C      0.082164    0.853161    0.270251
  O      0.102757   -0.540721    0.014439
  C      0.016225   -0.142036    1.379380
  C      1.210984   -0.430440    2.244731
  O      2.311155   -0.681824    1.806659
  C      0.997403   -0.371490    3.734296
  C      0.288134    0.769207    4.353282
  O     -0.335280   -0.500178    4.238684
  H      2.216318    1.126111    0.221550
  H      1.344306    1.799648   -1.170208
  H      1.275524    2.635307    0.386927
  H     -0.870634    1.329672    0.026989
  H     -0.946430   -0.317267    1.854851
  H      1.773089   -0.877125    4.306039
  H      0.568057    1.072132    5.360529
  H     -0.122974    1.554921    3.721469

 Total Charge           Charge          ....    0
 Multiplicity           Mult            ....    1
 Number of Electrons    NEL             ....   68
 Basis Dimension        Dim             ....  327

ORBITAL ENERGIES
----------------

  NO   OCC          E(Eh)            E(eV)
   0   2.0000     -20.602996      -560.6360
   1   2.0000     -20.584438      -560.1310
   2   2.0000     -20.563909      -559.5724
   3   2.0000     -11.350227      -308.8554
   4   2.0000     -11.316673      -307.9423
   5   2.0000     -11.315159      -307.9011
   6   2.0000     -11.310136      -307.7645
   7   2.0000     -11.301573      -307.5314
   8   2.0000     -11.229049      -305.5580
   9   2.0000      -1.449134       -39.4329
  10   2.0000      -1.435689       -39.0671
  11   2.0000      -1.399626       -38.0858
  12   2.0000      -1.024041       -27.8656
  13   2.0000      -1.012297       -27.5460
  14   2.0000      -0.949751       -25.8440
  15   2.0000      -0.904414       -24.6104
  16   2.0000      -0.845520       -23.0078
  17   2.0000      -0.763351       -20.7718
  18   2.0000      -0.735740       -20.0205
  19   2.0000      -0.713867       -19.4253
  20   2.0000      -0.682357       -18.5679
  21   2.0000      -0.657343       -17.8872
  22   2.0000      -0.610005       -16.5991
  23   2.0000      -0.597270       -16.2525
  24   2.0000      -0.583476       -15.8772
  25   2.0000      -0.580583       -15.7985
  26   2.0000      -0.565996       -15.4015
  27   2.0000      -0.542580       -14.7643
  28   2.0000      -0.530563       -14.4373
  29   2.0000      -0.498213       -13.5571
  30   2.0000      -0.471569       -12.8320
  31   2.0000      -0.463187       -12.6040
  32   2.0000      -0.437724       -11.9111
  33   2.0000      -0.425365       -11.5748
  34   0.0000       0.100710         2.7405
  35   0.0000       0.134748         3.6667
  36   0.0000       0.159450         4.3389
  37   0.0000       0.165124         4.4932
  38   0.0000       0.175642         4.7795

MULLIKEN ATOMIC CHARGES
-----------------------
   0 C :   -0.403272
   1 C :    0.082493
   2 O :   -0.308504
   3 C :   -0.039282
   4 C :    0.185676
   5 O :   -0.280883
   6 C :    0.001584
   7 C :   -0.078742
   8 O :   -0.314958
   9 H :    0.175545
  10 H :    0.143553
  11 H :    0.124212
  12 H :    0.118358
  13 H :    0.173133
  14 H :    0.155058
  15 H :    0.135007
  16 H :    0.131021
Sum of atomic charges:    0.0000000

LOEWDIN ATOMIC CHARGES
----------------------
   0 C :   -0.292823
   1 C :   -0.282321
   2 O :    0.200538
   3 C :   -0.243054
   4 C :   -0.311689
   5 O :    0.174793
   6 C :   -0.247229
   7 C :   -0.253480
   8 O :    0.164918
   9 H :    0.137964
  10 H :    0.133560
  11 H :    0.129531
  12 H :    0.138469
  13 H :    0.151568
  14 H :    0.149707
  15 H :    0.125498
  16 H :    0.124051

  Mayer bond orders larger than 0.1
B(  0-C ,  1-C ) :   0.8936 B(  0-C ,  9-H ) :   0.9305 B(  0-C , 10-H ) :   0.9304
B(  0-C , 11-H ) :   0.9254 B(  1-C ,  2-O ) :   0.8954 B(  1-C ,  3-C ) :   0.9261
B(  1-C , 12-H ) :   0.9246 B(  2-O ,  3-C ) :   0.9054 B(  3-C ,  4-C ) :   0.8890
B(  3-C , 13-H ) :   0.9068 B(  4-C ,  5-O ) :   1.9355 B(  4-C ,  6-C ) :   0.9168
B(  6-C ,  7-C ) :   0.9366 B(  6-C ,  8-O ) :   0.9008 B(  6-C , 14-H ) :   0.9195
B(  7-C ,  8-O ) :   0.8975 B(  7-C , 15-H ) :   0.9202 B(  7-C , 16-H ) :   0.9094

MP2 TOTAL ENERGY:     -458.184104337 Eh
FINAL SINGLE POINT ENERGY      -458.184104337053

DIPOLE MOMENT
-------------
                                X             Y             Z
Electronic contribution:     -0.26374      -5.95752       1.74325
Nuclear contribution   :     -0.08993       7.26648      -1.11685
                        -----------------------------------------
Total Dipole Moment    :     -0.35367       1.30896       0.62640
                        -----------------------------------------
Magnitude (a.u.)       :      1.49359
Magnitude (Debye)      :      3.79642

                             ****ORCA TERMINATED NORMALLY****
TOTAL RUN TIME: 0 days 0 hours 14 minutes 34 seconds 963 msec
