                         Program Version 3.0.3 - RELEASE   -
|  1> ! RI-MP2 RIJK def2-TZVP def2-TZVP/C def2-TZVP/JK TIGHTSCF
|  2> % maxcore 2000
|  3> % mp2 density relaxed end
|  4> *xyz 0 1
|  5>  C       -0.0353752292     1.4509851236    -0.0316845043
|  6>  N       -0.0082269244    -0.0002989957     0.0561110715
|  7>  N       -0.0353041822    -0.6253200239    -1.1575855105
|  8>  N       -0.0168574619    -1.8788710968    -1.2390859063
|  9>  C        0.0330443181    -2.7234450024    -0.0815575006
| 10>  N        0.0505606901    -3.9972875208    -0.2044583664
| 11>  C        0.0611691580    -2.0484792092     1.1952185895
| 12>  C        0.0403570608    -0.7007398923     1.2507562308
| 13>  C        0.0666763461     0.0845009838     2.5283957691
| 14>  H        0.8616694225     1.8946996860     0.4113659376
| 15>  H       -0.0719649825     1.6986927395    -1.0918136489
| 16>  H       -0.9181185784     1.8647203444     0.4657779964
| 17>  H        0.0236844869    -4.2293065474    -1.2002373413
| 18>  H        0.0990181968    -2.6416366810     2.0998399153
| 19>  H        0.1043160556    -0.6012999065     3.3761038104
| 20>  H        0.9404238404     0.7431035732     2.5809474304
| 21>  H       -0.8236742569     0.7136105655     2.6354117671
| 22> *
| 23>
| 24>                          ****END OF INPUT****

CARTESIAN COORDINATES (ANGSTROEM)
---------------------------------
  C     -0.035375    1.450985   -0.031685
  N     -0.008227   -0.000299    0.056111
  N     -0.035304   -0.625320   -1.157586
  N     -0.016857   -1.878871   -1.239086
  C      0.033044   -2.723445   -0.081558
  N      0.050561   -3.997288   -0.204458
  C      0.061169   -2.048479    1.195219
  C      0.040357   -0.700740    1.250756
  C      0.066676    0.084501    2.528396
  H      0.861669    1.894700    0.411366
  H     -0.071965    1.698693   -1.091814
  H     -0.918119    1.864720    0.465778
  H      0.023684   -4.229307   -1.200237
  H      0.099018   -2.641637    2.099840
  H      0.104316   -0.601300    3.376104
  H      0.940424    0.743104    2.580947
  H     -0.823674    0.713611    2.635412

 Total Charge           Charge          ....    0
 Multiplicity           Mult            ....    1
 Number of Electrons    NEL             ....   66
 Basis Dimension        Dim             ....  327

ORBITAL ENERGIES
----------------

  NO   OCC          E(Eh)            E(eV)
   0   2.0000     -15.690497      -426.9601
   1   2.0000     -15.653068      -425.9416
   2   2.0000     -15.614875      -424.9024
   3   2.0000     -15.521760      -422.3686
   4   2.0000     -11.317652      -307.9690
   5   2.0000     -11.308235      -307.7127
   6   2.0000     -11.289939      -307.2149
   7   2.0000     -11.261943      -306.4530
   8   2.0000     -11.236684      -305.7657
   9   2.0000      -1.431585       -38.9554
  10   2.0000      -1.265822       -34.4448
  11   2.0000      -1.199419       -32.6379
  12   2.0000      -1.104024       -30.0420
  13   2.0000      -1.002902       -27.2904
  14   2.0000      -0.985148       -26.8072
  15   2.0000      -0.919243       -25.0139
  16   2.0000      -0.849601       -23.1188
  17   2.0000      -0.754092       -20.5199
  18   2.0000      -0.713331       -19.4107
  19   2.0000      -0.683240       -18.5919
  20   2.0000      -0.654497       -17.8098
  21   2.0000      -0.608574       -16.5601
  22   2.0000      -0.599575       -16.3153
  23   2.0000      -0.599485       -16.3128
  24   2.0000      -0.586139       -15.9497
  25   2.0000      -0.581193       -15.8151
  26   2.0000      -0.580894       -15.8069
  27   2.0000      -0.540731       -14.7140
  28   2.0000      -0.474990       -12.9251
  29   2.0000      -0.447800       -12.1853
  30   2.0000      -0.442908       -12.0521
  31   2.0000      -0.400513       -10.8985
  32   2.0000      -0.309857        -8.4316
  33   0.0000       0.095713         2.6045
  34   0.0000       0.114299         3.1102
  35   0.0000       0.119353         3.2478
  36   0.0000       0.157139         4.2760
  37   0.0000       0.178278         4.8512

MULLIKEN ATOMIC CHARGES
-----------------------
   0 C :   -0.322597
   1 N :    0.102849
   2 N :   -0.131922
   3 N :   -0.130005
   4 C :    0.045353
   5 N :   -0.372109
   6 C :   -0.179273
   7 C :    0.096048
   8 C :   -0.420184
   9 H :    0.147913
  10 H :    0.183653
  11 H :    0.147929
  12 H :    0.218365
  13 H :    0.147632
  14 H :    0.160009
  15 H :    0.153176
  16 H :    0.153165
Sum of atomic charges:   -0.0000000

LOEWDIN ATOMIC CHARGES
----------------------
   0 C :   -0.279337
   1 N :    0.152940
   2 N :    0.009563
   3 N :    0.045165
   4 C :   -0.393773
   5 N :   -0.067240
   6 C :   -0.106246
   7 C :   -0.223614
   8 C :   -0.255467
   9 H :    0.122285
  10 H :    0.136481
  11 H :    0.122283
  12 H :    0.162309
  13 H :    0.160994
  14 H :    0.141332
  15 H :    0.136162
  16 H :    0.136164

  Mayer bond orders larger than 0.1
B(  0-C ,  1-N ) :   0.8697 B(  0-C ,  9-H ) :   0.9283 B(  0-C , 10-H ) :   0.9202
B(  0-C , 11-H ) :   0.9283 B(  1-N ,  2-N ) :   0.9315 B(  1-N ,  7-C ) :   1.1038
B(  2-N ,  3-N ) :   1.4423 B(  3-N ,  4-C ) :   1.0981 B(  4-C ,  5-N ) :   1.9752
B(  4-C ,  6-C ) :   1.0587 B(  5-N , 12-H ) :   0.8582 B(  6-C ,  7-C ) :   1.5197
B(  6-C , 13-H ) :   0.9165 B(  7-C ,  8-C ) :   0.9016 B(  8-C , 14-H ) :   0.9395
B(  8-C , 15-H ) :   0.9270 B(  8-C , 16-H ) :   0.9269

MP2 TOTAL ENERGY:     -413.448580451 Eh
FINAL SINGLE POINT ENERGY      -413.448580450873

DIPOLE MOMENT
-------------
                                X             Y             Z
Electronic contribution:     -0.07502      -5.77318      -5.56634
Nuclear contribution   :      0.07637       7.86452       6.74406
                        -----------------------------------------
Total Dipole Moment    :      0.00135       2.09134       1.17772
                        -----------------------------------------
Magnitude (a.u.)       :      2.40015
Magnitude (Debye)      :      6.10070

                             ****ORCA TERMINATED NORMALLY****
TOTAL RUN TIME: 0 days 0 hours 19 minutes 40 seconds 632 msec
