                         Program Version 3.0.3 - RELEASE   -
|  1> ! RI-MP2 RIJK def2-TZVP def2-TZVP/C def2-TZVP/JK TIGHTSCF
|  2> % maxcore 2000
|  3> % mp2 density relaxed end
|  4> *xyz 0 1
|  5>  C       -0.0225086703     1.6997262782    -0.3346442882
|  6>  C        0.0038256081     0.1836837553    -0.1526928171
|  7>  C       -1.4127702793    -0.3344392241     0.0018979943
|  8>  O       -1.7928897433    -1.1225403847     0.8307847414
|  9>  C        0.7394893575    -0.6599797144    -1.2246492003
| 10>  C        2.2075328259    -0.3429621258    -1.2403834977
| 11>  C        1.6739256416    -1.2439940149    -0.1624015519
| 12>  C        0.9848229300    -0.4316380101     0.9230520480
| 13>  O        1.8454349887     0.4517718637     1.6089581625
| 14>  H        0.9782835914     2.0939378095    -0.5164764548
| 15>  H       -0.6590885171     1.9811011723    -1.1812663089
| 16>  H       -0.4156597807     2.1971922012     0.5593150618
| 17>  H       -2.1232482544     0.0756782010    -0.7546727783
| 18>  H        0.2515997693    -1.1737188653    -2.0448227447
| 19>  H        2.7717595467    -0.8454497110    -2.0196027767
| 20>  H        2.5775340823     0.6461668549    -0.9924446564
| 21>  H        2.0144658830    -2.2650905057    -0.0465047600
| 22>  H        0.4164820318    -1.0646426491     1.6109764476
| 23>  H        1.3790208488     0.7919781890     2.3785568894
| 24> *
| 25>
| 26>                          ****END OF INPUT****

CARTESIAN COORDINATES (ANGSTROEM)
---------------------------------
  C     -0.022509    1.699726   -0.334644
  C      0.003826    0.183684   -0.152693
  C     -1.412770   -0.334439    0.001898
  O     -1.792890   -1.122540    0.830785
  C      0.739489   -0.659980   -1.224649
  C      2.207533   -0.342962   -1.240383
  C      1.673926   -1.243994   -0.162402
  C      0.984823   -0.431638    0.923052
  O      1.845435    0.451772    1.608958
  H      0.978284    2.093938   -0.516476
  H     -0.659089    1.981101   -1.181266
  H     -0.415660    2.197192    0.559315
  H     -2.123248    0.075678   -0.754673
  H      0.251600   -1.173719   -2.044823
  H      2.771760   -0.845450   -2.019603
  H      2.577534    0.646167   -0.992445
  H      2.014466   -2.265091   -0.046505
  H      0.416482   -1.064643    1.610976
  H      1.379021    0.791978    2.378557

 Total Charge           Charge          ....    0
 Multiplicity           Mult            ....    1
 Number of Electrons    NEL             ....   68
 Basis Dimension        Dim             ....  339

ORBITAL ENERGIES
----------------

  NO   OCC          E(Eh)            E(eV)
   0   2.0000     -20.561476      -559.5062
   1   2.0000     -20.560646      -559.4836
   2   2.0000     -11.333373      -308.3968
   3   2.0000     -11.287115      -307.1380
   4   2.0000     -11.254097      -306.2395
   5   2.0000     -11.248200      -306.0791
   6   2.0000     -11.237003      -305.7744
   7   2.0000     -11.235343      -305.7292
   8   2.0000     -11.229510      -305.5705
   9   2.0000      -1.400229       -38.1022
  10   2.0000      -1.369403       -37.2634
  11   2.0000      -1.197963       -32.5982
  12   2.0000      -1.050486       -28.5852
  13   2.0000      -0.949114       -25.8267
  14   2.0000      -0.897051       -24.4100
  15   2.0000      -0.823556       -22.4101
  16   2.0000      -0.795071       -21.6350
  17   2.0000      -0.731884       -19.9156
  18   2.0000      -0.721939       -19.6450
  19   2.0000      -0.678605       -18.4658
  20   2.0000      -0.659573       -17.9479
  21   2.0000      -0.638066       -17.3627
  22   2.0000      -0.618060       -16.8183
  23   2.0000      -0.588764       -16.0211
  24   2.0000      -0.560181       -15.2433
  25   2.0000      -0.556346       -15.1390
  26   2.0000      -0.544427       -14.8146
  27   2.0000      -0.532853       -14.4997
  28   2.0000      -0.501014       -13.6333
  29   2.0000      -0.474887       -12.9223
  30   2.0000      -0.451047       -12.2736
  31   2.0000      -0.418294       -11.3824
  32   2.0000      -0.406419       -11.0592
  33   2.0000      -0.393954       -10.7200
  34   0.0000       0.122350         3.3293
  35   0.0000       0.134922         3.6714
  36   0.0000       0.152447         4.1483
  37   0.0000       0.159648         4.3442
  38   0.0000       0.176326         4.7981

MULLIKEN ATOMIC CHARGES
-----------------------
   0 C :   -0.431088
   1 C :    0.181760
   2 C :    0.070304
   3 O :   -0.270234
   4 C :   -0.169579
   5 C :   -0.272200
   6 C :   -0.127796
   7 C :   -0.029023
   8 O :   -0.451772
   9 H :    0.147837
  10 H :    0.137721
  11 H :    0.128264
  12 H :    0.081726
  13 H :    0.137234
  14 H :    0.135217
  15 H :    0.144820
  16 H :    0.138844
  17 H :    0.130412
  18 H :    0.317552
Sum of atomic charges:    0.0000000

LOEWDIN ATOMIC CHARGES
----------------------
   0 C :   -0.266485
   1 C :   -0.247168
   2 C :   -0.248852
   3 O :    0.136442
   4 C :   -0.137564
   5 C :   -0.193733
   6 C :   -0.154510
   7 C :   -0.265964
   8 O :   -0.005076
   9 H :    0.131942
  10 H :    0.129852
  11 H :    0.127740
  12 H :    0.117862
  13 H :    0.139285
  14 H :    0.142156
  15 H :    0.135590
  16 H :    0.137598
  17 H :    0.143755
  18 H :    0.177130

  Mayer bond orders larger than 0.1
B(  0-C ,  1-C ) :   0.8944 B(  0-C ,  9-H ) :   0.9266 B(  0-C , 10-H ) :   0.9316
B(  0-C , 11-H ) :   0.9319 B(  1-C ,  2-C ) :   0.8257 B(  1-C ,  4-C ) :   0.8798
B(  1-C ,  7-C ) :   0.8837 B(  1-C ,  8-O ) :  -0.1206 B(  2-C ,  3-O ) :   1.9895
B(  2-C , 12-H ) :   0.9430 B(  4-C ,  5-C ) :   0.8729 B(  4-C ,  6-C ) :   0.8380
B(  4-C , 13-H ) :   0.9149 B(  5-C ,  6-C ) :   0.8961 B(  5-C , 14-H ) :   0.9324
B(  5-C , 15-H ) :   0.9147 B(  6-C ,  7-C ) :   0.9433 B(  6-C , 16-H ) :   0.9309
B(  7-C ,  8-O ) :   1.1433 B(  7-C , 17-H ) :   0.9474 B(  8-O , 18-H ) :   0.8451

MP2 TOTAL ENERGY:     -422.298237906 Eh
FINAL SINGLE POINT ENERGY      -422.298237906347

DIPOLE MOMENT
-------------
                                X             Y             Z
Electronic contribution:     -2.36450      -3.45240       3.08883
Nuclear contribution   :      2.40352       3.90605      -3.50863
                        -----------------------------------------
Total Dipole Moment    :      0.03902       0.45365      -0.41980
                        -----------------------------------------
Magnitude (a.u.)       :      0.61932
Magnitude (Debye)      :      1.57418

                             ****ORCA TERMINATED NORMALLY****
TOTAL RUN TIME: 0 days 0 hours 18 minutes 43 seconds 593 msec
