                         Program Version 3.0.3 - RELEASE   -
|  1> ! RI-MP2 RIJK def2-TZVP def2-TZVP/C def2-TZVP/JK TIGHTSCF
|  2> % maxcore 2000
|  3> % mp2 density relaxed end
|  4> *xyz 0 1
|  5>  O        0.0054902868    -0.0562195183     0.2059478937
|  6>  C       -0.0175866560     1.1444588377     0.0278906707
|  7>  C       -1.3206187398     1.9297931953    -0.0683551715
|  8>  C       -1.1973876098     3.1565303103    -0.9783939156
|  9>  C       -0.0376659530     4.0693542118    -0.5186917116
| 10>  C        1.2261380549     3.2611030545    -0.2913205868
| 11>  C        1.2257187909     1.9425529257    -0.0648236912
| 12>  C        0.1957980213     5.1651931029    -1.4575669321
| 13>  C        0.3880872621     6.0544664638    -2.2424803473
| 14>  H       -2.1087843154     1.2498310943    -0.4008056962
| 15>  H       -1.5827356336     2.2471340167     0.9517600201
| 16>  H       -0.9966087779     2.8390972247    -2.0075324113
| 17>  H       -2.1305619535     3.7263863484    -0.9948606064
| 18>  H       -0.3182968691     4.5150424225     0.4506410250
| 19>  H        2.1609775736     3.8143010579    -0.3188944193
| 20>  H        2.1501626062     1.3926578469     0.0824134367
| 21>  H        0.5555488722     6.8454763748    -2.9310894768
| 22> *
| 23>
| 24>                          ****END OF INPUT****

CARTESIAN COORDINATES (ANGSTROEM)
---------------------------------
  O      0.005490   -0.056220    0.205948
  C     -0.017587    1.144459    0.027891
  C     -1.320619    1.929793   -0.068355
  C     -1.197388    3.156530   -0.978394
  C     -0.037666    4.069354   -0.518692
  C      1.226138    3.261103   -0.291321
  C      1.225719    1.942553   -0.064824
  C      0.195798    5.165193   -1.457567
  C      0.388087    6.054466   -2.242480
  H     -2.108784    1.249831   -0.400806
  H     -1.582736    2.247134    0.951760
  H     -0.996609    2.839097   -2.007532
  H     -2.130562    3.726386   -0.994861
  H     -0.318297    4.515042    0.450641
  H      2.160978    3.814301   -0.318894
  H      2.150163    1.392658    0.082413
  H      0.555549    6.845476   -2.931089

 Total Charge           Charge          ....    0
 Multiplicity           Mult            ....    1
 Number of Electrons    NEL             ....   64
 Basis Dimension        Dim             ....  327

ORBITAL ENERGIES
----------------

  NO   OCC          E(Eh)            E(eV)
   0   2.0000     -20.542708      -558.9955
   1   2.0000     -11.331373      -308.3423
   2   2.0000     -11.284538      -307.0679
   3   2.0000     -11.274261      -306.7882
   4   2.0000     -11.251865      -306.1788
   5   2.0000     -11.247286      -306.0542
   6   2.0000     -11.244940      -305.9904
   7   2.0000     -11.244352      -305.9744
   8   2.0000     -11.236696      -305.7660
   9   2.0000      -1.384465       -37.6732
  10   2.0000      -1.157313       -31.4921
  11   2.0000      -1.058931       -28.8150
  12   2.0000      -1.042351       -28.3638
  13   2.0000      -0.987090       -26.8601
  14   2.0000      -0.867097       -23.5949
  15   2.0000      -0.839818       -22.8526
  16   2.0000      -0.742797       -20.2125
  17   2.0000      -0.719009       -19.5652
  18   2.0000      -0.690654       -18.7937
  19   2.0000      -0.660359       -17.9693
  20   2.0000      -0.645596       -17.5676
  21   2.0000      -0.610576       -16.6146
  22   2.0000      -0.596824       -16.2404
  23   2.0000      -0.588044       -16.0015
  24   2.0000      -0.550451       -14.9785
  25   2.0000      -0.528224       -14.3737
  26   2.0000      -0.514416       -13.9980
  27   2.0000      -0.491960       -13.3869
  28   2.0000      -0.412079       -11.2132
  29   2.0000      -0.407390       -11.0856
  30   2.0000      -0.402690       -10.9578
  31   2.0000      -0.382911       -10.4195
  32   0.0000       0.084732         2.3057
  33   0.0000       0.120862         3.2888
  34   0.0000       0.153338         4.1725
  35   0.0000       0.160712         4.3732
  36   0.0000       0.166111         4.5201

MULLIKEN ATOMIC CHARGES
-----------------------
   0 O :   -0.284266
   1 C :    0.190389
   2 C :   -0.185198
   3 C :   -0.255987
   4 C :   -0.124893
   5 C :   -0.145683
   6 C :   -0.195046
   7 C :   -0.054266
   8 C :   -0.114311
   9 H :    0.147127
  10 H :    0.128591
  11 H :    0.138850
  12 H :    0.138418
  13 H :    0.131955
  14 H :    0.146216
  15 H :    0.142048
  16 H :    0.196057
Sum of atomic charges:   -0.0000000

LOEWDIN ATOMIC CHARGES
----------------------
   0 O :    0.147738
   1 C :   -0.324379
   2 C :   -0.220348
   3 C :   -0.210519
   4 C :   -0.226528
   5 C :   -0.084033
   6 C :   -0.128764
   7 C :   -0.085421
   8 C :   -0.090522
   9 H :    0.150878
  10 H :    0.156121
  11 H :    0.150583
  12 H :    0.144506
  13 H :    0.183111
  14 H :    0.154145
  15 H :    0.154913
  16 H :    0.128521

  Mayer bond orders larger than 0.1
B(  0-O ,  1-C ) :   1.9667 B(  1-C ,  2-C ) :   0.9074 B(  1-C ,  6-C ) :   0.9994
B(  2-C ,  3-C ) :   0.8847 B(  2-C ,  9-H ) :   0.9215 B(  2-C , 10-H ) :   0.9024
B(  3-C ,  4-C ) :   0.9441 B(  3-C , 11-H ) :   0.9274 B(  3-C , 12-H ) :   0.9258
B(  4-C ,  5-C ) :   0.8985 B(  4-C ,  7-C ) :   1.1582 B(  4-C ,  8-C ) :  -0.1140
B(  4-C , 13-H ) :   0.8873 B(  5-C ,  6-C ) :   1.6768 B(  5-C , 14-H ) :   0.9234
B(  6-C , 15-H ) :   0.9200 B(  7-C ,  8-C ) :   2.5998 B(  8-C , 16-H ) :   0.8826

MP2 TOTAL ENERGY:     -383.999039881 Eh
FINAL SINGLE POINT ENERGY      -383.999039880658

DIPOLE MOMENT
-------------
                                X             Y             Z
Electronic contribution:      2.23964      -2.08590       0.42167
Nuclear contribution   :     -2.33980       3.26923      -0.52078
                        -----------------------------------------
Total Dipole Moment    :     -0.10016       1.18333      -0.09912
                        -----------------------------------------
Magnitude (a.u.)       :      1.19169
Magnitude (Debye)      :      3.02903

                             ****ORCA TERMINATED NORMALLY****
TOTAL RUN TIME: 0 days 0 hours 16 minutes 31 seconds 832 msec
