                         Program Version 3.0.3 - RELEASE   -
|  1> ! RI-MP2 RIJK def2-TZVP def2-TZVP/C def2-TZVP/JK TIGHTSCF
|  2> % maxcore 2000
|  3> % mp2 density relaxed end
|  4> *xyz 0 1
|  5>  C       -0.0002246271     1.5492376293    -0.0393621197
|  6>  C        0.0694432909     0.0166063425    -0.1106541947
|  7>  C        0.7248131957    -0.4325630606    -1.4240315065
|  8>  C        0.8092549391    -0.5591042664     1.1120171723
|  9>  C        0.1615173861    -0.1297088423     2.4274654915
| 10>  O        0.7614905135     0.0623480357     3.4529786176
| 11>  C        0.7836756753    -2.1040716379     1.1646177984
| 12>  C        1.9390255286    -2.7488254490     1.8964759097
| 13>  O       -0.1297098411    -2.7305733964     0.6819904595
| 14>  H        1.0038012300     1.9892540529    -0.0575904605
| 15>  H       -0.5531453358     1.9492693918    -0.8948998488
| 16>  H       -0.4985244380     1.9032781700     0.8694696433
| 17>  H       -0.9489633657    -0.3896773881    -0.0851109163
| 18>  H        1.7615634636    -0.0800048057    -1.4858813376
| 19>  H        0.7226429042    -1.5203791759    -1.5234965613
| 20>  H        0.1858560643    -0.0175608687    -2.2815212101
| 21>  H        1.8517690563    -0.2235783921     1.1501905866
| 22>  H       -0.9473087459    -0.0501488506     2.3809524106
| 23>  H        2.1147620121    -2.2370088169     2.8485238004
| 24>  H        1.7408397543    -3.8090821469     2.0574706462
| 25>  H        2.8533020396    -2.6353583748     1.3015931195
| 26> *
| 27>
| 28>                          ****END OF INPUT****

CARTESIAN COORDINATES (ANGSTROEM)
---------------------------------
  C     -0.000225    1.549238   -0.039362
  C      0.069443    0.016606   -0.110654
  C      0.724813   -0.432563   -1.424032
  C      0.809255   -0.559104    1.112017
  C      0.161517   -0.129709    2.427465
  O      0.761491    0.062348    3.452979
  C      0.783676   -2.104072    1.164618
  C      1.939026   -2.748825    1.896476
  O     -0.129710   -2.730573    0.681990
  H      1.003801    1.989254   -0.057590
  H     -0.553145    1.949269   -0.894900
  H     -0.498524    1.903278    0.869470
  H     -0.948963   -0.389677   -0.085111
  H      1.761563   -0.080005   -1.485881
  H      0.722643   -1.520379   -1.523497
  H      0.185856   -0.017561   -2.281521
  H      1.851769   -0.223578    1.150191
  H     -0.947309   -0.050149    2.380952
  H      2.114762   -2.237009    2.848524
  H      1.740840   -3.809082    2.057471
  H      2.853302   -2.635358    1.301593

 Total Charge           Charge          ....    0
 Multiplicity           Mult            ....    1
 Number of Electrons    NEL             ....   70
 Basis Dimension        Dim             ....  351

ORBITAL ENERGIES
----------------

  NO   OCC          E(Eh)            E(eV)
   0   2.0000     -20.571698      -559.7843
   1   2.0000     -20.559519      -559.4530
   2   2.0000     -11.347347      -308.7770
   3   2.0000     -11.347267      -308.7748
   4   2.0000     -11.259393      -306.3837
   5   2.0000     -11.248815      -306.0958
   6   2.0000     -11.240151      -305.8601
   7   2.0000     -11.229159      -305.5609
   8   2.0000     -11.223297      -305.4014
   9   2.0000      -1.412579       -38.4382
  10   2.0000      -1.403599       -38.1939
  11   2.0000      -1.120802       -30.4986
  12   2.0000      -1.038357       -28.2551
  13   2.0000      -0.982818       -26.7438
  14   2.0000      -0.944135       -25.6912
  15   2.0000      -0.828277       -22.5386
  16   2.0000      -0.807875       -21.9834
  17   2.0000      -0.751617       -20.4525
  18   2.0000      -0.680357       -18.5134
  19   2.0000      -0.674494       -18.3539
  20   2.0000      -0.659611       -17.9489
  21   2.0000      -0.638076       -17.3629
  22   2.0000      -0.619468       -16.8566
  23   2.0000      -0.596023       -16.2186
  24   2.0000      -0.576193       -15.6790
  25   2.0000      -0.572417       -15.5763
  26   2.0000      -0.554578       -15.0908
  27   2.0000      -0.546637       -14.8748
  28   2.0000      -0.534142       -14.5347
  29   2.0000      -0.509717       -13.8701
  30   2.0000      -0.501501       -13.6465
  31   2.0000      -0.494031       -13.4433
  32   2.0000      -0.482607       -13.1324
  33   2.0000      -0.434795       -11.8314
  34   2.0000      -0.411230       -11.1901
  35   0.0000       0.099652         2.7117
  36   0.0000       0.126047         3.4299
  37   0.0000       0.142924         3.8892
  38   0.0000       0.162335         4.4174
  39   0.0000       0.163779         4.4566

MULLIKEN ATOMIC CHARGES
-----------------------
   0 C :   -0.386904
   1 C :   -0.052661
   2 C :   -0.428549
   3 C :   -0.033672
   4 C :    0.047118
   5 O :   -0.255409
   6 C :    0.211045
   7 C :   -0.440779
   8 O :   -0.279698
   9 H :    0.128502
  10 H :    0.139003
  11 H :    0.135921
  12 H :    0.109113
  13 H :    0.122045
  14 H :    0.155819
  15 H :    0.135375
  16 H :    0.112364
  17 H :    0.105161
  18 H :    0.172356
  19 H :    0.153908
  20 H :    0.149943
Sum of atomic charges:   -0.0000000

LOEWDIN ATOMIC CHARGES
----------------------
   0 C :   -0.287995
   1 C :   -0.281655
   2 C :   -0.287748
   3 C :   -0.210121
   4 C :   -0.266202
   5 O :    0.141467
   6 C :   -0.324587
   7 C :   -0.272990
   8 O :    0.163631
   9 H :    0.126276
  10 H :    0.126693
  11 H :    0.124512
  12 H :    0.159912
  13 H :    0.123237
  14 H :    0.128143
  15 H :    0.126360
  16 H :    0.169361
  17 H :    0.122531
  18 H :    0.143922
  19 H :    0.133902
  20 H :    0.141350

  Mayer bond orders larger than 0.1
B(  0-C ,  1-C ) :   0.9149 B(  0-C ,  9-H ) :   0.9278 B(  0-C , 10-H ) :   0.9407
B(  0-C , 11-H ) :   0.9353 B(  1-C ,  2-C ) :   0.9134 B(  1-C ,  3-C ) :   0.8981
B(  1-C , 12-H ) :   0.9103 B(  2-C , 13-H ) :   0.9299 B(  2-C , 14-H ) :   0.9383
B(  2-C , 15-H ) :   0.9385 B(  3-C ,  4-C ) :   0.8019 B(  3-C ,  6-C ) :   0.8334
B(  3-C , 16-H ) :   0.8985 B(  4-C ,  5-O ) :   1.9838 B(  4-C , 17-H ) :   0.9407
B(  6-C ,  7-C ) :   0.9310 B(  6-C ,  8-O ) :   1.9774 B(  7-C , 18-H ) :   0.9054
B(  7-C , 19-H ) :   0.9375 B(  7-C , 20-H ) :   0.9130

MP2 TOTAL ENERGY:     -423.551820751 Eh
FINAL SINGLE POINT ENERGY      -423.551820750939

DIPOLE MOMENT
-------------
                                X             Y             Z
Electronic contribution:     -1.88030      -3.72429       6.89635
Nuclear contribution   :      2.26046       4.03339      -7.44674
                        -----------------------------------------
Total Dipole Moment    :      0.38016       0.30910      -0.55039
                        -----------------------------------------
Magnitude (a.u.)       :      0.73688
Magnitude (Debye)      :      1.87300

                             ****ORCA TERMINATED NORMALLY****
TOTAL RUN TIME: 0 days 0 hours 20 minutes 12 seconds 769 msec
