                         Program Version 3.0.3 - RELEASE   -
|  1> ! RI-MP2 RIJK def2-TZVP def2-TZVP/C def2-TZVP/JK TIGHTSCF
|  2> % maxcore 2000
|  3> % mp2 density relaxed end
|  4> *xyz 0 1
|  5>  C        0.0065919394     1.5174304377     0.2908269078
|  6>  O        1.3909406614     1.6070504644    -0.1184344758
|  7>  C        1.4255432620     0.2007996006    -0.4713161288
|  8>  C       -0.0407585931     0.0027299609    -0.0202182027
|  9>  C       -0.7519390630    -0.5757686862    -1.2288139163
| 10>  C       -0.6219916696     0.0272871583    -2.6239076841
| 11>  C        0.5957902817     0.9410282879    -2.7712107357
| 12>  C        1.4325717680    -0.1137757872    -1.9816840598
| 13>  C        0.2623633934    -1.1329555557    -2.1961009262
| 14>  H       -0.1119931474     1.7813925664     1.3481528941
| 15>  H       -0.6498199072     2.1527700614    -0.3160970218
| 16>  H        2.2161825017    -0.3248746229     0.0759833467
| 17>  H       -0.1954062824    -0.6255614908     0.8595388117
| 18>  H       -1.6664548388    -1.1395273816    -1.0773400831
| 19>  H       -1.4753739492     0.0032388831    -3.2927344691
| 20>  H        0.9156920165     0.9772143752    -3.8158527766
| 21>  H        0.5664161626     1.9561065512    -2.3703671687
| 22>  H        2.4131179227    -0.3547264255    -2.3905788243
| 23>  H        0.3171218913    -2.1516475870    -2.5557291972
| 24> *
| 25>
| 26>                          ****END OF INPUT****

CARTESIAN COORDINATES (ANGSTROEM)
---------------------------------
  C      0.006592    1.517430    0.290827
  O      1.390941    1.607050   -0.118434
  C      1.425543    0.200800   -0.471316
  C     -0.040759    0.002730   -0.020218
  C     -0.751939   -0.575769   -1.228814
  C     -0.621992    0.027287   -2.623908
  C      0.595790    0.941028   -2.771211
  C      1.432572   -0.113776   -1.981684
  C      0.262363   -1.132956   -2.196101
  H     -0.111993    1.781393    1.348153
  H     -0.649820    2.152770   -0.316097
  H      2.216183   -0.324875    0.075983
  H     -0.195406   -0.625561    0.859539
  H     -1.666455   -1.139527   -1.077340
  H     -1.475374    0.003239   -3.292734
  H      0.915692    0.977214   -3.815853
  H      0.566416    1.956107   -2.370367
  H      2.413118   -0.354726   -2.390579
  H      0.317122   -2.151648   -2.555729

 Total Charge           Charge          ....    0
 Multiplicity           Mult            ....    1
 Number of Electrons    NEL             ....   66
 Basis Dimension        Dim             ....  339

ORBITAL ENERGIES
----------------

  NO   OCC          E(Eh)            E(eV)
   0   2.0000     -20.539928      -558.9199
   1   2.0000     -11.274623      -306.7981
   2   2.0000     -11.272073      -306.7287
   3   2.0000     -11.235596      -305.7361
   4   2.0000     -11.234874      -305.7165
   5   2.0000     -11.231799      -305.6328
   6   2.0000     -11.230833      -305.6065
   7   2.0000     -11.229860      -305.5800
   8   2.0000     -11.220501      -305.3254
   9   2.0000      -1.370120       -37.2829
  10   2.0000      -1.204298       -32.7706
  11   2.0000      -1.020998       -27.7828
  12   2.0000      -0.993510       -27.0348
  13   2.0000      -0.934735       -25.4354
  14   2.0000      -0.862362       -23.4661
  15   2.0000      -0.794380       -21.6162
  16   2.0000      -0.755887       -20.5687
  17   2.0000      -0.717505       -19.5243
  18   2.0000      -0.697933       -18.9917
  19   2.0000      -0.662766       -18.0348
  20   2.0000      -0.634827       -17.2745
  21   2.0000      -0.603262       -16.4156
  22   2.0000      -0.578433       -15.7400
  23   2.0000      -0.560092       -15.2409
  24   2.0000      -0.544684       -14.8216
  25   2.0000      -0.538915       -14.6646
  26   2.0000      -0.469753       -12.7826
  27   2.0000      -0.464639       -12.6435
  28   2.0000      -0.460793       -12.5388
  29   2.0000      -0.428514       -11.6605
  30   2.0000      -0.409186       -11.1345
  31   2.0000      -0.394601       -10.7376
  32   2.0000      -0.374003       -10.1771
  33   0.0000       0.142771         3.8850
  34   0.0000       0.159384         4.3371
  35   0.0000       0.164109         4.4656
  36   0.0000       0.171064         4.6549
  37   0.0000       0.194909         5.3037

MULLIKEN ATOMIC CHARGES
-----------------------
   0 C :   -0.051815
   1 O :   -0.350023
   2 C :    0.060176
   3 C :   -0.073747
   4 C :   -0.184487
   5 C :   -0.112040
   6 C :   -0.271772
   7 C :    0.040153
   8 C :   -0.238012
   9 H :    0.103371
  10 H :    0.099487
  11 H :    0.091338
  12 H :    0.115051
  13 H :    0.123881
  14 H :    0.124715
  15 H :    0.115905
  16 H :    0.134463
  17 H :    0.135298
  18 H :    0.138059
Sum of atomic charges:    0.0000000

LOEWDIN ATOMIC CHARGES
----------------------
   0 C :   -0.249927
   1 O :    0.126571
   2 C :   -0.219250
   3 C :   -0.189452
   4 C :   -0.166029
   5 C :   -0.162986
   6 C :   -0.191768
   7 C :   -0.161447
   8 C :   -0.129606
   9 H :    0.116843
  10 H :    0.117774
  11 H :    0.132580
  12 H :    0.148721
  13 H :    0.151267
  14 H :    0.134374
  15 H :    0.139188
  16 H :    0.129794
  17 H :    0.140965
  18 H :    0.132387

  Mayer bond orders larger than 0.1
B(  0-C ,  1-O ) :   0.9379 B(  0-C ,  3-C ) :   0.9583 B(  0-C ,  9-H ) :   0.9153
B(  0-C , 10-H ) :   0.9108 B(  1-O ,  2-C ) :   0.9606 B(  2-C ,  3-C ) :   0.9650
B(  2-C ,  7-C ) :   0.8964 B(  2-C , 11-H ) :   0.9221 B(  3-C ,  4-C ) :   0.9362
B(  3-C , 12-H ) :   0.9175 B(  4-C ,  5-C ) :   0.8671 B(  4-C ,  8-C ) :   0.8810
B(  4-C , 13-H ) :   0.9317 B(  5-C ,  6-C ) :   0.9674 B(  5-C ,  8-C ) :   0.8401
B(  5-C , 14-H ) :   0.9311 B(  6-C ,  7-C ) :   0.9189 B(  6-C , 15-H ) :   0.9303
B(  6-C , 16-H ) :   0.9196 B(  7-C ,  8-C ) :   0.8709 B(  7-C , 17-H ) :   0.9078
B(  8-C , 18-H ) :   0.9152

MP2 TOTAL ENERGY:     -385.166539309 Eh
FINAL SINGLE POINT ENERGY      -385.166539308837

DIPOLE MOMENT
-------------
                                X             Y             Z
Electronic contribution:      1.35744       0.18252       1.23906
Nuclear contribution   :     -1.81859      -0.79714      -1.34045
                        -----------------------------------------
Total Dipole Moment    :     -0.46115      -0.61462      -0.10139
                        -----------------------------------------
Magnitude (a.u.)       :      0.77505
Magnitude (Debye)      :      1.97002

                             ****ORCA TERMINATED NORMALLY****
TOTAL RUN TIME: 0 days 0 hours 19 minutes 20 seconds 485 msec
