                         Program Version 3.0.3 - RELEASE   -
|  1> ! RI-MP2 RIJK def2-TZVP def2-TZVP/C def2-TZVP/JK TIGHTSCF
|  2> % maxcore 2000
|  3> % mp2 density relaxed end
|  4> *xyz 0 1
|  5>  C       -0.1451262819     1.3740932003     0.1265819662
|  6>  C        1.2713364592     0.8838465323    -0.0384471039
|  7>  C        0.1442985249    -0.1127878492     0.0751754572
|  8>  C        0.0582386836    -0.7970022168    -1.2734912360
|  9>  C       -0.4081420371    -2.1998050263    -1.3870494505
| 10>  N       -1.2313320457    -1.1013847494    -1.9252403627
| 11>  C        1.1900843973    -0.2489693966    -2.1212134735
| 12>  C        1.1615755868     1.1770608518    -2.5324338921
| 13>  N        1.9274389865     0.7685791035    -1.3465143054
| 14>  H       -0.3966161165     1.7883630367     1.0975738762
| 15>  H       -0.6733986888     1.8429120336    -0.6945387697
| 16>  H        1.9701209116     1.0512161156     0.7729520921
| 17>  H       -0.0127309379    -0.7104043721     0.9668090791
| 18>  H        0.0238677442    -2.8551812575    -2.1393675967
| 19>  H       -0.7311292421    -2.7062947771    -0.4806221961
| 20>  H       -1.9903024567    -0.8934215586    -1.2798655401
| 21>  H        1.7866544843    -0.9619110759    -2.6853511131
| 22>  H        1.7755079719     1.5066905384    -3.3663289271
| 23>  H        0.2370631064     1.7323005974    -2.4181568539
| 24> *
| 25>
| 26>                          ****END OF INPUT****

CARTESIAN COORDINATES (ANGSTROEM)
---------------------------------
  C     -0.145126    1.374093    0.126582
  C      1.271336    0.883847   -0.038447
  C      0.144299   -0.112788    0.075175
  C      0.058239   -0.797002   -1.273491
  C     -0.408142   -2.199805   -1.387049
  N     -1.231332   -1.101385   -1.925240
  C      1.190084   -0.248969   -2.121213
  C      1.161576    1.177061   -2.532434
  N      1.927439    0.768579   -1.346514
  H     -0.396616    1.788363    1.097574
  H     -0.673399    1.842912   -0.694539
  H      1.970121    1.051216    0.772952
  H     -0.012731   -0.710404    0.966809
  H      0.023868   -2.855181   -2.139368
  H     -0.731129   -2.706295   -0.480622
  H     -1.990302   -0.893422   -1.279866
  H      1.786654   -0.961911   -2.685351
  H      1.775508    1.506691   -3.366329
  H      0.237063    1.732301   -2.418157

 Total Charge           Charge          ....    0
 Multiplicity           Mult            ....    1
 Number of Electrons    NEL             ....   66
 Basis Dimension        Dim             ....  339

ORBITAL ENERGIES
----------------

  NO   OCC          E(Eh)            E(eV)
   0   2.0000     -15.559948      -423.4077
   1   2.0000     -15.558763      -423.3755
   2   2.0000     -11.273187      -306.7590
   3   2.0000     -11.263015      -306.4822
   4   2.0000     -11.258261      -306.3528
   5   2.0000     -11.256221      -306.2973
   6   2.0000     -11.252592      -306.1986
   7   2.0000     -11.238695      -305.8204
   8   2.0000     -11.235122      -305.7232
   9   2.0000      -1.296605       -35.2824
  10   2.0000      -1.252867       -34.0922
  11   2.0000      -1.133391       -30.8411
  12   2.0000      -0.956458       -26.0266
  13   2.0000      -0.914585       -24.8871
  14   2.0000      -0.873216       -23.7614
  15   2.0000      -0.825932       -22.4748
  16   2.0000      -0.777321       -21.1520
  17   2.0000      -0.765925       -20.8419
  18   2.0000      -0.706325       -19.2201
  19   2.0000      -0.671929       -18.2841
  20   2.0000      -0.630648       -17.1608
  21   2.0000      -0.625160       -17.0115
  22   2.0000      -0.583079       -15.8664
  23   2.0000      -0.557923       -15.1819
  24   2.0000      -0.538271       -14.6471
  25   2.0000      -0.515464       -14.0265
  26   2.0000      -0.493760       -13.4359
  27   2.0000      -0.477261       -12.9869
  28   2.0000      -0.464444       -12.6382
  29   2.0000      -0.436399       -11.8750
  30   2.0000      -0.395959       -10.7746
  31   2.0000      -0.377936       -10.2842
  32   2.0000      -0.366622        -9.9763
  33   0.0000       0.139165         3.7869
  34   0.0000       0.152785         4.1575
  35   0.0000       0.162820         4.4306
  36   0.0000       0.172594         4.6965
  37   0.0000       0.197851         5.3838

MULLIKEN ATOMIC CHARGES
-----------------------
   0 C :   -0.256949
   1 C :   -0.049659
   2 C :   -0.132207
   3 C :    0.064913
   4 C :   -0.215291
   5 N :   -0.381864
   6 C :    0.007069
   7 C :   -0.183653
   8 N :   -0.217169
   9 H :    0.132345
  10 H :    0.136297
  11 H :    0.128085
  12 H :    0.131505
  13 H :    0.121008
  14 H :    0.127672
  15 H :    0.219029
  16 H :    0.128691
  17 H :    0.126704
  18 H :    0.113474
Sum of atomic charges:    0.0000000

LOEWDIN ATOMIC CHARGES
----------------------
   0 C :   -0.204676
   1 C :   -0.222540
   2 C :   -0.169299
   3 C :   -0.262520
   4 C :   -0.235433
   5 N :    0.006582
   6 C :   -0.190685
   7 C :   -0.229597
   8 N :    0.135521
   9 H :    0.137313
  10 H :    0.133196
  11 H :    0.142128
  12 H :    0.146852
  13 H :    0.127236
  14 H :    0.122740
  15 H :    0.167700
  16 H :    0.142719
  17 H :    0.127487
  18 H :    0.125274

  Mayer bond orders larger than 0.1
B(  0-C ,  1-C ) :   0.8735 B(  0-C ,  2-C ) :   0.8634 B(  0-C ,  9-H ) :   0.9279
B(  0-C , 10-H ) :   0.9177 B(  1-C ,  2-C ) :   0.8784 B(  1-C ,  8-N ) :   0.9702
B(  1-C , 11-H ) :   0.9468 B(  2-C ,  3-C ) :   0.9581 B(  2-C , 12-H ) :   0.9187
B(  3-C ,  4-C ) :   0.9294 B(  3-C ,  5-N ) :   0.8630 B(  3-C ,  6-C ) :   0.9211
B(  4-C ,  5-N ) :   0.9762 B(  4-C , 13-H ) :   0.9102 B(  4-C , 14-H ) :   0.9191
B(  5-N , 15-H ) :   0.8700 B(  6-C ,  7-C ) :   0.9432 B(  6-C ,  8-N ) :   0.9069
B(  6-C , 16-H ) :   0.9106 B(  7-C ,  8-N ) :   0.9008 B(  7-C , 17-H ) :   0.9256
B(  7-C , 18-H ) :   0.9032

MP2 TOTAL ENERGY:     -381.318220840 Eh
FINAL SINGLE POINT ENERGY      -381.318220839617

DIPOLE MOMENT
-------------
                                X             Y             Z
Electronic contribution:      1.62208      -0.26737      -0.65398
Nuclear contribution   :     -2.05559       0.10891       1.30658
                        -----------------------------------------
Total Dipole Moment    :     -0.43351      -0.15846       0.65260
                        -----------------------------------------
Magnitude (a.u.)       :      0.79933
Magnitude (Debye)      :      2.03172

                             ****ORCA TERMINATED NORMALLY****
TOTAL RUN TIME: 0 days 0 hours 25 minutes 27 seconds 800 msec
