                         Program Version 3.0.3 - RELEASE   -
|  1> ! RI-MP2 RIJK def2-TZVP def2-TZVP/C def2-TZVP/JK TIGHTSCF
|  2> % maxcore 2000
|  3> % mp2 density relaxed end
|  4> *xyz 0 1
|  5>  O       -0.0489008850    -0.0813829352     0.0039905476
|  6>  C        0.0170933678     1.1364877824     0.0091106936
|  7>  N       -1.1667447743     1.9068106253     0.0287523854
|  8>  C       -1.2285222662     3.2655673574     0.0362464657
|  9>  C       -0.0888061969     4.0076969631     0.0246351412
| 10>  C        1.1569335438     3.3159163192     0.0045582797
| 11>  C        1.2155666648     1.9551033687    -0.0029115439
| 12>  H       -2.0143080994     1.3561485142     0.0373743266
| 13>  H       -2.2223721706     3.6970716650     0.0516673043
| 14>  H       -0.1379422118     5.0875630382     0.0305929297
| 15>  H        2.0776969950     3.8918178166    -0.0049409802
| 16>  H        2.1558611529     1.4179461350    -0.0181452096
| 17> *
| 18>
| 19>                          ****END OF INPUT****

CARTESIAN COORDINATES (ANGSTROEM)
---------------------------------
  O     -0.048901   -0.081383    0.003991
  C      0.017093    1.136488    0.009111
  N     -1.166745    1.906811    0.028752
  C     -1.228522    3.265567    0.036246
  C     -0.088806    4.007697    0.024635
  C      1.156934    3.315916    0.004558
  C      1.215567    1.955103   -0.002912
  H     -2.014308    1.356149    0.037374
  H     -2.222372    3.697072    0.051667
  H     -0.137942    5.087563    0.030593
  H      2.077697    3.891818   -0.004941
  H      2.155861    1.417946   -0.018145

 Total Charge           Charge          ....    0
 Multiplicity           Mult            ....    1
 Number of Electrons    NEL             ....   50
 Basis Dimension        Dim             ....  247

ORBITAL ENERGIES
----------------

  NO   OCC          E(Eh)            E(eV)
   0   2.0000     -20.509546      -558.0931
   1   2.0000     -15.622650      -425.1139
   2   2.0000     -11.352874      -308.9274
   3   2.0000     -11.311627      -307.8050
   4   2.0000     -11.271800      -306.7213
   5   2.0000     -11.240226      -305.8621
   6   2.0000     -11.238171      -305.8062
   7   2.0000      -1.379529       -37.5389
   8   2.0000      -1.275315       -34.7031
   9   2.0000      -1.107872       -30.1467
  10   2.0000      -1.030466       -28.0404
  11   2.0000      -0.887124       -24.1399
  12   2.0000      -0.860833       -23.4245
  13   2.0000      -0.756453       -20.5841
  14   2.0000      -0.695916       -18.9368
  15   2.0000      -0.678430       -18.4610
  16   2.0000      -0.638953       -17.3868
  17   2.0000      -0.615025       -16.7357
  18   2.0000      -0.606284       -16.4978
  19   2.0000      -0.561892       -15.2899
  20   2.0000      -0.538827       -14.6622
  21   2.0000      -0.489480       -13.3194
  22   2.0000      -0.426885       -11.6161
  23   2.0000      -0.425515       -11.5789
  24   2.0000      -0.314862        -8.5678
  25   0.0000       0.083602         2.2749
  26   0.0000       0.129629         3.5274
  27   0.0000       0.152383         4.1466
  28   0.0000       0.158223         4.3055
  29   0.0000       0.173825         4.7300

MULLIKEN ATOMIC CHARGES
-----------------------
   0 O :   -0.369114
   1 C :    0.210969
   2 N :   -0.204418
   3 C :   -0.025300
   4 C :   -0.151850
   5 C :   -0.122633
   6 C :   -0.166433
   7 H :    0.250098
   8 H :    0.151579
   9 H :    0.143971
  10 H :    0.137556
  11 H :    0.145575
Sum of atomic charges:    0.0000000

LOEWDIN ATOMIC CHARGES
----------------------
   0 O :    0.061204
   1 C :   -0.434113
   2 N :    0.197706
   3 C :   -0.194505
   4 C :   -0.185281
   5 C :   -0.133974
   6 C :   -0.116105
   7 H :    0.203300
   8 H :    0.145068
   9 H :    0.150403
  10 H :    0.150979
  11 H :    0.155318

  Mayer bond orders larger than 0.1
B(  0-O ,  1-C ) :   1.9509 B(  1-C ,  2-N ) :   1.0374 B(  1-C ,  6-C ) :   1.0813
B(  2-N ,  3-C ) :   1.1731 B(  2-N ,  7-H ) :   0.8551 B(  3-C ,  4-C ) :   1.5439
B(  3-C ,  8-H ) :   0.9088 B(  4-C ,  5-C ) :   1.1580 B(  4-C ,  9-H ) :   0.9223
B(  5-C ,  6-C ) :   1.5096 B(  5-C , 10-H ) :   0.9208 B(  6-C , 11-H ) :   0.9283

MP2 TOTAL ENERGY:     -322.886205650 Eh
FINAL SINGLE POINT ENERGY      -322.886205649568

DIPOLE MOMENT
-------------
                                X             Y             Z
Electronic contribution:     -0.61071      -2.82046      -0.00567
Nuclear contribution   :      0.07789       4.33432       0.02024
                        -----------------------------------------
Total Dipole Moment    :     -0.53281       1.51386       0.01457
                        -----------------------------------------
Magnitude (a.u.)       :      1.60495
Magnitude (Debye)      :      4.07946

                             ****ORCA TERMINATED NORMALLY****
TOTAL RUN TIME: 0 days 0 hours 6 minutes 59 seconds 822 msec
