                         Program Version 3.0.3 - RELEASE   -
|  1> ! RI-MP2 RIJK def2-TZVP def2-TZVP/C def2-TZVP/JK TIGHTSCF
|  2> % maxcore 2000
|  3> % mp2 density relaxed end
|  4> *xyz 0 1
|  5>  O       -0.0496545838     1.3205573804     0.0096724643
|  6>  C        1.2527828116     1.7806816409    -0.0002265934
|  7>  C        2.1379122331     0.7646876818    -0.0143884784
|  8>  N        1.3646695192    -0.4000642743    -0.0133977521
|  9>  C        1.2992757381    -1.7732274865    -0.0202399290
| 10>  N        0.0400378305    -2.1474449603    -0.0102173903
| 11>  N       -0.7813007008    -1.0257560535     0.0037560881
| 12>  C        0.0501098222    -0.0259352928     0.0012841001
| 13>  H        1.3782523891     2.8493311317     0.0045025083
| 14>  H        3.2131819323     0.7738351640    -0.0246839701
| 15>  H        2.1563304184    -2.4251306613    -0.0320388175
| 16> *
| 17>
| 18>                          ****END OF INPUT****

CARTESIAN COORDINATES (ANGSTROEM)
---------------------------------
  O     -0.049655    1.320557    0.009672
  C      1.252783    1.780682   -0.000227
  C      2.137912    0.764688   -0.014388
  N      1.364670   -0.400064   -0.013398
  C      1.299276   -1.773227   -0.020240
  N      0.040038   -2.147445   -0.010217
  N     -0.781301   -1.025756    0.003756
  C      0.050110   -0.025935    0.001284
  H      1.378252    2.849331    0.004503
  H      3.213182    0.773835   -0.024684
  H      2.156330   -2.425131   -0.032039

 Total Charge           Charge          ....    0
 Multiplicity           Mult            ....    1
 Number of Electrons    NEL             ....   56
 Basis Dimension        Dim             ....  266

ORBITAL ENERGIES
----------------

  NO   OCC          E(Eh)            E(eV)
   0   2.0000     -20.659036      -562.1610
   1   2.0000     -15.656222      -426.0275
   2   2.0000     -15.594050      -424.3357
   3   2.0000     -15.580378      -423.9636
   4   2.0000     -11.371735      -309.4406
   5   2.0000     -11.337551      -308.5104
   6   2.0000     -11.319926      -308.0308
   7   2.0000     -11.315539      -307.9115
   8   2.0000      -1.517206       -41.2853
   9   2.0000      -1.393387       -37.9160
  10   2.0000      -1.262390       -34.3514
  11   2.0000      -1.098127       -29.8816
  12   2.0000      -1.069138       -29.0927
  13   2.0000      -0.902454       -24.5570
  14   2.0000      -0.870188       -23.6790
  15   2.0000      -0.833660       -22.6850
  16   2.0000      -0.740491       -20.1498
  17   2.0000      -0.714175       -19.4337
  18   2.0000      -0.690771       -18.7968
  19   2.0000      -0.676335       -18.4040
  20   2.0000      -0.635427       -17.2909
  21   2.0000      -0.599649       -16.3173
  22   2.0000      -0.596838       -16.2408
  23   2.0000      -0.498219       -13.5572
  24   2.0000      -0.490591       -13.3497
  25   2.0000      -0.439861       -11.9692
  26   2.0000      -0.369623       -10.0580
  27   2.0000      -0.351669        -9.5694
  28   0.0000       0.116666         3.1746
  29   0.0000       0.138105         3.7580
  30   0.0000       0.154221         4.1966
  31   0.0000       0.163097         4.4381
  32   0.0000       0.169242         4.6053

MULLIKEN ATOMIC CHARGES
-----------------------
   0 O :   -0.213468
   1 C :   -0.000206
   2 C :   -0.139330
   3 N :   -0.062971
   4 C :   -0.016730
   5 N :   -0.168879
   6 N :   -0.169729
   7 C :    0.252747
   8 H :    0.175901
   9 H :    0.179815
  10 H :    0.162849
Sum of atomic charges:   -0.0000000

LOEWDIN ATOMIC CHARGES
----------------------
   0 O :    0.338280
   1 C :   -0.208364
   2 C :   -0.187587
   3 N :    0.278008
   4 C :   -0.307319
   5 N :    0.034361
   6 N :    0.029128
   7 C :   -0.405182
   8 H :    0.143611
   9 H :    0.148976
  10 H :    0.136088

  Mayer bond orders larger than 0.1
B(  0-O ,  1-C ) :   1.0003 B(  0-O ,  7-C ) :   1.0540 B(  1-C ,  2-C ) :   1.6715
B(  1-C ,  8-H ) :   0.9248 B(  2-C ,  3-N ) :   1.0033 B(  2-C ,  9-H ) :   0.9058
B(  3-N ,  4-C ) :   1.0961 B(  3-N ,  7-C ) :   1.0910 B(  4-C ,  5-N ) :   1.5893
B(  4-C , 10-H ) :   0.9204 B(  5-N ,  6-N ) :   1.0225 B(  6-N ,  7-C ) :   1.6782

MP2 TOTAL ENERGY:     -392.923778665 Eh
FINAL SINGLE POINT ENERGY      -392.923778665184

DIPOLE MOMENT
-------------
                                X             Y             Z
Electronic contribution:     -2.28774      -0.23774       0.02055
Nuclear contribution   :      4.46353       1.61304      -0.03385
                        -----------------------------------------
Total Dipole Moment    :      2.17579       1.37530      -0.01329
                        -----------------------------------------
Magnitude (a.u.)       :      2.57404
Magnitude (Debye)      :      6.54270

                             ****ORCA TERMINATED NORMALLY****
TOTAL RUN TIME: 0 days 0 hours 9 minutes 28 seconds 480 msec
