                         Program Version 3.0.3 - RELEASE   -
|  1> ! RI-MP2 RIJK def2-TZVP def2-TZVP/C def2-TZVP/JK TIGHTSCF
|  2> % maxcore 2000
|  3> % mp2 density relaxed end
|  4> *xyz 0 1
|  5>  C       -0.1070913041     1.5535388017     0.0086444356
|  6>  C        0.0893847910     0.0420118295     0.0236177025
|  7>  C        0.9007626400    -0.5136159202    -1.1900758024
|  8>  N        1.6929031050    -1.5599163273    -0.5414413340
|  9>  C        1.6869241233    -1.2719045518     0.7992922742
| 10>  N        0.8347398758    -0.4111685168     1.2202535205
| 11>  C        2.6793074437    -1.9827284723     1.6801620117
| 12>  N        2.4872636543    -1.7455381393     2.9966440987
| 13>  O        3.5555372649    -2.6830760962     1.2025299382
| 14>  H        0.8595705266     2.0675637242    -0.0014717355
| 15>  H       -0.6721514124     1.8651376742    -0.8763904868
| 16>  H       -0.6547226660     1.8770722379     0.8978041061
| 17>  H       -0.8976977738    -0.4421558715     0.0521508598
| 18>  H        0.2630635203    -0.9175910838    -1.9803525011
| 19>  H        1.5418713787     0.2662763971    -1.6286288798
| 20>  H        2.5462946116    -1.9242350885    -0.9383146047
| 21>  H        1.7643881644    -1.0992085700     3.2716059354
| 22>  H        3.1364170765    -2.1183021571     3.6680797015
| 23> *
| 24>
| 25>                          ****END OF INPUT****

CARTESIAN COORDINATES (ANGSTROEM)
---------------------------------
  C     -0.107091    1.553539    0.008644
  C      0.089385    0.042012    0.023618
  C      0.900763   -0.513616   -1.190076
  N      1.692903   -1.559916   -0.541441
  C      1.686924   -1.271905    0.799292
  N      0.834740   -0.411169    1.220254
  C      2.679307   -1.982728    1.680162
  N      2.487264   -1.745538    2.996644
  O      3.555537   -2.683076    1.202530
  H      0.859571    2.067564   -0.001472
  H     -0.672151    1.865138   -0.876390
  H     -0.654723    1.877072    0.897804
  H     -0.897698   -0.442156    0.052151
  H      0.263064   -0.917591   -1.980353
  H      1.541871    0.266276   -1.628629
  H      2.546295   -1.924235   -0.938315
  H      1.764388   -1.099209    3.271606
  H      3.136417   -2.118302    3.668080

 Total Charge           Charge          ....    0
 Multiplicity           Mult            ....    1
 Number of Electrons    NEL             ....   68
 Basis Dimension        Dim             ....  333

ORBITAL ENERGIES
----------------

  NO   OCC          E(Eh)            E(eV)
   0   2.0000     -20.533232      -558.7376
   1   2.0000     -15.586795      -424.1382
   2   2.0000     -15.575871      -423.8410
   3   2.0000     -15.548169      -423.0872
   4   2.0000     -11.365668      -309.2756
   5   2.0000     -11.317932      -307.9766
   6   2.0000     -11.268980      -306.6445
   7   2.0000     -11.266746      -306.5837
   8   2.0000     -11.220006      -305.3119
   9   2.0000      -1.396608       -38.0036
  10   2.0000      -1.310644       -35.6644
  11   2.0000      -1.223057       -33.2811
  12   2.0000      -1.157201       -31.4890
  13   2.0000      -1.051091       -28.6016
  14   2.0000      -0.944102       -25.6903
  15   2.0000      -0.879535       -23.9334
  16   2.0000      -0.805748       -21.9255
  17   2.0000      -0.770479       -20.9658
  18   2.0000      -0.753923       -20.5153
  19   2.0000      -0.698473       -19.0064
  20   2.0000      -0.670079       -18.2338
  21   2.0000      -0.644806       -17.5461
  22   2.0000      -0.605604       -16.4793
  23   2.0000      -0.595391       -16.2014
  24   2.0000      -0.576118       -15.6770
  25   2.0000      -0.574145       -15.6233
  26   2.0000      -0.536362       -14.5952
  27   2.0000      -0.523145       -14.2355
  28   2.0000      -0.508969       -13.8498
  29   2.0000      -0.480615       -13.0782
  30   2.0000      -0.453014       -12.3271
  31   2.0000      -0.426147       -11.5961
  32   2.0000      -0.422435       -11.4950
  33   2.0000      -0.350681        -9.5425
  34   0.0000       0.107652         2.9294
  35   0.0000       0.134439         3.6583
  36   0.0000       0.148696         4.0462
  37   0.0000       0.162590         4.4243
  38   0.0000       0.174740         4.7549

MULLIKEN ATOMIC CHARGES
-----------------------
   0 C :   -0.387909
   1 C :    0.071428
   2 C :   -0.156722
   3 N :   -0.321990
   4 C :    0.199921
   5 N :   -0.340707
   6 C :    0.224082
   7 N :   -0.448650
   8 O :   -0.362505
   9 H :    0.123200
  10 H :    0.126104
  11 H :    0.138396
  12 H :    0.097475
  13 H :    0.128739
  14 H :    0.111600
  15 H :    0.256043
  16 H :    0.281826
  17 H :    0.259669
Sum of atomic charges:    0.0000000

LOEWDIN ATOMIC CHARGES
----------------------
   0 C :   -0.297016
   1 C :   -0.290818
   2 C :   -0.242439
   3 N :    0.098497
   4 C :   -0.323829
   5 N :    0.088338
   6 C :   -0.450717
   7 N :    0.013898
   8 O :    0.080651
   9 H :    0.123246
  10 H :    0.124515
  11 H :    0.127531
  12 H :    0.146977
  13 H :    0.128651
  14 H :    0.126404
  15 H :    0.188461
  16 H :    0.182699
  17 H :    0.174952

  Mayer bond orders larger than 0.1
B(  0-C ,  1-C ) :   0.9240 B(  0-C ,  9-H ) :   0.9311 B(  0-C , 10-H ) :   0.9366
B(  0-C , 11-H ) :   0.9376 B(  1-C ,  2-C ) :   0.9212 B(  1-C ,  5-N ) :   0.9064
B(  1-C , 12-H ) :   0.9162 B(  2-C ,  3-N ) :   0.9147 B(  2-C , 13-H ) :   0.9202
B(  2-C , 14-H ) :   0.9313 B(  3-N ,  4-C ) :   1.1613 B(  3-N , 15-H ) :   0.8532
B(  4-C ,  5-N ) :   1.7103 B(  4-C ,  6-C ) :   0.8699 B(  6-C ,  7-N ) :   1.2443
B(  6-C ,  8-O ) :   1.9615 B(  7-N , 16-H ) :   0.8444 B(  7-N , 17-H ) :   0.8597

MP2 TOTAL ENERGY:     -434.606154095 Eh
FINAL SINGLE POINT ENERGY      -434.606154094760

DIPOLE MOMENT
-------------
                                X             Y             Z
Electronic contribution:      5.28340      -6.98186       3.47097
Nuclear contribution   :     -5.72647       7.63991      -3.58741
                        -----------------------------------------
Total Dipole Moment    :     -0.44307       0.65804      -0.11644
                        -----------------------------------------
Magnitude (a.u.)       :      0.80180
Magnitude (Debye)      :      2.03802

                             ****ORCA TERMINATED NORMALLY****
TOTAL RUN TIME: 0 days 0 hours 16 minutes 13 seconds 615 msec
