                         Program Version 3.0.3 - RELEASE   -
|  1> ! RI-MP2 RIJK def2-TZVP def2-TZVP/C def2-TZVP/JK TIGHTSCF
|  2> % maxcore 2000
|  3> % mp2 density relaxed end
|  4> *xyz 0 1
|  5>  O       -0.5182567987     1.3363199574    -0.7081846755
|  6>  C       -0.3259820965     0.0099041594    -0.3605020023
|  7>  C        0.0737135895    -0.3929245621     1.1138717990
|  8>  C       -1.1262340975     0.1682214377     1.8840243245
|  9>  C       -2.1781872377    -0.1857062310     1.1320483769
| 10>  C       -1.5493176074    -0.9439683362    -0.0413506350
| 11>  C       -0.5091417177    -1.8185750922     0.7330280262
| 12>  C        0.3931131998    -2.7377854716    -0.0461173378
| 13>  O        0.3210451114    -2.9604436653    -1.2294824073
| 14>  H       -1.1172088277     1.7157856044    -0.0503456069
| 15>  H        0.3378515292    -0.4193389999    -1.1113094366
| 16>  H        1.0770987412    -0.2583647877     1.5166273319
| 17>  H       -1.0895723245     0.7202015159     2.8125469411
| 18>  H       -3.2315995361     0.0007716979     1.2857915440
| 19>  H       -2.1830798618    -1.3584014648    -0.8223058265
| 20>  H       -0.8942954752    -2.3645468555     1.6007487423
| 21>  H        1.1662227097    -3.2411326362     0.5811523918
| 22> *
| 23>
| 24>                          ****END OF INPUT****

CARTESIAN COORDINATES (ANGSTROEM)
---------------------------------
  O     -0.518257    1.336320   -0.708185
  C     -0.325982    0.009904   -0.360502
  C      0.073714   -0.392925    1.113872
  C     -1.126234    0.168221    1.884024
  C     -2.178187   -0.185706    1.132048
  C     -1.549318   -0.943968   -0.041351
  C     -0.509142   -1.818575    0.733028
  C      0.393113   -2.737785   -0.046117
  O      0.321045   -2.960444   -1.229482
  H     -1.117209    1.715786   -0.050346
  H      0.337852   -0.419339   -1.111309
  H      1.077099   -0.258365    1.516627
  H     -1.089572    0.720202    2.812547
  H     -3.231600    0.000772    1.285792
  H     -2.183080   -1.358401   -0.822306
  H     -0.894295   -2.364547    1.600749
  H      1.166223   -3.241133    0.581152

 Total Charge           Charge          ....    0
 Multiplicity           Mult            ....    1
 Number of Electrons    NEL             ....   66
 Basis Dimension        Dim             ....  327

ORBITAL ENERGIES
----------------

  NO   OCC          E(Eh)            E(eV)
   0   2.0000     -20.562559      -559.5357
   1   2.0000     -20.560600      -559.4824
   2   2.0000     -11.337401      -308.5064
   3   2.0000     -11.294575      -307.3410
   4   2.0000     -11.261087      -306.4298
   5   2.0000     -11.259274      -306.3804
   6   2.0000     -11.251911      -306.1801
   7   2.0000     -11.247189      -306.0516
   8   2.0000     -11.245522      -306.0062
   9   2.0000      -1.400931       -38.1213
  10   2.0000      -1.377410       -37.4812
  11   2.0000      -1.205839       -32.8125
  12   2.0000      -1.022194       -27.8153
  13   2.0000      -0.940522       -25.5929
  14   2.0000      -0.937005       -25.4972
  15   2.0000      -0.828401       -22.5419
  16   2.0000      -0.760201       -20.6861
  17   2.0000      -0.739124       -20.1126
  18   2.0000      -0.718099       -19.5405
  19   2.0000      -0.700781       -19.0692
  20   2.0000      -0.656441       -17.8627
  21   2.0000      -0.640817       -17.4375
  22   2.0000      -0.608126       -16.5480
  23   2.0000      -0.578303       -15.7364
  24   2.0000      -0.569368       -15.4933
  25   2.0000      -0.540703       -14.7133
  26   2.0000      -0.527789       -14.3619
  27   2.0000      -0.513295       -13.9675
  28   2.0000      -0.478557       -13.0222
  29   2.0000      -0.461301       -12.5526
  30   2.0000      -0.430924       -11.7260
  31   2.0000      -0.416515       -11.3339
  32   2.0000      -0.354783        -9.6541
  33   0.0000       0.109408         2.9771
  34   0.0000       0.131460         3.5772
  35   0.0000       0.149807         4.0765
  36   0.0000       0.152987         4.1630
  37   0.0000       0.171945         4.6789

MULLIKEN ATOMIC CHARGES
-----------------------
   0 O :   -0.446742
   1 C :    0.012955
   2 C :   -0.023111
   3 C :   -0.272218
   4 C :   -0.268351
   5 C :    0.020618
   6 C :   -0.083601
   7 C :    0.063313
   8 O :   -0.262480
   9 H :    0.325216
  10 H :    0.136027
  11 H :    0.146954
  12 H :    0.139773
  13 H :    0.139299
  14 H :    0.152584
  15 H :    0.134413
  16 H :    0.085354
Sum of atomic charges:    0.0000000

LOEWDIN ATOMIC CHARGES
----------------------
   0 O :    0.012620
   1 C :   -0.283684
   2 C :   -0.146820
   3 C :   -0.141214
   4 C :   -0.136046
   5 C :   -0.148142
   6 C :   -0.175965
   7 C :   -0.278450
   8 O :    0.138934
   9 H :    0.180415
  10 H :    0.151280
  11 H :    0.136608
  12 H :    0.135839
  13 H :    0.136380
  14 H :    0.141396
  15 H :    0.161907
  16 H :    0.114941

  Mayer bond orders larger than 0.1
B(  0-O ,  1-C ) :   1.0430 B(  0-O ,  9-H ) :   0.8191 B(  1-C ,  2-C ) :   0.8786
B(  1-C ,  5-C ) :   0.8646 B(  1-C , 10-H ) :   0.9380 B(  2-C ,  3-C ) :   0.8570
B(  2-C ,  6-C ) :   0.8536 B(  2-C , 11-H ) :   0.9060 B(  3-C ,  4-C ) :   1.7273
B(  3-C , 12-H ) :   0.9373 B(  4-C ,  5-C ) :   0.8560 B(  4-C , 13-H ) :   0.9404
B(  5-C ,  6-C ) :   0.8637 B(  5-C , 14-H ) :   0.9017 B(  6-C ,  7-C ) :   0.8700
B(  6-C , 15-H ) :   0.8853 B(  7-C ,  8-O ) :   1.9989 B(  7-C , 16-H ) :   0.9517

MP2 TOTAL ENERGY:     -421.091118621 Eh
FINAL SINGLE POINT ENERGY      -421.091118621247

DIPOLE MOMENT
-------------
                                X             Y             Z
Electronic contribution:      0.88714      -1.21821      -2.38874
Nuclear contribution   :     -1.20890       1.29037       3.73217
                        -----------------------------------------
Total Dipole Moment    :     -0.32176       0.07217       1.34343
                        -----------------------------------------
Magnitude (a.u.)       :      1.38331
Magnitude (Debye)      :      3.51609

                             ****ORCA TERMINATED NORMALLY****
TOTAL RUN TIME: 0 days 0 hours 19 minutes 22 seconds 827 msec
