                         Program Version 3.0.3 - RELEASE   -
|  1> ! RI-MP2 RIJK def2-TZVP def2-TZVP/C def2-TZVP/JK TIGHTSCF
|  2> % maxcore 2000
|  3> % mp2 density relaxed end
|  4> *xyz 0 1
|  5>  C        0.0598921478     1.5518070317    -0.0929125468
|  6>  C        0.0438296266     0.0257810316    -0.0573447901
|  7>  O        0.8069498569    -0.4836647885     1.0336851600
|  8>  C       -1.3897313170    -0.5446333876    -0.0613898363
|  9>  O       -2.1001990763    -0.0781791470    -1.2106170999
| 10>  C       -1.4404915773    -2.0647167145     0.0301011035
| 11>  C       -1.1798949646    -2.7842636494     1.3835544759
| 12>  C       -2.3317284001    -3.7671059112     1.0422327844
| 13>  C       -2.8396675876    -2.7427369697    -0.0084791861
| 14>  H        1.0867755827     1.9224139092    -0.1518018352
| 15>  H       -0.5103362819     1.9233385033    -0.9470234708
| 16>  H       -0.4003484862     1.9605602090     0.8164736110
| 17>  H        0.5542530512    -0.3614888024    -0.9511016755
| 18>  H        0.4753372703    -0.0720895196     1.8393704557
| 19>  H       -1.9390920528    -0.1183634127     0.7916958449
| 20>  H       -1.7450796615    -0.5407670452    -1.9781938126
| 21>  H       -0.7912717130    -2.4919623789    -0.7472327201
| 22>  H       -0.1815314814    -3.1876296147     1.5563752000
| 23>  H       -1.4418312590    -2.1394461685     2.2290851255
| 24>  H       -1.9583073287    -4.6811516667     0.5710075994
| 25>  H       -3.0150229686    -4.0497764988     1.8465930806
| 26>  H       -3.6061607989    -2.0797453631     0.4048723440
| 27>  H       -3.1986733606    -3.1240877661    -0.9672555915
| 28> *
| 29>
| 30>                          ****END OF INPUT****

CARTESIAN COORDINATES (ANGSTROEM)
---------------------------------
  C      0.059892    1.551807   -0.092913
  C      0.043830    0.025781   -0.057345
  O      0.806950   -0.483665    1.033685
  C     -1.389731   -0.544633   -0.061390
  O     -2.100199   -0.078179   -1.210617
  C     -1.440492   -2.064717    0.030101
  C     -1.179895   -2.784264    1.383554
  C     -2.331728   -3.767106    1.042233
  C     -2.839668   -2.742737   -0.008479
  H      1.086776    1.922414   -0.151802
  H     -0.510336    1.923339   -0.947023
  H     -0.400348    1.960560    0.816474
  H      0.554253   -0.361489   -0.951102
  H      0.475337   -0.072090    1.839370
  H     -1.939092   -0.118363    0.791696
  H     -1.745080   -0.540767   -1.978194
  H     -0.791272   -2.491962   -0.747233
  H     -0.181531   -3.187630    1.556375
  H     -1.441831   -2.139446    2.229085
  H     -1.958307   -4.681152    0.571008
  H     -3.015023   -4.049776    1.846593
  H     -3.606161   -2.079745    0.404872
  H     -3.198673   -3.124088   -0.967256

 Total Charge           Charge          ....    0
 Multiplicity           Mult            ....    1
 Number of Electrons    NEL             ....   72
 Basis Dimension        Dim             ....  363

ORBITAL ENERGIES
----------------

  NO   OCC          E(Eh)            E(eV)
   0   2.0000     -20.557208      -559.3901
   1   2.0000     -20.556609      -559.3738
   2   2.0000     -11.280284      -306.9521
   3   2.0000     -11.276896      -306.8599
   4   2.0000     -11.225099      -305.4505
   5   2.0000     -11.217675      -305.2484
   6   2.0000     -11.216932      -305.2282
   7   2.0000     -11.216383      -305.2133
   8   2.0000     -11.214723      -305.1681
   9   2.0000      -1.369453       -37.2647
  10   2.0000      -1.355616       -36.8882
  11   2.0000      -1.127537       -30.6818
  12   2.0000      -1.031185       -28.0600
  13   2.0000      -0.956954       -26.0400
  14   2.0000      -0.893567       -24.3152
  15   2.0000      -0.861586       -23.4449
  16   2.0000      -0.817348       -22.2412
  17   2.0000      -0.754525       -20.5317
  18   2.0000      -0.684698       -18.6316
  19   2.0000      -0.670222       -18.2377
  20   2.0000      -0.657494       -17.8913
  21   2.0000      -0.636818       -17.3287
  22   2.0000      -0.618407       -16.8277
  23   2.0000      -0.579419       -15.7668
  24   2.0000      -0.577841       -15.7239
  25   2.0000      -0.544636       -14.8203
  26   2.0000      -0.535769       -14.5790
  27   2.0000      -0.529789       -14.4163
  28   2.0000      -0.518711       -14.1148
  29   2.0000      -0.496395       -13.5076
  30   2.0000      -0.476134       -12.9563
  31   2.0000      -0.471681       -12.8351
  32   2.0000      -0.454778       -12.3751
  33   2.0000      -0.447676       -12.1819
  34   2.0000      -0.433021       -11.7831
  35   2.0000      -0.400198       -10.8899
  36   0.0000       0.126894         3.4530
  37   0.0000       0.133525         3.6334
  38   0.0000       0.150688         4.1004
  39   0.0000       0.163883         4.4595
  40   0.0000       0.180456         4.9105

MULLIKEN ATOMIC CHARGES
-----------------------
   0 C :   -0.383307
   1 C :    0.098518
   2 O :   -0.463738
   3 C :   -0.028293
   4 O :   -0.469047
   5 C :   -0.021993
   6 C :   -0.266632
   7 C :   -0.189050
   8 C :   -0.212496
   9 H :    0.145379
  10 H :    0.143912
  11 H :    0.109102
  12 H :    0.075307
  13 H :    0.311470
  14 H :    0.082392
  15 H :    0.313085
  16 H :    0.090794
  17 H :    0.128160
  18 H :    0.091356
  19 H :    0.109405
  20 H :    0.111919
  21 H :    0.113265
  22 H :    0.110490
Sum of atomic charges:    0.0000000

LOEWDIN ATOMIC CHARGES
----------------------
   0 C :   -0.304562
   1 C :   -0.362428
   2 O :   -0.009474
   3 C :   -0.325268
   4 O :   -0.012385
   5 C :   -0.226326
   6 C :   -0.226683
   7 C :   -0.245571
   8 C :   -0.221401
   9 H :    0.124909
  10 H :    0.130961
  11 H :    0.120795
  12 H :    0.142338
  13 H :    0.174275
  14 H :    0.145107
  15 H :    0.176023
  16 H :    0.151058
  17 H :    0.125464
  18 H :    0.130897
  19 H :    0.132084
  20 H :    0.120849
  21 H :    0.137970
  22 H :    0.121365

  Mayer bond orders larger than 0.1
B(  0-C ,  1-C ) :   0.9561 B(  0-C ,  9-H ) :   0.9428 B(  0-C , 10-H ) :   0.9305
B(  0-C , 11-H ) :   0.9169 B(  1-C ,  2-O ) :   0.9208 B(  1-C ,  3-C ) :   0.9530
B(  1-C , 12-H ) :   0.8992 B(  2-O , 13-H ) :   0.8428 B(  3-C ,  4-O ) :   0.8869
B(  3-C ,  5-C ) :   0.9312 B(  3-C , 14-H ) :   0.9004 B(  4-O , 15-H ) :   0.8418
B(  5-C ,  6-C ) :   0.9332 B(  5-C ,  8-C ) :   0.9301 B(  5-C , 16-H ) :   0.8971
B(  6-C ,  7-C ) :   0.9302 B(  6-C , 17-H ) :   0.9306 B(  6-C , 18-H ) :   0.9267
B(  7-C ,  8-C ) :   0.9299 B(  7-C , 19-H ) :   0.9274 B(  7-C , 20-H ) :   0.9262
B(  8-C , 21-H ) :   0.9218 B(  8-C , 22-H ) :   0.9317

MP2 TOTAL ENERGY:     -424.714923062 Eh
FINAL SINGLE POINT ENERGY      -424.714923062268

DIPOLE MOMENT
-------------
                                X             Y             Z
Electronic contribution:      0.85157       0.78231      -1.15729
Nuclear contribution   :     -0.84327      -0.80839       1.17490
                        -----------------------------------------
Total Dipole Moment    :      0.00829      -0.02608       0.01761
                        -----------------------------------------
Magnitude (a.u.)       :      0.03254
Magnitude (Debye)      :      0.08272

                             ****ORCA TERMINATED NORMALLY****
TOTAL RUN TIME: 0 days 0 hours 19 minutes 47 seconds 294 msec
