                         Program Version 3.0.3 - RELEASE   -
|  1> ! RI-MP2 RIJK def2-TZVP def2-TZVP/C def2-TZVP/JK TIGHTSCF
|  2> % maxcore 2000
|  3> % mp2 density relaxed end
|  4> *xyz 0 1
|  5>  C        0.0172494265    -1.1863973557    -0.0328792108
|  6>  C        0.0192685813     0.0140484544     0.0226989053
|  7>  C       -0.0106977409     1.4510801859     0.0703490806
|  8>  C        0.5219731603     2.1992195643     1.2265478926
|  9>  O        1.2466606766     2.1420974463     0.0055683506
| 10>  H        0.0228731533    -2.2475799493    -0.0787438088
| 11>  H       -0.8009894725     1.9193639951    -0.5151192469
| 12>  H        0.0866399781     3.1662435153     1.4751608867
| 13>  H        0.9541532273     1.6446770737     2.0570240008
| 14> *
| 15>
| 16>                          ****END OF INPUT****

CARTESIAN COORDINATES (ANGSTROEM)
---------------------------------
  C      0.017249   -1.186397   -0.032879
  C      0.019269    0.014048    0.022699
  C     -0.010698    1.451080    0.070349
  C      0.521973    2.199220    1.226548
  O      1.246661    2.142097    0.005568
  H      0.022873   -2.247580   -0.078744
  H     -0.800989    1.919364   -0.515119
  H      0.086640    3.166244    1.475161
  H      0.954153    1.644677    2.057024

 Total Charge           Charge          ....    0
 Multiplicity           Mult            ....    1
 Number of Electrons    NEL             ....   36
 Basis Dimension        Dim             ....  179

ORBITAL ENERGIES
----------------

  NO   OCC          E(Eh)            E(eV)
   0   2.0000     -20.585166      -560.1508
   1   2.0000     -11.319776      -308.0268
   2   2.0000     -11.300022      -307.4892
   3   2.0000     -11.245450      -306.0043
   4   2.0000     -11.239150      -305.8328
   5   2.0000      -1.428045       -38.8591
   6   2.0000      -1.056235       -28.7416
   7   2.0000      -0.950685       -25.8695
   8   2.0000      -0.892975       -24.2991
   9   2.0000      -0.752985       -20.4898
  10   2.0000      -0.711451       -19.3596
  11   2.0000      -0.682960       -18.5843
  12   2.0000      -0.584753       -15.9119
  13   2.0000      -0.571926       -15.5629
  14   2.0000      -0.496141       -13.5007
  15   2.0000      -0.471006       -12.8167
  16   2.0000      -0.407482       -11.0882
  17   2.0000      -0.387251       -10.5376
  18   0.0000       0.148096         4.0299
  19   0.0000       0.150941         4.1073
  20   0.0000       0.163670         4.4537
  21   0.0000       0.175986         4.7888
  22   0.0000       0.184219         5.0129

MULLIKEN ATOMIC CHARGES
-----------------------
   0 C :   -0.099737
   1 C :   -0.006917
   2 C :   -0.143449
   3 C :   -0.034045
   4 O :   -0.308131
   5 H :    0.197150
   6 H :    0.143480
   7 H :    0.121626
   8 H :    0.130023
Sum of atomic charges:   -0.0000000

LOEWDIN ATOMIC CHARGES
----------------------
   0 C :   -0.072810
   1 C :   -0.091827
   2 C :   -0.277394
   3 C :   -0.247796
   4 O :    0.161285
   5 H :    0.129403
   6 H :    0.152771
   7 H :    0.120794
   8 H :    0.125575

  Mayer bond orders larger than 0.1
B(  0-C ,  1-C ) :   2.5964 B(  0-C ,  2-C ) :  -0.1162 B(  0-C ,  5-H ) :   0.8967
B(  1-C ,  2-C ) :   1.1163 B(  2-C ,  3-C ) :   0.9695 B(  2-C ,  4-O ) :   0.9421
B(  2-C ,  6-H ) :   0.9336 B(  3-C ,  4-O ) :   0.9046 B(  3-C ,  7-H ) :   0.9175
B(  3-C ,  8-H ) :   0.9175

MP2 TOTAL ENERGY:     -229.477959632 Eh
FINAL SINGLE POINT ENERGY      -229.477959632221

DIPOLE MOMENT
-------------
                                X             Y             Z
Electronic contribution:      0.65796      -0.54679      -1.29930
Nuclear contribution   :     -1.21775       0.44332       1.73258
                        -----------------------------------------
Total Dipole Moment    :     -0.55979      -0.10347       0.43328
                        -----------------------------------------
Magnitude (a.u.)       :      0.71540
Magnitude (Debye)      :      1.81841

                             ****ORCA TERMINATED NORMALLY****
TOTAL RUN TIME: 0 days 0 hours 2 minutes 21 seconds 770 msec
