                         Program Version 3.0.3 - RELEASE   -
|  1> ! RI-MP2 RIJK def2-TZVP def2-TZVP/C def2-TZVP/JK TIGHTSCF
|  2> % maxcore 2000
|  3> % mp2 density relaxed end
|  4> *xyz 0 1
|  5>  C        0.1187830953     1.5433604316    -0.1350734335
|  6>  C        0.0634989088     0.0188309152    -0.0046061745
|  7>  C        0.6350399570    -0.5281483326     1.3247713765
|  8>  C       -0.1920772606    -0.1080981424     2.5465981241
|  9>  C        0.7846381533    -2.0194401074     1.2456284509
| 10>  C        0.2052669907    -3.0074198400     1.9724387944
| 11>  O        0.6611966659    -4.2144195219     1.5091860600
| 12>  C        1.5061552052    -3.8828219427     0.5103044683
| 13>  N        1.6263063553    -2.6150386129     0.3009258342
| 14>  H        1.1450399051     1.9118059688    -0.0244858412
| 15>  H       -0.2415111017     1.8602247403    -1.1187433825
| 16>  H       -0.4981320230     2.0473249523     0.6156125366
| 17>  H       -0.9725824647    -0.3294295718    -0.1112978502
| 18>  H        0.6282912804    -0.4367892452    -0.8242741694
| 19>  H        1.6481345507    -0.1142977363     1.4330164695
| 20>  H       -1.2227386695    -0.4732269767     2.4673639700
| 21>  H        0.2379310661    -0.5052903241     3.4714085781
| 22>  H       -0.2322323069     0.9796149893     2.6406079387
| 23>  H       -0.4914994497    -3.0452156067     2.7906854471
| 24>  H        1.9921799323    -4.6968060267    -0.0048004869
| 25> *
| 26>
| 27>                          ****END OF INPUT****

CARTESIAN COORDINATES (ANGSTROEM)
---------------------------------
  C      0.118783    1.543360   -0.135073
  C      0.063499    0.018831   -0.004606
  C      0.635040   -0.528148    1.324771
  C     -0.192077   -0.108098    2.546598
  C      0.784638   -2.019440    1.245628
  C      0.205267   -3.007420    1.972439
  O      0.661197   -4.214420    1.509186
  C      1.506155   -3.882822    0.510304
  N      1.626306   -2.615039    0.300926
  H      1.145040    1.911806   -0.024486
  H     -0.241511    1.860225   -1.118743
  H     -0.498132    2.047325    0.615613
  H     -0.972582   -0.329430   -0.111298
  H      0.628291   -0.436789   -0.824274
  H      1.648135   -0.114298    1.433016
  H     -1.222739   -0.473227    2.467364
  H      0.237931   -0.505290    3.471409
  H     -0.232232    0.979615    2.640608
  H     -0.491499   -3.045216    2.790685
  H      1.992180   -4.696806   -0.004800

 Total Charge           Charge          ....    0
 Multiplicity           Mult            ....    1
 Number of Electrons    NEL             ....   68
 Basis Dimension        Dim             ....  345

ORBITAL ENERGIES
----------------

  NO   OCC          E(Eh)            E(eV)
   0   2.0000     -20.634188      -561.4848
   1   2.0000     -15.561803      -423.4582
   2   2.0000     -11.332385      -308.3699
   3   2.0000     -11.283748      -307.0464
   4   2.0000     -11.261314      -306.4359
   5   2.0000     -11.237609      -305.7909
   6   2.0000     -11.218713      -305.2767
   7   2.0000     -11.218327      -305.2662
   8   2.0000     -11.212175      -305.0988
   9   2.0000      -1.482899       -40.3517
  10   2.0000      -1.232552       -33.5394
  11   2.0000      -1.095967       -29.8228
  12   2.0000      -1.023600       -27.8536
  13   2.0000      -0.976869       -26.5820
  14   2.0000      -0.894648       -24.3446
  15   2.0000      -0.831843       -22.6356
  16   2.0000      -0.814688       -22.1688
  17   2.0000      -0.776683       -21.1346
  18   2.0000      -0.719360       -19.5748
  19   2.0000      -0.658084       -17.9074
  20   2.0000      -0.631899       -17.1948
  21   2.0000      -0.619006       -16.8440
  22   2.0000      -0.614916       -16.7327
  23   2.0000      -0.583788       -15.8857
  24   2.0000      -0.579361       -15.7652
  25   2.0000      -0.538037       -14.6407
  26   2.0000      -0.532964       -14.5027
  27   2.0000      -0.510577       -13.8935
  28   2.0000      -0.482227       -13.1221
  29   2.0000      -0.476914       -12.9775
  30   2.0000      -0.471111       -12.8196
  31   2.0000      -0.450658       -12.2630
  32   2.0000      -0.436057       -11.8657
  33   2.0000      -0.335869        -9.1395
  34   0.0000       0.136691         3.7196
  35   0.0000       0.139848         3.8054
  36   0.0000       0.161244         4.3877
  37   0.0000       0.176177         4.7940
  38   0.0000       0.179218         4.8768

MULLIKEN ATOMIC CHARGES
-----------------------
   0 C :   -0.412047
   1 C :   -0.196435
   2 C :   -0.013391
   3 C :   -0.440750
   4 C :    0.054443
   5 C :   -0.061928
   6 O :   -0.199680
   7 C :    0.101850
   8 N :   -0.288066
   9 H :    0.126236
  10 H :    0.137121
  11 H :    0.124444
  12 H :    0.103235
  13 H :    0.136825
  14 H :    0.094861
  15 H :    0.126639
  16 H :    0.142270
  17 H :    0.143679
  18 H :    0.162977
  19 H :    0.157717
Sum of atomic charges:   -0.0000000

LOEWDIN ATOMIC CHARGES
----------------------
   0 C :   -0.319556
   1 C :   -0.262726
   2 C :   -0.248928
   3 C :   -0.284448
   4 C :   -0.235117
   5 C :   -0.224345
   6 O :    0.330084
   7 C :   -0.332096
   8 N :    0.123343
   9 H :    0.121980
  10 H :    0.122650
  11 H :    0.117604
  12 H :    0.137054
  13 H :    0.144660
  14 H :    0.164238
  15 H :    0.125024
  16 H :    0.126016
  17 H :    0.124830
  18 H :    0.137413
  19 H :    0.132320

  Mayer bond orders larger than 0.1
B(  0-C ,  1-C ) :   0.9063 B(  0-C ,  9-H ) :   0.9386 B(  0-C , 10-H ) :   0.9419
B(  0-C , 11-H ) :   0.9412 B(  1-C ,  2-C ) :   0.9147 B(  1-C , 12-H ) :   0.9234
B(  1-C , 13-H ) :   0.9335 B(  2-C ,  3-C ) :   0.9078 B(  2-C ,  4-C ) :   0.9224
B(  2-C , 14-H ) :   0.9138 B(  3-C , 15-H ) :   0.9280 B(  3-C , 16-H ) :   0.9409
B(  3-C , 17-H ) :   0.9400 B(  4-C ,  5-C ) :   1.5969 B(  4-C ,  8-N ) :   1.1490
B(  5-C ,  6-O ) :   1.0288 B(  5-C , 18-H ) :   0.9177 B(  6-O ,  7-C ) :   1.0867
B(  7-C ,  8-N ) :   1.6470 B(  7-C , 19-H ) :   0.9264

MP2 TOTAL ENERGY:     -402.494102096 Eh
FINAL SINGLE POINT ENERGY      -402.494102095907

DIPOLE MOMENT
-------------
                                X             Y             Z
Electronic contribution:      3.79207     -14.05548       0.39436
Nuclear contribution   :     -4.13023      14.04523      -0.03040
                        -----------------------------------------
Total Dipole Moment    :     -0.33816      -0.01025       0.36396
                        -----------------------------------------
Magnitude (a.u.)       :      0.49692
Magnitude (Debye)      :      1.26306

                             ****ORCA TERMINATED NORMALLY****
TOTAL RUN TIME: 0 days 0 hours 18 minutes 9 seconds 466 msec
