                         Program Version 3.0.3 - RELEASE   -
|  1> ! RI-MP2 RIJK def2-TZVP def2-TZVP/C def2-TZVP/JK TIGHTSCF
|  2> % maxcore 2000
|  3> % mp2 density relaxed end
|  4> *xyz 0 1
|  5>  C       -0.0067936224     1.4478881720     0.0130918315
|  6>  N       -0.0085985545    -0.0110123423    -0.0334954427
|  7>  C       -0.0750229795    -0.6801818037    -1.2201237961
|  8>  C       -0.0771821391    -2.0388078833    -1.2672226378
|  9>  C       -0.0081687373    -2.7575302450    -0.0440585507
| 10>  C        0.0592359899    -2.1187358612     1.1602115551
| 11>  C        0.1336029930    -2.8269417275     2.4808784358
| 12>  C        0.0617758037    -0.6638280970     1.2162389333
| 13>  O        0.1191147743     0.0030891232     2.2436439894
| 14>  H        0.9028664555     1.8057901746     0.5009896201
| 15>  H       -0.0648171308     1.8384942832    -1.0034557945
| 16>  H       -0.8556502315     1.8046910874     0.6010969990
| 17>  H       -0.1250516729    -0.0607259578    -2.1074735566
| 18>  H       -0.1305288006    -2.5480491087    -2.2198027776
| 19>  H       -0.0092534744    -3.8440526653    -0.0699237972
| 20>  H        0.1264811614    -3.9119808073     2.3498072265
| 21>  H        1.0398558136    -2.5402804442     3.0254241098
| 22>  H       -0.7060664783    -2.5406454470     3.1235180128
| 23> *
| 24>
| 25>                          ****END OF INPUT****

CARTESIAN COORDINATES (ANGSTROEM)
---------------------------------
  C     -0.006794    1.447888    0.013092
  N     -0.008599   -0.011012   -0.033495
  C     -0.075023   -0.680182   -1.220124
  C     -0.077182   -2.038808   -1.267223
  C     -0.008169   -2.757530   -0.044059
  C      0.059236   -2.118736    1.160212
  C      0.133603   -2.826942    2.480878
  C      0.061776   -0.663828    1.216239
  O      0.119115    0.003089    2.243644
  H      0.902866    1.805790    0.500990
  H     -0.064817    1.838494   -1.003456
  H     -0.855650    1.804691    0.601097
  H     -0.125052   -0.060726   -2.107474
  H     -0.130529   -2.548049   -2.219803
  H     -0.009253   -3.844053   -0.069924
  H      0.126481   -3.911981    2.349807
  H      1.039856   -2.540280    3.025424
  H     -0.706066   -2.540645    3.123518

 Total Charge           Charge          ....    0
 Multiplicity           Mult            ....    1
 Number of Electrons    NEL             ....   66
 Basis Dimension        Dim             ....  333

ORBITAL ENERGIES
----------------

  NO   OCC          E(Eh)            E(eV)
   0   2.0000     -20.505117      -557.9726
   1   2.0000     -15.621176      -425.0738
   2   2.0000     -11.342675      -308.6499
   3   2.0000     -11.297596      -307.4232
   4   2.0000     -11.268887      -306.6420
   5   2.0000     -11.256627      -306.3084
   6   2.0000     -11.239909      -305.8535
   7   2.0000     -11.232118      -305.6415
   8   2.0000     -11.216947      -305.2287
   9   2.0000      -1.376500       -37.4565
  10   2.0000      -1.276908       -34.7464
  11   2.0000      -1.119443       -30.4616
  12   2.0000      -1.041894       -28.3514
  13   2.0000      -0.965737       -26.2791
  14   2.0000      -0.946625       -25.7590
  15   2.0000      -0.841796       -22.9064
  16   2.0000      -0.831929       -22.6379
  17   2.0000      -0.707770       -19.2594
  18   2.0000      -0.700791       -19.0695
  19   2.0000      -0.649202       -17.6657
  20   2.0000      -0.646895       -17.6029
  21   2.0000      -0.611450       -16.6384
  22   2.0000      -0.598416       -16.2837
  23   2.0000      -0.580460       -15.7951
  24   2.0000      -0.572012       -15.5652
  25   2.0000      -0.551306       -15.0018
  26   2.0000      -0.527340       -14.3497
  27   2.0000      -0.525495       -14.2994
  28   2.0000      -0.516860       -14.0645
  29   2.0000      -0.480507       -13.0753
  30   2.0000      -0.421048       -11.4573
  31   2.0000      -0.397829       -10.8255
  32   2.0000      -0.299929        -8.1615
  33   0.0000       0.093944         2.5563
  34   0.0000       0.140840         3.8325
  35   0.0000       0.153279         4.1709
  36   0.0000       0.155954         4.2437
  37   0.0000       0.158540         4.3141

MULLIKEN ATOMIC CHARGES
-----------------------
   0 C :   -0.295405
   1 N :    0.001018
   2 C :   -0.087618
   3 C :   -0.152747
   4 C :   -0.172975
   5 C :    0.018648
   6 C :   -0.380172
   7 C :    0.188426
   8 O :   -0.397376
   9 H :    0.159271
  10 H :    0.134178
  11 H :    0.159329
  12 H :    0.139610
  13 H :    0.138571
  14 H :    0.125879
  15 H :    0.127471
  16 H :    0.146940
  17 H :    0.146952
Sum of atomic charges:    0.0000000

LOEWDIN ATOMIC CHARGES
----------------------
   0 C :   -0.262295
   1 N :    0.244490
   2 C :   -0.185025
   3 C :   -0.182509
   4 C :   -0.119145
   5 C :   -0.147107
   6 C :   -0.259622
   7 C :   -0.381734
   8 O :    0.063147
   9 H :    0.129904
  10 H :    0.121136
  11 H :    0.129928
  12 H :    0.145409
  13 H :    0.150248
  14 H :    0.150591
  15 H :    0.126367
  16 H :    0.138106
  17 H :    0.138109

  Mayer bond orders larger than 0.1
B(  0-C ,  1-N ) :   0.8546 B(  0-C ,  9-H ) :   0.9281 B(  0-C , 10-H ) :   0.9259
B(  0-C , 11-H ) :   0.9280 B(  1-N ,  2-C ) :   1.1820 B(  1-N ,  7-C ) :   1.0708
B(  2-C ,  3-C ) :   1.5269 B(  2-C , 12-H ) :   0.9056 B(  3-C ,  4-C ) :   1.1809
B(  3-C , 13-H ) :   0.9216 B(  4-C ,  5-C ) :   1.5157 B(  4-C , 14-H ) :   0.9203
B(  5-C ,  6-C ) :   0.9234 B(  5-C ,  7-C ) :   1.0608 B(  6-C , 15-H ) :   0.9458
B(  6-C , 16-H ) :   0.9203 B(  6-C , 17-H ) :   0.9203 B(  7-C ,  8-O ) :   1.9016

MP2 TOTAL ENERGY:     -401.324192282 Eh
FINAL SINGLE POINT ENERGY      -401.324192282245

DIPOLE MOMENT
-------------
                                X             Y             Z
Electronic contribution:     -0.03541       0.60621      -0.63561
Nuclear contribution   :     -0.03864      -0.72309      -0.68296
                        -----------------------------------------
Total Dipole Moment    :     -0.07406      -0.11689      -1.31856
                        -----------------------------------------
Magnitude (a.u.)       :      1.32580
Magnitude (Debye)      :      3.36993

                             ****ORCA TERMINATED NORMALLY****
TOTAL RUN TIME: 0 days 0 hours 18 minutes 11 seconds 252 msec
