                         Program Version 3.0.3 - RELEASE   -
|  1> ! RI-MP2 RIJK def2-TZVP def2-TZVP/C def2-TZVP/JK TIGHTSCF
|  2> % maxcore 2000
|  3> % mp2 density relaxed end
|  4> *xyz 0 1
|  5>  C       -0.1274010799     1.3496929569     0.0955084585
|  6>  O        0.3030377859     0.0219131487    -0.0925365323
|  7>  C        0.6957722666    -0.6292836513     1.0883093146
|  8>  C       -0.4301665848    -1.0141785239     2.0721468492
|  9>  C        0.2341944965    -2.0903428890     2.9538357907
| 10>  C        1.1422297461    -2.8835880546     1.9940936554
| 11>  C        0.4082407138    -3.7929404886     0.9882569095
| 12>  O        0.5437010177    -2.8203863914    -0.0684552233
| 13>  C        1.3629751122    -1.9668294220     0.7606954162
| 14>  H        0.6434713081     1.9615150498     0.5916854343
| 15>  H       -0.3240302534     1.7678805851    -0.8947328202
| 16>  H       -1.0500592813     1.4109142649     0.6911264622
| 17>  H        1.4429103080    -0.0152367799     1.6274663713
| 18>  H       -0.8115794990    -0.1703597863     2.6520029615
| 19>  H       -1.2609069195    -1.4334921219     1.4947634724
| 20>  H        0.8455671035    -1.6141860833     3.7291194380
| 21>  H       -0.4910927672    -2.7296051208     3.4670339156
| 22>  H        2.0150934588    -3.3218089664     2.4785643715
| 23>  H        0.9262053172    -4.7300158849     0.7455349381
| 24>  H       -0.6428952205    -4.0161874640     1.2140936209
| 25>  H        2.3705549812    -1.8564071672     0.3465683961
| 26> *
| 27>
| 28>                          ****END OF INPUT****

CARTESIAN COORDINATES (ANGSTROEM)
---------------------------------
  C     -0.127401    1.349693    0.095508
  O      0.303038    0.021913   -0.092537
  C      0.695772   -0.629284    1.088309
  C     -0.430167   -1.014179    2.072147
  C      0.234194   -2.090343    2.953836
  C      1.142230   -2.883588    1.994094
  C      0.408241   -3.792940    0.988257
  O      0.543701   -2.820386   -0.068455
  C      1.362975   -1.966829    0.760695
  H      0.643471    1.961515    0.591685
  H     -0.324030    1.767881   -0.894733
  H     -1.050059    1.410914    0.691126
  H      1.442910   -0.015237    1.627466
  H     -0.811579   -0.170360    2.652003
  H     -1.260907   -1.433492    1.494763
  H      0.845567   -1.614186    3.729119
  H     -0.491093   -2.729605    3.467034
  H      2.015093   -3.321809    2.478564
  H      0.926205   -4.730016    0.745535
  H     -0.642895   -4.016187    1.214094
  H      2.370555   -1.856407    0.346568

 Total Charge           Charge          ....    0
 Multiplicity           Mult            ....    1
 Number of Electrons    NEL             ....   70
 Basis Dimension        Dim             ....  351

ORBITAL ENERGIES
----------------

  NO   OCC          E(Eh)            E(eV)
   0   2.0000     -20.551282      -559.2288
   1   2.0000     -20.540312      -558.9303
   2   2.0000     -11.276798      -306.8573
   3   2.0000     -11.274898      -306.8056
   4   2.0000     -11.273636      -306.7712
   5   2.0000     -11.268378      -306.6282
   6   2.0000     -11.232622      -305.6552
   7   2.0000     -11.229210      -305.5623
   8   2.0000     -11.220629      -305.3288
   9   2.0000      -1.383127       -37.6368
  10   2.0000      -1.364385       -37.1268
  11   2.0000      -1.107411       -30.1342
  12   2.0000      -0.999909       -27.2089
  13   2.0000      -0.956445       -26.0262
  14   2.0000      -0.913586       -24.8599
  15   2.0000      -0.880127       -23.9495
  16   2.0000      -0.786644       -21.4057
  17   2.0000      -0.734448       -19.9853
  18   2.0000      -0.705763       -19.2048
  19   2.0000      -0.673982       -18.3400
  20   2.0000      -0.652843       -17.7648
  21   2.0000      -0.632894       -17.2219
  22   2.0000      -0.608419       -16.5559
  23   2.0000      -0.584520       -15.9056
  24   2.0000      -0.582037       -15.8380
  25   2.0000      -0.575136       -15.6503
  26   2.0000      -0.535418       -14.5695
  27   2.0000      -0.520839       -14.1728
  28   2.0000      -0.490427       -13.3452
  29   2.0000      -0.480184       -13.0665
  30   2.0000      -0.471059       -12.8182
  31   2.0000      -0.445833       -12.1317
  32   2.0000      -0.440023       -11.9736
  33   2.0000      -0.415299       -11.3009
  34   2.0000      -0.400484       -10.8977
  35   0.0000       0.132393         3.6026
  36   0.0000       0.153494         4.1768
  37   0.0000       0.159218         4.3325
  38   0.0000       0.175438         4.7739
  39   0.0000       0.182318         4.9611

MULLIKEN ATOMIC CHARGES
-----------------------
   0 C :   -0.225255
   1 O :   -0.282691
   2 C :    0.029259
   3 C :   -0.258508
   4 C :   -0.260103
   5 C :   -0.116887
   6 C :   -0.036448
   7 O :   -0.329960
   8 C :    0.142245
   9 H :    0.106944
  10 H :    0.143525
  11 H :    0.115155
  12 H :    0.059755
  13 H :    0.130265
  14 H :    0.130217
  15 H :    0.115362
  16 H :    0.126750
  17 H :    0.119082
  18 H :    0.097463
  19 H :    0.092260
  20 H :    0.101571
Sum of atomic charges:    0.0000000

LOEWDIN ATOMIC CHARGES
----------------------
   0 C :   -0.355962
   1 O :    0.171097
   2 C :   -0.316481
   3 C :   -0.237481
   4 C :   -0.237334
   5 C :   -0.204814
   6 C :   -0.253132
   7 O :    0.144569
   8 C :   -0.228650
   9 H :    0.100688
  10 H :    0.114478
  11 H :    0.101552
  12 H :    0.140344
  13 H :    0.132265
  14 H :    0.146173
  15 H :    0.138903
  16 H :    0.136270
  17 H :    0.140143
  18 H :    0.116690
  19 H :    0.117454
  20 H :    0.133229

  Mayer bond orders larger than 0.1
B(  0-C ,  1-O ) :   0.9178 B(  0-C ,  9-H ) :   0.9325 B(  0-C , 10-H ) :   0.9413
B(  0-C , 11-H ) :   0.9369 B(  1-O ,  2-C ) :   1.0142 B(  2-C ,  3-C ) :   0.8997
B(  2-C ,  8-C ) :   0.9022 B(  2-C , 12-H ) :   0.9235 B(  3-C ,  4-C ) :   0.9373
B(  3-C , 13-H ) :   0.9256 B(  3-C , 14-H ) :   0.9283 B(  4-C ,  5-C ) :   0.9466
B(  4-C , 15-H ) :   0.9249 B(  4-C , 16-H ) :   0.9258 B(  5-C ,  6-C ) :   0.9648
B(  5-C ,  8-C ) :   0.9257 B(  5-C , 17-H ) :   0.9264 B(  6-C ,  7-O ) :   0.9431
B(  6-C , 18-H ) :   0.9177 B(  6-C , 19-H ) :   0.9049 B(  7-O ,  8-C ) :   0.9599
B(  8-C , 20-H ) :   0.9260

MP2 TOTAL ENERGY:     -423.502167357 Eh
FINAL SINGLE POINT ENERGY      -423.502167357103

DIPOLE MOMENT
-------------
                                X             Y             Z
Electronic contribution:      1.69496      -2.82164      -4.00700
Nuclear contribution   :     -1.54465       3.04010       5.10749
                        -----------------------------------------
Total Dipole Moment    :      0.15031       0.21845       1.10048
                        -----------------------------------------
Magnitude (a.u.)       :      1.13198
Magnitude (Debye)      :      2.87726

                             ****ORCA TERMINATED NORMALLY****
TOTAL RUN TIME: 0 days 0 hours 18 minutes 23 seconds 150 msec
