                         Program Version 3.0.3 - RELEASE   -
|  1> ! RI-MP2 RIJK def2-TZVP def2-TZVP/C def2-TZVP/JK TIGHTSCF
|  2> % maxcore 2000
|  3> % mp2 density relaxed end
|  4> *xyz 0 1
|  5>  C       -0.1575626610     1.1597543845     0.0503438579
|  6>  C        1.2980737921     0.9204348058     0.0540573661
|  7>  C        1.8021816913     0.1749555932     1.2922411002
|  8>  O        1.8237021126     0.7198325261     2.5898993104
|  9>  C        1.7453460081    -0.4003994848     3.4828053462
| 10>  C        0.4631438626    -1.2583725969     3.2990307526
| 11>  N       -0.0791721547    -1.3500514363     1.9302979292
| 12>  C        0.6114464486    -0.7141832132     1.0980079047
| 13>  N        0.3004554499    -0.2286261785    -0.2378097403
| 14>  H       -0.6880290305     1.3401354739     0.9804837216
| 15>  H       -0.5730819273     1.6555983199    -0.8210195565
| 16>  H        1.9482525078     1.2919468276    -0.7287836479
| 17>  H        2.7578776802    -0.3177600477     1.0516896572
| 18>  H        2.6405491552    -1.0275328399     3.3459350088
| 19>  H        1.7745555232     0.0108874540     4.4944369815
| 20>  H        0.6570567606    -2.2670165883     3.6814378748
| 21>  H       -0.3512439388    -0.8504568695     3.9098343934
| 22> *
| 23>
| 24>                          ****END OF INPUT****

CARTESIAN COORDINATES (ANGSTROEM)
---------------------------------
  C     -0.157563    1.159754    0.050344
  C      1.298074    0.920435    0.054057
  C      1.802182    0.174956    1.292241
  O      1.823702    0.719833    2.589899
  C      1.745346   -0.400399    3.482805
  C      0.463144   -1.258373    3.299031
  N     -0.079172   -1.350051    1.930298
  C      0.611446   -0.714183    1.098008
  N      0.300455   -0.228626   -0.237810
  H     -0.688029    1.340135    0.980484
  H     -0.573082    1.655598   -0.821020
  H      1.948253    1.291947   -0.728784
  H      2.757878   -0.317760    1.051690
  H      2.640549   -1.027533    3.345935
  H      1.774556    0.010887    4.494437
  H      0.657057   -2.267017    3.681438
  H     -0.351244   -0.850457    3.909834

 Total Charge           Charge          ....    0
 Multiplicity           Mult            ....    1
 Number of Electrons    NEL             ....   66
 Basis Dimension        Dim             ....  327

ORBITAL ENERGIES
----------------

  NO   OCC          E(Eh)            E(eV)
   0   2.0000     -20.576388      -559.9120
   1   2.0000     -15.586871      -424.1403
   2   2.0000     -15.557249      -423.3343
   3   2.0000     -11.306898      -307.6763
   4   2.0000     -11.306033      -307.6528
   5   2.0000     -11.291111      -307.2468
   6   2.0000     -11.285991      -307.1074
   7   2.0000     -11.281444      -306.9837
   8   2.0000     -11.264070      -306.5109
   9   2.0000      -1.403742       -38.1978
  10   2.0000      -1.320983       -35.9458
  11   2.0000      -1.223181       -33.2844
  12   2.0000      -1.031302       -28.0632
  13   2.0000      -0.971252       -26.4291
  14   2.0000      -0.942112       -25.6362
  15   2.0000      -0.853016       -23.2117
  16   2.0000      -0.820488       -22.3266
  17   2.0000      -0.745085       -20.2748
  18   2.0000      -0.696954       -18.9651
  19   2.0000      -0.673932       -18.3386
  20   2.0000      -0.668283       -18.1849
  21   2.0000      -0.630453       -17.1555
  22   2.0000      -0.610204       -16.6045
  23   2.0000      -0.593043       -16.1375
  24   2.0000      -0.571006       -15.5379
  25   2.0000      -0.527782       -14.3617
  26   2.0000      -0.520724       -14.1696
  27   2.0000      -0.508175       -13.8281
  28   2.0000      -0.477586       -12.9958
  29   2.0000      -0.466389       -12.6911
  30   2.0000      -0.433107       -11.7854
  31   2.0000      -0.396504       -10.7894
  32   2.0000      -0.371937       -10.1209
  33   0.0000       0.131794         3.5863
  34   0.0000       0.143112         3.8943
  35   0.0000       0.157721         4.2918
  36   0.0000       0.173731         4.7275
  37   0.0000       0.186079         5.0635

MULLIKEN ATOMIC CHARGES
-----------------------
   0 C :   -0.133376
   1 C :   -0.075869
   2 C :    0.038107
   3 O :   -0.300737
   4 C :   -0.081995
   5 C :   -0.106829
   6 N :   -0.189819
   7 C :    0.025548
   8 N :   -0.192758
   9 H :    0.141259
  10 H :    0.139347
  11 H :    0.143989
  12 H :    0.098478
  13 H :    0.102099
  14 H :    0.138890
  15 H :    0.125523
  16 H :    0.128144
Sum of atomic charges:    0.0000000

LOEWDIN ATOMIC CHARGES
----------------------
   0 C :   -0.216492
   1 C :   -0.168306
   2 C :   -0.283459
   3 O :    0.170547
   4 C :   -0.298971
   5 C :   -0.279497
   6 N :    0.130411
   7 C :   -0.304358
   8 N :    0.157876
   9 H :    0.135709
  10 H :    0.137517
  11 H :    0.137163
  12 H :    0.151515
  13 H :    0.121667
  14 H :    0.133717
  15 H :    0.138081
  16 H :    0.136879

  Mayer bond orders larger than 0.1
B(  0-C ,  1-C ) :   0.9481 B(  0-C ,  8-N ) :   0.8653 B(  0-C ,  9-H ) :   0.9034
B(  0-C , 10-H ) :   0.9240 B(  1-C ,  2-C ) :   0.9563 B(  1-C ,  8-N ) :   0.8353
B(  1-C , 11-H ) :   0.9067 B(  2-C ,  3-O ) :   1.0097 B(  2-C ,  7-C ) :   0.9731
B(  2-C , 12-H ) :   0.9298 B(  3-O ,  4-C ) :   0.8989 B(  4-C ,  5-C ) :   0.9268
B(  4-C , 13-H ) :   0.9341 B(  4-C , 14-H ) :   0.9245 B(  5-C ,  6-N ) :   0.8809
B(  5-C , 15-H ) :   0.9171 B(  5-C , 16-H ) :   0.9264 B(  6-N ,  7-C ) :   1.9272
B(  7-C ,  8-N ) :   1.0050

MP2 TOTAL ENERGY:     -417.235245846 Eh
FINAL SINGLE POINT ENERGY      -417.235245846320

DIPOLE MOMENT
-------------
                                X             Y             Z
Electronic contribution:     -0.41318      -0.15596      -2.84282
Nuclear contribution   :      1.03286       0.58660       3.29335
                        -----------------------------------------
Total Dipole Moment    :      0.61967       0.43063       0.45053
                        -----------------------------------------
Magnitude (a.u.)       :      0.87887
Magnitude (Debye)      :      2.23392

                             ****ORCA TERMINATED NORMALLY****
TOTAL RUN TIME: 0 days 0 hours 18 minutes 22 seconds 167 msec
