                         Program Version 3.0.3 - RELEASE   -
|  1> ! RI-MP2 RIJK def2-TZVP def2-TZVP/C def2-TZVP/JK TIGHTSCF
|  2> % maxcore 2000
|  3> % mp2 density relaxed end
|  4> *xyz 0 1
|  5>  N        0.1062426787     0.9862561089    -0.7853649879
|  6>  C       -0.0611690719    -0.0426999859    -0.0682359961
|  7>  N        1.0394895303    -0.6014007890     0.6605538297
|  8>  N        1.4736701072    -1.7586572814     0.5378739664
|  9>  N        0.8125593516    -2.6985251889    -0.2378391007
| 10>  C       -0.5411351992    -2.8959537108    -0.4026050073
| 11>  C       -1.5639749658    -2.0496367369    -0.1614327209
| 12>  C       -1.4507953991    -0.6282725598     0.1340247329
| 13>  O       -2.3806014264     0.0764906912     0.4618301971
| 14>  H        1.0893887015     1.2756001483    -0.7664224892
| 15>  H        1.3853291020    -3.5277522572    -0.2879949351
| 16>  H       -0.7551305520    -3.9105003329    -0.7257200861
| 17>  H       -2.5729779467    -2.4295840359    -0.2711579226
| 18> *
| 19>
| 20>                          ****END OF INPUT****

CARTESIAN COORDINATES (ANGSTROEM)
---------------------------------
  N      0.106243    0.986256   -0.785365
  C     -0.061169   -0.042700   -0.068236
  N      1.039490   -0.601401    0.660554
  N      1.473670   -1.758657    0.537874
  N      0.812559   -2.698525   -0.237839
  C     -0.541135   -2.895954   -0.402605
  C     -1.563975   -2.049637   -0.161433
  C     -1.450795   -0.628273    0.134025
  O     -2.380601    0.076491    0.461830
  H      1.089389    1.275600   -0.766422
  H      1.385329   -3.527752   -0.287995
  H     -0.755131   -3.910500   -0.725720
  H     -2.572978   -2.429584   -0.271158

 Total Charge           Charge          ....    0
 Multiplicity           Mult            ....    1
 Number of Electrons    NEL             ....   64
 Basis Dimension        Dim             ....  303

ORBITAL ENERGIES
----------------

  NO   OCC          E(Eh)            E(eV)
   0   2.0000     -20.557029      -559.3852
   1   2.0000     -15.719592      -427.7519
   2   2.0000     -15.668860      -426.3714
   3   2.0000     -15.655085      -425.9965
   4   2.0000     -15.580430      -423.9651
   5   2.0000     -11.353123      -308.9342
   6   2.0000     -11.342275      -308.6390
   7   2.0000     -11.339734      -308.5698
   8   2.0000     -11.258207      -306.3514
   9   2.0000      -1.451209       -39.4894
  10   2.0000      -1.399330       -38.0777
  11   2.0000      -1.287740       -35.0412
  12   2.0000      -1.232394       -33.5352
  13   2.0000      -1.105552       -30.0836
  14   2.0000      -0.981631       -26.7115
  15   2.0000      -0.953845       -25.9555
  16   2.0000      -0.827670       -22.5221
  17   2.0000      -0.806702       -21.9515
  18   2.0000      -0.779102       -21.2004
  19   2.0000      -0.696404       -18.9501
  20   2.0000      -0.674513       -18.3544
  21   2.0000      -0.657934       -17.9033
  22   2.0000      -0.637443       -17.3457
  23   2.0000      -0.625000       -17.0071
  24   2.0000      -0.585293       -15.9266
  25   2.0000      -0.552628       -15.0378
  26   2.0000      -0.526456       -14.3256
  27   2.0000      -0.480698       -13.0805
  28   2.0000      -0.477944       -13.0055
  29   2.0000      -0.438712       -11.9380
  30   2.0000      -0.414533       -11.2800
  31   2.0000      -0.364394        -9.9157
  32   0.0000       0.065064         1.7705
  33   0.0000       0.071124         1.9354
  34   0.0000       0.105187         2.8623
  35   0.0000       0.153852         4.1865
  36   0.0000       0.170741         4.6461

MULLIKEN ATOMIC CHARGES
-----------------------
   0 N :   -0.295025
   1 C :    0.082224
   2 N :   -0.135430
   3 N :   -0.034959
   4 N :   -0.162531
   5 C :   -0.001756
   6 C :   -0.232937
   7 C :    0.240335
   8 O :   -0.268963
   9 H :    0.228576
  10 H :    0.264940
  11 H :    0.156339
  12 H :    0.159188
Sum of atomic charges:    0.0000000

LOEWDIN ATOMIC CHARGES
----------------------
   0 N :    0.025709
   1 C :   -0.329763
   2 N :    0.063293
   3 N :    0.002959
   4 N :    0.058483
   5 C :   -0.208292
   6 C :   -0.153816
   7 C :   -0.324923
   8 O :    0.174788
   9 H :    0.174034
  10 H :    0.196136
  11 H :    0.156058
  12 H :    0.165333

  Mayer bond orders larger than 0.1
B(  0-N ,  1-C ) :   2.0379 B(  0-N ,  9-H ) :   0.8478 B(  1-C ,  2-N ) :   0.9545
B(  1-C ,  7-C ) :   0.8177 B(  2-N ,  3-N ) :   1.5684 B(  3-N ,  4-N ) :   0.9232
B(  4-N ,  5-C ) :   1.0985 B(  4-N , 10-H ) :   0.8713 B(  5-C ,  6-C ) :   1.5822
B(  5-C , 11-H ) :   0.8997 B(  6-C ,  7-C ) :   1.0835 B(  6-C , 12-H ) :   0.9054
B(  7-C ,  8-O ) :   1.9512

MP2 TOTAL ENERGY:     -448.128825619 Eh
FINAL SINGLE POINT ENERGY      -448.128825618502

DIPOLE MOMENT
-------------
                                X             Y             Z
Electronic contribution:      0.56723       1.92523       1.43890
Nuclear contribution   :      0.23105      -4.05354      -1.97137
                        -----------------------------------------
Total Dipole Moment    :      0.79828      -2.12831      -0.53247
                        -----------------------------------------
Magnitude (a.u.)       :      2.33462
Magnitude (Debye)      :      5.93414

                             ****ORCA TERMINATED NORMALLY****
TOTAL RUN TIME: 0 days 0 hours 15 minutes 26 seconds 964 msec
