                         Program Version 3.0.3 - RELEASE   -
|  1> ! RI-MP2 RIJK def2-TZVP def2-TZVP/C def2-TZVP/JK TIGHTSCF
|  2> % maxcore 2000
|  3> % mp2 density relaxed end
|  4> *xyz 0 1
|  5>  O        0.0839386244     0.0542686715     0.4769997492
|  6>  C       -0.0138034125     1.2035116104     0.1748409773
|  7>  C       -1.1892361635     2.2468176073     0.1116445012
|  8>  C       -2.1258520053     2.2541269842     1.2078113778
|  9>  C       -2.8801152613     2.2627490970     2.1441614546
| 10>  C       -0.0293474040     3.2895570670     0.0679575434
| 11>  C        0.6845773639     3.6978588733     1.3828370196
| 12>  C        1.7888122290     2.6535490031     1.0340798266
| 13>  N        0.9670530098     2.1773929803    -0.1334069894
| 14>  H       -1.7082255497     2.1986676823    -0.8522151056
| 15>  H       -3.5574305363     2.2611976726     2.9621640208
| 16>  H       -0.0904766630     4.0434954113    -0.7180091132
| 17>  H        1.0104636027     4.7376806677     1.4345939762
| 18>  H        0.1082103673     3.4590653549     2.2796790169
| 19>  H        2.7334263268     3.0862142749     0.6981414980
| 20>  H        1.9897879518     1.8665162922     1.7641373568
| 21> *
| 22>
| 23>                          ****END OF INPUT****

CARTESIAN COORDINATES (ANGSTROEM)
---------------------------------
  O      0.083939    0.054269    0.477000
  C     -0.013803    1.203512    0.174841
  C     -1.189236    2.246818    0.111645
  C     -2.125852    2.254127    1.207811
  C     -2.880115    2.262749    2.144161
  C     -0.029347    3.289557    0.067958
  C      0.684577    3.697859    1.382837
  C      1.788812    2.653549    1.034080
  N      0.967053    2.177393   -0.133407
  H     -1.708226    2.198668   -0.852215
  H     -3.557431    2.261198    2.962164
  H     -0.090477    4.043495   -0.718009
  H      1.010464    4.737681    1.434594
  H      0.108210    3.459065    2.279679
  H      2.733426    3.086214    0.698141
  H      1.989788    1.866516    1.764137

 Total Charge           Charge          ....    0
 Multiplicity           Mult            ....    1
 Number of Electrons    NEL             ....   64
 Basis Dimension        Dim             ....  321

ORBITAL ENERGIES
----------------

  NO   OCC          E(Eh)            E(eV)
   0   2.0000     -20.553984      -559.3023
   1   2.0000     -15.578987      -423.9258
   2   2.0000     -11.364555      -309.2453
   3   2.0000     -11.290521      -307.2307
   4   2.0000     -11.285501      -307.0941
   5   2.0000     -11.281602      -306.9880
   6   2.0000     -11.249732      -306.1208
   7   2.0000     -11.249268      -306.1081
   8   2.0000     -11.238816      -305.8237
   9   2.0000      -1.412183       -38.4274
  10   2.0000      -1.297941       -35.3188
  11   2.0000      -1.089808       -29.6552
  12   2.0000      -1.032380       -28.0925
  13   2.0000      -0.996034       -27.1035
  14   2.0000      -0.900739       -24.5103
  15   2.0000      -0.828704       -22.5502
  16   2.0000      -0.757061       -20.6007
  17   2.0000      -0.707607       -19.2550
  18   2.0000      -0.704996       -19.1839
  19   2.0000      -0.685322       -18.6486
  20   2.0000      -0.676125       -18.3983
  21   2.0000      -0.627671       -17.0798
  22   2.0000      -0.585895       -15.9430
  23   2.0000      -0.574441       -15.6313
  24   2.0000      -0.555251       -15.1092
  25   2.0000      -0.527644       -14.3579
  26   2.0000      -0.502628       -13.6772
  27   2.0000      -0.477283       -12.9875
  28   2.0000      -0.450341       -12.2544
  29   2.0000      -0.411080       -11.1861
  30   2.0000      -0.394520       -10.7354
  31   2.0000      -0.380308       -10.3487
  32   0.0000       0.123085         3.3493
  33   0.0000       0.141099         3.8395
  34   0.0000       0.149613         4.0712
  35   0.0000       0.157800         4.2940
  36   0.0000       0.164912         4.4875

MULLIKEN ATOMIC CHARGES
-----------------------
   0 O :   -0.248678
   1 C :    0.178901
   2 C :   -0.251807
   3 C :   -0.037800
   4 C :   -0.122440
   5 C :    0.015581
   6 C :   -0.270957
   7 C :   -0.161176
   8 N :   -0.126944
   9 H :    0.158265
  10 H :    0.195590
  11 H :    0.121018
  12 H :    0.133165
  13 H :    0.144075
  14 H :    0.133645
  15 H :    0.139562
Sum of atomic charges:    0.0000000

LOEWDIN ATOMIC CHARGES
----------------------
   0 O :    0.166412
   1 C :   -0.368104
   2 C :   -0.174563
   3 C :   -0.090613
   4 C :   -0.081464
   5 C :   -0.166761
   6 C :   -0.215102
   7 C :   -0.218882
   8 N :    0.169950
   9 H :    0.179813
  10 H :    0.129158
  11 H :    0.135712
  12 H :    0.132015
  13 H :    0.142729
  14 H :    0.129164
  15 H :    0.130535

  Mayer bond orders larger than 0.1
B(  0-O ,  1-C ) :   2.0723 B(  1-C ,  2-C ) :   0.8692 B(  1-C ,  8-N ) :   1.0240
B(  2-C ,  3-C ) :   1.1431 B(  2-C ,  4-C ) :  -0.1006 B(  2-C ,  5-C ) :   0.9204
B(  2-C ,  9-H ) :   0.8907 B(  3-C ,  4-C ) :   2.5621 B(  4-C , 10-H ) :   0.8990
B(  5-C ,  6-C ) :   0.9276 B(  5-C ,  8-N ) :   0.9133 B(  5-C , 11-H ) :   0.8981
B(  6-C ,  7-C ) :   0.9550 B(  6-C , 12-H ) :   0.9288 B(  6-C , 13-H ) :   0.9158
B(  7-C ,  8-N ) :   0.8682 B(  7-C , 14-H ) :   0.9228 B(  7-C , 15-H ) :   0.9299

MP2 TOTAL ENERGY:     -399.994899094 Eh
FINAL SINGLE POINT ENERGY      -399.994899093562

DIPOLE MOMENT
-------------
                                X             Y             Z
Electronic contribution:     -2.11033      -4.54968      -2.09135
Nuclear contribution   :      2.08515       5.93343       2.37915
                        -----------------------------------------
Total Dipole Moment    :     -0.02518       1.38376       0.28779
                        -----------------------------------------
Magnitude (a.u.)       :      1.41359
Magnitude (Debye)      :      3.59306

                             ****ORCA TERMINATED NORMALLY****
TOTAL RUN TIME: 0 days 0 hours 17 minutes 52 seconds 963 msec
