                         Program Version 3.0.3 - RELEASE   -
|  1> ! RI-MP2 RIJK def2-TZVP def2-TZVP/C def2-TZVP/JK TIGHTSCF
|  2> % maxcore 2000
|  3> % mp2 density relaxed end
|  4> *xyz 0 1
|  5>  C        0.0928209643     1.5815122394    -0.1245734981
|  6>  C       -0.0596258308     0.0752054202     0.0711412499
|  7>  O        0.5246260151    -0.6210830467    -1.0531652205
|  8>  C        1.4798210655    -1.6353853201    -0.6715147380
|  9>  C        1.5642990100    -1.4771671266     0.8115316193
| 10>  C        0.6912519491    -0.5149952705     1.2198755609
| 11>  N        0.8455756235    -0.4738488020     2.5560221476
| 12>  N        1.7863329840    -1.3810606672     2.9502854533
| 13>  N        2.2202840353    -1.9913990130     1.8799440583
| 14>  H        1.1494911376     1.8605258398    -0.1476960466
| 15>  H       -0.3687284118     1.8774590742    -1.0700120860
| 16>  H       -0.4015761298     2.1283688303     0.6856411958
| 17>  H       -1.1306416671    -0.1774284610     0.1179528265
| 18>  H        1.1113133464    -2.6223995310    -0.9821512680
| 19>  H        2.4255378449    -1.4465190042    -1.1940425995
| 20>  H        0.3992576638     0.0943803285     3.2575543951
| 21> *
| 22>
| 23>                          ****END OF INPUT****

CARTESIAN COORDINATES (ANGSTROEM)
---------------------------------
  C      0.092821    1.581512   -0.124573
  C     -0.059626    0.075205    0.071141
  O      0.524626   -0.621083   -1.053165
  C      1.479821   -1.635385   -0.671515
  C      1.564299   -1.477167    0.811532
  C      0.691252   -0.514995    1.219876
  N      0.845576   -0.473849    2.556022
  N      1.786333   -1.381061    2.950285
  N      2.220284   -1.991399    1.879944
  H      1.149491    1.860526   -0.147696
  H     -0.368728    1.877459   -1.070012
  H     -0.401576    2.128369    0.685641
  H     -1.130642   -0.177428    0.117953
  H      1.111313   -2.622400   -0.982151
  H      2.425538   -1.446519   -1.194043
  H      0.399258    0.094380    3.257554

 Total Charge           Charge          ....    0
 Multiplicity           Mult            ....    1
 Number of Electrons    NEL             ....   66
 Basis Dimension        Dim             ....  321

ORBITAL ENERGIES
----------------

  NO   OCC          E(Eh)            E(eV)
   0   2.0000     -20.568631      -559.7009
   1   2.0000     -15.665461      -426.2789
   2   2.0000     -15.645639      -425.7395
   3   2.0000     -15.605991      -424.6606
   4   2.0000     -11.319113      -308.0087
   5   2.0000     -11.296851      -307.4029
   6   2.0000     -11.281947      -306.9974
   7   2.0000     -11.252012      -306.1828
   8   2.0000     -11.236118      -305.7503
   9   2.0000      -1.437549       -39.1177
  10   2.0000      -1.384685       -37.6792
  11   2.0000      -1.209446       -32.9107
  12   2.0000      -1.103817       -30.0364
  13   2.0000      -1.052668       -28.6446
  14   2.0000      -0.942788       -25.6546
  15   2.0000      -0.900382       -24.5006
  16   2.0000      -0.846058       -23.0224
  17   2.0000      -0.808059       -21.9884
  18   2.0000      -0.745087       -20.2749
  19   2.0000      -0.684225       -18.6187
  20   2.0000      -0.652223       -17.7479
  21   2.0000      -0.630694       -17.1620
  22   2.0000      -0.616381       -16.7726
  23   2.0000      -0.588214       -16.0061
  24   2.0000      -0.562482       -15.3059
  25   2.0000      -0.560381       -15.2488
  26   2.0000      -0.553403       -15.0589
  27   2.0000      -0.534003       -14.5310
  28   2.0000      -0.478424       -13.0186
  29   2.0000      -0.445215       -12.1149
  30   2.0000      -0.444268       -12.0892
  31   2.0000      -0.425657       -11.5827
  32   2.0000      -0.345194        -9.3932
  33   0.0000       0.112075         3.0497
  34   0.0000       0.129872         3.5340
  35   0.0000       0.149550         4.0695
  36   0.0000       0.165493         4.5033
  37   0.0000       0.174715         4.7542

MULLIKEN ATOMIC CHARGES
-----------------------
   0 C :   -0.381762
   1 C :    0.115322
   2 O :   -0.315274
   3 C :   -0.009173
   4 C :   -0.056462
   5 C :   -0.027413
   6 N :   -0.100890
   7 N :   -0.118724
   8 N :   -0.135246
   9 H :    0.137281
  10 H :    0.150576
  11 H :    0.117097
  12 H :    0.106817
  13 H :    0.123272
  14 H :    0.126058
  15 H :    0.268523
Sum of atomic charges:   -0.0000000

LOEWDIN ATOMIC CHARGES
----------------------
   0 C :   -0.283992
   1 C :   -0.287097
   2 O :    0.163675
   3 C :   -0.237381
   4 C :   -0.259777
   5 C :   -0.216639
   6 N :    0.145401
   7 N :   -0.040855
   8 N :    0.026611
   9 H :    0.129079
  10 H :    0.131315
  11 H :    0.124841
  12 H :    0.147023
  13 H :    0.132328
  14 H :    0.133280
  15 H :    0.192188

  Mayer bond orders larger than 0.1
B(  0-C ,  1-C ) :   0.8976 B(  0-C ,  9-H ) :   0.9337 B(  0-C , 10-H ) :   0.9344
B(  0-C , 11-H ) :   0.9271 B(  1-C ,  2-O ) :   0.9556 B(  1-C ,  5-C ) :   0.9637
B(  1-C , 12-H ) :   0.9063 B(  2-O ,  3-C ) :   0.9288 B(  3-C ,  4-C ) :   0.9818
B(  3-C , 13-H ) :   0.9232 B(  3-C , 14-H ) :   0.9152 B(  4-C ,  5-C ) :   1.3740
B(  4-C ,  8-N ) :   1.4208 B(  5-C ,  6-N ) :   1.1651 B(  5-C ,  7-N ) :   0.1241
B(  6-N ,  7-N ) :   1.0211 B(  6-N , 15-H ) :   0.8537 B(  7-N ,  8-N ) :   1.2944

MP2 TOTAL ENERGY:     -433.333591080 Eh
FINAL SINGLE POINT ENERGY      -433.333591080215

DIPOLE MOMENT
-------------
                                X             Y             Z
Electronic contribution:      2.46487      -4.96011       4.69045
Nuclear contribution   :     -3.56056       6.10018      -4.77905
                        -----------------------------------------
Total Dipole Moment    :     -1.09569       1.14007      -0.08860
                        -----------------------------------------
Magnitude (a.u.)       :      1.58371
Magnitude (Debye)      :      4.02548

                             ****ORCA TERMINATED NORMALLY****
TOTAL RUN TIME: 0 days 0 hours 16 minutes 18 seconds 453 msec
