                         Program Version 3.0.3 - RELEASE   -
|  1> ! RI-MP2 RIJK def2-TZVP def2-TZVP/C def2-TZVP/JK TIGHTSCF
|  2> % maxcore 2000
|  3> % mp2 density relaxed end
|  4> *xyz 0 1
|  5>  C       -0.0722076097     1.5847339485     0.0007696739
|  6>  C        0.0448859731     0.0600354794     0.0299492534
|  7>  C        0.7893005324    -0.5576134081    -1.1988874245
|  8>  C        1.4807007538    -1.8736848864    -0.7162926101
|  9>  C        1.6650667205    -1.5989536236     0.7470753139
| 10>  C        2.2987957372    -1.9641336689     1.8851534782
| 11>  O        1.9086531530    -1.1626805632     2.9032211293
| 12>  N        0.9760755076    -0.2245729397     2.4300622539
| 13>  C        0.8560051400    -0.5089440488     1.1628693136
| 14>  H        0.9179044060     2.0499615971    -0.0405317652
| 15>  H       -0.6406416099     1.9134944130    -0.8750181629
| 16>  H       -0.5793506128     1.9550023222     0.8959239087
| 17>  H       -0.9655094565    -0.3692071035     0.0867664150
| 18>  H        0.1218450077    -0.7211728900    -2.0488544922
| 19>  H        1.5616832692     0.1492843791    -1.5231582732
| 20>  H        0.8270400205    -2.7406306614    -0.8744702464
| 21>  H        2.4092683271    -2.0727514056    -1.2583974397
| 22>  H        3.0243758910    -2.7178132999     2.1490414945
| 23> *
| 24>
| 25>                          ****END OF INPUT****

CARTESIAN COORDINATES (ANGSTROEM)
---------------------------------
  C     -0.072208    1.584734    0.000770
  C      0.044886    0.060035    0.029949
  C      0.789301   -0.557613   -1.198887
  C      1.480701   -1.873685   -0.716293
  C      1.665067   -1.598954    0.747075
  C      2.298796   -1.964134    1.885153
  O      1.908653   -1.162681    2.903221
  N      0.976076   -0.224573    2.430062
  C      0.856005   -0.508944    1.162869
  H      0.917904    2.049962   -0.040532
  H     -0.640642    1.913494   -0.875018
  H     -0.579351    1.955002    0.895924
  H     -0.965509   -0.369207    0.086766
  H      0.121845   -0.721173   -2.048854
  H      1.561683    0.149284   -1.523158
  H      0.827040   -2.740631   -0.874470
  H      2.409268   -2.072751   -1.258397
  H      3.024376   -2.717813    2.149041

 Total Charge           Charge          ....    0
 Multiplicity           Mult            ....    1
 Number of Electrons    NEL             ....   66
 Basis Dimension        Dim             ....  333

ORBITAL ENERGIES
----------------

  NO   OCC          E(Eh)            E(eV)
   0   2.0000     -20.630496      -561.3843
   1   2.0000     -15.609865      -424.7660
   2   2.0000     -11.306828      -307.6744
   3   2.0000     -11.265968      -306.5626
   4   2.0000     -11.252108      -306.1854
   5   2.0000     -11.248274      -306.0811
   6   2.0000     -11.240547      -305.8708
   7   2.0000     -11.230752      -305.6043
   8   2.0000     -11.223541      -305.4081
   9   2.0000      -1.474122       -40.1129
  10   2.0000      -1.181269       -32.1440
  11   2.0000      -1.110881       -30.2286
  12   2.0000      -1.047731       -28.5102
  13   2.0000      -0.994021       -27.0487
  14   2.0000      -0.897907       -24.4333
  15   2.0000      -0.847868       -23.0717
  16   2.0000      -0.797546       -21.7023
  17   2.0000      -0.752303       -20.4712
  18   2.0000      -0.701505       -19.0889
  19   2.0000      -0.655212       -17.8292
  20   2.0000      -0.628069       -17.0906
  21   2.0000      -0.599941       -16.3252
  22   2.0000      -0.596211       -16.2237
  23   2.0000      -0.583594       -15.8804
  24   2.0000      -0.561856       -15.2889
  25   2.0000      -0.532918       -14.5014
  26   2.0000      -0.520330       -14.1589
  27   2.0000      -0.500377       -13.6160
  28   2.0000      -0.492499       -13.4016
  29   2.0000      -0.475937       -12.9509
  30   2.0000      -0.457164       -12.4401
  31   2.0000      -0.398266       -10.8374
  32   2.0000      -0.353625        -9.6226
  33   0.0000       0.113754         3.0954
  34   0.0000       0.135860         3.6969
  35   0.0000       0.150861         4.1051
  36   0.0000       0.170472         4.6388
  37   0.0000       0.171607         4.6697

MULLIKEN ATOMIC CHARGES
-----------------------
   0 C :   -0.406583
   1 C :   -0.007209
   2 C :   -0.249311
   3 C :   -0.183111
   4 C :   -0.127114
   5 C :   -0.018462
   6 O :   -0.102245
   7 N :   -0.115772
   8 C :    0.019579
   9 H :    0.128953
  10 H :    0.133530
  11 H :    0.149423
  12 H :    0.108839
  13 H :    0.130588
  14 H :    0.117877
  15 H :    0.127372
  16 H :    0.134459
  17 H :    0.159187
Sum of atomic charges:   -0.0000000

LOEWDIN ATOMIC CHARGES
----------------------
   0 C :   -0.284599
   1 C :   -0.223998
   2 C :   -0.202320
   3 C :   -0.205776
   4 C :   -0.169456
   5 C :   -0.237889
   6 O :    0.265276
   7 N :    0.059607
   8 C :   -0.243473
   9 H :    0.126549
  10 H :    0.124524
  11 H :    0.130388
  12 H :    0.162644
  13 H :    0.132843
  14 H :    0.141800
  15 H :    0.145290
  16 H :    0.141301
  17 H :    0.137287

  Mayer bond orders larger than 0.1
B(  0-C ,  1-C ) :   0.9124 B(  0-C ,  9-H ) :   0.9297 B(  0-C , 10-H ) :   0.9393
B(  0-C , 11-H ) :   0.9356 B(  1-C ,  2-C ) :   0.9214 B(  1-C ,  8-C ) :   0.9200
B(  1-C , 12-H ) :   0.9190 B(  2-C ,  3-C ) :   0.9421 B(  2-C , 13-H ) :   0.9350
B(  2-C , 14-H ) :   0.9226 B(  3-C ,  4-C ) :   0.9113 B(  3-C , 15-H ) :   0.9057
B(  3-C , 16-H ) :   0.9232 B(  4-C ,  5-C ) :   1.5284 B(  4-C ,  8-C ) :   1.1427
B(  5-C ,  6-O ) :   1.1225 B(  5-C ,  7-N ) :   0.1125 B(  5-C , 17-H ) :   0.9142
B(  6-O ,  7-N ) :   0.8840 B(  7-N ,  8-C ) :   1.6515

MP2 TOTAL ENERGY:     -401.257982615 Eh
FINAL SINGLE POINT ENERGY      -401.257982614858

DIPOLE MOMENT
-------------
                                X             Y             Z
Electronic contribution:      3.12375      -3.77957       8.85404
Nuclear contribution   :     -3.03318       3.26769     -10.08365
                        -----------------------------------------
Total Dipole Moment    :      0.09057      -0.51188      -1.22961
                        -----------------------------------------
Magnitude (a.u.)       :      1.33498
Magnitude (Debye)      :      3.39324

                             ****ORCA TERMINATED NORMALLY****
TOTAL RUN TIME: 0 days 0 hours 19 minutes 22 seconds 871 msec
