                         Program Version 3.0.3 - RELEASE   -
|  1> ! RI-MP2 RIJK def2-TZVP def2-TZVP/C def2-TZVP/JK TIGHTSCF
|  2> % maxcore 2000
|  3> % mp2 density relaxed end
|  4> *xyz 0 1
|  5>  C       -0.0449604342     1.5490450972     0.0208978552
|  6>  C       -0.0076886017     0.0089276709     0.0323844470
|  7>  C        0.7327804625    -0.5250481904     1.2733804115
|  8>  C       -1.3876696217    -0.5652767119    -0.0614480070
|  9>  C       -2.0171418218    -1.3542474389    -0.9760355563
| 10>  C       -3.3209719386    -1.5173817712    -0.4381732964
| 11>  N       -3.4726411014    -0.8864683231     0.6991358809
| 12>  O       -2.2405374915    -0.2784585304     0.9414508101
| 13>  H        0.9717161067     1.9522135973     0.0534175514
| 14>  H       -0.5357014759     1.9274234010    -0.8804371373
| 15>  H       -0.5919472346     1.9289531930     0.8885902816
| 16>  H        0.5252226397    -0.3319402100    -0.8628559582
| 17>  H        0.2151209285    -0.2274602934     2.1897862044
| 18>  H        0.7946103603    -1.6169968875     1.2590756018
| 19>  H        1.7501368942    -0.1237307095     1.3086362165
| 20>  H       -1.6135938761    -1.7558480597    -1.8903794833
| 21>  H       -4.1553013744    -2.0739654035    -0.8418623820
| 22> *
| 23>
| 24>                          ****END OF INPUT****

CARTESIAN COORDINATES (ANGSTROEM)
---------------------------------
  C     -0.044960    1.549045    0.020898
  C     -0.007689    0.008928    0.032384
  C      0.732780   -0.525048    1.273380
  C     -1.387670   -0.565277   -0.061448
  C     -2.017142   -1.354247   -0.976036
  C     -3.320972   -1.517382   -0.438173
  N     -3.472641   -0.886468    0.699136
  O     -2.240537   -0.278459    0.941451
  H      0.971716    1.952214    0.053418
  H     -0.535701    1.927423   -0.880437
  H     -0.591947    1.928953    0.888590
  H      0.525223   -0.331940   -0.862856
  H      0.215121   -0.227460    2.189786
  H      0.794610   -1.616997    1.259076
  H      1.750137   -0.123731    1.308636
  H     -1.613594   -1.755848   -1.890379
  H     -4.155301   -2.073965   -0.841862

 Total Charge           Charge          ....    0
 Multiplicity           Mult            ....    1
 Number of Electrons    NEL             ....   60
 Basis Dimension        Dim             ....  302

ORBITAL ENERGIES
----------------

  NO   OCC          E(Eh)            E(eV)
   0   2.0000     -20.635926      -561.5321
   1   2.0000     -15.614780      -424.8998
   2   2.0000     -11.312891      -307.8394
   3   2.0000     -11.275698      -306.8274
   4   2.0000     -11.256694      -306.3102
   5   2.0000     -11.230320      -305.5925
   6   2.0000     -11.226544      -305.4898
   7   2.0000     -11.226528      -305.4893
   8   2.0000      -1.486297       -40.4442
   9   2.0000      -1.163567       -31.6623
  10   2.0000      -1.107707       -30.1422
  11   2.0000      -1.038462       -28.2580
  12   2.0000      -0.942115       -25.6362
  13   2.0000      -0.859494       -23.3880
  14   2.0000      -0.824001       -22.4222
  15   2.0000      -0.778034       -21.1714
  16   2.0000      -0.694411       -18.8959
  17   2.0000      -0.655212       -17.8292
  18   2.0000      -0.631541       -17.1851
  19   2.0000      -0.615698       -16.7540
  20   2.0000      -0.594196       -16.1689
  21   2.0000      -0.569904       -15.5079
  22   2.0000      -0.560694       -15.2572
  23   2.0000      -0.546188       -14.8625
  24   2.0000      -0.508835       -13.8461
  25   2.0000      -0.496947       -13.5226
  26   2.0000      -0.495617       -13.4864
  27   2.0000      -0.467266       -12.7149
  28   2.0000      -0.422906       -11.5079
  29   2.0000      -0.353672        -9.6239
  30   0.0000       0.126934         3.4540
  31   0.0000       0.132195         3.5972
  32   0.0000       0.162408         4.4193
  33   0.0000       0.176028         4.7900
  34   0.0000       0.183205         4.9853

MULLIKEN ATOMIC CHARGES
-----------------------
   0 C :   -0.409221
   1 C :   -0.043370
   2 C :   -0.409201
   3 C :    0.181109
   4 C :   -0.222982
   5 C :   -0.074797
   6 N :   -0.131937
   7 O :   -0.118685
   8 H :    0.132849
   9 H :    0.137580
  10 H :    0.144496
  11 H :    0.100879
  12 H :    0.144508
  13 H :    0.137553
  14 H :    0.132841
  15 H :    0.150043
  16 H :    0.148334
Sum of atomic charges:   -0.0000000

LOEWDIN ATOMIC CHARGES
----------------------
   0 C :   -0.280759
   1 C :   -0.273757
   2 C :   -0.280744
   3 C :   -0.253054
   4 C :   -0.177780
   5 C :   -0.273617
   6 N :    0.031732
   7 O :    0.297090
   8 H :    0.124569
   9 H :    0.126321
  10 H :    0.129205
  11 H :    0.162484
  12 H :    0.129200
  13 H :    0.126311
  14 H :    0.124578
  15 H :    0.147118
  16 H :    0.141104

  Mayer bond orders larger than 0.1
B(  0-C ,  1-C ) :   0.9154 B(  0-C ,  8-H ) :   0.9355 B(  0-C ,  9-H ) :   0.9360
B(  0-C , 10-H ) :   0.9294 B(  1-C ,  2-C ) :   0.9154 B(  1-C ,  3-C ) :   0.9103
B(  1-C , 11-H ) :   0.9402 B(  2-C , 12-H ) :   0.9295 B(  2-C , 13-H ) :   0.9360
B(  2-C , 14-H ) :   0.9355 B(  3-C ,  4-C ) :   1.4902 B(  3-C ,  7-O ) :   1.1148
B(  4-C ,  5-C ) :   1.2365 B(  4-C , 15-H ) :   0.9114 B(  5-C ,  6-N ) :   1.5958
B(  5-C , 16-H ) :   0.9265 B(  6-N ,  7-O ) :   0.8885

MP2 TOTAL ENERGY:     -363.241838382 Eh
FINAL SINGLE POINT ENERGY      -363.241838381835

DIPOLE MOMENT
-------------
                                X             Y             Z
Electronic contribution:     -8.75806      -3.36568      -0.13849
Nuclear contribution   :      9.63753       3.19785      -0.68437
                        -----------------------------------------
Total Dipole Moment    :      0.87947      -0.16782      -0.82286
                        -----------------------------------------
Magnitude (a.u.)       :      1.21603
Magnitude (Debye)      :      3.09091

                             ****ORCA TERMINATED NORMALLY****
TOTAL RUN TIME: 0 days 0 hours 13 minutes 41 seconds 762 msec
