                         Program Version 3.0.3 - RELEASE   -
|  1> ! RI-MP2 RIJK def2-TZVP def2-TZVP/C def2-TZVP/JK TIGHTSCF
|  2> % maxcore 2000
|  3> % mp2 density relaxed end
|  4> *xyz 0 1
|  5>  C       -0.0105177100     1.5994872634    -0.0003585114
|  6>  C        0.0526371228     0.0804743886     0.0286862428
|  7>  C        1.0686301914    -0.6469978976    -0.8947075006
|  8>  C        1.3638953016    -1.6525668029     0.2631476799
|  9>  C        0.7279803068    -0.6239623294     1.2387880933
| 10>  C        0.5835368104    -2.9862163107     0.0990090265
| 11>  C        1.6501560688    -3.9648241426    -0.3301570422
| 12>  C        2.8745097512    -3.4790273665    -0.1322849938
| 13>  C        2.8334189383    -2.0904468253     0.4586781224
| 14>  H        0.9833993882     2.0355739009     0.1542152865
| 15>  H       -0.3879840263     1.9656002431    -0.9620241802
| 16>  H       -0.6695717134     1.9878067816     0.7846211046
| 17>  H       -0.9503212018    -0.3336285344    -0.1246176696
| 18>  H        0.7043978123    -1.0583045370    -1.8405393910
| 19>  H        1.9366088583    -0.0111732333    -1.1033042987
| 20>  H        1.4895919659     0.0184524971     1.6958375692
| 21>  H        0.0832049744    -1.0143887288     2.0320976032
| 22>  H        0.1306247467    -3.3056103488     1.0500687697
| 23>  H       -0.2418286121    -2.9031254759    -0.6185549118
| 24>  H        1.4195153630    -4.9540042809    -0.7106533714
| 25>  H        3.8002448642    -4.0099053607    -0.3261343248
| 26>  H        3.5352663226    -1.3936398216    -0.0155184341
| 27>  H        3.1029233867    -2.1157886583     1.5261043613
| 28> *
| 29>
| 30>                          ****END OF INPUT****

CARTESIAN COORDINATES (ANGSTROEM)
---------------------------------
  C     -0.010518    1.599487   -0.000359
  C      0.052637    0.080474    0.028686
  C      1.068630   -0.646998   -0.894708
  C      1.363895   -1.652567    0.263148
  C      0.727980   -0.623962    1.238788
  C      0.583537   -2.986216    0.099009
  C      1.650156   -3.964824   -0.330157
  C      2.874510   -3.479027   -0.132285
  C      2.833419   -2.090447    0.458678
  H      0.983399    2.035574    0.154215
  H     -0.387984    1.965600   -0.962024
  H     -0.669572    1.987807    0.784621
  H     -0.950321   -0.333629   -0.124618
  H      0.704398   -1.058305   -1.840539
  H      1.936609   -0.011173   -1.103304
  H      1.489592    0.018452    1.695838
  H      0.083205   -1.014389    2.032098
  H      0.130625   -3.305610    1.050069
  H     -0.241829   -2.903125   -0.618555
  H      1.419515   -4.954004   -0.710653
  H      3.800245   -4.009905   -0.326134
  H      3.535266   -1.393640   -0.015518
  H      3.102923   -2.115789    1.526104

 Total Charge           Charge          ....    0
 Multiplicity           Mult            ....    1
 Number of Electrons    NEL             ....   68
 Basis Dimension        Dim             ....  363

ORBITAL ENERGIES
----------------

  NO   OCC          E(Eh)            E(eV)
   0   2.0000     -11.228625      -305.5464
   1   2.0000     -11.221320      -305.3476
   2   2.0000     -11.219113      -305.2876
   3   2.0000     -11.218638      -305.2747
   4   2.0000     -11.217342      -305.2394
   5   2.0000     -11.216863      -305.2263
   6   2.0000     -11.212095      -305.0966
   7   2.0000     -11.210892      -305.0639
   8   2.0000     -11.209368      -305.0224
   9   2.0000      -1.154494       -31.4154
  10   2.0000      -1.089527       -29.6475
  11   2.0000      -0.977932       -26.6109
  12   2.0000      -0.954119       -25.9629
  13   2.0000      -0.898100       -24.4386
  14   2.0000      -0.893602       -24.3162
  15   2.0000      -0.777552       -21.1583
  16   2.0000      -0.729493       -19.8505
  17   2.0000      -0.714582       -19.4448
  18   2.0000      -0.663085       -18.0435
  19   2.0000      -0.633912       -17.2496
  20   2.0000      -0.606484       -16.5033
  21   2.0000      -0.576510       -15.6876
  22   2.0000      -0.559496       -15.2247
  23   2.0000      -0.557456       -15.1691
  24   2.0000      -0.542919       -14.7736
  25   2.0000      -0.529097       -14.3975
  26   2.0000      -0.514404       -13.9976
  27   2.0000      -0.487521       -13.2661
  28   2.0000      -0.480483       -13.0746
  29   2.0000      -0.443161       -12.0590
  30   2.0000      -0.433977       -11.8091
  31   2.0000      -0.421505       -11.4697
  32   2.0000      -0.412905       -11.2357
  33   2.0000      -0.339571        -9.2402
  34   0.0000       0.134067         3.6482
  35   0.0000       0.153231         4.1696
  36   0.0000       0.157728         4.2920
  37   0.0000       0.166886         4.5412
  38   0.0000       0.180802         4.9199

MULLIKEN ATOMIC CHARGES
-----------------------
   0 C :   -0.429500
   1 C :    0.009918
   2 C :   -0.330239
   3 C :    0.197774
   4 C :   -0.299260
   5 C :   -0.229883
   6 C :   -0.187512
   7 C :   -0.180603
   8 C :   -0.177304
   9 H :    0.118331
  10 H :    0.129724
  11 H :    0.129517
  12 H :    0.099656
  13 H :    0.120616
  14 H :    0.102022
  15 H :    0.109320
  16 H :    0.115183
  17 H :    0.112323
  18 H :    0.119407
  19 H :    0.121910
  20 H :    0.122606
  21 H :    0.112653
  22 H :    0.113343
Sum of atomic charges:    0.0000000

LOEWDIN ATOMIC CHARGES
----------------------
   0 C :   -0.305575
   1 C :   -0.255977
   2 C :   -0.178736
   3 C :   -0.215467
   4 C :   -0.184550
   5 C :   -0.199422
   6 C :   -0.162878
   7 C :   -0.162066
   8 C :   -0.207748
   9 H :    0.121453
  10 H :    0.123454
  11 H :    0.123252
  12 H :    0.147634
  13 H :    0.126601
  14 H :    0.135486
  15 H :    0.137627
  16 H :    0.124865
  17 H :    0.142562
  18 H :    0.139582
  19 H :    0.134355
  20 H :    0.134255
  21 H :    0.137773
  22 H :    0.143520

  Mayer bond orders larger than 0.1
B(  0-C ,  1-C ) :   0.8663 B(  0-C ,  9-H ) :   0.9414 B(  0-C , 10-H ) :   0.9420
B(  0-C , 11-H ) :   0.9419 B(  1-C ,  2-C ) :   0.9581 B(  1-C ,  4-C ) :   0.9520
B(  1-C , 12-H ) :   0.9259 B(  2-C ,  3-C ) :   0.9136 B(  2-C , 13-H ) :   0.9281
B(  2-C , 14-H ) :   0.9045 B(  3-C ,  4-C ) :   0.8873 B(  3-C ,  5-C ) :   0.9252
B(  3-C ,  8-C ) :   0.8892 B(  4-C , 15-H ) :   0.9138 B(  4-C , 16-H ) :   0.9245
B(  5-C ,  6-C ) :   0.9538 B(  5-C , 17-H ) :   0.9039 B(  5-C , 18-H ) :   0.9168
B(  6-C ,  7-C ) :   1.8072 B(  6-C , 19-H ) :   0.9321 B(  7-C ,  8-C ) :   0.9482
B(  7-C , 20-H ) :   0.9316 B(  8-C , 21-H ) :   0.9164 B(  8-C , 22-H ) :   0.9032

MP2 TOTAL ENERGY:     -350.508813723 Eh
FINAL SINGLE POINT ENERGY      -350.508813723455

DIPOLE MOMENT
-------------
                                X             Y             Z
Electronic contribution:      1.93266      -5.19927      -0.29168
Nuclear contribution   :     -1.99114       5.24349       0.33592
                        -----------------------------------------
Total Dipole Moment    :     -0.05849       0.04422       0.04424
                        -----------------------------------------
Magnitude (a.u.)       :      0.08564
Magnitude (Debye)      :      0.21767

                             ****ORCA TERMINATED NORMALLY****
TOTAL RUN TIME: 0 days 0 hours 20 minutes 4 seconds 790 msec
