                         Program Version 3.0.3 - RELEASE   -
|  1> ! RI-MP2 RIJK def2-TZVP def2-TZVP/C def2-TZVP/JK TIGHTSCF
|  2> % maxcore 2000
|  3> % mp2 density relaxed end
|  4> *xyz 0 1
|  5>  C       -0.1147725668     1.4576959423    -0.1220972140
|  6>  N        0.0285446988     0.0160935513     0.0338061718
|  7>  C        1.3510863837    -0.5432199834    -0.1477000073
|  8>  C        0.7406026073    -0.4701234542     1.2219813891
|  9>  C        1.2802164830     0.4063451291     2.3469575287
| 10>  C        1.5943298947    -0.6028123529     3.4772328703
| 11>  C        0.5039387171    -1.6800450264     3.3487393604
| 12>  C        0.2152694238    -1.7480259528     1.8489961270
| 13>  O       -0.3031691309    -2.6568264908     1.2531833584
| 14>  H        0.7714538740     2.0388471766     0.1780683349
| 15>  H       -0.3207849414     1.6703160511    -1.1754778649
| 16>  H       -0.9708442043     1.8041229703     0.4650574338
| 17>  H        1.3888094132    -1.5036586265    -0.6550066098
| 18>  H        2.1813979100     0.1348042693    -0.3469745145
| 19>  H        2.1533918104     0.9986341962     2.0660151253
| 20>  H        0.5031447759     1.1065442109     2.6798596879
| 21>  H        2.5788789065    -1.0520621922     3.3060875133
| 22>  H        1.6180058128    -0.1297673778     4.4615596477
| 23>  H        0.7652737080    -2.6602422097     3.7521852538
| 24>  H       -0.4221179759    -1.3584288905     3.8452941382
| 25> *
| 26>
| 27>                          ****END OF INPUT****

CARTESIAN COORDINATES (ANGSTROEM)
---------------------------------
  C     -0.114773    1.457696   -0.122097
  N      0.028545    0.016094    0.033806
  C      1.351086   -0.543220   -0.147700
  C      0.740603   -0.470123    1.221981
  C      1.280216    0.406345    2.346958
  C      1.594330   -0.602812    3.477233
  C      0.503939   -1.680045    3.348739
  C      0.215269   -1.748026    1.848996
  O     -0.303169   -2.656826    1.253183
  H      0.771454    2.038847    0.178068
  H     -0.320785    1.670316   -1.175478
  H     -0.970844    1.804123    0.465057
  H      1.388809   -1.503659   -0.655007
  H      2.181398    0.134804   -0.346975
  H      2.153392    0.998634    2.066015
  H      0.503145    1.106544    2.679860
  H      2.578879   -1.052062    3.306088
  H      1.618006   -0.129767    4.461560
  H      0.765274   -2.660242    3.752185
  H     -0.422118   -1.358429    3.845294

 Total Charge           Charge          ....    0
 Multiplicity           Mult            ....    1
 Number of Electrons    NEL             ....   68
 Basis Dimension        Dim             ....  345

ORBITAL ENERGIES
----------------

  NO   OCC          E(Eh)            E(eV)
   0   2.0000     -20.537889      -558.8644
   1   2.0000     -15.569179      -423.6589
   2   2.0000     -11.321966      -308.0864
   3   2.0000     -11.269829      -306.6676
   4   2.0000     -11.263192      -306.4870
   5   2.0000     -11.253591      -306.2258
   6   2.0000     -11.242224      -305.9165
   7   2.0000     -11.241091      -305.8856
   8   2.0000     -11.237277      -305.7818
   9   2.0000      -1.383147       -37.6373
  10   2.0000      -1.283192       -34.9174
  11   2.0000      -1.118186       -30.4274
  12   2.0000      -1.001383       -27.2490
  13   2.0000      -0.963388       -26.2151
  14   2.0000      -0.904757       -24.6197
  15   2.0000      -0.835172       -22.7262
  16   2.0000      -0.803006       -21.8509
  17   2.0000      -0.713395       -19.4125
  18   2.0000      -0.676667       -18.4130
  19   2.0000      -0.670056       -18.2331
  20   2.0000      -0.640391       -17.4259
  21   2.0000      -0.617756       -16.8100
  22   2.0000      -0.599014       -16.3000
  23   2.0000      -0.582932       -15.8624
  24   2.0000      -0.568280       -15.4637
  25   2.0000      -0.553632       -15.0651
  26   2.0000      -0.539942       -14.6926
  27   2.0000      -0.532330       -14.4854
  28   2.0000      -0.497405       -13.5351
  29   2.0000      -0.482352       -13.1255
  30   2.0000      -0.458948       -12.4886
  31   2.0000      -0.449797       -12.2396
  32   2.0000      -0.404387       -11.0039
  33   2.0000      -0.366600        -9.9757
  34   0.0000       0.120657         3.2833
  35   0.0000       0.132398         3.6027
  36   0.0000       0.148356         4.0370
  37   0.0000       0.158939         4.3249
  38   0.0000       0.178119         4.8469

MULLIKEN ATOMIC CHARGES
-----------------------
   0 C :   -0.305595
   1 N :   -0.240698
   2 C :   -0.231652
   3 C :    0.148651
   4 C :   -0.204369
   5 C :   -0.227513
   6 C :   -0.214291
   7 C :    0.105749
   8 O :   -0.271430
   9 H :    0.110007
  10 H :    0.149135
  11 H :    0.140777
  12 H :    0.145111
  13 H :    0.119781
  14 H :    0.129843
  15 H :    0.121817
  16 H :    0.118789
  17 H :    0.132249
  18 H :    0.140652
  19 H :    0.132987
Sum of atomic charges:   -0.0000000

LOEWDIN ATOMIC CHARGES
----------------------
   0 C :   -0.323967
   1 N :    0.124329
   2 C :   -0.211731
   3 C :   -0.249458
   4 C :   -0.217262
   5 C :   -0.243766
   6 C :   -0.221513
   7 C :   -0.285459
   8 O :    0.164483
   9 H :    0.106948
  10 H :    0.122127
  11 H :    0.119394
  12 H :    0.133660
  13 H :    0.125573
  14 H :    0.137340
  15 H :    0.144532
  16 H :    0.140171
  17 H :    0.133979
  18 H :    0.144898
  19 H :    0.155724

  Mayer bond orders larger than 0.1
B(  0-C ,  1-N ) :   0.8681 B(  0-C ,  9-H ) :   0.9240 B(  0-C , 10-H ) :   0.9361
B(  0-C , 11-H ) :   0.9397 B(  1-N ,  2-C ) :   0.9880 B(  1-N ,  3-C ) :   0.7370
B(  2-C ,  3-C ) :   0.8630 B(  2-C , 12-H ) :   0.9031 B(  2-C , 13-H ) :   0.9224
B(  3-C ,  4-C ) :   0.8970 B(  3-C ,  7-C ) :   0.8666 B(  4-C ,  5-C ) :   0.9307
B(  4-C , 14-H ) :   0.9268 B(  4-C , 15-H ) :   0.9177 B(  5-C ,  6-C ) :   0.9251
B(  5-C , 16-H ) :   0.9291 B(  5-C , 17-H ) :   0.9325 B(  6-C ,  7-C ) :   0.9312
B(  6-C , 18-H ) :   0.9160 B(  6-C , 19-H ) :   0.9087 B(  7-C ,  8-O ) :   2.0629

MP2 TOTAL ENERGY:     -402.454983605 Eh
FINAL SINGLE POINT ENERGY      -402.454983605228

DIPOLE MOMENT
-------------
                                X             Y             Z
Electronic contribution:     -2.72039      -6.34190      -1.69058
Nuclear contribution   :      3.59592       7.50591       2.32374
                        -----------------------------------------
Total Dipole Moment    :      0.87554       1.16402       0.63317
                        -----------------------------------------
Magnitude (a.u.)       :      1.58821
Magnitude (Debye)      :      4.03690

                             ****ORCA TERMINATED NORMALLY****
TOTAL RUN TIME: 0 days 0 hours 19 minutes 12 seconds 801 msec
