                         Program Version 3.0.3 - RELEASE   -
|  1> ! RI-MP2 RIJK def2-TZVP def2-TZVP/C def2-TZVP/JK TIGHTSCF
|  2> % maxcore 2000
|  3> % mp2 density relaxed end
|  4> *xyz 0 1
|  5>  C       -0.2967991607     1.4586338568     0.1231994418
|  6>  C        0.1094194621    -0.0019768741     0.0560445202
|  7>  C        1.1584947252    -0.4850198615    -0.9897013058
|  8>  C        1.9520937777    -1.0186432750     0.1972198356
|  9>  C        2.2612379346     0.0750257639     1.1474892801
| 10>  N        0.9274580272    -0.5385506013     1.2206155276
| 11>  C        2.5728753874    -2.3783347240     0.2667669185
| 12>  N        2.4651173491    -2.9663127279     1.4960099695
| 13>  O        3.1355386070    -2.8773795634    -0.6893600350
| 14>  H        0.5637484684     2.1338819339     0.1398602942
| 15>  H       -0.9011461421     1.7185025005    -0.7524415776
| 16>  H       -0.8971716823     1.6489145378     1.0187557039
| 17>  H       -0.7887208111    -0.6235039867     0.0104088269
| 18>  H        0.7902308210    -1.2658391086    -1.6553936545
| 19>  H        1.6586115821     0.2817165464    -1.5876245489
| 20>  H        2.8794861902    -0.1655340248     2.0062106690
| 21>  H        2.3833110082     1.0869344464     0.7698712689
| 22>  H        1.7513077934    -2.6253214536     2.1224946311
| 23>  H        2.7583015925    -3.9268726148     1.5749944247
| 24> *
| 25>
| 26>                          ****END OF INPUT****

CARTESIAN COORDINATES (ANGSTROEM)
---------------------------------
  C     -0.296799    1.458634    0.123199
  C      0.109419   -0.001977    0.056045
  C      1.158495   -0.485020   -0.989701
  C      1.952094   -1.018643    0.197220
  C      2.261238    0.075026    1.147489
  N      0.927458   -0.538551    1.220616
  C      2.572875   -2.378335    0.266767
  N      2.465117   -2.966313    1.496010
  O      3.135539   -2.877380   -0.689360
  H      0.563748    2.133882    0.139860
  H     -0.901146    1.718503   -0.752442
  H     -0.897172    1.648915    1.018756
  H     -0.788721   -0.623504    0.010409
  H      0.790231   -1.265839   -1.655394
  H      1.658612    0.281717   -1.587625
  H      2.879486   -0.165534    2.006211
  H      2.383311    1.086934    0.769871
  H      1.751308   -2.625321    2.122495
  H      2.758302   -3.926873    1.574994

 Total Charge           Charge          ....    0
 Multiplicity           Mult            ....    1
 Number of Electrons    NEL             ....   68
 Basis Dimension        Dim             ....  339

ORBITAL ENERGIES
----------------

  NO   OCC          E(Eh)            E(eV)
   0   2.0000     -20.519344      -558.3597
   1   2.0000     -15.577346      -423.8811
   2   2.0000     -15.576570      -423.8600
   3   2.0000     -11.351853      -308.8996
   4   2.0000     -11.280337      -306.9536
   5   2.0000     -11.273998      -306.7811
   6   2.0000     -11.273634      -306.7712
   7   2.0000     -11.238785      -305.8229
   8   2.0000     -11.227462      -305.5148
   9   2.0000      -1.382494       -37.6196
  10   2.0000      -1.305612       -35.5275
  11   2.0000      -1.206934       -32.8423
  12   2.0000      -1.049068       -28.5466
  13   2.0000      -0.985445       -26.8153
  14   2.0000      -0.928572       -25.2677
  15   2.0000      -0.875697       -23.8289
  16   2.0000      -0.784679       -21.3522
  17   2.0000      -0.744982       -20.2720
  18   2.0000      -0.718318       -19.5464
  19   2.0000      -0.678993       -18.4763
  20   2.0000      -0.669644       -18.2219
  21   2.0000      -0.628893       -17.1131
  22   2.0000      -0.607718       -16.5368
  23   2.0000      -0.590237       -16.0612
  24   2.0000      -0.571619       -15.5545
  25   2.0000      -0.559246       -15.2178
  26   2.0000      -0.552173       -15.0254
  27   2.0000      -0.526660       -14.3311
  28   2.0000      -0.488109       -13.2821
  29   2.0000      -0.461893       -12.5687
  30   2.0000      -0.455395       -12.3919
  31   2.0000      -0.418376       -11.3846
  32   2.0000      -0.410527       -11.1710
  33   2.0000      -0.383171       -10.4266
  34   0.0000       0.134024         3.6470
  35   0.0000       0.145164         3.9501
  36   0.0000       0.154419         4.2020
  37   0.0000       0.170802         4.6478
  38   0.0000       0.178066         4.8454

MULLIKEN ATOMIC CHARGES
-----------------------
   0 C :   -0.396657
   1 C :    0.016370
   2 C :   -0.246415
   3 C :    0.151790
   4 C :   -0.148454
   5 N :   -0.297321
   6 C :    0.161612
   7 N :   -0.485086
   8 O :   -0.339290
   9 H :    0.115229
  10 H :    0.137757
  11 H :    0.143562
  12 H :    0.111361
  13 H :    0.144182
  14 H :    0.126485
  15 H :    0.141014
  16 H :    0.130748
  17 H :    0.278624
  18 H :    0.254490
Sum of atomic charges:   -0.0000000

LOEWDIN ATOMIC CHARGES
----------------------
   0 C :   -0.298143
   1 C :   -0.261847
   2 C :   -0.176111
   3 C :   -0.212363
   4 C :   -0.218351
   5 N :    0.119483
   6 C :   -0.456952
   7 N :   -0.014660
   8 O :    0.091215
   9 H :    0.120949
  10 H :    0.130630
  11 H :    0.130222
  12 H :    0.147038
  13 H :    0.143851
  14 H :    0.136181
  15 H :    0.137676
  16 H :    0.129474
  17 H :    0.178692
  18 H :    0.173017

  Mayer bond orders larger than 0.1
B(  0-C ,  1-C ) :   0.9414 B(  0-C ,  9-H ) :   0.9238 B(  0-C , 10-H ) :   0.9357
B(  0-C , 11-H ) :   0.9389 B(  1-C ,  2-C ) :   0.9483 B(  1-C ,  5-N ) :   0.8830
B(  1-C , 12-H ) :   0.9212 B(  2-C ,  3-C ) :   0.9060 B(  2-C , 13-H ) :   0.9277
B(  2-C , 14-H ) :   0.9176 B(  3-C ,  4-C ) :   0.8940 B(  3-C ,  5-N ) :   0.7957
B(  3-C ,  6-C ) :   0.8920 B(  4-C ,  5-N ) :   0.8643 B(  4-C , 15-H ) :   0.9196
B(  4-C , 16-H ) :   0.9127 B(  6-C ,  7-N ) :   1.1772 B(  6-C ,  8-O ) :   2.0155
B(  7-N , 17-H ) :   0.8495 B(  7-N , 18-H ) :   0.8631

MP2 TOTAL ENERGY:     -418.500823902 Eh
FINAL SINGLE POINT ENERGY      -418.500823902019

DIPOLE MOMENT
-------------
                                X             Y             Z
Electronic contribution:      4.66892      -7.00569       0.16329
Nuclear contribution   :     -5.36615       7.63765       0.41979
                        -----------------------------------------
Total Dipole Moment    :     -0.69722       0.63196       0.58308
                        -----------------------------------------
Magnitude (a.u.)       :      1.10701
Magnitude (Debye)      :      2.81380

                             ****ORCA TERMINATED NORMALLY****
TOTAL RUN TIME: 0 days 0 hours 17 minutes 12 seconds 713 msec
