                         Program Version 3.0.3 - RELEASE   -
|  1> ! RI-MP2 RIJK def2-TZVP def2-TZVP/C def2-TZVP/JK TIGHTSCF
|  2> % maxcore 2000
|  3> % mp2 density relaxed end
|  4> *xyz 0 1
|  5>  C        0.0386237012     1.5722611725    -0.0132072262
|  6>  C       -0.0164715723     0.0452772251     0.1165964537
|  7>  C       -1.4291027485    -0.5433357248     0.0223873654
|  8>  O       -2.2688154404    -0.0652755993     1.0569402226
|  9>  C       -2.0238630136    -0.5520972342    -1.4267711993
| 10>  C       -1.6747226200    -2.0671274098    -1.5441587447
| 11>  C       -1.4561878619    -2.0826240631    -0.0302233206
| 12>  C       -0.8221916670    -3.0419817670     0.8966904033
| 13>  N       -2.2905247476    -2.8819440488     0.8585381499
| 14>  H        1.0728476054     1.9275066490     0.0111976772
| 15>  H       -0.4077331449     1.9165175264    -0.9522380704
| 16>  H       -0.4838337926     2.0708606534     0.8119359743
| 17>  H        0.6025071162    -0.4107377244    -0.6651584844
| 18>  H        0.4194363323    -0.2569592596     1.0762436843
| 19>  H       -2.2568976553     0.8969476621     1.0489266995
| 20>  H       -3.1020800344    -0.3821494191    -1.3948355579
| 21>  H       -1.5711676866     0.1236889588    -2.1565813298
| 22>  H       -2.4662559861    -2.7263076683    -1.9044573311
| 23>  H       -0.7627241472    -2.2550110604    -2.1183240173
| 24>  H       -0.4568308536    -3.9978223828     0.5292982985
| 25>  H       -0.2753647599    -2.6471796243     1.7503476781
| 26>  H       -2.5961752735    -2.2909449014     1.6298905950
| 27> *
| 28>
| 29>                          ****END OF INPUT****

CARTESIAN COORDINATES (ANGSTROEM)
---------------------------------
  C      0.038624    1.572261   -0.013207
  C     -0.016472    0.045277    0.116596
  C     -1.429103   -0.543336    0.022387
  O     -2.268815   -0.065276    1.056940
  C     -2.023863   -0.552097   -1.426771
  C     -1.674723   -2.067127   -1.544159
  C     -1.456188   -2.082624   -0.030223
  C     -0.822192   -3.041982    0.896690
  N     -2.290525   -2.881944    0.858538
  H      1.072848    1.927507    0.011198
  H     -0.407733    1.916518   -0.952238
  H     -0.483834    2.070861    0.811936
  H      0.602507   -0.410738   -0.665158
  H      0.419436   -0.256959    1.076244
  H     -2.256898    0.896948    1.048927
  H     -3.102080   -0.382149   -1.394836
  H     -1.571168    0.123689   -2.156581
  H     -2.466256   -2.726308   -1.904457
  H     -0.762724   -2.255011   -2.118324
  H     -0.456831   -3.997822    0.529298
  H     -0.275365   -2.647180    1.750348
  H     -2.596175   -2.290945    1.629891

 Total Charge           Charge          ....    0
 Multiplicity           Mult            ....    1
 Number of Electrons    NEL             ....   70
 Basis Dimension        Dim             ....  357

ORBITAL ENERGIES
----------------

  NO   OCC          E(Eh)            E(eV)
   0   2.0000     -20.561382      -559.5036
   1   2.0000     -15.544692      -422.9926
   2   2.0000     -11.287421      -307.1464
   3   2.0000     -11.253674      -306.2280
   4   2.0000     -11.245835      -306.0147
   5   2.0000     -11.229895      -305.5810
   6   2.0000     -11.227973      -305.5287
   7   2.0000     -11.221911      -305.3637
   8   2.0000     -11.220308      -305.3201
   9   2.0000      -1.372462       -37.3466
  10   2.0000      -1.253458       -34.1083
  11   2.0000      -1.107305       -30.1313
  12   2.0000      -1.034709       -28.1559
  13   2.0000      -0.910620       -24.7792
  14   2.0000      -0.884999       -24.0821
  15   2.0000      -0.851006       -23.1570
  16   2.0000      -0.823425       -22.4065
  17   2.0000      -0.730894       -19.8886
  18   2.0000      -0.687273       -18.7017
  19   2.0000      -0.681898       -18.5554
  20   2.0000      -0.643324       -17.5057
  21   2.0000      -0.632238       -17.2041
  22   2.0000      -0.597044       -16.2464
  23   2.0000      -0.575465       -15.6592
  24   2.0000      -0.550965       -14.9925
  25   2.0000      -0.534270       -14.5382
  26   2.0000      -0.531271       -14.4566
  27   2.0000      -0.514034       -13.9876
  28   2.0000      -0.505048       -13.7431
  29   2.0000      -0.491114       -13.3639
  30   2.0000      -0.471873       -12.8403
  31   2.0000      -0.445689       -12.1278
  32   2.0000      -0.428365       -11.6564
  33   2.0000      -0.418041       -11.3755
  34   2.0000      -0.371751       -10.1159
  35   0.0000       0.126223         3.4347
  36   0.0000       0.149681         4.0730
  37   0.0000       0.161525         4.3953
  38   0.0000       0.176250         4.7960
  39   0.0000       0.184521         5.0211

MULLIKEN ATOMIC CHARGES
-----------------------
   0 C :   -0.420847
   1 C :   -0.280429
   2 C :    0.302828
   3 O :   -0.479266
   4 C :   -0.271490
   5 C :   -0.209230
   6 C :    0.035066
   7 C :   -0.193277
   8 N :   -0.374437
   9 H :    0.143670
  10 H :    0.135609
  11 H :    0.115664
  12 H :    0.119602
  13 H :    0.117015
  14 H :    0.316459
  15 H :    0.118136
  16 H :    0.112408
  17 H :    0.117521
  18 H :    0.119215
  19 H :    0.116795
  20 H :    0.122847
  21 H :    0.236140
Sum of atomic charges:    0.0000000

LOEWDIN ATOMIC CHARGES
----------------------
   0 C :   -0.320853
   1 C :   -0.254904
   2 C :   -0.330317
   3 O :    0.011106
   4 C :   -0.196225
   5 C :   -0.194610
   6 C :   -0.266337
   7 C :   -0.245462
   8 N :    0.016514
   9 H :    0.125815
  10 H :    0.122201
  11 H :    0.115740
  12 H :    0.147864
  13 H :    0.141459
  14 H :    0.174712
  15 H :    0.139245
  16 H :    0.124694
  17 H :    0.134950
  18 H :    0.134037
  19 H :    0.125351
  20 H :    0.123233
  21 H :    0.171789

  Mayer bond orders larger than 0.1
B(  0-C ,  1-C ) :   0.9004 B(  0-C ,  9-H ) :   0.9401 B(  0-C , 10-H ) :   0.9376
B(  0-C , 11-H ) :   0.9395 B(  1-C ,  2-C ) :   0.9238 B(  1-C , 12-H ) :   0.9206
B(  1-C , 13-H ) :   0.9351 B(  2-C ,  3-O ) :   0.9705 B(  2-C ,  4-C ) :   0.9105
B(  2-C ,  6-C ) :   0.8507 B(  3-O , 14-H ) :   0.8393 B(  4-C ,  5-C ) :   0.9852
B(  4-C , 15-H ) :   0.9073 B(  4-C , 16-H ) :   0.9239 B(  5-C ,  6-C ) :   0.8853
B(  5-C , 17-H ) :   0.9085 B(  5-C , 18-H ) :   0.9210 B(  6-C ,  7-C ) :   0.9229
B(  6-C ,  8-N ) :   0.9348 B(  7-C ,  8-N ) :   0.9562 B(  7-C , 19-H ) :   0.9171
B(  7-C , 20-H ) :   0.9098 B(  8-N , 21-H ) :   0.8674

MP2 TOTAL ENERGY:     -403.627543186 Eh
FINAL SINGLE POINT ENERGY      -403.627543186407

DIPOLE MOMENT
-------------
                                X             Y             Z
Electronic contribution:     -3.97694      -3.97481       2.25862
Nuclear contribution   :      4.70534       4.89806      -2.43970
                        -----------------------------------------
Total Dipole Moment    :      0.72840       0.92325      -0.18109
                        -----------------------------------------
Magnitude (a.u.)       :      1.18985
Magnitude (Debye)      :      3.02437

                             ****ORCA TERMINATED NORMALLY****
TOTAL RUN TIME: 0 days 0 hours 19 minutes 17 seconds 56 msec
