                         Program Version 3.0.3 - RELEASE   -
|  1> ! RI-MP2 RIJK def2-TZVP def2-TZVP/C def2-TZVP/JK TIGHTSCF
|  2> % maxcore 2000
|  3> % mp2 density relaxed end
|  4> *xyz 0 1
|  5>  O        0.0221895260    -0.0303924326     0.1411923058
|  6>  C       -0.0084071507     1.1736002388     0.0232282810
|  7>  C       -1.3181005196     1.9478461966    -0.0570281346
|  8>  C       -1.2111779607     3.1897817055    -0.9472468089
|  9>  C       -0.0734816994     4.0979114460    -0.4681222870
| 10>  C        1.1898394273     3.3340184208    -0.2079687640
| 11>  C        1.2462516875     1.9995043755    -0.0060153878
| 12>  C        2.4821357339     1.3242570933     0.2042649782
| 13>  C        3.5256626665     0.7521477955     0.3834837096
| 14>  H       -2.0949677647     1.2563815503    -0.3920300340
| 15>  H       -1.5770186087     2.2485637287     0.9690970241
| 16>  H       -1.0094783423     2.8791043834    -1.9796012168
| 17>  H       -2.1591547673     3.7364466514    -0.9592077586
| 18>  H        0.1261001067     4.8931517028    -1.1959793790
| 19>  H       -0.3669366102     4.6190086168     0.4574829788
| 20>  H        2.1171384018     3.9008121653    -0.1805311652
| 21>  H        4.4406698742     0.2372182218     0.5416398285
| 22> *
| 23>
| 24>                          ****END OF INPUT****

CARTESIAN COORDINATES (ANGSTROEM)
---------------------------------
  O      0.022190   -0.030392    0.141192
  C     -0.008407    1.173600    0.023228
  C     -1.318101    1.947846   -0.057028
  C     -1.211178    3.189782   -0.947247
  C     -0.073482    4.097911   -0.468122
  C      1.189839    3.334018   -0.207969
  C      1.246252    1.999504   -0.006015
  C      2.482136    1.324257    0.204265
  C      3.525663    0.752148    0.383484
  H     -2.094968    1.256382   -0.392030
  H     -1.577019    2.248564    0.969097
  H     -1.009478    2.879104   -1.979601
  H     -2.159155    3.736447   -0.959208
  H      0.126100    4.893152   -1.195979
  H     -0.366937    4.619009    0.457483
  H      2.117138    3.900812   -0.180531
  H      4.440670    0.237218    0.541640

 Total Charge           Charge          ....    0
 Multiplicity           Mult            ....    1
 Number of Electrons    NEL             ....   64
 Basis Dimension        Dim             ....  327

ORBITAL ENERGIES
----------------

  NO   OCC          E(Eh)            E(eV)
   0   2.0000     -20.542638      -558.9936
   1   2.0000     -11.333540      -308.4013
   2   2.0000     -11.277964      -306.8890
   3   2.0000     -11.267087      -306.5930
   4   2.0000     -11.255299      -306.2722
   5   2.0000     -11.247231      -306.0527
   6   2.0000     -11.242767      -305.9312
   7   2.0000     -11.234808      -305.7147
   8   2.0000     -11.225183      -305.4528
   9   2.0000      -1.387024       -37.7428
  10   2.0000      -1.150543       -31.3079
  11   2.0000      -1.072066       -29.1724
  12   2.0000      -1.014283       -27.6000
  13   2.0000      -0.988666       -26.9030
  14   2.0000      -0.870641       -23.6913
  15   2.0000      -0.830608       -22.6020
  16   2.0000      -0.765742       -20.8369
  17   2.0000      -0.699614       -19.0375
  18   2.0000      -0.687412       -18.7054
  19   2.0000      -0.651844       -17.7376
  20   2.0000      -0.641570       -17.4580
  21   2.0000      -0.600642       -16.3443
  22   2.0000      -0.599108       -16.3025
  23   2.0000      -0.589410       -16.0387
  24   2.0000      -0.550651       -14.9840
  25   2.0000      -0.524382       -14.2692
  26   2.0000      -0.494573       -13.4580
  27   2.0000      -0.490143       -13.3375
  28   2.0000      -0.450111       -12.2481
  29   2.0000      -0.415119       -11.2960
  30   2.0000      -0.391571       -10.6552
  31   2.0000      -0.342549        -9.3212
  32   0.0000       0.077005         2.0954
  33   0.0000       0.119777         3.2593
  34   0.0000       0.151311         4.1174
  35   0.0000       0.160889         4.3780
  36   0.0000       0.168541         4.5862

MULLIKEN ATOMIC CHARGES
-----------------------
   0 O :   -0.264516
   1 C :    0.147144
   2 C :   -0.214255
   3 C :   -0.247056
   4 C :   -0.182555
   5 C :   -0.170113
   6 C :   -0.191417
   7 C :    0.089403
   8 C :   -0.120024
   9 H :    0.146108
  10 H :    0.132085
  11 H :    0.129778
  12 H :    0.133013
  13 H :    0.139144
  14 H :    0.133102
  15 H :    0.146511
  16 H :    0.193646
Sum of atomic charges:    0.0000000

LOEWDIN ATOMIC CHARGES
----------------------
   0 O :    0.169000
   1 C :   -0.283102
   2 C :   -0.221185
   3 C :   -0.252482
   4 C :   -0.250344
   5 C :   -0.068707
   6 C :   -0.138111
   7 C :   -0.063402
   8 C :   -0.066436
   9 H :    0.150003
  10 H :    0.156520
  11 H :    0.144716
  12 H :    0.139171
  13 H :    0.148424
  14 H :    0.153699
  15 H :    0.153916
  16 H :    0.128320

  Mayer bond orders larger than 0.1
B(  0-O ,  1-C ) :   2.0412 B(  0-O ,  6-C ) :  -0.1159 B(  1-C ,  2-C ) :   0.9560
B(  1-C ,  6-C ) :   0.9406 B(  2-C ,  3-C ) :   0.8924 B(  2-C ,  9-H ) :   0.9234
B(  2-C , 10-H ) :   0.9061 B(  3-C ,  4-C ) :   0.9322 B(  3-C , 11-H ) :   0.9325
B(  3-C , 12-H ) :   0.9330 B(  4-C ,  5-C ) :   0.9422 B(  4-C , 13-H ) :   0.9277
B(  4-C , 14-H ) :   0.9013 B(  5-C ,  6-C ) :   1.6352 B(  5-C , 15-H ) :   0.9274
B(  6-C ,  7-C ) :   1.1013 B(  6-C ,  8-C ) :  -0.1403 B(  7-C ,  8-C ) :   2.5758
B(  8-C , 16-H ) :   0.8831

MP2 TOTAL ENERGY:     -384.003690809 Eh
FINAL SINGLE POINT ENERGY      -384.003690808753

DIPOLE MOMENT
-------------
                                X             Y             Z
Electronic contribution:      4.64226      -6.02384       1.55583
Nuclear contribution   :     -4.86496       7.43566      -1.72782
                        -----------------------------------------
Total Dipole Moment    :     -0.22270       1.41182      -0.17199
                        -----------------------------------------
Magnitude (a.u.)       :      1.43959
Magnitude (Debye)      :      3.65915

                             ****ORCA TERMINATED NORMALLY****
TOTAL RUN TIME: 0 days 0 hours 19 minutes 10 seconds 915 msec
