                         Program Version 3.0.3 - RELEASE   -
|  1> ! RI-MP2 RIJK def2-TZVP def2-TZVP/C def2-TZVP/JK TIGHTSCF
|  2> % maxcore 2000
|  3> % mp2 density relaxed end
|  4> *xyz 0 1
|  5>  C       -0.1149959549     1.5390592905     0.0009390967
|  6>  C        0.0782189172     0.0281168355     0.0206769418
|  7>  C        1.1388712437    -0.5938047533    -0.9581005642
|  8>  C        2.4265033664    -0.0585018468    -0.3025930047
|  9>  C        2.2295673857    -0.0660103718     1.0149384434
| 10>  C        0.8077481706    -0.6071942384     1.2592068283
| 11>  C        0.7950247491    -2.0748667990     0.7888503817
| 12>  C        0.9914048151    -2.0668738933    -0.5295405171
| 13>  H        0.8232178774     2.0795147149     0.1443693591
| 14>  H       -0.5495569427     1.8552100245    -0.9541640412
| 15>  H       -0.8102787529     1.8446606108     0.7910045860
| 16>  H       -0.8916749167    -0.4574691424    -0.1270972490
| 17>  H        1.0223847235    -0.3903692680    -2.0230719870
| 18>  H        3.3211445344     0.2151205978    -0.8454732951
| 19>  H        2.9259251173     0.1999291117     1.7987323190
| 20>  H        0.3847651233    -0.4162758871     2.2459966854
| 21>  H        0.6851564940    -2.9263407756     1.4468497288
| 22>  H        1.0796917794    -2.9102680999    -1.2010564520
| 23> *
| 24>
| 25>                          ****END OF INPUT****

CARTESIAN COORDINATES (ANGSTROEM)
---------------------------------
  C     -0.114996    1.539059    0.000939
  C      0.078219    0.028117    0.020677
  C      1.138871   -0.593805   -0.958101
  C      2.426503   -0.058502   -0.302593
  C      2.229567   -0.066010    1.014938
  C      0.807748   -0.607194    1.259207
  C      0.795025   -2.074867    0.788850
  C      0.991405   -2.066874   -0.529541
  H      0.823218    2.079515    0.144369
  H     -0.549557    1.855210   -0.954164
  H     -0.810279    1.844661    0.791005
  H     -0.891675   -0.457469   -0.127097
  H      1.022385   -0.390369   -2.023072
  H      3.321145    0.215121   -0.845473
  H      2.925925    0.199929    1.798732
  H      0.384765   -0.416276    2.245997
  H      0.685156   -2.926341    1.446850
  H      1.079692   -2.910268   -1.201056

 Total Charge           Charge          ....    0
 Multiplicity           Mult            ....    1
 Number of Electrons    NEL             ....   58
 Basis Dimension        Dim             ....  308

ORBITAL ENERGIES
----------------

  NO   OCC          E(Eh)            E(eV)
   0   2.0000     -11.234103      -305.6955
   1   2.0000     -11.234078      -305.6948
   2   2.0000     -11.230768      -305.6047
   3   2.0000     -11.219316      -305.2931
   4   2.0000     -11.218886      -305.2814
   5   2.0000     -11.217573      -305.2457
   6   2.0000     -11.217135      -305.2338
   7   2.0000     -11.205978      -304.9302
   8   2.0000      -1.183204       -32.1966
   9   2.0000      -1.015556       -27.6347
  10   2.0000      -0.999300       -27.1923
  11   2.0000      -0.955575       -26.0025
  12   2.0000      -0.878026       -23.8923
  13   2.0000      -0.758960       -20.6524
  14   2.0000      -0.750054       -20.4100
  15   2.0000      -0.697074       -18.9683
  16   2.0000      -0.688493       -18.7348
  17   2.0000      -0.639958       -17.4141
  18   2.0000      -0.586517       -15.9599
  19   2.0000      -0.557482       -15.1699
  20   2.0000      -0.554265       -15.0823
  21   2.0000      -0.519302       -14.1309
  22   2.0000      -0.511026       -13.9057
  23   2.0000      -0.496199       -13.5022
  24   2.0000      -0.468589       -12.7510
  25   2.0000      -0.459028       -12.4908
  26   2.0000      -0.434728       -11.8296
  27   2.0000      -0.358911        -9.7665
  28   2.0000      -0.318839        -8.6761
  29   0.0000       0.125236         3.4078
  30   0.0000       0.143477         3.9042
  31   0.0000       0.173313         4.7161
  32   0.0000       0.173322         4.7163
  33   0.0000       0.179187         4.8759

MULLIKEN ATOMIC CHARGES
-----------------------
   0 C :   -0.427474
   1 C :   -0.032898
   2 C :    0.014503
   3 C :   -0.215536
   4 C :   -0.215710
   5 C :    0.014550
   6 C :   -0.208806
   7 C :   -0.208899
   8 H :    0.144938
   9 H :    0.129113
  10 H :    0.129111
  11 H :    0.109581
  12 H :    0.127010
  13 H :    0.127259
  14 H :    0.127256
  15 H :    0.127009
  16 H :    0.129496
  17 H :    0.129498
Sum of atomic charges:   -0.0000000

LOEWDIN ATOMIC CHARGES
----------------------
   0 C :   -0.293198
   1 C :   -0.198172
   2 C :   -0.168545
   3 C :   -0.130148
   4 C :   -0.130184
   5 C :   -0.168547
   6 C :   -0.130052
   7 C :   -0.130085
   8 H :    0.127037
   9 H :    0.125137
  10 H :    0.125135
  11 H :    0.153841
  12 H :    0.141817
  13 H :    0.133571
  14 H :    0.133571
  15 H :    0.141817
  16 H :    0.133502
  17 H :    0.133502

  Mayer bond orders larger than 0.1
B(  0-C ,  1-C ) :   0.9064 B(  0-C ,  8-H ) :   0.9355 B(  0-C ,  9-H ) :   0.9361
B(  0-C , 10-H ) :   0.9361 B(  1-C ,  2-C ) :   0.8973 B(  1-C ,  5-C ) :   0.8973
B(  1-C , 11-H ) :   0.9249 B(  2-C ,  3-C ) :   0.8995 B(  2-C ,  7-C ) :   0.9251
B(  2-C , 12-H ) :   0.9152 B(  3-C ,  4-C ) :   1.7874 B(  3-C , 13-H ) :   0.9326
B(  4-C ,  5-C ) :   0.8994 B(  4-C , 14-H ) :   0.9326 B(  5-C ,  6-C ) :   0.9251
B(  5-C , 15-H ) :   0.9152 B(  6-C ,  7-C ) :   1.7923 B(  6-C , 16-H ) :   0.9285
B(  7-C , 17-H ) :   0.9285

MP2 TOTAL ENERGY:     -310.080174473 Eh
FINAL SINGLE POINT ENERGY      -310.080174473221

DIPOLE MOMENT
-------------
                                X             Y             Z
Electronic contribution:      2.02195      -3.31686       0.28194
Nuclear contribution   :     -2.08001       3.36992      -0.29029
                        -----------------------------------------
Total Dipole Moment    :     -0.05806       0.05306      -0.00836
                        -----------------------------------------
Magnitude (a.u.)       :      0.07909
Magnitude (Debye)      :      0.20104

                             ****ORCA TERMINATED NORMALLY****
TOTAL RUN TIME: 0 days 0 hours 13 minutes 23 seconds 429 msec
