                         Program Version 3.0.3 - RELEASE   -
|  1> ! RI-MP2 RIJK def2-TZVP def2-TZVP/C def2-TZVP/JK TIGHTSCF
|  2> % maxcore 2000
|  3> % mp2 density relaxed end
|  4> *xyz 0 1
|  5>  C       -0.0080721305     1.5724594023    -0.1561011281
|  6>  C        0.0166689848     0.0702693128     0.0211587500
|  7>  O       -1.1670594153    -0.5590021172    -0.4105565822
|  8>  C        1.2999385719    -0.7113942431    -0.1338826766
|  9>  C        0.6193444813    -0.6059968430     1.2197099398
| 10>  C        1.2620027006     0.1356183017     2.3603982109
| 11>  O        2.1850077111    -0.7479232838     2.9865325555
| 12>  H        0.9107477844     2.0458495341     0.1987406710
| 13>  H       -0.1158136314     1.8259019993    -1.2183462017
| 14>  H       -0.8566482561     2.0103074125     0.3794904520
| 15>  H       -1.2169336856    -0.4599931001    -1.3682119802
| 16>  H        1.2487765083    -1.6645268736    -0.6477709882
| 17>  H        2.2254154330    -0.1616886448    -0.2765697673
| 18>  H        0.0790867568    -1.4953030008     1.5296331099
| 19>  H        1.7732263668     1.0387746450     1.9926491956
| 20>  H        0.4892612557     0.4658540314     3.0733869658
| 21>  H        2.5382231041    -0.3053879926     3.7640892539
| 22> *
| 23>
| 24>                          ****END OF INPUT****

CARTESIAN COORDINATES (ANGSTROEM)
---------------------------------
  C     -0.008072    1.572459   -0.156101
  C      0.016669    0.070269    0.021159
  O     -1.167059   -0.559002   -0.410557
  C      1.299939   -0.711394   -0.133883
  C      0.619344   -0.605997    1.219710
  C      1.262003    0.135618    2.360398
  O      2.185008   -0.747923    2.986533
  H      0.910748    2.045850    0.198741
  H     -0.115814    1.825902   -1.218346
  H     -0.856648    2.010307    0.379490
  H     -1.216934   -0.459993   -1.368212
  H      1.248777   -1.664527   -0.647771
  H      2.225415   -0.161689   -0.276570
  H      0.079087   -1.495303    1.529633
  H      1.773226    1.038775    1.992649
  H      0.489261    0.465854    3.073387
  H      2.538223   -0.305388    3.764089

 Total Charge           Charge          ....    0
 Multiplicity           Mult            ....    1
 Number of Electrons    NEL             ....   56
 Basis Dimension        Dim             ....  277

ORBITAL ENERGIES
----------------

  NO   OCC          E(Eh)            E(eV)
   0   2.0000     -20.557867      -559.4080
   1   2.0000     -20.553605      -559.2920
   2   2.0000     -11.287618      -307.1517
   3   2.0000     -11.278257      -306.8970
   4   2.0000     -11.224027      -305.4213
   5   2.0000     -11.223694      -305.4122
   6   2.0000     -11.219038      -305.2855
   7   2.0000      -1.369083       -37.2546
   8   2.0000      -1.356955       -36.9246
   9   2.0000      -1.134708       -30.8770
  10   2.0000      -0.977924       -26.6107
  11   2.0000      -0.939377       -25.5617
  12   2.0000      -0.811341       -22.0777
  13   2.0000      -0.755341       -20.5539
  14   2.0000      -0.699508       -19.0346
  15   2.0000      -0.681565       -18.5463
  16   2.0000      -0.645044       -17.5525
  17   2.0000      -0.632059       -17.1992
  18   2.0000      -0.601385       -16.3645
  19   2.0000      -0.572675       -15.5833
  20   2.0000      -0.558991       -15.2109
  21   2.0000      -0.546266       -14.8646
  22   2.0000      -0.524490       -14.2721
  23   2.0000      -0.492134       -13.3917
  24   2.0000      -0.487052       -13.2534
  25   2.0000      -0.449141       -12.2217
  26   2.0000      -0.404213       -10.9992
  27   2.0000      -0.389842       -10.6081
  28   0.0000       0.129543         3.5250
  29   0.0000       0.144493         3.9319
  30   0.0000       0.170287         4.6338
  31   0.0000       0.181526         4.9396
  32   0.0000       0.188950         5.1416

MULLIKEN ATOMIC CHARGES
-----------------------
   0 C :   -0.398970
   1 C :    0.183595
   2 O :   -0.463506
   3 C :   -0.319778
   4 C :   -0.040002
   5 C :   -0.082235
   6 O :   -0.458273
   7 H :    0.118947
   8 H :    0.119198
   9 H :    0.141694
  10 H :    0.316355
  11 H :    0.136740
  12 H :    0.120152
  13 H :    0.126383
  14 H :    0.082960
  15 H :    0.104566
  16 H :    0.312174
Sum of atomic charges:    0.0000000

LOEWDIN ATOMIC CHARGES
----------------------
   0 C :   -0.277118
   1 C :   -0.371439
   2 O :    0.016581
   3 C :   -0.194348
   4 C :   -0.193667
   5 C :   -0.330276
   6 O :   -0.047878
   7 H :    0.125909
   8 H :    0.125090
   9 H :    0.129782
  10 H :    0.178758
  11 H :    0.135845
  12 H :    0.135748
  13 H :    0.159780
  14 H :    0.116321
  15 H :    0.120399
  16 H :    0.170512

  Mayer bond orders larger than 0.1
B(  0-C ,  1-C ) :   0.9376 B(  0-C ,  7-H ) :   0.9295 B(  0-C ,  8-H ) :   0.9233
B(  0-C ,  9-H ) :   0.9378 B(  1-C ,  2-O ) :   0.9790 B(  1-C ,  3-C ) :   0.9064
B(  1-C ,  4-C ) :   0.8368 B(  2-O , 10-H ) :   0.8422 B(  3-C ,  4-C ) :   0.8874
B(  3-C , 11-H ) :   0.9212 B(  3-C , 12-H ) :   0.9117 B(  4-C ,  5-C ) :   0.9285
B(  4-C , 13-H ) :   0.9234 B(  5-C ,  6-O ) :   1.0376 B(  5-C , 14-H ) :   0.9152
B(  5-C , 15-H ) :   0.9391 B(  6-O , 16-H ) :   0.8493

MP2 TOTAL ENERGY:     -346.274907158 Eh
FINAL SINGLE POINT ENERGY      -346.274907157853

DIPOLE MOMENT
-------------
                                X             Y             Z
Electronic contribution:     -0.73861      -3.33727       0.98486
Nuclear contribution   :      0.96452       4.18654      -1.14643
                        -----------------------------------------
Total Dipole Moment    :      0.22591       0.84927      -0.16158
                        -----------------------------------------
Magnitude (a.u.)       :      0.89353
Magnitude (Debye)      :      2.27118

                             ****ORCA TERMINATED NORMALLY****
TOTAL RUN TIME: 0 days 0 hours 7 minutes 45 seconds 477 msec
