                         Program Version 3.0.3 - RELEASE   -
|  1> ! RI-MP2 RIJK def2-TZVP def2-TZVP/C def2-TZVP/JK TIGHTSCF
|  2> % maxcore 2000
|  3> % mp2 density relaxed end
|  4> *xyz 0 1
|  5>  O       -0.1216454676     1.3624010305     0.0054074944
|  6>  C        0.0504876769     0.0253463128     0.0040597309
|  7>  C        1.1356952372    -0.7919559712     0.0095354103
|  8>  N        0.6856931463    -2.1256367255     0.0721208591
|  9>  C       -0.6813196390    -2.1032039175     0.0326660701
| 10>  N       -1.6968929510    -2.9330077841     0.0111184628
| 11>  N       -2.8188711481    -2.1181645995    -0.0065237785
| 12>  C       -2.4536293617    -0.8587302101     0.0004849913
| 13>  N       -1.0758808274    -0.7856198585     0.0238420161
| 14>  H        0.7376566133     1.7955603430    -0.0251524592
| 15>  H        2.1834210777    -0.5462019178     0.0247792859
| 16>  H        1.2397036152    -2.9329499647    -0.1507617374
| 17>  H       -3.1029977518    -0.0005666074    -0.0010598157
| 18> *
| 19>
| 20>                          ****END OF INPUT****

CARTESIAN COORDINATES (ANGSTROEM)
---------------------------------
  O     -0.121645    1.362401    0.005407
  C      0.050488    0.025346    0.004060
  C      1.135695   -0.791956    0.009535
  N      0.685693   -2.125637    0.072121
  C     -0.681320   -2.103204    0.032666
  N     -1.696893   -2.933008    0.011118
  N     -2.818871   -2.118165   -0.006524
  C     -2.453629   -0.858730    0.000485
  N     -1.075881   -0.785620    0.023842
  H      0.737657    1.795560   -0.025152
  H      2.183421   -0.546202    0.024779
  H      1.239704   -2.932950   -0.150762
  H     -3.102998   -0.000567   -0.001060

 Total Charge           Charge          ....    0
 Multiplicity           Mult            ....    1
 Number of Electrons    NEL             ....   64
 Basis Dimension        Dim             ....  303

ORBITAL ENERGIES
----------------

  NO   OCC          E(Eh)            E(eV)
   0   2.0000     -20.633239      -561.4590
   1   2.0000     -15.641100      -425.6160
   2   2.0000     -15.621808      -425.0910
   3   2.0000     -15.581715      -424.0000
   4   2.0000     -15.560824      -423.4315
   5   2.0000     -11.367656      -309.3296
   6   2.0000     -11.340479      -308.5901
   7   2.0000     -11.298580      -307.4500
   8   2.0000     -11.289456      -307.2017
   9   2.0000      -1.461330       -39.7648
  10   2.0000      -1.411133       -38.3989
  11   2.0000      -1.301033       -35.4029
  12   2.0000      -1.219260       -33.1778
  13   2.0000      -1.073841       -29.2207
  14   2.0000      -1.034095       -28.1392
  15   2.0000      -0.889273       -24.1983
  16   2.0000      -0.873979       -23.7822
  17   2.0000      -0.811841       -22.0913
  18   2.0000      -0.755965       -20.5708
  19   2.0000      -0.728581       -19.8257
  20   2.0000      -0.689460       -18.7611
  21   2.0000      -0.680852       -18.5269
  22   2.0000      -0.650869       -17.7110
  23   2.0000      -0.615828       -16.7575
  24   2.0000      -0.610568       -16.6144
  25   2.0000      -0.600270       -16.3342
  26   2.0000      -0.533616       -14.5204
  27   2.0000      -0.475710       -12.9447
  28   2.0000      -0.459380       -12.5004
  29   2.0000      -0.424716       -11.5571
  30   2.0000      -0.350978        -9.5506
  31   2.0000      -0.307076        -8.3560
  32   0.0000       0.107518         2.9257
  33   0.0000       0.127634         3.4731
  34   0.0000       0.145355         3.9553
  35   0.0000       0.164902         4.4872
  36   0.0000       0.183386         4.9902

MULLIKEN ATOMIC CHARGES
-----------------------
   0 O :   -0.420251
   1 C :    0.176999
   2 C :   -0.124683
   3 N :   -0.320777
   4 C :    0.195610
   5 N :   -0.176351
   6 N :   -0.180821
   7 C :   -0.037023
   8 N :   -0.054489
   9 H :    0.345806
  10 H :    0.166152
  11 H :    0.266724
  12 H :    0.163104
Sum of atomic charges:    0.0000000

LOEWDIN ATOMIC CHARGES
----------------------
   0 O :    0.086714
   1 C :   -0.346720
   2 C :   -0.226535
   3 N :    0.157929
   4 C :   -0.373544
   5 N :    0.004001
   6 N :    0.025517
   7 C :   -0.309646
   8 N :    0.302711
   9 H :    0.205433
  10 H :    0.139262
  11 H :    0.198243
  12 H :    0.136636

  Mayer bond orders larger than 0.1
B(  0-O ,  1-C ) :   1.1246 B(  0-O ,  9-H ) :   0.8235 B(  1-C ,  2-C ) :   1.5901
B(  1-C ,  8-N ) :   1.0442 B(  2-C ,  3-N ) :   1.0127 B(  2-C , 10-H ) :   0.9085
B(  3-N ,  4-C ) :   1.1179 B(  3-N , 11-H ) :   0.8611 B(  4-C ,  5-N ) :   1.6921
B(  4-C ,  8-N ) :   1.0674 B(  5-N ,  6-N ) :   1.0453 B(  6-N ,  7-C ) :   1.5958
B(  7-C ,  8-N ) :   1.0795 B(  7-C , 12-H ) :   0.9234

MP2 TOTAL ENERGY:     -448.194432471 Eh
FINAL SINGLE POINT ENERGY      -448.194432470956

DIPOLE MOMENT
-------------
                                X             Y             Z
Electronic contribution:     -1.34831      -0.99420       0.06735
Nuclear contribution   :      3.80349       2.55560      -0.20026
                        -----------------------------------------
Total Dipole Moment    :      2.45518       1.56140      -0.13291
                        -----------------------------------------
Magnitude (a.u.)       :      2.91265
Magnitude (Debye)      :      7.40337

                             ****ORCA TERMINATED NORMALLY****
TOTAL RUN TIME: 0 days 0 hours 14 minutes 55 seconds 159 msec
