                         Program Version 3.0.3 - RELEASE   -
|  1> ! RI-MP2 RIJK def2-TZVP def2-TZVP/C def2-TZVP/JK TIGHTSCF
|  2> % maxcore 2000
|  3> % mp2 density relaxed end
|  4> *xyz 0 1
|  5>  N       -0.0540525025     1.3317848670     0.0876320415
|  6>  C       -0.0520717023     0.0628371364     0.0004254110
|  7>  N        1.0490500447    -0.8197061502    -0.1416291134
|  8>  C        0.7026094415    -2.2497935781    -0.0209041019
|  9>  C       -0.7771256282    -2.1171247284     0.0069529206
| 10>  C       -1.2079555760    -0.8420557304     0.0103393379
| 11>  N       -2.5950932630    -0.8201839604     0.0058942730
| 12>  C       -2.9030216513    -2.0758040605    -0.0026780847
| 13>  O       -1.8364496733    -2.9527014246    -0.0077435876
| 14>  H        0.8948907526     1.7087411430     0.0553031103
| 15>  H        1.9343027786    -0.5189367158     0.2353176018
| 16>  H        1.0752488966    -2.8294263908    -0.8756699466
| 17>  H        1.1116074004    -2.7027372875     0.8935483825
| 18>  H       -3.8811738777    -2.5298422796    -0.0027429043
| 19> *
| 20>
| 21>                          ****END OF INPUT****

CARTESIAN COORDINATES (ANGSTROEM)
---------------------------------
  N     -0.054053    1.331785    0.087632
  C     -0.052072    0.062837    0.000425
  N      1.049050   -0.819706   -0.141629
  C      0.702609   -2.249794   -0.020904
  C     -0.777126   -2.117125    0.006953
  C     -1.207956   -0.842056    0.010339
  N     -2.595093   -0.820184    0.005894
  C     -2.903022   -2.075804   -0.002678
  O     -1.836450   -2.952701   -0.007744
  H      0.894891    1.708741    0.055303
  H      1.934303   -0.518937    0.235318
  H      1.075249   -2.829426   -0.875670
  H      1.111607   -2.702737    0.893548
  H     -3.881174   -2.529842   -0.002743

 Total Charge           Charge          ....    0
 Multiplicity           Mult            ....    1
 Number of Electrons    NEL             ....   64
 Basis Dimension        Dim             ....  309

ORBITAL ENERGIES
----------------

  NO   OCC          E(Eh)            E(eV)
   0   2.0000     -20.660300      -562.1953
   1   2.0000     -15.587718      -424.1634
   2   2.0000     -15.586065      -424.1184
   3   2.0000     -15.526497      -422.4975
   4   2.0000     -11.350466      -308.8619
   5   2.0000     -11.327390      -308.2339
   6   2.0000     -11.311826      -307.8104
   7   2.0000     -11.305728      -307.6445
   8   2.0000     -11.264721      -306.5286
   9   2.0000      -1.503645       -40.9163
  10   2.0000      -1.292854       -35.1804
  11   2.0000      -1.247509       -33.9464
  12   2.0000      -1.170826       -31.8598
  13   2.0000      -1.062948       -28.9243
  14   2.0000      -0.969839       -26.3907
  15   2.0000      -0.893412       -24.3110
  16   2.0000      -0.816734       -22.2245
  17   2.0000      -0.791577       -21.5399
  18   2.0000      -0.706902       -19.2358
  19   2.0000      -0.702504       -19.1161
  20   2.0000      -0.688263       -18.7286
  21   2.0000      -0.649275       -17.6677
  22   2.0000      -0.635754       -17.2997
  23   2.0000      -0.618056       -16.8182
  24   2.0000      -0.594895       -16.1879
  25   2.0000      -0.556339       -15.1387
  26   2.0000      -0.524212       -14.2645
  27   2.0000      -0.472887       -12.8679
  28   2.0000      -0.462432       -12.5834
  29   2.0000      -0.425594       -11.5810
  30   2.0000      -0.382212       -10.4005
  31   2.0000      -0.338310        -9.2059
  32   0.0000       0.119393         3.2488
  33   0.0000       0.124652         3.3919
  34   0.0000       0.142974         3.8905
  35   0.0000       0.151530         4.1233
  36   0.0000       0.171132         4.6567

MULLIKEN ATOMIC CHARGES
-----------------------
   0 N :   -0.350316
   1 C :   -0.067601
   2 N :   -0.316399
   3 C :   -0.086370
   4 C :    0.089672
   5 C :    0.201204
   6 N :   -0.247783
   7 C :    0.111736
   8 O :   -0.216860
   9 H :    0.203678
  10 H :    0.232787
  11 H :    0.141707
  12 H :    0.141648
  13 H :    0.162896
Sum of atomic charges:    0.0000000

LOEWDIN ATOMIC CHARGES
----------------------
   0 N :   -0.062703
   1 C :   -0.339907
   2 N :    0.078329
   3 C :   -0.223963
   4 C :   -0.230502
   5 C :   -0.184984
   6 N :    0.148831
   7 C :   -0.282821
   8 O :    0.346421
   9 H :    0.158284
  10 H :    0.175134
  11 H :    0.142025
  12 H :    0.140848
  13 H :    0.135008

  Mayer bond orders larger than 0.1
B(  0-N ,  1-C ) :   2.1258 B(  0-N ,  5-C ) :  -0.1344 B(  0-N ,  9-H ) :   0.8502
B(  1-C ,  2-N ) :   1.1234 B(  1-C ,  5-C ) :   0.8974 B(  2-N ,  3-C ) :   0.9303
B(  2-N ,  5-C ) :  -0.1085 B(  2-N , 10-H ) :   0.8703 B(  3-C ,  4-C ) :   0.9720
B(  3-C , 11-H ) :   0.9071 B(  3-C , 12-H ) :   0.9060 B(  4-C ,  5-C ) :   1.4962
B(  4-C ,  8-O ) :   1.0639 B(  5-C ,  6-N ) :   1.2041 B(  6-N ,  7-C ) :   1.6547
B(  7-C ,  8-O ) :   1.0379 B(  7-C , 13-H ) :   0.9276

MP2 TOTAL ENERGY:     -432.163816703 Eh
FINAL SINGLE POINT ENERGY      -432.163816703328

DIPOLE MOMENT
-------------
                                X             Y             Z
Electronic contribution:     -3.78534      -0.61971      -0.12176
Nuclear contribution   :      4.92369      -0.92243       0.30795
                        -----------------------------------------
Total Dipole Moment    :      1.13835      -1.54214       0.18619
                        -----------------------------------------
Magnitude (a.u.)       :      1.92580
Magnitude (Debye)      :      4.89499

                             ****ORCA TERMINATED NORMALLY****
TOTAL RUN TIME: 0 days 0 hours 14 minutes 10 seconds 976 msec
