                         Program Version 3.0.3 - RELEASE   -
|  1> ! RI-MP2 RIJK def2-TZVP def2-TZVP/C def2-TZVP/JK TIGHTSCF
|  2> % maxcore 2000
|  3> % mp2 density relaxed end
|  4> *xyz 0 1
|  5>  N        0.0391699321    -0.4905012934     1.6517995286
|  6>  C        0.0683064358     0.3368632432     0.8470061117
|  7>  C        0.0887835114     1.3873451127    -0.1807187247
|  8>  C        1.4065945750     1.9926769552    -0.3555953252
|  9>  C        2.4934244071     2.4861708192    -0.5017892426
| 10>  C        3.8050339837     3.1072293920    -0.6693214038
| 11>  C        3.8814977814     4.5140317205    -0.0932379710
| 12>  C        4.1767644929     4.7172284658     1.3684366512
| 13>  C        5.2137314440     5.0750635455     0.3305475029
| 14>  H       -0.2648491224     0.9479766566    -1.1225848788
| 15>  H       -0.6522901236     2.1482535428     0.0969174371
| 16>  H        4.5640286559     2.4766090530    -0.1878319623
| 17>  H        4.0629411789     3.1275090261    -1.7366719871
| 18>  H        3.1827028020     5.2116792186    -0.5451038970
| 19>  H        3.6694004390     5.5204869688     1.8905345472
| 20>  H        4.3508523962     3.8353471650     1.9762865172
| 21>  H        6.0856455556     4.4345438297     0.2436987456
| 22>  H        5.4150722949     6.1230702790     0.1391010911
| 23> *
| 24>
| 25>                          ****END OF INPUT****

CARTESIAN COORDINATES (ANGSTROEM)
---------------------------------
  N      0.039170   -0.490501    1.651800
  C      0.068306    0.336863    0.847006
  C      0.088784    1.387345   -0.180719
  C      1.406595    1.992677   -0.355595
  C      2.493424    2.486171   -0.501789
  C      3.805034    3.107229   -0.669321
  C      3.881498    4.514032   -0.093238
  C      4.176764    4.717228    1.368437
  C      5.213731    5.075064    0.330548
  H     -0.264849    0.947977   -1.122585
  H     -0.652290    2.148254    0.096917
  H      4.564029    2.476609   -0.187832
  H      4.062941    3.127509   -1.736672
  H      3.182703    5.211679   -0.545104
  H      3.669400    5.520487    1.890535
  H      4.350852    3.835347    1.976287
  H      6.085646    4.434544    0.243699
  H      5.415072    6.123070    0.139101

 Total Charge           Charge          ....    0
 Multiplicity           Mult            ....    1
 Number of Electrons    NEL             ....   64
 Basis Dimension        Dim             ....  333

ORBITAL ENERGIES
----------------

  NO   OCC          E(Eh)            E(eV)
   0   2.0000     -15.573456      -423.7753
   1   2.0000     -11.313766      -307.8632
   2   2.0000     -11.279705      -306.9364
   3   2.0000     -11.263231      -306.4881
   4   2.0000     -11.245766      -306.0128
   5   2.0000     -11.245489      -306.0053
   6   2.0000     -11.240572      -305.8715
   7   2.0000     -11.233852      -305.6886
   8   2.0000     -11.231996      -305.6381
   9   2.0000      -1.223354       -33.2892
  10   2.0000      -1.159227       -31.5442
  11   2.0000      -1.102481       -30.0000
  12   2.0000      -1.043947       -28.4072
  13   2.0000      -0.958985       -26.0953
  14   2.0000      -0.831351       -22.6222
  15   2.0000      -0.802207       -21.8292
  16   2.0000      -0.733567       -19.9614
  17   2.0000      -0.695298       -18.9200
  18   2.0000      -0.675194       -18.3730
  19   2.0000      -0.651259       -17.7217
  20   2.0000      -0.638379       -17.3712
  21   2.0000      -0.629919       -17.1410
  22   2.0000      -0.588324       -16.0091
  23   2.0000      -0.560224       -15.2445
  24   2.0000      -0.523427       -14.2432
  25   2.0000      -0.521507       -14.1909
  26   2.0000      -0.470807       -12.8113
  27   2.0000      -0.467622       -12.7246
  28   2.0000      -0.432931       -11.7806
  29   2.0000      -0.424996       -11.5647
  30   2.0000      -0.392378       -10.6772
  31   2.0000      -0.387644       -10.5483
  32   0.0000       0.118550         3.2259
  33   0.0000       0.140673         3.8279
  34   0.0000       0.156191         4.2502
  35   0.0000       0.157388         4.2828
  36   0.0000       0.165404         4.5009

MULLIKEN ATOMIC CHARGES
-----------------------
   0 N :   -0.064502
   1 C :   -0.125822
   2 C :   -0.237802
   3 C :    0.006180
   4 C :    0.041511
   5 C :   -0.364054
   6 C :   -0.053463
   7 C :   -0.277042
   8 C :   -0.257130
   9 H :    0.186666
  10 H :    0.186238
  11 H :    0.154902
  12 H :    0.150252
  13 H :    0.124591
  14 H :    0.132200
  15 H :    0.135385
  16 H :    0.128336
  17 H :    0.133555
Sum of atomic charges:   -0.0000000

LOEWDIN ATOMIC CHARGES
----------------------
   0 N :    0.063580
   1 C :   -0.172836
   2 C :   -0.229406
   3 C :   -0.070841
   4 C :   -0.051857
   5 C :   -0.230052
   6 C :   -0.220869
   7 C :   -0.225316
   8 C :   -0.228588
   9 H :    0.180476
  10 H :    0.180614
  11 H :    0.163129
  12 H :    0.160348
  13 H :    0.149622
  14 H :    0.132069
  15 H :    0.135374
  16 H :    0.132775
  17 H :    0.131776

  Mayer bond orders larger than 0.1
B(  0-N ,  1-C ) :   2.8493 B(  1-C ,  2-C ) :   0.9362 B(  2-C ,  3-C ) :   0.9678
B(  2-C ,  9-H ) :   0.9229 B(  2-C , 10-H ) :   0.9196 B(  3-C ,  4-C ) :   2.6124
B(  4-C ,  5-C ) :   1.0316 B(  5-C ,  6-C ) :   0.9118 B(  5-C , 11-H ) :   0.9382
B(  5-C , 12-H ) :   0.9222 B(  6-C ,  7-C ) :   0.8970 B(  6-C ,  8-C ) :   0.8897
B(  6-C , 13-H ) :   0.9255 B(  7-C ,  8-C ) :   0.8983 B(  7-C , 14-H ) :   0.9304
B(  7-C , 15-H ) :   0.9266 B(  8-C , 16-H ) :   0.9280 B(  8-C , 17-H ) :   0.9317

MP2 TOTAL ENERGY:     -364.106761778 Eh
FINAL SINGLE POINT ENERGY      -364.106761777637

DIPOLE MOMENT
-------------
                                X             Y             Z
Electronic contribution:     -8.05979      -8.45862       0.60211
Nuclear contribution   :      8.32321       9.68943      -1.61225
                        -----------------------------------------
Total Dipole Moment    :      0.26342       1.23081      -1.01014
                        -----------------------------------------
Magnitude (a.u.)       :      1.61390
Magnitude (Debye)      :      4.10220

                             ****ORCA TERMINATED NORMALLY****
TOTAL RUN TIME: 0 days 0 hours 13 minutes 20 seconds 714 msec
