                         Program Version 3.0.3 - RELEASE   -
|  1> ! RI-MP2 RIJK def2-TZVP def2-TZVP/C def2-TZVP/JK TIGHTSCF
|  2> % maxcore 2000
|  3> % mp2 density relaxed end
|  4> *xyz 0 1
|  5>  C       -0.3461334113     1.3663792576    -0.3805946416
|  6>  O       -0.3731252086    -0.0532901998    -0.6133495174
|  7>  C        0.8037197833    -0.6211008865    -0.8609167428
|  8>  O        1.8650675775    -0.0458910078    -0.9024169930
|  9>  C        0.6851472209    -2.1055583232    -1.0974471994
| 10>  C        1.4964344858    -2.6207783878    -2.2618414111
| 11>  N        1.9266362374    -2.8824472082    -0.9033419561
| 12>  C       -0.5487957096    -2.7603576595    -0.7332694354
| 13>  N       -1.5378640427    -3.2922538729    -0.4626553243
| 14>  H        0.2913094628     1.5970043995     0.4755548282
| 15>  H        0.0341294364     1.8872900561    -1.2620900822
| 16>  H       -1.3789109975     1.6476417981    -0.1810874030
| 17>  H        1.1124912256    -3.4783341088    -2.8046443676
| 18>  H        2.0169851844    -1.8681500409    -2.8462857046
| 19>  H        2.6491980559    -2.2098318558    -0.6433501797
| 20> *
| 21>
| 22>                          ****END OF INPUT****

CARTESIAN COORDINATES (ANGSTROEM)
---------------------------------
  C     -0.346133    1.366379   -0.380595
  O     -0.373125   -0.053290   -0.613350
  C      0.803720   -0.621101   -0.860917
  O      1.865068   -0.045891   -0.902417
  C      0.685147   -2.105558   -1.097447
  C      1.496434   -2.620778   -2.261841
  N      1.926636   -2.882447   -0.903342
  C     -0.548796   -2.760358   -0.733269
  N     -1.537864   -3.292254   -0.462655
  H      0.291309    1.597004    0.475555
  H      0.034129    1.887290   -1.262090
  H     -1.378911    1.647642   -0.181087
  H      1.112491   -3.478334   -2.804644
  H      2.016985   -1.868150   -2.846286
  H      2.649198   -2.209832   -0.643350

 Total Charge           Charge          ....    0
 Multiplicity           Mult            ....    1
 Number of Electrons    NEL             ....   66
 Basis Dimension        Dim             ....  315

ORBITAL ENERGIES
----------------

  NO   OCC          E(Eh)            E(eV)
   0   2.0000     -20.634781      -561.5009
   1   2.0000     -20.574912      -559.8718
   2   2.0000     -15.609296      -424.7505
   3   2.0000     -15.580563      -423.9687
   4   2.0000     -11.418648      -310.7172
   5   2.0000     -11.340034      -308.5780
   6   2.0000     -11.309596      -307.7498
   7   2.0000     -11.307336      -307.6883
   8   2.0000     -11.283784      -307.0474
   9   2.0000      -1.496923       -40.7333
  10   2.0000      -1.396293       -37.9951
  11   2.0000      -1.320749       -35.9394
  12   2.0000      -1.223049       -33.2808
  13   2.0000      -1.040563       -28.3152
  14   2.0000      -0.964312       -26.2403
  15   2.0000      -0.916712       -24.9450
  16   2.0000      -0.837431       -22.7877
  17   2.0000      -0.784057       -21.3353
  18   2.0000      -0.734628       -19.9902
  19   2.0000      -0.702542       -19.1171
  20   2.0000      -0.694811       -18.9068
  21   2.0000      -0.662027       -18.0147
  22   2.0000      -0.610788       -16.6204
  23   2.0000      -0.586137       -15.9496
  24   2.0000      -0.572222       -15.5710
  25   2.0000      -0.557314       -15.1653
  26   2.0000      -0.552023       -15.0213
  27   2.0000      -0.544498       -14.8166
  28   2.0000      -0.507383       -13.8066
  29   2.0000      -0.493868       -13.4388
  30   2.0000      -0.475478       -12.9384
  31   2.0000      -0.462515       -12.5857
  32   2.0000      -0.426829       -11.6146
  33   0.0000       0.120811         3.2874
  34   0.0000       0.133626         3.6361
  35   0.0000       0.152946         4.1619
  36   0.0000       0.158695         4.3183
  37   0.0000       0.173313         4.7161

MULLIKEN ATOMIC CHARGES
-----------------------
   0 C :   -0.230372
   1 O :   -0.224434
   2 C :    0.312902
   3 O :   -0.351906
   4 C :    0.207159
   5 C :   -0.157113
   6 N :   -0.344017
   7 C :   -0.183238
   8 N :   -0.043240
   9 H :    0.149195
  10 H :    0.145993
  11 H :    0.159091
  12 H :    0.154160
  13 H :    0.157667
  14 H :    0.248154
Sum of atomic charges:   -0.0000000

LOEWDIN ATOMIC CHARGES
----------------------
   0 C :   -0.288217
   1 O :    0.267307
   2 C :   -0.460808
   3 O :    0.125549
   4 C :   -0.260045
   5 C :   -0.197138
   6 N :    0.057812
   7 C :   -0.142549
   8 N :    0.083537
   9 H :    0.118108
  10 H :    0.117256
  11 H :    0.120449
  12 H :    0.138639
  13 H :    0.135819
  14 H :    0.184279

  Mayer bond orders larger than 0.1
B(  0-C ,  1-O ) :   0.8215 B(  0-C ,  9-H ) :   0.9370 B(  0-C , 10-H ) :   0.9365
B(  0-C , 11-H ) :   0.9319 B(  1-O ,  2-C ) :   1.1850 B(  2-C ,  3-O ) :   1.8267
B(  2-C ,  4-C ) :   0.9503 B(  4-C ,  5-C ) :   0.8696 B(  4-C ,  6-N ) :   0.8901
B(  4-C ,  7-C ) :   0.8934 B(  5-C ,  6-N ) :   0.9436 B(  5-C , 12-H ) :   0.9171
B(  5-C , 13-H ) :   0.9059 B(  6-N , 14-H ) :   0.8522 B(  7-C ,  8-N ) :   2.8602

MP2 TOTAL ENERGY:     -453.219442312 Eh
FINAL SINGLE POINT ENERGY      -453.219442312352

DIPOLE MOMENT
-------------
                                X             Y             Z
Electronic contribution:     -1.18977      -4.06261       1.07395
Nuclear contribution   :      1.79652       5.39961      -1.68318
                        -----------------------------------------
Total Dipole Moment    :      0.60675       1.33700      -0.60924
                        -----------------------------------------
Magnitude (a.u.)       :      1.58961
Magnitude (Debye)      :      4.04048

                             ****ORCA TERMINATED NORMALLY****
TOTAL RUN TIME: 0 days 0 hours 14 minutes 34 seconds 107 msec
