                         Program Version 3.0.3 - RELEASE   -
|  1> ! RI-MP2 RIJK def2-TZVP def2-TZVP/C def2-TZVP/JK TIGHTSCF
|  2> % maxcore 2000
|  3> % mp2 density relaxed end
|  4> *xyz 0 1
|  5>  N        0.0226547502     1.3794097328     0.1122799463
|  6>  C       -0.0198184106    -0.0018205522    -0.0192281157
|  7>  N       -1.1142369680    -0.7219518263    -0.1627797486
|  8>  C       -0.6754882592    -2.0213141599    -0.1496116381
|  9>  O       -1.5188979528    -3.0855525707    -0.3165405662
| 10>  C       -2.8155095310    -2.9591104760     0.0860250275
| 11>  O       -3.6022663185    -3.8397494240    -0.0827783648
| 12>  C        0.6764261470    -2.1109744028    -0.0169519965
| 13>  N        1.0906813332    -0.7800246108     0.0629283932
| 14>  H        0.7221076977     1.8299701646    -0.4647809328
| 15>  H       -0.8905805456     1.7752885076    -0.0697593961
| 16>  H       -3.0188590083    -1.9878471157     0.5580549815
| 17>  H        1.3590591039    -2.9405459814     0.0077262501
| 18>  H        2.0269500119    -0.4632448251     0.2470935701
| 19> *
| 20>
| 21>                          ****END OF INPUT****

CARTESIAN COORDINATES (ANGSTROEM)
---------------------------------
  N      0.022655    1.379410    0.112280
  C     -0.019818   -0.001821   -0.019228
  N     -1.114237   -0.721952   -0.162780
  C     -0.675488   -2.021314   -0.149612
  O     -1.518898   -3.085553   -0.316541
  C     -2.815510   -2.959110    0.086025
  O     -3.602266   -3.839749   -0.082778
  C      0.676426   -2.110974   -0.016952
  N      1.090681   -0.780025    0.062928
  H      0.722108    1.829970   -0.464781
  H     -0.890581    1.775289   -0.069759
  H     -3.018859   -1.987847    0.558055
  H      1.359059   -2.940546    0.007726
  H      2.026950   -0.463245    0.247094

 Total Charge           Charge          ....    0
 Multiplicity           Mult            ....    1
 Number of Electrons    NEL             ....   66
 Basis Dimension        Dim             ....  309

ORBITAL ENERGIES
----------------

  NO   OCC          E(Eh)            E(eV)
   0   2.0000     -20.617434      -561.0289
   1   2.0000     -20.548597      -559.1557
   2   2.0000     -15.628604      -425.2759
   3   2.0000     -15.598175      -424.4479
   4   2.0000     -15.556157      -423.3045
   5   2.0000     -11.378673      -309.6294
   6   2.0000     -11.359924      -309.1192
   7   2.0000     -11.325649      -308.1866
   8   2.0000     -11.261737      -306.4475
   9   2.0000      -1.472812       -40.0772
  10   2.0000      -1.385104       -37.6906
  11   2.0000      -1.361157       -37.0390
  12   2.0000      -1.228354       -33.4252
  13   2.0000      -1.185082       -32.2477
  14   2.0000      -1.010094       -27.4861
  15   2.0000      -0.881703       -23.9924
  16   2.0000      -0.852601       -23.2005
  17   2.0000      -0.812984       -22.1224
  18   2.0000      -0.776460       -21.1286
  19   2.0000      -0.713627       -19.4188
  20   2.0000      -0.687603       -18.7106
  21   2.0000      -0.677503       -18.4358
  22   2.0000      -0.662719       -18.0335
  23   2.0000      -0.629657       -17.1338
  24   2.0000      -0.619545       -16.8587
  25   2.0000      -0.605876       -16.4867
  26   2.0000      -0.571824       -15.5601
  27   2.0000      -0.504137       -13.7183
  28   2.0000      -0.485645       -13.2151
  29   2.0000      -0.482440       -13.1279
  30   2.0000      -0.445719       -12.1286
  31   2.0000      -0.415535       -11.3073
  32   2.0000      -0.308559        -8.3963
  33   0.0000       0.105520         2.8713
  34   0.0000       0.138479         3.7682
  35   0.0000       0.157305         4.2805
  36   0.0000       0.164948         4.4885
  37   0.0000       0.180984         4.9248

MULLIKEN ATOMIC CHARGES
-----------------------
   0 N :   -0.518033
   1 C :    0.323154
   2 N :   -0.359109
   3 C :    0.217251
   4 O :   -0.223578
   5 C :    0.195996
   6 O :   -0.266137
   7 C :   -0.151147
   8 N :   -0.282745
   9 H :    0.254527
  10 H :    0.271594
  11 H :    0.116954
  12 H :    0.166135
  13 H :    0.255140
Sum of atomic charges:   -0.0000000

LOEWDIN ATOMIC CHARGES
----------------------
   0 N :   -0.079642
   1 C :   -0.423039
   2 N :    0.094034
   3 C :   -0.371028
   4 O :    0.300063
   5 C :   -0.409591
   6 O :    0.126255
   7 C :   -0.221843
   8 N :    0.183305
   9 H :    0.170430
  10 H :    0.181978
  11 H :    0.115196
  12 H :    0.139214
  13 H :    0.194668

  Mayer bond orders larger than 0.1
B(  0-N ,  1-C ) :   1.0565 B(  0-N ,  9-H ) :   0.8701 B(  0-N , 10-H ) :   0.8701
B(  1-C ,  2-N ) :   1.5279 B(  1-C ,  8-N ) :   1.1954 B(  2-N ,  3-C ) :   1.2183
B(  3-C ,  4-O ) :   0.9850 B(  3-C ,  7-C ) :   1.5637 B(  4-O ,  5-C ) :   0.9969
B(  5-C ,  6-O ) :   2.0341 B(  5-C , 11-H ) :   0.9194 B(  7-C ,  8-N ) :   1.0554
B(  7-C , 12-H ) :   0.8990 B(  8-N , 13-H ) :   0.8650

MP2 TOTAL ENERGY:     -469.307108797 Eh
FINAL SINGLE POINT ENERGY      -469.307108797490

DIPOLE MOMENT
-------------
                                X             Y             Z
Electronic contribution:     -2.34114      -3.89507      -0.47760
Nuclear contribution   :      4.42600       5.65655       0.52110
                        -----------------------------------------
Total Dipole Moment    :      2.08486       1.76147       0.04350
                        -----------------------------------------
Magnitude (a.u.)       :      2.72971
Magnitude (Debye)      :      6.93837

                             ****ORCA TERMINATED NORMALLY****
TOTAL RUN TIME: 0 days 0 hours 11 minutes 51 seconds 911 msec
