                         Program Version 3.0.3 - RELEASE   -
|  1> ! RI-MP2 RIJK def2-TZVP def2-TZVP/C def2-TZVP/JK TIGHTSCF
|  2> % maxcore 2000
|  3> % mp2 density relaxed end
|  4> *xyz 0 1
|  5>  O        0.3071913658     1.1896251331    -0.4793266411
|  6>  C        0.0669368309    -0.1258665394    -0.0427919881
|  7>  C        0.2195647052    -0.3886118813     1.4852049222
|  8>  C       -1.3146159227    -0.6025241838     1.6002355885
|  9>  O       -1.7610451132    -1.7932421903     2.2052984528
| 10>  C       -2.1233412279     0.6426396982     2.0305899610
| 11>  O       -2.2407169374     1.4654152994     0.8713263897
| 12>  C       -2.4289121565     0.5625431819    -0.2313087322
| 13>  C       -1.4409599064    -0.5599952807     0.0443081512
| 14>  H       -0.2789570755     1.7689429064     0.0282231486
| 15>  H        0.6834524881    -0.7685934041    -0.6741377631
| 16>  H        0.7702648356    -1.3065620387     1.7071867133
| 17>  H        0.6498528886     0.4402729820     2.0556797317
| 18>  H       -1.4871376785    -1.7860019438     3.1289058923
| 19>  H       -3.1134518405     0.3046593642     2.3722385078
| 20>  H       -1.6540058349     1.2416387615     2.8165597108
| 21>  H       -3.4647626236     0.1935981281    -0.2516347815
| 22>  H       -2.2236725031     1.1193574873    -1.1478159184
| 23>  H       -1.6814446839    -1.5117283099    -0.4296049454
| 24> *
| 25>
| 26>                          ****END OF INPUT****

CARTESIAN COORDINATES (ANGSTROEM)
---------------------------------
  O      0.307191    1.189625   -0.479327
  C      0.066937   -0.125867   -0.042792
  C      0.219565   -0.388612    1.485205
  C     -1.314616   -0.602524    1.600236
  O     -1.761045   -1.793242    2.205298
  C     -2.123341    0.642640    2.030590
  O     -2.240717    1.465415    0.871326
  C     -2.428912    0.562543   -0.231309
  C     -1.440960   -0.559995    0.044308
  H     -0.278957    1.768943    0.028223
  H      0.683452   -0.768593   -0.674138
  H      0.770265   -1.306562    1.707187
  H      0.649853    0.440273    2.055680
  H     -1.487138   -1.786002    3.128906
  H     -3.113452    0.304659    2.372239
  H     -1.654006    1.241639    2.816560
  H     -3.464763    0.193598   -0.251635
  H     -2.223673    1.119357   -1.147816
  H     -1.681445   -1.511728   -0.429605

 Total Charge           Charge          ....    0
 Multiplicity           Mult            ....    1
 Number of Electrons    NEL             ....   70
 Basis Dimension        Dim             ....  339

ORBITAL ENERGIES
----------------

  NO   OCC          E(Eh)            E(eV)
   0   2.0000     -20.570318      -559.7468
   1   2.0000     -20.569053      -559.7124
   2   2.0000     -20.550217      -559.1998
   3   2.0000     -11.293843      -307.3211
   4   2.0000     -11.283212      -307.0318
   5   2.0000     -11.281887      -306.9958
   6   2.0000     -11.280353      -306.9540
   7   2.0000     -11.231295      -305.6191
   8   2.0000     -11.226795      -305.4966
   9   2.0000      -1.397629       -38.0314
  10   2.0000      -1.373892       -37.3855
  11   2.0000      -1.357991       -36.9528
  12   2.0000      -1.118685       -30.4410
  13   2.0000      -1.004187       -27.3253
  14   2.0000      -0.949570       -25.8391
  15   2.0000      -0.868994       -23.6465
  16   2.0000      -0.826048       -22.4779
  17   2.0000      -0.763650       -20.7800
  18   2.0000      -0.723261       -19.6809
  19   2.0000      -0.689624       -18.7656
  20   2.0000      -0.660996       -17.9866
  21   2.0000      -0.649389       -17.6708
  22   2.0000      -0.631073       -17.1724
  23   2.0000      -0.607611       -16.5339
  24   2.0000      -0.595788       -16.2122
  25   2.0000      -0.585717       -15.9382
  26   2.0000      -0.554937       -15.1006
  27   2.0000      -0.543891       -14.8000
  28   2.0000      -0.525292       -14.2939
  29   2.0000      -0.508564       -13.8387
  30   2.0000      -0.486546       -13.2396
  31   2.0000      -0.445350       -12.1186
  32   2.0000      -0.439119       -11.9490
  33   2.0000      -0.414493       -11.2789
  34   2.0000      -0.408731       -11.1221
  35   0.0000       0.128971         3.5095
  36   0.0000       0.146066         3.9747
  37   0.0000       0.165534         4.5044
  38   0.0000       0.172678         4.6988
  39   0.0000       0.191622         5.2143

MULLIKEN ATOMIC CHARGES
-----------------------
   0 O :   -0.453462
   1 C :   -0.002479
   2 C :   -0.252868
   3 C :    0.169070
   4 O :   -0.457579
   5 C :   -0.108029
   6 O :   -0.350753
   7 C :   -0.123624
   8 C :   -0.033194
   9 H :    0.327880
  10 H :    0.114787
  11 H :    0.116925
  12 H :    0.115104
  13 H :    0.321388
  14 H :    0.104286
  15 H :    0.122330
  16 H :    0.112437
  17 H :    0.150088
  18 H :    0.127694
Sum of atomic charges:    0.0000000

LOEWDIN ATOMIC CHARGES
----------------------
   0 O :   -0.008447
   1 C :   -0.295457
   2 C :   -0.196243
   3 C :   -0.342715
   4 O :    0.010455
   5 C :   -0.276707
   6 O :    0.133821
   7 C :   -0.284878
   8 C :   -0.173590
   9 H :    0.175853
  10 H :    0.135765
  11 H :    0.139253
  12 H :    0.132695
  13 H :    0.180133
  14 H :    0.127761
  15 H :    0.127691
  16 H :    0.127608
  17 H :    0.134676
  18 H :    0.152325

  Mayer bond orders larger than 0.1
B(  0-O ,  1-C ) :   1.0029 B(  0-O ,  9-H ) :   0.8140 B(  1-C ,  2-C ) :   0.9481
B(  1-C ,  8-C ) :   0.9037 B(  1-C , 10-H ) :   0.9323 B(  2-C ,  3-C ) :   0.9512
B(  2-C , 11-H ) :   0.9000 B(  2-C , 12-H ) :   0.9110 B(  3-C ,  4-O ) :   1.0366
B(  3-C ,  5-C ) :   0.9471 B(  3-C ,  8-C ) :   0.8874 B(  4-O , 13-H ) :   0.8392
B(  5-C ,  6-O ) :   0.9194 B(  5-C , 14-H ) :   0.9276 B(  5-C , 15-H ) :   0.9145
B(  6-O ,  7-C ) :   0.8540 B(  7-C ,  8-C ) :   0.9476 B(  7-C , 16-H ) :   0.9247
B(  7-C , 17-H ) :   0.9276 B(  8-C , 18-H ) :   0.8736

MP2 TOTAL ENERGY:     -459.425319140 Eh
FINAL SINGLE POINT ENERGY      -459.425319140221

DIPOLE MOMENT
-------------
                                X             Y             Z
Electronic contribution:     -0.27362       0.42474      -0.34676
Nuclear contribution   :      0.12591      -0.83882       1.08838
                        -----------------------------------------
Total Dipole Moment    :     -0.14772      -0.41408       0.74162
                        -----------------------------------------
Magnitude (a.u.)       :      0.86214
Magnitude (Debye)      :      2.19138

                             ****ORCA TERMINATED NORMALLY****
TOTAL RUN TIME: 0 days 0 hours 17 minutes 3 seconds 562 msec
