                         Program Version 3.0.3 - RELEASE   -
|  1> ! RI-MP2 RIJK def2-TZVP def2-TZVP/C def2-TZVP/JK TIGHTSCF
|  2> % maxcore 2000
|  3> % mp2 density relaxed end
|  4> *xyz 0 1
|  5>  O       -0.0609358646     0.0736385117    -0.2055762298
|  6>  C        0.0237170765     1.2488541447    -0.0227239587
|  7>  O       -1.0662024347     2.1049378327     0.0571559824
|  8>  C       -0.4944045045     3.4367357142     0.2865065612
|  9>  C        0.7457771786     3.5262134531    -0.6078381739
| 10>  C        1.7742295109     3.9793719790     0.4744474866
| 11>  C        2.6207050075     2.6709607836     0.3144775992
| 12>  C        1.1528099423     2.2216118647     0.1778760009
| 13>  C        0.6583635656     3.2393674054     1.2754761571
| 14>  H       -1.3099270031     4.1541920137     0.3579378976
| 15>  H        0.8150702641     3.6401815406    -1.6895092022
| 16>  H        2.1408037214     4.9911249459     0.6455594086
| 17>  H        3.2421986711     2.5910094219    -0.5808594585
| 18>  H        3.1595952590     2.3200676133     1.1980767289
| 19>  H        0.6278710798     3.0258722255     2.3437890707
| 20> *
| 21>
| 22>                          ****END OF INPUT****

CARTESIAN COORDINATES (ANGSTROEM)
---------------------------------
  O     -0.060936    0.073639   -0.205576
  C      0.023717    1.248854   -0.022724
  O     -1.066202    2.104938    0.057156
  C     -0.494405    3.436736    0.286507
  C      0.745777    3.526213   -0.607838
  C      1.774230    3.979372    0.474447
  C      2.620705    2.670961    0.314478
  C      1.152810    2.221612    0.177876
  C      0.658364    3.239367    1.275476
  H     -1.309927    4.154192    0.357938
  H      0.815070    3.640182   -1.689509
  H      2.140804    4.991125    0.645559
  H      3.242199    2.591009   -0.580859
  H      3.159595    2.320068    1.198077
  H      0.627871    3.025872    2.343789

 Total Charge           Charge          ....    0
 Multiplicity           Mult            ....    1
 Number of Electrons    NEL             ....   64
 Basis Dimension        Dim             ....  315

ORBITAL ENERGIES
----------------

  NO   OCC          E(Eh)            E(eV)
   0   2.0000     -20.593299      -560.3722
   1   2.0000     -20.546296      -559.0932
   2   2.0000     -11.383434      -309.7590
   3   2.0000     -11.317154      -307.9554
   4   2.0000     -11.284360      -307.0631
   5   2.0000     -11.278585      -306.9059
   6   2.0000     -11.270953      -306.6982
   7   2.0000     -11.270943      -306.6979
   8   2.0000     -11.265937      -306.5617
   9   2.0000      -1.453762       -39.5589
  10   2.0000      -1.372351       -37.3436
  11   2.0000      -1.267476       -34.4898
  12   2.0000      -1.022962       -27.8362
  13   2.0000      -0.954438       -25.9716
  14   2.0000      -0.907498       -24.6943
  15   2.0000      -0.878005       -23.8917
  16   2.0000      -0.767754       -20.8917
  17   2.0000      -0.741368       -20.1736
  18   2.0000      -0.711814       -19.3695
  19   2.0000      -0.688359       -18.7312
  20   2.0000      -0.645630       -17.5685
  21   2.0000      -0.626541       -17.0491
  22   2.0000      -0.617968       -16.8158
  23   2.0000      -0.593486       -16.1496
  24   2.0000      -0.531710       -14.4686
  25   2.0000      -0.524926       -14.2840
  26   2.0000      -0.491376       -13.3710
  27   2.0000      -0.472045       -12.8450
  28   2.0000      -0.470126       -12.7928
  29   2.0000      -0.456703       -12.4275
  30   2.0000      -0.436868       -11.8878
  31   2.0000      -0.402427       -10.9506
  32   0.0000       0.135124         3.6769
  33   0.0000       0.142685         3.8827
  34   0.0000       0.148615         4.0440
  35   0.0000       0.164640         4.4801
  36   0.0000       0.178368         4.8536

MULLIKEN ATOMIC CHARGES
-----------------------
   0 O :   -0.262068
   1 C :    0.254534
   2 O :   -0.250381
   3 C :    0.058518
   4 C :   -0.136199
   5 C :   -0.138094
   6 C :   -0.167926
   7 C :   -0.053162
   8 C :   -0.136193
   9 H :    0.138676
  10 H :    0.143760
  11 H :    0.143144
  12 H :    0.130814
  13 H :    0.130816
  14 H :    0.143760
Sum of atomic charges:    0.0000000

LOEWDIN ATOMIC CHARGES
----------------------
   0 O :    0.153193
   1 C :   -0.415248
   2 O :    0.235385
   3 C :   -0.196816
   4 C :   -0.082031
   5 C :   -0.132223
   6 C :   -0.160296
   7 C :   -0.126722
   8 C :   -0.082028
   9 H :    0.133725
  10 H :    0.137706
  11 H :    0.128393
  12 H :    0.134626
  13 H :    0.134627
  14 H :    0.137707

  Mayer bond orders larger than 0.1
B(  0-O ,  1-C ) :   2.0604 B(  1-C ,  2-O ) :   1.1086 B(  1-C ,  7-C ) :   0.8670
B(  2-O ,  3-C ) :   0.8577 B(  3-C ,  4-C ) :   0.8949 B(  3-C ,  8-C ) :   0.8949
B(  3-C ,  9-H ) :   0.9243 B(  4-C ,  5-C ) :   0.8564 B(  4-C ,  7-C ) :   0.8253
B(  4-C , 10-H ) :   0.9054 B(  5-C ,  6-C ) :   0.9211 B(  5-C ,  8-C ) :   0.8564
B(  5-C , 11-H ) :   0.8992 B(  6-C ,  7-C ) :   0.8484 B(  6-C , 12-H ) :   0.9229
B(  6-C , 13-H ) :   0.9229 B(  7-C ,  8-C ) :   0.8253 B(  8-C , 14-H ) :   0.9054

MP2 TOTAL ENERGY:     -419.856623701 Eh
FINAL SINGLE POINT ENERGY      -419.856623701224

DIPOLE MOMENT
-------------
                                X             Y             Z
Electronic contribution:     -4.06167      -3.96111      -0.79191
Nuclear contribution   :      4.94593       5.58008       1.07949
                        -----------------------------------------
Total Dipole Moment    :      0.88426       1.61897       0.28759
                        -----------------------------------------
Magnitude (a.u.)       :      1.86700
Magnitude (Debye)      :      4.74554

                             ****ORCA TERMINATED NORMALLY****
TOTAL RUN TIME: 0 days 0 hours 15 minutes 36 seconds 796 msec
