                         Program Version 3.0.3 - RELEASE   -
|  1> ! RI-MP2 RIJK def2-TZVP def2-TZVP/C def2-TZVP/JK TIGHTSCF
|  2> % maxcore 2000
|  3> % mp2 density relaxed end
|  4> *xyz 0 1
|  5>  C       -0.1749715671     1.5743659912    -0.0649913274
|  6>  C        0.0457234407     0.0602774144     0.0353496712
|  7>  O       -1.1853272459    -0.6328097154     0.2315748497
|  8>  C        0.7985374313    -0.4846311499    -1.1350399043
|  9>  C        1.9681941200    -1.1421108729    -1.3199523331
| 10>  N        2.1450071801    -1.4155088481    -2.6730609429
| 11>  C        1.0899021785    -0.9240559068    -3.2301630580
| 12>  O        0.2193647916    -0.3362388669    -2.3747841494
| 13>  H        0.7792585498     2.1086866208    -0.1019370591
| 14>  H       -0.7358742349     1.8221911999    -0.9721689051
| 15>  H       -0.7427273797     1.9193521555     0.8027049852
| 16>  H        0.6396800557    -0.1613802897     0.9280676282
| 17>  H       -1.7144669605    -0.5127202277    -0.5650901806
| 18>  H        2.6955896658    -1.4398227774    -0.5815692241
| 19>  H        0.8181217446    -0.9238462971    -4.2740833703
| 20> *
| 21>
| 22>                          ****END OF INPUT****

CARTESIAN COORDINATES (ANGSTROEM)
---------------------------------
  C     -0.174972    1.574366   -0.064991
  C      0.045723    0.060277    0.035350
  O     -1.185327   -0.632810    0.231575
  C      0.798537   -0.484631   -1.135040
  C      1.968194   -1.142111   -1.319952
  N      2.145007   -1.415509   -2.673061
  C      1.089902   -0.924056   -3.230163
  O      0.219365   -0.336239   -2.374784
  H      0.779259    2.108687   -0.101937
  H     -0.735874    1.822191   -0.972169
  H     -0.742727    1.919352    0.802705
  H      0.639680   -0.161380    0.928068
  H     -1.714467   -0.512720   -0.565090
  H      2.695590   -1.439823   -0.581569
  H      0.818122   -0.923846   -4.274083

 Total Charge           Charge          ....    0
 Multiplicity           Mult            ....    1
 Number of Electrons    NEL             ....   60
 Basis Dimension        Dim             ....  290

ORBITAL ENERGIES
----------------

  NO   OCC          E(Eh)            E(eV)
   0   2.0000     -20.643672      -561.7429
   1   2.0000     -20.565621      -559.6190
   2   2.0000     -15.571086      -423.7108
   3   2.0000     -11.338509      -308.5365
   4   2.0000     -11.306430      -307.6636
   5   2.0000     -11.298410      -307.4454
   6   2.0000     -11.263651      -306.4995
   7   2.0000     -11.229708      -305.5759
   8   2.0000      -1.492237       -40.6058
   9   2.0000      -1.371931       -37.3322
  10   2.0000      -1.237629       -33.6776
  11   2.0000      -1.074999       -29.2522
  12   2.0000      -1.002230       -27.2721
  13   2.0000      -0.882702       -24.0195
  14   2.0000      -0.849530       -23.1169
  15   2.0000      -0.798062       -21.7164
  16   2.0000      -0.752640       -20.4804
  17   2.0000      -0.675257       -18.3747
  18   2.0000      -0.667058       -18.1516
  19   2.0000      -0.641386       -17.4530
  20   2.0000      -0.617701       -16.8085
  21   2.0000      -0.598264       -16.2796
  22   2.0000      -0.587790       -15.9946
  23   2.0000      -0.559852       -15.2344
  24   2.0000      -0.537474       -14.6254
  25   2.0000      -0.506635       -13.7862
  26   2.0000      -0.477652       -12.9976
  27   2.0000      -0.459680       -12.5085
  28   2.0000      -0.453818       -12.3490
  29   2.0000      -0.344873        -9.3845
  30   0.0000       0.131026         3.5654
  31   0.0000       0.136184         3.7057
  32   0.0000       0.160729         4.3737
  33   0.0000       0.173450         4.7198
  34   0.0000       0.181941         4.9509

MULLIKEN ATOMIC CHARGES
-----------------------
   0 C :   -0.389836
   1 C :    0.122074
   2 O :   -0.456203
   3 C :    0.111847
   4 C :   -0.143119
   5 N :   -0.262629
   6 C :    0.106733
   7 O :   -0.234257
   8 H :    0.134062
   9 H :    0.128539
  10 H :    0.146909
  11 H :    0.106756
  12 H :    0.321076
  13 H :    0.147995
  14 H :    0.160053
Sum of atomic charges:    0.0000000

LOEWDIN ATOMIC CHARGES
----------------------
   0 C :   -0.291180
   1 C :   -0.345191
   2 O :   -0.014487
   3 C :   -0.241124
   4 C :   -0.218504
   5 N :    0.100099
   6 C :   -0.324996
   7 O :    0.342186
   8 H :    0.129557
   9 H :    0.125140
  10 H :    0.128500
  11 H :    0.158900
  12 H :    0.177115
  13 H :    0.140883
  14 H :    0.133102

  Mayer bond orders larger than 0.1
B(  0-C ,  1-C ) :   0.9416 B(  0-C ,  8-H ) :   0.9298 B(  0-C ,  9-H ) :   0.9204
B(  0-C , 10-H ) :   0.9362 B(  1-C ,  2-O ) :   0.9006 B(  1-C ,  3-C ) :   0.9129
B(  1-C , 11-H ) :   0.9272 B(  2-O , 12-H ) :   0.8385 B(  3-C ,  4-C ) :   1.5577
B(  3-C ,  7-O ) :   0.9827 B(  4-C ,  5-N ) :   1.1963 B(  4-C , 13-H ) :   0.9295
B(  5-N ,  6-C ) :   1.6539 B(  6-C ,  7-O ) :   1.0793 B(  6-C , 14-H ) :   0.9249

MP2 TOTAL ENERGY:     -399.178332680 Eh
FINAL SINGLE POINT ENERGY      -399.178332679635

DIPOLE MOMENT
-------------
                                X             Y             Z
Electronic contribution:      1.61928      -4.46470      -4.03519
Nuclear contribution   :     -1.93751       5.15544       3.95748
                        -----------------------------------------
Total Dipole Moment    :     -0.31823       0.69074      -0.07771
                        -----------------------------------------
Magnitude (a.u.)       :      0.76448
Magnitude (Debye)      :      1.94316

                             ****ORCA TERMINATED NORMALLY****
TOTAL RUN TIME: 0 days 0 hours 10 minutes 49 seconds 355 msec
