                         Program Version 3.0.3 - RELEASE   -
|  1> ! RI-MP2 RIJK def2-TZVP def2-TZVP/C def2-TZVP/JK TIGHTSCF
|  2> % maxcore 2000
|  3> % mp2 density relaxed end
|  4> *xyz 0 1
|  5>  N        0.0776082761     1.2499323836    -0.2319441466
|  6>  C        0.0088900822    -0.0608005622     0.1556576476
|  7>  O        0.9743861553    -0.6778113063     0.5766903669
|  8>  C       -1.3115208574    -0.7116838459    -0.0089333073
|  9>  N       -1.6397357653    -1.8793989397     0.8463820206
| 10>  C       -1.5206012702    -2.0762924343    -0.5921632441
| 11>  C       -2.8143660373    -1.5671102950    -1.3032681506
| 12>  N       -3.7509573954    -1.0450532291    -0.2781608495
| 13>  C       -2.6110411818    -0.2181177362    -0.7329485597
| 14>  H        0.9297673187     1.7397560146    -0.0081135538
| 15>  H       -0.7600538667     1.7996677789    -0.3226091757
| 16>  H       -0.7369992411    -2.1489604590     1.2464808222
| 17>  H       -0.7688862378    -2.7183348814    -1.0323075676
| 18>  H       -3.1466655344    -1.8637126220    -2.2888501125
| 19>  H       -4.5701464564    -0.7096005424    -0.7869830062
| 20>  H       -2.7516263484     0.7522900164    -1.1922303638
| 21> *
| 22>
| 23>                          ****END OF INPUT****

CARTESIAN COORDINATES (ANGSTROEM)
---------------------------------
  N      0.077608    1.249932   -0.231944
  C      0.008890   -0.060801    0.155658
  O      0.974386   -0.677811    0.576690
  C     -1.311521   -0.711684   -0.008933
  N     -1.639736   -1.879399    0.846382
  C     -1.520601   -2.076292   -0.592163
  C     -2.814366   -1.567110   -1.303268
  N     -3.750957   -1.045053   -0.278161
  C     -2.611041   -0.218118   -0.732949
  H      0.929767    1.739756   -0.008114
  H     -0.760054    1.799668   -0.322609
  H     -0.736999   -2.148960    1.246481
  H     -0.768886   -2.718335   -1.032308
  H     -3.146666   -1.863713   -2.288850
  H     -4.570146   -0.709601   -0.786983
  H     -2.751626    0.752290   -1.192230

 Total Charge           Charge          ....    0
 Multiplicity           Mult            ....    1
 Number of Electrons    NEL             ....   66
 Basis Dimension        Dim             ....  321

ORBITAL ENERGIES
----------------

  NO   OCC          E(Eh)            E(eV)
   0   2.0000     -20.524131      -558.4900
   1   2.0000     -15.593301      -424.3153
   2   2.0000     -15.574243      -423.7967
   3   2.0000     -15.572272      -423.7431
   4   2.0000     -11.364310      -309.2386
   5   2.0000     -11.283354      -307.0357
   6   2.0000     -11.281346      -306.9810
   7   2.0000     -11.278353      -306.8996
   8   2.0000     -11.277449      -306.8750
   9   2.0000      -1.391444       -37.8631
  10   2.0000      -1.327015       -36.1099
  11   2.0000      -1.233693       -33.5705
  12   2.0000      -1.220699       -33.2169
  13   2.0000      -0.987311       -26.8661
  14   2.0000      -0.931173       -25.3385
  15   2.0000      -0.856054       -23.2944
  16   2.0000      -0.802303       -21.8318
  17   2.0000      -0.767081       -20.8733
  18   2.0000      -0.758504       -20.6400
  19   2.0000      -0.707570       -19.2540
  20   2.0000      -0.673346       -18.3227
  21   2.0000      -0.633333       -17.2339
  22   2.0000      -0.612928       -16.6786
  23   2.0000      -0.588248       -16.0070
  24   2.0000      -0.573628       -15.6092
  25   2.0000      -0.544171       -14.8077
  26   2.0000      -0.499157       -13.5827
  27   2.0000      -0.480730       -13.0813
  28   2.0000      -0.474025       -12.8989
  29   2.0000      -0.438328       -11.9275
  30   2.0000      -0.426731       -11.6120
  31   2.0000      -0.401462       -10.9243
  32   2.0000      -0.338272        -9.2048
  33   0.0000       0.119211         3.2439
  34   0.0000       0.136825         3.7232
  35   0.0000       0.144189         3.9236
  36   0.0000       0.171324         4.6620
  37   0.0000       0.175395         4.7728

MULLIKEN ATOMIC CHARGES
-----------------------
   0 N :   -0.469444
   1 C :    0.236407
   2 O :   -0.376486
   3 C :    0.089477
   4 N :   -0.323571
   5 C :   -0.060342
   6 C :   -0.065876
   7 N :   -0.336924
   8 C :   -0.134406
   9 H :    0.262132
  10 H :    0.258908
  11 H :    0.243440
  12 H :    0.158299
  13 H :    0.148418
  14 H :    0.218405
  15 H :    0.151563
Sum of atomic charges:    0.0000000

LOEWDIN ATOMIC CHARGES
----------------------
   0 N :   -0.013586
   1 C :   -0.463063
   2 O :    0.075991
   3 C :   -0.208236
   4 N :    0.068871
   5 C :   -0.180227
   6 C :   -0.209633
   7 N :    0.021325
   8 C :   -0.205572
   9 H :    0.176638
  10 H :    0.171501
  11 H :    0.188555
  12 H :    0.140155
  13 H :    0.132115
  14 H :    0.175428
  15 H :    0.129738

  Mayer bond orders larger than 0.1
B(  0-N ,  1-C ) :   1.1864 B(  0-N ,  9-H ) :   0.8591 B(  0-N , 10-H ) :   0.8677
B(  1-C ,  2-O ) :   1.9241 B(  1-C ,  3-C ) :   0.9105 B(  3-C ,  4-N ) :   1.0240
B(  3-C ,  5-C ) :   0.9285 B(  3-C ,  6-C ) :  -0.1104 B(  3-C ,  8-C ) :   0.8388
B(  4-N ,  5-C ) :   1.0097 B(  4-N , 11-H ) :   0.8483 B(  5-C ,  6-C ) :   0.8868
B(  5-C , 12-H ) :   0.9079 B(  6-C ,  7-N ) :   0.9753 B(  6-C ,  8-C ) :   1.0303
B(  6-C , 13-H ) :   0.9238 B(  7-N ,  8-C ) :   1.0364 B(  7-N , 14-H ) :   0.8618
B(  8-C , 15-H ) :   0.8938

MP2 TOTAL ENERGY:     -433.267879520 Eh
FINAL SINGLE POINT ENERGY      -433.267879519978

DIPOLE MOMENT
-------------
                                X             Y             Z
Electronic contribution:      1.68382      -0.78769       1.74310
Nuclear contribution   :     -2.13533       1.93770      -3.03320
                        -----------------------------------------
Total Dipole Moment    :     -0.45152       1.15000      -1.29010
                        -----------------------------------------
Magnitude (a.u.)       :      1.78626
Magnitude (Debye)      :      4.54032

                             ****ORCA TERMINATED NORMALLY****
TOTAL RUN TIME: 0 days 0 hours 16 minutes 6 seconds 689 msec
