                         Program Version 3.0.3 - RELEASE   -
|  1> ! RI-MP2 RIJK def2-TZVP def2-TZVP/C def2-TZVP/JK TIGHTSCF
|  2> % maxcore 2000
|  3> % mp2 density relaxed end
|  4> *xyz 0 1
|  5>  C       -0.0686836925     1.5833609712     0.0486641460
|  6>  C        0.0249957192     0.0654669998    -0.0202462401
|  7>  C        1.1262850239    -0.5967909544    -0.9093851701
|  8>  O        1.3222852135    -0.6324523097    -2.0874500335
|  9>  C        1.7223113592    -1.3044457338     0.3012509860
| 10>  O        2.0126730938    -0.2338612842     1.2344587905
| 11>  C        0.6660906080    -0.7021124390     1.1621591730
| 12>  C        0.0109296162    -1.2260681764     2.3978742796
| 13>  H        0.8687604962     2.0058471856     0.4186828535
| 14>  H       -0.2623339403     1.9956985338    -0.9460542913
| 15>  H       -0.8809095053     1.9040053173     0.7091814701
| 16>  H       -0.9347129037    -0.3816166318    -0.3120921811
| 17>  H        2.2972848124    -2.2185840892     0.3946390225
| 18>  H       -0.3252578928    -0.4016476848     3.0361096277
| 19>  H       -0.8638032147    -1.8326438432     2.1435382008
| 20>  H        0.7113446169    -1.8372468513     2.9726041263
| 21> *
| 22>
| 23>                          ****END OF INPUT****

CARTESIAN COORDINATES (ANGSTROEM)
---------------------------------
  C     -0.068684    1.583361    0.048664
  C      0.024996    0.065467   -0.020246
  C      1.126285   -0.596791   -0.909385
  O      1.322285   -0.632452   -2.087450
  C      1.722311   -1.304446    0.301251
  O      2.012673   -0.233861    1.234459
  C      0.666091   -0.702112    1.162159
  C      0.010930   -1.226068    2.397874
  H      0.868760    2.005847    0.418683
  H     -0.262334    1.995699   -0.946054
  H     -0.880910    1.904005    0.709181
  H     -0.934713   -0.381617   -0.312092
  H      2.297285   -2.218584    0.394639
  H     -0.325258   -0.401648    3.036110
  H     -0.863803   -1.832644    2.143538
  H      0.711345   -1.837247    2.972604

 Total Charge           Charge          ....    0
 Multiplicity           Mult            ....    1
 Number of Electrons    NEL             ....   60
 Basis Dimension        Dim             ....  296

ORBITAL ENERGIES
----------------

  NO   OCC          E(Eh)            E(eV)
   0   2.0000     -20.591621      -560.3265
   1   2.0000     -20.562318      -559.5291
   2   2.0000     -11.343775      -308.6798
   3   2.0000     -11.316238      -307.9305
   4   2.0000     -11.303127      -307.5737
   5   2.0000     -11.259321      -306.3817
   6   2.0000     -11.246314      -306.0278
   7   2.0000     -11.229041      -305.5577
   8   2.0000      -1.443070       -39.2679
   9   2.0000      -1.401578       -38.1389
  10   2.0000      -1.104351       -30.0509
  11   2.0000      -1.018320       -27.7099
  12   2.0000      -0.986219       -26.8364
  13   2.0000      -0.873239       -23.7620
  14   2.0000      -0.802401       -21.8345
  15   2.0000      -0.746858       -20.3230
  16   2.0000      -0.690730       -18.7957
  17   2.0000      -0.673705       -18.3325
  18   2.0000      -0.624260       -16.9870
  19   2.0000      -0.613395       -16.6913
  20   2.0000      -0.607617       -16.5341
  21   2.0000      -0.581709       -15.8291
  22   2.0000      -0.572349       -15.5744
  23   2.0000      -0.553241       -15.0544
  24   2.0000      -0.537263       -14.6197
  25   2.0000      -0.518664       -14.1136
  26   2.0000      -0.502279       -13.6677
  27   2.0000      -0.482981       -13.1426
  28   2.0000      -0.424870       -11.5613
  29   2.0000      -0.393972       -10.7205
  30   0.0000       0.115612         3.1460
  31   0.0000       0.136831         3.7233
  32   0.0000       0.161564         4.3964
  33   0.0000       0.170070         4.6278
  34   0.0000       0.178276         4.8511

MULLIKEN ATOMIC CHARGES
-----------------------
   0 C :   -0.432982
   1 C :   -0.000795
   2 C :    0.131667
   3 O :   -0.248201
   4 C :   -0.029328
   5 O :   -0.315332
   6 C :    0.169784
   7 C :   -0.415431
   8 H :    0.153250
   9 H :    0.148144
  10 H :    0.132189
  11 H :    0.117659
  12 H :    0.150361
  13 H :    0.147604
  14 H :    0.141134
  15 H :    0.150276
Sum of atomic charges:   -0.0000000

LOEWDIN ATOMIC CHARGES
----------------------
   0 C :   -0.288665
   1 C :   -0.187087
   2 C :   -0.272312
   3 O :    0.172985
   4 C :   -0.177712
   5 O :    0.202159
   6 C :   -0.282765
   7 C :   -0.266024
   8 H :    0.132521
   9 H :    0.132372
  10 H :    0.125106
  11 H :    0.163572
  12 H :    0.135685
  13 H :    0.135927
  14 H :    0.135747
  15 H :    0.138489

  Mayer bond orders larger than 0.1
B(  0-C ,  1-C ) :   0.8750 B(  0-C ,  8-H ) :   0.9361 B(  0-C ,  9-H ) :   0.9326
B(  0-C , 10-H ) :   0.9345 B(  1-C ,  2-C ) :   0.8822 B(  1-C ,  6-C ) :   0.9117
B(  1-C , 11-H ) :   0.8946 B(  2-C ,  3-O ) :   2.0284 B(  2-C ,  4-C ) :   0.8496
B(  4-C ,  5-O ) :   0.8686 B(  4-C ,  6-C ) :   0.8825 B(  4-C , 12-H ) :   0.9141
B(  5-O ,  6-C ) :   0.8877 B(  6-C ,  7-C ) :   0.8771 B(  7-C , 13-H ) :   0.9354
B(  7-C , 14-H ) :   0.9344 B(  7-C , 15-H ) :   0.9353

MP2 TOTAL ENERGY:     -383.082053245 Eh
FINAL SINGLE POINT ENERGY      -383.082053245403

DIPOLE MOMENT
-------------
                                X             Y             Z
Electronic contribution:      5.00979      -2.38060      -4.89591
Nuclear contribution   :     -5.81530       2.01171       5.82508
                        -----------------------------------------
Total Dipole Moment    :     -0.80551      -0.36889       0.92917
                        -----------------------------------------
Magnitude (a.u.)       :      1.28385
Magnitude (Debye)      :      3.26330

                             ****ORCA TERMINATED NORMALLY****
TOTAL RUN TIME: 0 days 0 hours 12 minutes 17 seconds 318 msec
