                         Program Version 3.0.3 - RELEASE   -
|  1> ! RI-MP2 RIJK def2-TZVP def2-TZVP/C def2-TZVP/JK TIGHTSCF
|  2> % maxcore 2000
|  3> % mp2 density relaxed end
|  4> *xyz 0 1
|  5>  C       -0.1371937133     1.6044904050    -0.0052284980
|  6>  C        0.0448326767     0.0923014496     0.0351948129
|  7>  C       -1.2846351521    -0.6189873148     0.2850104255
|  8>  N        0.6841462897    -0.5421478730    -1.2078497225
|  9>  C        2.0488192434    -0.0284133376    -1.3253721127
| 10>  C        1.8053839969    -1.0931945109    -0.3182054715
| 11>  C        1.1638987434    -0.5072187278     0.8828775662
| 12>  N        1.2806528132    -0.5973228829     2.1397722085
| 13>  O        2.3717847576    -1.4184021640     2.4910307047
| 14>  H        0.8018467366     2.1455749132    -0.1391600317
| 15>  H       -0.8131846849     1.8770284881    -0.8224886230
| 16>  H       -0.5805794579     1.9471689944     0.9344119262
| 17>  H       -2.0117890541    -0.3321410754    -0.4811376963
| 18>  H       -1.1565419596    -1.7034929925     0.2459725628
| 19>  H       -1.6781979890    -0.3505594789     1.2692728770
| 20>  H        2.5355469002    -0.3364961065    -2.2463770957
| 21>  H        2.2940105944     0.9788502727    -1.0032158588
| 22>  H        2.1951861123    -2.0994145479    -0.4139054548
| 23>  H        2.3321589965    -1.4062713910     3.4531735413
| 24> *
| 25>
| 26>                          ****END OF INPUT****

CARTESIAN COORDINATES (ANGSTROEM)
---------------------------------
  C     -0.137194    1.604490   -0.005228
  C      0.044833    0.092301    0.035195
  C     -1.284635   -0.618987    0.285010
  N      0.684146   -0.542148   -1.207850
  C      2.048819   -0.028413   -1.325372
  C      1.805384   -1.093195   -0.318205
  C      1.163899   -0.507219    0.882878
  N      1.280653   -0.597323    2.139772
  O      2.371785   -1.418402    2.491031
  H      0.801847    2.145575   -0.139160
  H     -0.813185    1.877028   -0.822489
  H     -0.580579    1.947169    0.934412
  H     -2.011789   -0.332141   -0.481138
  H     -1.156542   -1.703493    0.245973
  H     -1.678198   -0.350559    1.269273
  H      2.535547   -0.336496   -2.246377
  H      2.294011    0.978850   -1.003216
  H      2.195186   -2.099415   -0.413905
  H      2.332159   -1.406271    3.453174

 Total Charge           Charge          ....    0
 Multiplicity           Mult            ....    1
 Number of Electrons    NEL             ....   68
 Basis Dimension        Dim             ....  339

ORBITAL ENERGIES
----------------

  NO   OCC          E(Eh)            E(eV)
   0   2.0000     -20.592609      -560.3534
   1   2.0000     -15.616013      -424.9333
   2   2.0000     -15.576134      -423.8482
   3   2.0000     -11.284397      -307.0640
   4   2.0000     -11.281976      -306.9982
   5   2.0000     -11.276882      -306.8596
   6   2.0000     -11.272223      -306.7328
   7   2.0000     -11.226369      -305.4850
   8   2.0000     -11.219590      -305.3006
   9   2.0000      -1.417136       -38.5622
  10   2.0000      -1.308395       -35.6032
  11   2.0000      -1.152256       -31.3545
  12   2.0000      -1.065150       -28.9842
  13   2.0000      -0.949605       -25.8401
  14   2.0000      -0.915119       -24.9017
  15   2.0000      -0.894135       -24.3306
  16   2.0000      -0.810074       -22.0432
  17   2.0000      -0.711350       -19.3568
  18   2.0000      -0.696966       -18.9654
  19   2.0000      -0.682334       -18.5673
  20   2.0000      -0.647337       -17.6149
  21   2.0000      -0.628520       -17.1029
  22   2.0000      -0.593494       -16.1498
  23   2.0000      -0.586213       -15.9517
  24   2.0000      -0.564355       -15.3569
  25   2.0000      -0.559443       -15.2232
  26   2.0000      -0.545878       -14.8541
  27   2.0000      -0.515645       -14.0314
  28   2.0000      -0.501043       -13.6341
  29   2.0000      -0.475810       -12.9475
  30   2.0000      -0.440260       -11.9801
  31   2.0000      -0.429417       -11.6850
  32   2.0000      -0.419796       -11.4232
  33   2.0000      -0.364812        -9.9270
  34   0.0000       0.137794         3.7496
  35   0.0000       0.145767         3.9665
  36   0.0000       0.151809         4.1309
  37   0.0000       0.171617         4.6699
  38   0.0000       0.181344         4.9346

MULLIKEN ATOMIC CHARGES
-----------------------
   0 C :   -0.388648
   1 C :    0.158360
   2 C :   -0.389850
   3 N :   -0.227983
   4 C :   -0.137054
   5 C :   -0.124550
   6 C :    0.001307
   7 N :   -0.099487
   8 O :   -0.362357
   9 H :    0.121594
  10 H :    0.143982
  11 H :    0.143585
  12 H :    0.132482
  13 H :    0.137843
  14 H :    0.137647
  15 H :    0.137765
  16 H :    0.129633
  17 H :    0.148288
  18 H :    0.337442
Sum of atomic charges:    0.0000000

LOEWDIN ATOMIC CHARGES
----------------------
   0 C :   -0.263325
   1 C :   -0.285608
   2 C :   -0.255493
   3 N :    0.150128
   4 C :   -0.238756
   5 C :   -0.170338
   6 C :   -0.250334
   7 N :    0.028657
   8 O :   -0.076299
   9 H :    0.123442
  10 H :    0.133002
  11 H :    0.136216
  12 H :    0.129400
  13 H :    0.132484
  14 H :    0.130870
  15 H :    0.136618
  16 H :    0.127153
  17 H :    0.142726
  18 H :    0.169458

  Mayer bond orders larger than 0.1
B(  0-C ,  1-C ) :   0.9449 B(  0-C ,  9-H ) :   0.9239 B(  0-C , 10-H ) :   0.9349
B(  0-C , 11-H ) :   0.9291 B(  1-C ,  2-C ) :   0.8876 B(  1-C ,  3-N ) :   0.9462
B(  1-C ,  6-C ) :   0.9454 B(  2-C , 12-H ) :   0.9325 B(  2-C , 13-H ) :   0.9299
B(  2-C , 14-H ) :   0.9341 B(  3-N ,  4-C ) :   0.8868 B(  3-N ,  5-C ) :   0.9048
B(  4-C ,  5-C ) :   0.9107 B(  4-C , 15-H ) :   0.9290 B(  4-C , 16-H ) :   0.9070
B(  5-C ,  6-C ) :   0.9809 B(  5-C , 17-H ) :   0.8972 B(  6-C ,  7-N ) :   1.8951
B(  7-N ,  8-O ) :   0.7972 B(  8-O , 18-H ) :   0.8434

MP2 TOTAL ENERGY:     -418.414231696 Eh
FINAL SINGLE POINT ENERGY      -418.414231695887

DIPOLE MOMENT
-------------
                                X             Y             Z
Electronic contribution:      4.88162      -3.68760       2.95834
Nuclear contribution   :     -4.71542       3.97022      -2.81665
                        -----------------------------------------
Total Dipole Moment    :      0.16621       0.28262       0.14169
                        -----------------------------------------
Magnitude (a.u.)       :      0.35718
Magnitude (Debye)      :      0.90787

                             ****ORCA TERMINATED NORMALLY****
TOTAL RUN TIME: 0 days 0 hours 17 minutes 58 seconds 455 msec
