                         Program Version 3.0.3 - RELEASE   -
|  1> ! RI-MP2 RIJK def2-TZVP def2-TZVP/C def2-TZVP/JK TIGHTSCF
|  2> % maxcore 2000
|  3> % mp2 density relaxed end
|  4> *xyz 0 1
|  5>  C       -0.1308928933     1.4777912739    -0.1299851527
|  6>  N        0.0148270217     0.0351810748     0.0211811498
|  7>  C        1.3426159873    -0.5178016874    -0.1650320098
|  8>  C        0.7328085250    -0.4710849981     1.2069467642
|  9>  C        1.2714869488     0.4112557876     2.2053656130
| 10>  C        1.6915534851     1.1349376373     3.0700326802
| 11>  H        0.7399941487     2.0528473474     0.2167909279
| 12>  H       -0.2975434062     1.6960966156    -1.1891926149
| 13>  H       -1.0080897910     1.8105254139     0.4326976694
| 14>  H        1.4003152099    -1.4652690693    -0.6944113958
| 15>  H        2.1666942510     0.1692081676    -0.3507094537
| 16>  H        0.3025874918    -1.3877128685     1.6045644084
| 17>  H        2.0729604613     1.7709535352     3.8298919240
| 18> *
| 19>
| 20>                          ****END OF INPUT****

CARTESIAN COORDINATES (ANGSTROEM)
---------------------------------
  C     -0.130893    1.477791   -0.129985
  N      0.014827    0.035181    0.021181
  C      1.342616   -0.517802   -0.165032
  C      0.732809   -0.471085    1.206947
  C      1.271487    0.411256    2.205366
  C      1.691553    1.134938    3.070033
  H      0.739994    2.052847    0.216791
  H     -0.297543    1.696097   -1.189193
  H     -1.008090    1.810525    0.432698
  H      1.400315   -1.465269   -0.694411
  H      2.166694    0.169208   -0.350709
  H      0.302587   -1.387713    1.604564
  H      2.072960    1.770954    3.829892

 Total Charge           Charge          ....    0
 Multiplicity           Mult            ....    1
 Number of Electrons    NEL             ....   44
 Basis Dimension        Dim             ....  228

ORBITAL ENERGIES
----------------

  NO   OCC          E(Eh)            E(eV)
   0   2.0000     -15.571531      -423.7229
   1   2.0000     -11.284732      -307.0732
   2   2.0000     -11.265769      -306.5571
   3   2.0000     -11.247138      -306.0502
   4   2.0000     -11.240148      -305.8600
   5   2.0000     -11.229277      -305.5642
   6   2.0000      -1.284290       -34.9473
   7   2.0000      -1.045163       -28.4403
   8   2.0000      -0.994792       -27.0697
   9   2.0000      -0.882072       -24.0024
  10   2.0000      -0.832255       -22.6468
  11   2.0000      -0.727833       -19.8053
  12   2.0000      -0.691569       -18.8186
  13   2.0000      -0.660358       -17.9693
  14   2.0000      -0.599080       -16.3018
  15   2.0000      -0.568779       -15.4773
  16   2.0000      -0.557640       -15.1742
  17   2.0000      -0.494765       -13.4632
  18   2.0000      -0.473792       -12.8925
  19   2.0000      -0.421665       -11.4741
  20   2.0000      -0.393626       -10.7111
  21   2.0000      -0.356272        -9.6947
  22   0.0000       0.152176         4.1409
  23   0.0000       0.159808         4.3486
  24   0.0000       0.162568         4.4237
  25   0.0000       0.170445         4.6380
  26   0.0000       0.185465         5.0468

MULLIKEN ATOMIC CHARGES
-----------------------
   0 C :   -0.296006
   1 N :   -0.196125
   2 C :   -0.133870
   3 C :   -0.213448
   4 C :   -0.010068
   5 C :   -0.140817
   6 H :    0.122695
   7 H :    0.140913
   8 H :    0.138821
   9 H :    0.131598
  10 H :    0.125639
  11 H :    0.138968
  12 H :    0.191699
Sum of atomic charges:    0.0000000

LOEWDIN ATOMIC CHARGES
----------------------
   0 C :   -0.323281
   1 N :    0.097270
   2 C :   -0.228377
   3 C :   -0.243811
   4 C :   -0.103432
   5 C :   -0.091962
   6 H :    0.111910
   7 H :    0.119624
   8 H :    0.120899
   9 H :    0.126388
  10 H :    0.129005
  11 H :    0.158341
  12 H :    0.127425

  Mayer bond orders larger than 0.1
B(  0-C ,  1-N ) :   0.8838 B(  0-C ,  6-H ) :   0.9277 B(  0-C ,  7-H ) :   0.9359
B(  0-C ,  8-H ) :   0.9383 B(  1-N ,  2-C ) :   0.8924 B(  1-N ,  3-C ) :   0.9252
B(  2-C ,  3-C ) :   0.9067 B(  2-C ,  9-H ) :   0.9211 B(  2-C , 10-H ) :   0.9192
B(  3-C ,  4-C ) :   1.1469 B(  3-C ,  5-C ) :  -0.1064 B(  3-C , 11-H ) :   0.9290
B(  4-C ,  5-C ) :   2.5657 B(  5-C , 12-H ) :   0.9023

MP2 TOTAL ENERGY:     -248.825310008 Eh
FINAL SINGLE POINT ENERGY      -248.825310007845

DIPOLE MOMENT
-------------
                                X             Y             Z
Electronic contribution:      0.52829      -1.73001       2.72009
Nuclear contribution   :     -0.18753       1.95954      -2.74830
                        -----------------------------------------
Total Dipole Moment    :      0.34077       0.22953      -0.02822
                        -----------------------------------------
Magnitude (a.u.)       :      0.41183
Magnitude (Debye)      :      1.04678

                             ****ORCA TERMINATED NORMALLY****
TOTAL RUN TIME: 0 days 0 hours 5 minutes 15 seconds 648 msec
