                         Program Version 3.0.3 - RELEASE   -
|  1> ! RI-MP2 RIJK def2-TZVP def2-TZVP/C def2-TZVP/JK TIGHTSCF
|  2> % maxcore 2000
|  3> % mp2 density relaxed end
|  4> *xyz 0 1
|  5>  C       -0.0295242647     1.5476024384     0.2791974097
|  6>  C        0.1178383747     0.0933012082    -0.0268036447
|  7>  O       -0.8521895455    -0.8141893483     0.4996960881
|  8>  C        0.5363517483    -1.0769660173     0.7998546719
|  9>  C        1.0040249647    -1.8030904563    -0.4430591140
| 10>  C        0.8472794222    -2.8743900292    -1.2072856074
| 11>  C        0.5679635130    -2.3665555808    -2.6212180245
| 12>  O        0.2619316533    -0.9614570607    -2.4845989174
| 13>  C        0.8352643671    -0.5583641772    -1.2632017886
| 14>  H        0.8967894584     2.0868159244     0.0579631947
| 15>  H       -0.8286924277     1.9861288519    -0.3283950108
| 16>  H       -0.2826524172     1.6964265505     1.3323840343
| 17>  H        0.8232035157    -1.1482517408     1.8410807246
| 18>  H        0.7767653249    -3.9187951892    -0.9324593360
| 19>  H        1.4169460988    -2.5019480195    -3.3109331337
| 20>  H       -0.3019804493    -2.8698879037    -3.0606961628
| 21>  H        1.7743527733     0.0010242095    -1.4210267534
| 22> *
| 23>
| 24>                          ****END OF INPUT****

CARTESIAN COORDINATES (ANGSTROEM)
---------------------------------
  C     -0.029524    1.547602    0.279197
  C      0.117838    0.093301   -0.026804
  O     -0.852190   -0.814189    0.499696
  C      0.536352   -1.076966    0.799855
  C      1.004025   -1.803090   -0.443059
  C      0.847279   -2.874390   -1.207286
  C      0.567964   -2.366556   -2.621218
  O      0.261932   -0.961457   -2.484599
  C      0.835264   -0.558364   -1.263202
  H      0.896789    2.086816    0.057963
  H     -0.828692    1.986129   -0.328395
  H     -0.282652    1.696427    1.332384
  H      0.823204   -1.148252    1.841081
  H      0.776765   -3.918795   -0.932459
  H      1.416946   -2.501948   -3.310933
  H     -0.301980   -2.869888   -3.060696
  H      1.774353    0.001024   -1.421027

 Total Charge           Charge          ....    0
 Multiplicity           Mult            ....    1
 Number of Electrons    NEL             ....   66
 Basis Dimension        Dim             ....  327

ORBITAL ENERGIES
----------------

  NO   OCC          E(Eh)            E(eV)
   0   2.0000     -20.575035      -559.8752
   1   2.0000     -20.558106      -559.4145
   2   2.0000     -11.306136      -307.6556
   3   2.0000     -11.303483      -307.5834
   4   2.0000     -11.287509      -307.1487
   5   2.0000     -11.287007      -307.1351
   6   2.0000     -11.243580      -305.9534
   7   2.0000     -11.239625      -305.8457
   8   2.0000     -11.232564      -305.6536
   9   2.0000      -1.427975       -38.8572
  10   2.0000      -1.378279       -37.5049
  11   2.0000      -1.104905       -30.0660
  12   2.0000      -1.040308       -28.3082
  13   2.0000      -0.995467       -27.0880
  14   2.0000      -0.899531       -24.4775
  15   2.0000      -0.858822       -23.3697
  16   2.0000      -0.768575       -20.9140
  17   2.0000      -0.751681       -20.4543
  18   2.0000      -0.698694       -19.0124
  19   2.0000      -0.664920       -18.0934
  20   2.0000      -0.646952       -17.6045
  21   2.0000      -0.613912       -16.7054
  22   2.0000      -0.595898       -16.2152
  23   2.0000      -0.583901       -15.8887
  24   2.0000      -0.570958       -15.5366
  25   2.0000      -0.536159       -14.5896
  26   2.0000      -0.524682       -14.2773
  27   2.0000      -0.519226       -14.1288
  28   2.0000      -0.506177       -13.7738
  29   2.0000      -0.440419       -11.9844
  30   2.0000      -0.428866       -11.6700
  31   2.0000      -0.405279       -11.0282
  32   2.0000      -0.349738        -9.5168
  33   0.0000       0.125329         3.4104
  34   0.0000       0.141086         3.8392
  35   0.0000       0.160944         4.3795
  36   0.0000       0.170367         4.6359
  37   0.0000       0.182192         4.9577

MULLIKEN ATOMIC CHARGES
-----------------------
   0 C :   -0.422310
   1 C :    0.100218
   2 O :   -0.299576
   3 C :    0.014729
   4 C :   -0.082245
   5 C :   -0.208176
   6 C :    0.004700
   7 O :   -0.332286
   8 C :    0.185177
   9 H :    0.135868
  10 H :    0.150530
  11 H :    0.145803
  12 H :    0.150029
  13 H :    0.143499
  14 H :    0.103765
  15 H :    0.122898
  16 H :    0.087377
Sum of atomic charges:   -0.0000000

LOEWDIN ATOMIC CHARGES
----------------------
   0 C :   -0.272185
   1 C :   -0.271765
   2 O :    0.205010
   3 C :   -0.174911
   4 C :   -0.130764
   5 C :   -0.120970
   6 C :   -0.256781
   7 O :    0.166602
   8 C :   -0.226085
   9 H :    0.133343
  10 H :    0.137126
  11 H :    0.135718
  12 H :    0.134253
  13 H :    0.139767
  14 H :    0.123207
  15 H :    0.130436
  16 H :    0.147999

  Mayer bond orders larger than 0.1
B(  0-C ,  1-C ) :   0.8969 B(  0-C ,  9-H ) :   0.9350 B(  0-C , 10-H ) :   0.9372
B(  0-C , 11-H ) :   0.9339 B(  1-C ,  2-O ) :   0.9095 B(  1-C ,  3-C ) :   0.8763
B(  1-C ,  8-C ) :   0.8560 B(  2-O ,  3-C ) :   0.8984 B(  3-C ,  4-C ) :   0.8791
B(  3-C , 12-H ) :   0.9131 B(  4-C ,  5-C ) :   1.7723 B(  4-C ,  8-C ) :   0.9614
B(  5-C ,  6-C ) :   0.9636 B(  5-C , 13-H ) :   0.9120 B(  6-C ,  7-O ) :   0.9303
B(  6-C , 14-H ) :   0.9134 B(  6-C , 15-H ) :   0.9163 B(  7-O ,  8-C ) :   0.9652
B(  8-C , 16-H ) :   0.9097

MP2 TOTAL ENERGY:     -421.037881693 Eh
FINAL SINGLE POINT ENERGY      -421.037881692767

DIPOLE MOMENT
-------------
                                X             Y             Z
Electronic contribution:     -0.77862      -2.80558       0.26084
Nuclear contribution   :      1.48528       2.73520       0.06022
                        -----------------------------------------
Total Dipole Moment    :      0.70666      -0.07038       0.32106
                        -----------------------------------------
Magnitude (a.u.)       :      0.77936
Magnitude (Debye)      :      1.98098

                             ****ORCA TERMINATED NORMALLY****
TOTAL RUN TIME: 0 days 0 hours 16 minutes 8 seconds 731 msec
