                         Program Version 3.0.3 - RELEASE   -
|  1> ! RI-MP2 RIJK def2-TZVP def2-TZVP/C def2-TZVP/JK TIGHTSCF
|  2> % maxcore 2000
|  3> % mp2 density relaxed end
|  4> *xyz 0 1
|  5>  C        0.0882572514     1.4830570835     0.1771425504
|  6>  C        0.0418867776    -0.0206360972     0.0714580119
|  7>  C        0.4914606653    -0.9394025010    -1.0918579978
|  8>  N       -0.0306433701    -1.9676513439    -0.0719532090
|  9>  C        0.7232293288    -1.0943309265     0.9580822719
| 10>  C       -1.1929759965    -0.9735010922     0.1028705023
| 11>  C       -2.1539864843    -1.1369588826     1.2512296278
| 12>  C       -2.4846481449    -2.4580850187     1.8050844812
| 13>  O       -1.7176362152    -1.5127267624     2.5588463454
| 14>  H        1.1169439565     1.8497353761     0.0908972432
| 15>  H       -0.5027528415     1.9538081515    -0.6163994930
| 16>  H       -0.3078448727     1.8227094946     1.1401649370
| 17>  H       -0.0779063164    -0.9164118335    -2.0264594334
| 18>  H        1.5645933529    -1.0329683759    -1.2796040150
| 19>  H        1.8101315122    -1.1897996074     0.8743167823
| 20>  H        0.3814315127    -1.2289417127     1.9806608375
| 21>  H       -1.8157542299    -0.9305497402    -0.8021581925
| 22>  H       -2.9393707633    -0.3775683407     1.2594010091
| 23>  H       -3.4857836728    -2.6526173844     2.1857332352
| 24>  H       -1.9286148197    -3.3228504664     1.4504163954
| 25> *
| 26>
| 27>                          ****END OF INPUT****

CARTESIAN COORDINATES (ANGSTROEM)
---------------------------------
  C      0.088257    1.483057    0.177143
  C      0.041887   -0.020636    0.071458
  C      0.491461   -0.939403   -1.091858
  N     -0.030643   -1.967651   -0.071953
  C      0.723229   -1.094331    0.958082
  C     -1.192976   -0.973501    0.102871
  C     -2.153986   -1.136959    1.251230
  C     -2.484648   -2.458085    1.805084
  O     -1.717636   -1.512727    2.558846
  H      1.116944    1.849735    0.090897
  H     -0.502753    1.953808   -0.616399
  H     -0.307845    1.822709    1.140165
  H     -0.077906   -0.916412   -2.026459
  H      1.564593   -1.032968   -1.279604
  H      1.810132   -1.189800    0.874317
  H      0.381432   -1.228942    1.980661
  H     -1.815754   -0.930550   -0.802158
  H     -2.939371   -0.377568    1.259401
  H     -3.485784   -2.652617    2.185733
  H     -1.928615   -3.322850    1.450416

 Total Charge           Charge          ....    0
 Multiplicity           Mult            ....    1
 Number of Electrons    NEL             ....   68
 Basis Dimension        Dim             ....  345

ORBITAL ENERGIES
----------------

  NO   OCC          E(Eh)            E(eV)
   0   2.0000     -20.568432      -559.6955
   1   2.0000     -15.566092      -423.5749
   2   2.0000     -11.289537      -307.2039
   3   2.0000     -11.280516      -306.9585
   4   2.0000     -11.268298      -306.6260
   5   2.0000     -11.256875      -306.3151
   6   2.0000     -11.254445      -306.2490
   7   2.0000     -11.247119      -306.0497
   8   2.0000     -11.223060      -305.3950
   9   2.0000      -1.411927       -38.4205
  10   2.0000      -1.290321       -35.1114
  11   2.0000      -1.010884       -27.5076
  12   2.0000      -0.990337       -26.9485
  13   2.0000      -0.917335       -24.9620
  14   2.0000      -0.902736       -24.5647
  15   2.0000      -0.871129       -23.7046
  16   2.0000      -0.824655       -22.4400
  17   2.0000      -0.741537       -20.1782
  18   2.0000      -0.695813       -18.9340
  19   2.0000      -0.649896       -17.6846
  20   2.0000      -0.636032       -17.3073
  21   2.0000      -0.601394       -16.3648
  22   2.0000      -0.587649       -15.9907
  23   2.0000      -0.578299       -15.7363
  24   2.0000      -0.571183       -15.5427
  25   2.0000      -0.543948       -14.8016
  26   2.0000      -0.504393       -13.7252
  27   2.0000      -0.491921       -13.3858
  28   2.0000      -0.487540       -13.2666
  29   2.0000      -0.474040       -12.8993
  30   2.0000      -0.453913       -12.3516
  31   2.0000      -0.427547       -11.6341
  32   2.0000      -0.417509       -11.3610
  33   2.0000      -0.369653       -10.0588
  34   0.0000       0.131457         3.5771
  35   0.0000       0.159886         4.3507
  36   0.0000       0.167827         4.5668
  37   0.0000       0.178188         4.8488
  38   0.0000       0.194173         5.2837

MULLIKEN ATOMIC CHARGES
-----------------------
   0 C :   -0.379171
   1 C :    0.009627
   2 C :   -0.137558
   3 N :   -0.222429
   4 C :   -0.188804
   5 C :   -0.022154
   6 C :   -0.028252
   7 C :   -0.077020
   8 O :   -0.341155
   9 H :    0.134501
  10 H :    0.131343
  11 H :    0.141889
  12 H :    0.109918
  13 H :    0.116480
  14 H :    0.106651
  15 H :    0.155840
  16 H :    0.098323
  17 H :    0.132278
  18 H :    0.117224
  19 H :    0.142470
Sum of atomic charges:   -0.0000000

LOEWDIN ATOMIC CHARGES
----------------------
   0 C :   -0.284676
   1 C :   -0.246883
   2 C :   -0.209586
   3 N :    0.102914
   4 C :   -0.196261
   5 C :   -0.206303
   6 C :   -0.281689
   7 C :   -0.252558
   8 O :    0.143155
   9 H :    0.129966
  10 H :    0.128388
  11 H :    0.130936
  12 H :    0.122559
  13 H :    0.124767
  14 H :    0.122310
  15 H :    0.130169
  16 H :    0.153421
  17 H :    0.142697
  18 H :    0.118733
  19 H :    0.127941

  Mayer bond orders larger than 0.1
B(  0-C ,  1-C ) :   0.8305 B(  0-C ,  9-H ) :   0.9343 B(  0-C , 10-H ) :   0.9363
B(  0-C , 11-H ) :   0.9391 B(  1-C ,  2-C ) :   0.9223 B(  1-C ,  4-C ) :   0.9436
B(  1-C ,  5-C ) :   0.9238 B(  2-C ,  3-N ) :   0.9125 B(  2-C , 12-H ) :   0.9241
B(  2-C , 13-H ) :   0.9252 B(  3-N ,  4-C ) :   0.9238 B(  3-N ,  5-C ) :   0.9479
B(  4-C , 14-H ) :   0.9258 B(  4-C , 15-H ) :   0.9147 B(  5-C ,  6-C ) :   0.9250
B(  5-C , 16-H ) :   0.9101 B(  6-C ,  7-C ) :   0.9799 B(  6-C ,  8-O ) :   0.8874
B(  6-C , 17-H ) :   0.9235 B(  7-C ,  8-O ) :   0.8992 B(  7-C , 18-H ) :   0.9249
B(  7-C , 19-H ) :   0.9021

MP2 TOTAL ENERGY:     -402.355168330 Eh
FINAL SINGLE POINT ENERGY      -402.355168329715

DIPOLE MOMENT
-------------
                                X             Y             Z
Electronic contribution:     -1.72710      -3.57549       2.38531
Nuclear contribution   :      1.44433       4.19152      -2.87043
                        -----------------------------------------
Total Dipole Moment    :     -0.28277       0.61603      -0.48512
                        -----------------------------------------
Magnitude (a.u.)       :      0.83355
Magnitude (Debye)      :      2.11870

                             ****ORCA TERMINATED NORMALLY****
TOTAL RUN TIME: 0 days 0 hours 19 minutes 21 seconds 705 msec
