                         Program Version 3.0.3 - RELEASE   -
|  1> ! RI-MP2 RIJK def2-TZVP def2-TZVP/C def2-TZVP/JK TIGHTSCF
|  2> % maxcore 2000
|  3> % mp2 density relaxed end
|  4> *xyz 0 1
|  5>  C       -0.2244029928     1.5441495009     0.0294528760
|  6>  C       -0.0622898207     0.0588752789    -0.0320356803
|  7>  C       -0.0745824617    -0.7332820368    -1.1064777535
|  8>  C        0.1279142140    -2.1937246532    -0.7960947371
|  9>  C        0.4238476308    -2.2066444137     0.7249250605
| 10>  N        1.8483827779    -2.4422432338     1.0301020263
| 11>  C        2.2555604574    -1.4064308176     1.6366215094
| 12>  O        1.4108747322    -0.3782270906     1.8836902807
| 13>  C        0.1625360300    -0.7535327230     1.2197805614
| 14>  H        0.6424440142     2.0059822411     0.5160978679
| 15>  H       -0.3350877992     1.9799368994    -0.9668531899
| 16>  H       -1.1035365088     1.8236541186     0.6243452356
| 17>  H       -0.2262710355    -0.3772047123    -2.1209475542
| 18>  H       -0.7645499957    -2.7847262439    -1.0389570549
| 19>  H        0.9593145797    -2.6349351197    -1.3558058757
| 20>  H       -0.1740867275    -2.9621066964     1.2421073712
| 21>  H        3.2640866971    -1.2546547609     2.0066474360
| 22>  H       -0.6272155114    -0.6347577269     1.9675998006
| 23> *
| 24>
| 25>                          ****END OF INPUT****

CARTESIAN COORDINATES (ANGSTROEM)
---------------------------------
  C     -0.224403    1.544150    0.029453
  C     -0.062290    0.058875   -0.032036
  C     -0.074582   -0.733282   -1.106478
  C      0.127914   -2.193725   -0.796095
  C      0.423848   -2.206644    0.724925
  N      1.848383   -2.442243    1.030102
  C      2.255560   -1.406431    1.636622
  O      1.410875   -0.378227    1.883690
  C      0.162536   -0.753533    1.219781
  H      0.642444    2.005982    0.516098
  H     -0.335088    1.979937   -0.966853
  H     -1.103537    1.823654    0.624345
  H     -0.226271   -0.377205   -2.120948
  H     -0.764550   -2.784726   -1.038957
  H      0.959315   -2.634935   -1.355806
  H     -0.174087   -2.962107    1.242107
  H      3.264087   -1.254655    2.006647
  H     -0.627216   -0.634758    1.967600

 Total Charge           Charge          ....    0
 Multiplicity           Mult            ....    1
 Number of Electrons    NEL             ....   66
 Basis Dimension        Dim             ....  333

ORBITAL ENERGIES
----------------

  NO   OCC          E(Eh)            E(eV)
   0   2.0000     -20.590911      -560.3072
   1   2.0000     -15.543871      -422.9702
   2   2.0000     -11.327354      -308.2330
   3   2.0000     -11.293517      -307.3122
   4   2.0000     -11.263529      -306.4962
   5   2.0000     -11.235947      -305.7457
   6   2.0000     -11.231519      -305.6252
   7   2.0000     -11.228490      -305.5428
   8   2.0000     -11.226402      -305.4859
   9   2.0000      -1.432236       -38.9731
  10   2.0000      -1.211633       -32.9702
  11   2.0000      -1.136452       -30.9244
  12   2.0000      -1.012903       -27.5625
  13   2.0000      -0.974356       -26.5136
  14   2.0000      -0.911723       -24.8092
  15   2.0000      -0.806527       -21.9467
  16   2.0000      -0.803678       -21.8692
  17   2.0000      -0.732507       -19.9325
  18   2.0000      -0.709989       -19.3198
  19   2.0000      -0.646947       -17.6043
  20   2.0000      -0.624584       -16.9958
  21   2.0000      -0.617986       -16.8163
  22   2.0000      -0.597744       -16.2654
  23   2.0000      -0.569993       -15.5103
  24   2.0000      -0.555854       -15.1255
  25   2.0000      -0.535178       -14.5629
  26   2.0000      -0.523359       -14.2413
  27   2.0000      -0.512562       -13.9475
  28   2.0000      -0.495690       -13.4884
  29   2.0000      -0.479068       -13.0361
  30   2.0000      -0.427980       -11.6459
  31   2.0000      -0.380608       -10.3569
  32   2.0000      -0.353148        -9.6097
  33   0.0000       0.137042         3.7291
  34   0.0000       0.151117         4.1121
  35   0.0000       0.153625         4.1804
  36   0.0000       0.172948         4.7062
  37   0.0000       0.181201         4.9307

MULLIKEN ATOMIC CHARGES
-----------------------
   0 C :   -0.438239
   1 C :   -0.035989
   2 C :   -0.208807
   3 C :   -0.156712
   4 C :    0.016601
   5 N :   -0.296326
   6 C :    0.099037
   7 O :   -0.285555
   8 C :    0.121758
   9 H :    0.153754
  10 H :    0.137175
  11 H :    0.138720
  12 H :    0.127890
  13 H :    0.117072
  14 H :    0.137340
  15 H :    0.111548
  16 H :    0.143876
  17 H :    0.116858
Sum of atomic charges:   -0.0000000

LOEWDIN ATOMIC CHARGES
----------------------
   0 C :   -0.271147
   1 C :   -0.179948
   2 C :   -0.122722
   3 C :   -0.215741
   4 C :   -0.223282
   5 N :    0.079826
   6 C :   -0.350536
   7 O :    0.228239
   8 C :   -0.193010
   9 H :    0.136071
  10 H :    0.130784
  11 H :    0.132088
  12 H :    0.140020
  13 H :    0.140777
  14 H :    0.146877
  15 H :    0.144286
  16 H :    0.133332
  17 H :    0.144085

  Mayer bond orders larger than 0.1
B(  0-C ,  1-C ) :   0.9062 B(  0-C ,  9-H ) :   0.9318 B(  0-C , 10-H ) :   0.9460
B(  0-C , 11-H ) :   0.9297 B(  1-C ,  2-C ) :   1.7374 B(  1-C ,  8-C ) :   0.9206
B(  2-C ,  3-C ) :   0.9444 B(  2-C , 12-H ) :   0.9188 B(  3-C ,  4-C ) :   0.9215
B(  3-C , 13-H ) :   0.9092 B(  3-C , 14-H ) :   0.9242 B(  4-C ,  5-N ) :   0.9353
B(  4-C ,  8-C ) :   0.9553 B(  4-C , 15-H ) :   0.9297 B(  5-N ,  6-C ) :   1.8145
B(  6-C ,  7-O ) :   1.0774 B(  6-C , 16-H ) :   0.9208 B(  7-O ,  8-C ) :   0.8135
B(  8-C , 17-H ) :   0.9120

MP2 TOTAL ENERGY:     -401.288018067 Eh
FINAL SINGLE POINT ENERGY      -401.288018066805

DIPOLE MOMENT
-------------
                                X             Y             Z
Electronic contribution:      3.44228      -2.80611       3.47930
Nuclear contribution   :     -4.03214       3.24074      -3.65327
                        -----------------------------------------
Total Dipole Moment    :     -0.58986       0.43463      -0.17396
                        -----------------------------------------
Magnitude (a.u.)       :      0.75306
Magnitude (Debye)      :      1.91413

                             ****ORCA TERMINATED NORMALLY****
TOTAL RUN TIME: 0 days 0 hours 17 minutes 36 seconds 93 msec
