                         Program Version 3.0.3 - RELEASE   -
|  1> ! RI-MP2 RIJK def2-TZVP def2-TZVP/C def2-TZVP/JK TIGHTSCF
|  2> % maxcore 2000
|  3> % mp2 density relaxed end
|  4> *xyz 0 1
|  5>  N        0.1892955150     1.3081301569     0.3795522361
|  6>  C        0.0203546464    -0.0442584562     0.0711336455
|  7>  C       -1.0839862654    -0.8243880961    -0.0559742664
|  8>  O       -0.7271973849    -2.1087474538    -0.3029104787
|  9>  N        0.6553567700    -2.1947716443    -0.3396191163
| 10>  C        1.0911267995    -0.9760238890    -0.1177236840
| 11>  N        2.4397097149    -0.6139567470    -0.1405674091
| 12>  C        3.1746157924    -0.6072502311     1.1379228776
| 13>  C        3.4364989531    -1.6517238945     0.1111891198
| 14>  H        1.0336584382     1.6762123363    -0.0427511679
| 15>  H       -0.6015458133     1.8826284690     0.1198511382
| 16>  H       -2.1433231633    -0.6294205415    -0.0082178009
| 17>  H        3.8624852654     0.2221752005     1.2675403740
| 18>  H        2.6265056297    -0.9041099235     2.0276249963
| 19>  H        3.0676689182    -2.6539922080     0.3028391545
| 20>  H        4.3237326341    -1.5888634279    -0.5107099886
| 21> *
| 22>
| 23>                          ****END OF INPUT****

CARTESIAN COORDINATES (ANGSTROEM)
---------------------------------
  N      0.189296    1.308130    0.379552
  C      0.020355   -0.044258    0.071134
  C     -1.083986   -0.824388   -0.055974
  O     -0.727197   -2.108747   -0.302910
  N      0.655357   -2.194772   -0.339619
  C      1.091127   -0.976024   -0.117724
  N      2.439710   -0.613957   -0.140567
  C      3.174616   -0.607250    1.137923
  C      3.436499   -1.651724    0.111189
  H      1.033658    1.676212   -0.042751
  H     -0.601546    1.882628    0.119851
  H     -2.143323   -0.629421   -0.008218
  H      3.862485    0.222175    1.267540
  H      2.626506   -0.904110    2.027625
  H      3.067669   -2.653992    0.302839
  H      4.323733   -1.588863   -0.510710

 Total Charge           Charge          ....    0
 Multiplicity           Mult            ....    1
 Number of Electrons    NEL             ....   66
 Basis Dimension        Dim             ....  321

ORBITAL ENERGIES
----------------

  NO   OCC          E(Eh)            E(eV)
   0   2.0000     -20.627020      -561.2897
   1   2.0000     -15.606563      -424.6762
   2   2.0000     -15.587726      -424.1636
   3   2.0000     -15.573297      -423.7709
   4   2.0000     -11.305238      -307.6312
   5   2.0000     -11.292250      -307.2778
   6   2.0000     -11.276654      -306.8533
   7   2.0000     -11.272408      -306.7378
   8   2.0000     -11.270158      -306.6766
   9   2.0000      -1.477843       -40.2141
  10   2.0000      -1.306708       -35.5573
  11   2.0000      -1.222020       -33.2529
  12   2.0000      -1.142499       -31.0890
  13   2.0000      -1.038094       -28.2480
  14   2.0000      -0.951716       -25.8975
  15   2.0000      -0.863464       -23.4961
  16   2.0000      -0.817436       -22.2436
  17   2.0000      -0.776541       -21.1307
  18   2.0000      -0.730543       -19.8791
  19   2.0000      -0.691082       -18.8053
  20   2.0000      -0.676520       -18.4090
  21   2.0000      -0.659148       -17.9363
  22   2.0000      -0.644635       -17.5414
  23   2.0000      -0.605061       -16.4646
  24   2.0000      -0.567482       -15.4420
  25   2.0000      -0.543083       -14.7780
  26   2.0000      -0.518534       -14.1100
  27   2.0000      -0.502909       -13.6849
  28   2.0000      -0.497506       -13.5378
  29   2.0000      -0.469353       -12.7717
  30   2.0000      -0.443292       -12.0626
  31   2.0000      -0.364618        -9.9218
  32   2.0000      -0.323678        -8.8077
  33   0.0000       0.126078         3.4308
  34   0.0000       0.136749         3.7211
  35   0.0000       0.158984         4.3262
  36   0.0000       0.171240         4.6597
  37   0.0000       0.181742         4.9455

MULLIKEN ATOMIC CHARGES
-----------------------
   0 N :   -0.535423
   1 C :    0.000871
   2 C :   -0.043279
   3 O :   -0.118751
   4 N :   -0.144043
   5 C :    0.200492
   6 N :   -0.268116
   7 C :   -0.149865
   8 C :   -0.176769
   9 H :    0.263627
  10 H :    0.246960
  11 H :    0.151544
  12 H :    0.133824
  13 H :    0.140216
  14 H :    0.158125
  15 H :    0.140588
Sum of atomic charges:   -0.0000000

LOEWDIN ATOMIC CHARGES
----------------------
   0 N :   -0.083052
   1 C :   -0.273157
   2 C :   -0.262392
   3 O :    0.256526
   4 N :    0.036989
   5 C :   -0.342046
   6 N :    0.142907
   7 C :   -0.234124
   8 C :   -0.238903
   9 H :    0.175565
  10 H :    0.169245
  11 H :    0.134137
  12 H :    0.125776
  13 H :    0.130793
  14 H :    0.133331
  15 H :    0.128406

  Mayer bond orders larger than 0.1
B(  0-N ,  1-C ) :   1.0353 B(  0-N ,  9-H ) :   0.8666 B(  0-N , 10-H ) :   0.8801
B(  1-C ,  2-C ) :   1.5320 B(  1-C ,  5-C ) :   1.1667 B(  2-C ,  3-O ) :   1.0735
B(  2-C ,  4-N ) :   0.1069 B(  2-C , 11-H ) :   0.9273 B(  3-O ,  4-N ) :   0.8845
B(  4-N ,  5-C ) :   1.5725 B(  5-C ,  6-N ) :   1.0349 B(  6-N ,  7-C ) :   0.8258
B(  6-N ,  8-C ) :   0.8745 B(  7-C ,  8-C ) :   0.9496 B(  7-C , 12-H ) :   0.9280
B(  7-C , 13-H ) :   0.9150 B(  8-C , 14-H ) :   0.9222 B(  8-C , 15-H ) :   0.9270

MP2 TOTAL ENERGY:     -433.291607628 Eh
FINAL SINGLE POINT ENERGY      -433.291607628405

DIPOLE MOMENT
-------------
                                X             Y             Z
Electronic contribution:     -4.60795      -2.57147      -2.14258
Nuclear contribution   :      4.76016       3.68125       2.39194
                        -----------------------------------------
Total Dipole Moment    :      0.15221       1.10978       0.24936
                        -----------------------------------------
Magnitude (a.u.)       :      1.14759
Magnitude (Debye)      :      2.91694

                             ****ORCA TERMINATED NORMALLY****
TOTAL RUN TIME: 0 days 0 hours 17 minutes 47 seconds 643 msec
