                         Program Version 3.0.3 - RELEASE   -
|  1> ! RI-MP2 RIJK def2-TZVP def2-TZVP/C def2-TZVP/JK TIGHTSCF
|  2> % maxcore 2000
|  3> % mp2 density relaxed end
|  4> *xyz 0 1
|  5>  O        0.1464245335     0.0667278205    -0.1059017757
|  6>  C        0.1533302928     1.2521257747    -0.0626741085
|  7>  O       -0.9560905036     2.1042531742    -0.1100702337
|  8>  C       -0.1034205305     3.2559763719     0.1077902894
|  9>  C        1.1387156878     2.3750554039     0.0542203109
| 10>  C        0.7957037802     3.3949024241    -1.0544441559
| 11>  C        0.5791954936     3.2487619279    -2.5547341989
| 12>  C        1.5138227224     4.4779737941    -2.6302214918
| 13>  O        1.6408074105     4.5169127403    -1.1796229246
| 14>  H       -0.4205794104     4.0073209485     0.8171356035
| 15>  H        2.0807945931     2.4038537665     0.5809745147
| 16>  H        0.9695873306     2.3321948014    -2.9970986782
| 17>  H       -0.4463626741     3.4108184538    -2.8866799094
| 18>  H        2.4843693735     4.3145230406    -3.1075724371
| 19>  H        1.0641899106     5.3996024476    -3.0109532048
| 20> *
| 21>
| 22>                          ****END OF INPUT****

CARTESIAN COORDINATES (ANGSTROEM)
---------------------------------
  O      0.146425    0.066728   -0.105902
  C      0.153330    1.252126   -0.062674
  O     -0.956091    2.104253   -0.110070
  C     -0.103421    3.255976    0.107790
  C      1.138716    2.375055    0.054220
  C      0.795704    3.394902   -1.054444
  C      0.579195    3.248762   -2.554734
  C      1.513823    4.477974   -2.630221
  O      1.640807    4.516913   -1.179623
  H     -0.420579    4.007321    0.817136
  H      2.080795    2.403854    0.580975
  H      0.969587    2.332195   -2.997099
  H     -0.446363    3.410818   -2.886680
  H      2.484369    4.314523   -3.107572
  H      1.064190    5.399602   -3.010953

 Total Charge           Charge          ....    0
 Multiplicity           Mult            ....    1
 Number of Electrons    NEL             ....   66
 Basis Dimension        Dim             ....  315

ORBITAL ENERGIES
----------------

  NO   OCC          E(Eh)            E(eV)
   0   2.0000     -20.608825      -560.7946
   1   2.0000     -20.585593      -560.1625
   2   2.0000     -20.561146      -559.4972
   3   2.0000     -11.395567      -310.0891
   4   2.0000     -11.337401      -308.5064
   5   2.0000     -11.323668      -308.1327
   6   2.0000     -11.306918      -307.6769
   7   2.0000     -11.270685      -306.6909
   8   2.0000     -11.258170      -306.3504
   9   2.0000      -1.474968       -40.1359
  10   2.0000      -1.421587       -38.6833
  11   2.0000      -1.390030       -37.8246
  12   2.0000      -1.145995       -31.1841
  13   2.0000      -1.039320       -28.2813
  14   2.0000      -0.935389       -25.4532
  15   2.0000      -0.892568       -24.2880
  16   2.0000      -0.782803       -21.3011
  17   2.0000      -0.760057       -20.6822
  18   2.0000      -0.725245       -19.7349
  19   2.0000      -0.719296       -19.5730
  20   2.0000      -0.692223       -18.8363
  21   2.0000      -0.681406       -18.5420
  22   2.0000      -0.629962       -17.1421
  23   2.0000      -0.607305       -16.5256
  24   2.0000      -0.574899       -15.6438
  25   2.0000      -0.565557       -15.3896
  26   2.0000      -0.554251       -15.0819
  27   2.0000      -0.548669       -14.9301
  28   2.0000      -0.500905       -13.6303
  29   2.0000      -0.495345       -13.4790
  30   2.0000      -0.460943       -12.5429
  31   2.0000      -0.424813       -11.5598
  32   2.0000      -0.402096       -10.9416
  33   0.0000       0.135698         3.6925
  34   0.0000       0.142912         3.8888
  35   0.0000       0.159539         4.3413
  36   0.0000       0.167195         4.5496
  37   0.0000       0.174216         4.7407

MULLIKEN ATOMIC CHARGES
-----------------------
   0 O :   -0.250745
   1 C :    0.276994
   2 O :   -0.255895
   3 C :    0.050993
   4 C :   -0.245038
   5 C :    0.164994
   6 C :   -0.273238
   7 C :   -0.006036
   8 O :   -0.319591
   9 H :    0.163758
  10 H :    0.171018
  11 H :    0.147440
  12 H :    0.148617
  13 H :    0.113303
  14 H :    0.113426
Sum of atomic charges:   -0.0000000

LOEWDIN ATOMIC CHARGES
----------------------
   0 O :    0.168788
   1 C :   -0.425936
   2 O :    0.243688
   3 C :   -0.180921
   4 C :   -0.114407
   5 C :   -0.274699
   6 C :   -0.192394
   7 C :   -0.235865
   8 O :    0.186299
   9 H :    0.142915
  10 H :    0.153180
  11 H :    0.142720
  12 H :    0.143672
  13 H :    0.121432
  14 H :    0.121529

  Mayer bond orders larger than 0.1
B(  0-O ,  1-C ) :   2.0570 B(  1-C ,  2-O ) :   1.0293 B(  1-C ,  4-C ) :   0.9441
B(  2-O ,  3-C ) :   0.8986 B(  3-C ,  4-C ) :   0.8456 B(  3-C ,  5-C ) :   0.8555
B(  3-C ,  9-H ) :   0.9093 B(  4-C ,  5-C ) :   0.8068 B(  4-C , 10-H ) :   0.9008
B(  5-C ,  6-C ) :   0.8984 B(  5-C ,  8-O ) :   0.9897 B(  6-C ,  7-C ) :   0.9794
B(  6-C , 11-H ) :   0.9175 B(  6-C , 12-H ) :   0.9188 B(  7-C ,  8-O ) :   0.9043
B(  7-C , 13-H ) :   0.9164 B(  7-C , 14-H ) :   0.9166

MP2 TOTAL ENERGY:     -456.985277054 Eh
FINAL SINGLE POINT ENERGY      -456.985277053749

DIPOLE MOMENT
-------------
                                X             Y             Z
Electronic contribution:     -1.88355      -3.87868       4.54969
Nuclear contribution   :      2.32859       5.08111      -5.16613
                        -----------------------------------------
Total Dipole Moment    :      0.44504       1.20243      -0.61644
                        -----------------------------------------
Magnitude (a.u.)       :      1.42263
Magnitude (Debye)      :      3.61605

                             ****ORCA TERMINATED NORMALLY****
TOTAL RUN TIME: 0 days 0 hours 15 minutes 12 seconds 249 msec
