                         Program Version 3.0.3 - RELEASE   -
|  1> ! RI-MP2 RIJK def2-TZVP def2-TZVP/C def2-TZVP/JK TIGHTSCF
|  2> % maxcore 2000
|  3> % mp2 density relaxed end
|  4> *xyz 0 1
|  5>  O       -0.1884293179     0.1584038152     0.4855309277
|  6>  C        0.1462314182     1.2862580863     0.6760110864
|  7>  O        0.4324636535     2.1335460173    -0.3397836750
|  8>  C        0.8454120721     3.4719083662     0.0128714951
|  9>  C        2.2444473221     3.5010920110     0.4321523240
| 10>  C        3.3939390903     3.5391829141     0.7783162044
| 11>  C        0.5999114329     4.3666683128    -1.1959628036
| 12>  C        0.7865140341     3.8567819819    -2.5718280681
| 13>  N       -0.5654832452     4.1542996516    -2.0523622617
| 14>  H        0.2502633726     1.7547558503     1.6719568111
| 15>  H        0.2113727771     3.8210017854     0.8409131800
| 16>  H        4.4113389061     3.5679224186     1.0837609925
| 17>  H        0.8220201313     5.4085155960    -0.9786910762
| 18>  H        1.1382561867     4.5276027580    -3.3494933214
| 19>  H        1.0705219082     2.8161557609    -2.6901880511
| 20>  H       -1.0125525420     3.2756754343    -1.7981180140
| 21> *
| 22>
| 23>                          ****END OF INPUT****

CARTESIAN COORDINATES (ANGSTROEM)
---------------------------------
  O     -0.188429    0.158404    0.485531
  C      0.146231    1.286258    0.676011
  O      0.432464    2.133546   -0.339784
  C      0.845412    3.471908    0.012871
  C      2.244447    3.501092    0.432152
  C      3.393939    3.539183    0.778316
  C      0.599911    4.366668   -1.195963
  C      0.786514    3.856782   -2.571828
  N     -0.565483    4.154300   -2.052362
  H      0.250263    1.754756    1.671957
  H      0.211373    3.821002    0.840913
  H      4.411339    3.567922    1.083761
  H      0.822020    5.408516   -0.978691
  H      1.138256    4.527603   -3.349493
  H      1.070522    2.816156   -2.690188
  H     -1.012553    3.275675   -1.798118

 Total Charge           Charge          ....    0
 Multiplicity           Mult            ....    1
 Number of Electrons    NEL             ....   66
 Basis Dimension        Dim             ....  321

ORBITAL ENERGIES
----------------

  NO   OCC          E(Eh)            E(eV)
   0   2.0000     -20.627240      -561.2957
   1   2.0000     -20.565110      -559.6051
   2   2.0000     -15.568710      -423.6461
   3   2.0000     -11.396974      -310.1274
   4   2.0000     -11.354777      -308.9792
   5   2.0000     -11.284029      -307.0540
   6   2.0000     -11.264441      -306.5210
   7   2.0000     -11.261474      -306.4403
   8   2.0000     -11.257325      -306.3274
   9   2.0000      -1.479611       -40.2623
  10   2.0000      -1.390385       -37.8343
  11   2.0000      -1.275321       -34.7033
  12   2.0000      -1.094468       -29.7820
  13   2.0000      -1.008435       -27.4409
  14   2.0000      -0.900039       -24.4913
  15   2.0000      -0.873181       -23.7605
  16   2.0000      -0.838917       -22.8281
  17   2.0000      -0.777344       -21.1526
  18   2.0000      -0.735915       -20.0253
  19   2.0000      -0.719129       -19.5685
  20   2.0000      -0.708642       -19.2831
  21   2.0000      -0.660337       -17.9687
  22   2.0000      -0.649973       -17.6867
  23   2.0000      -0.611114       -16.6292
  24   2.0000      -0.576873       -15.6975
  25   2.0000      -0.549905       -14.9637
  26   2.0000      -0.500542       -13.6204
  27   2.0000      -0.496487       -13.5101
  28   2.0000      -0.481342       -13.0980
  29   2.0000      -0.473500       -12.8846
  30   2.0000      -0.426920       -11.6171
  31   2.0000      -0.421101       -11.4587
  32   2.0000      -0.401988       -10.9386
  33   0.0000       0.116469         3.1693
  34   0.0000       0.135789         3.6950
  35   0.0000       0.139343         3.7917
  36   0.0000       0.154008         4.1908
  37   0.0000       0.162141         4.4121

MULLIKEN ATOMIC CHARGES
-----------------------
   0 O :   -0.255485
   1 C :    0.189954
   2 O :   -0.229521
   3 C :   -0.029740
   4 C :   -0.070728
   5 C :   -0.114616
   6 C :   -0.038696
   7 C :   -0.189171
   8 N :   -0.360058
   9 H :    0.095075
  10 H :    0.142191
  11 H :    0.204061
  12 H :    0.140099
  13 H :    0.129234
  14 H :    0.151772
  15 H :    0.235629
Sum of atomic charges:   -0.0000000

LOEWDIN ATOMIC CHARGES
----------------------
   0 O :    0.134771
   1 C :   -0.435964
   2 O :    0.259529
   3 C :   -0.280493
   4 C :   -0.085384
   5 C :   -0.061155
   6 C :   -0.258563
   7 C :   -0.251268
   8 N :   -0.005979
   9 H :    0.110572
  10 H :    0.163462
  11 H :    0.132401
  12 H :    0.152441
  13 H :    0.126232
  14 H :    0.129701
  15 H :    0.169696

  Mayer bond orders larger than 0.1
B(  0-O ,  1-C ) :   2.0359 B(  1-C ,  2-O ) :   1.0465 B(  1-C ,  9-H ) :   0.9144
B(  2-O ,  3-C ) :   0.8024 B(  3-C ,  4-C ) :   1.0853 B(  3-C ,  6-C ) :   0.9129
B(  3-C , 10-H ) :   0.9692 B(  4-C ,  5-C ) :   2.6181 B(  5-C , 11-H ) :   0.8872
B(  6-C ,  7-C ) :   0.9594 B(  6-C ,  8-N ) :   0.9699 B(  6-C , 12-H ) :   0.9022
B(  7-C ,  8-N ) :   0.9074 B(  7-C , 13-H ) :   0.9238 B(  7-C , 14-H ) :   0.9086
B(  8-N , 15-H ) :   0.8714

MP2 TOTAL ENERGY:     -437.102034364 Eh
FINAL SINGLE POINT ENERGY      -437.102034363612

DIPOLE MOMENT
-------------
                                X             Y             Z
Electronic contribution:     -0.40154      -3.77165       2.67400
Nuclear contribution   :      1.23057       4.63914      -2.05070
                        -----------------------------------------
Total Dipole Moment    :      0.82903       0.86749       0.62330
                        -----------------------------------------
Magnitude (a.u.)       :      1.35216
Magnitude (Debye)      :      3.43691

                             ****ORCA TERMINATED NORMALLY****
TOTAL RUN TIME: 0 days 0 hours 15 minutes 47 seconds 287 msec
