                         Program Version 3.0.3 - RELEASE   -
|  1> ! RI-MP2 RIJK def2-TZVP def2-TZVP/C def2-TZVP/JK TIGHTSCF
|  2> % maxcore 2000
|  3> % mp2 density relaxed end
|  4> *xyz 0 1
|  5>  O       -0.0574807949     1.3686232168    -0.0253072482
|  6>  C        0.0167325772    -0.0401479376     0.1146410486
|  7>  C        0.5241534553    -0.3581770985     1.5345401534
|  8>  C       -0.7025013801    -0.8165041539     2.2793361835
|  9>  C       -1.7576419179    -0.9914199249     1.4893537570
| 10>  C       -1.4552108581    -0.6555045163     0.0415553717
| 11>  O       -2.3738910593     0.2531446213    -0.5348604451
| 12>  C       -1.4664891675    -1.8661034862    -0.7958925500
| 13>  N       -1.4233325712    -2.8342238240    -1.4253839280
| 14>  H       -0.2065805596     1.5627396324    -0.9574976046
| 15>  H        0.6539200257    -0.4705705187    -0.6635221372
| 16>  H        1.2927433866    -1.1398947038     1.5154987558
| 17>  H        0.9851741289     0.5322742073     1.9737916353
| 18>  H       -0.6942402339    -0.9957686156     3.3487050613
| 19>  H       -2.7441090122    -1.3286757726     1.7815498761
| 20>  H       -2.1882553590     1.0981282243    -0.1010930194
| 21> *
| 22>
| 23>                          ****END OF INPUT****

CARTESIAN COORDINATES (ANGSTROEM)
---------------------------------
  O     -0.057481    1.368623   -0.025307
  C      0.016733   -0.040148    0.114641
  C      0.524153   -0.358177    1.534540
  C     -0.702501   -0.816504    2.279336
  C     -1.757642   -0.991420    1.489354
  C     -1.455211   -0.655505    0.041555
  O     -2.373891    0.253145   -0.534860
  C     -1.466489   -1.866103   -0.795893
  N     -1.423333   -2.834224   -1.425384
  H     -0.206581    1.562740   -0.957498
  H      0.653920   -0.470571   -0.663522
  H      1.292743   -1.139895    1.515499
  H      0.985174    0.532274    1.973792
  H     -0.694240   -0.995769    3.348705
  H     -2.744109   -1.328676    1.781550
  H     -2.188255    1.098128   -0.101093

 Total Charge           Charge          ....    0
 Multiplicity           Mult            ....    1
 Number of Electrons    NEL             ....   66
 Basis Dimension        Dim             ....  321

ORBITAL ENERGIES
----------------

  NO   OCC          E(Eh)            E(eV)
   0   2.0000     -20.592766      -560.3576
   1   2.0000     -20.587394      -560.2115
   2   2.0000     -15.576206      -423.8501
   3   2.0000     -11.348931      -308.8201
   4   2.0000     -11.319966      -308.0319
   5   2.0000     -11.274625      -306.7982
   6   2.0000     -11.261469      -306.4401
   7   2.0000     -11.253006      -306.2099
   8   2.0000     -11.251388      -306.1658
   9   2.0000      -1.418811       -38.6078
  10   2.0000      -1.383259       -37.6404
  11   2.0000      -1.222218       -33.2582
  12   2.0000      -1.153430       -31.3864
  13   2.0000      -1.003790       -27.3145
  14   2.0000      -0.992725       -27.0134
  15   2.0000      -0.851288       -23.1647
  16   2.0000      -0.789491       -21.4831
  17   2.0000      -0.748286       -20.3619
  18   2.0000      -0.739614       -20.1259
  19   2.0000      -0.694870       -18.9084
  20   2.0000      -0.667237       -18.1564
  21   2.0000      -0.625269       -17.0144
  22   2.0000      -0.596301       -16.2262
  23   2.0000      -0.582933       -15.8624
  24   2.0000      -0.575818       -15.6688
  25   2.0000      -0.564043       -15.3484
  26   2.0000      -0.530557       -14.4372
  27   2.0000      -0.515959       -14.0400
  28   2.0000      -0.509960       -13.8767
  29   2.0000      -0.488988       -13.3060
  30   2.0000      -0.473122       -12.8743
  31   2.0000      -0.437411       -11.9026
  32   2.0000      -0.387593       -10.5469
  33   0.0000       0.110096         2.9959
  34   0.0000       0.125334         3.4105
  35   0.0000       0.147106         4.0030
  36   0.0000       0.165008         4.4901
  37   0.0000       0.171237         4.6596

MULLIKEN ATOMIC CHARGES
-----------------------
   0 O :   -0.484993
   1 C :   -0.021076
   2 C :   -0.155124
   3 C :   -0.189495
   4 C :   -0.206266
   5 C :    0.369054
   6 O :   -0.445897
   7 C :   -0.195478
   8 N :   -0.052164
   9 H :    0.336491
  10 H :    0.139459
  11 H :    0.136370
  12 H :    0.143089
  13 H :    0.140406
  14 H :    0.152999
  15 H :    0.332626
Sum of atomic charges:    0.0000000

LOEWDIN ATOMIC CHARGES
----------------------
   0 O :   -0.006180
   1 C :   -0.264658
   2 C :   -0.214121
   3 C :   -0.130235
   4 C :   -0.112401
   5 C :   -0.342307
   6 O :    0.032684
   7 C :   -0.138683
   8 N :    0.075835
   9 H :    0.182828
  10 H :    0.140943
  11 H :    0.150283
  12 H :    0.151085
  13 H :    0.143230
  14 H :    0.148608
  15 H :    0.183088

  Mayer bond orders larger than 0.1
B(  0-O ,  1-C ) :   1.0144 B(  0-O ,  9-H ) :   0.8334 B(  1-C ,  2-C ) :   0.9229
B(  1-C ,  5-C ) :   0.8265 B(  1-C , 10-H ) :   0.9497 B(  2-C ,  3-C ) :   0.9561
B(  2-C , 11-H ) :   0.9041 B(  2-C , 12-H ) :   0.9187 B(  3-C ,  4-C ) :   1.7515
B(  3-C , 13-H ) :   0.9194 B(  4-C ,  5-C ) :   0.9089 B(  4-C , 14-H ) :   0.9167
B(  5-C ,  6-O ) :   1.0724 B(  5-C ,  7-C ) :   0.8929 B(  6-O , 15-H ) :   0.8134
B(  7-C ,  8-N ) :   2.8549

MP2 TOTAL ENERGY:     -437.182799803 Eh
FINAL SINGLE POINT ENERGY      -437.182799802802

DIPOLE MOMENT
-------------
                                X             Y             Z
Electronic contribution:     -2.92830      -2.04211      -3.70923
Nuclear contribution   :      3.56103       3.07389       4.65882
                        -----------------------------------------
Total Dipole Moment    :      0.63273       1.03178       0.94959
                        -----------------------------------------
Magnitude (a.u.)       :      1.53839
Magnitude (Debye)      :      3.91027

                             ****ORCA TERMINATED NORMALLY****
TOTAL RUN TIME: 0 days 0 hours 16 minutes 30 seconds 44 msec
