                         Program Version 3.0.3 - RELEASE   -
|  1> ! RI-MP2 RIJK def2-TZVP def2-TZVP/C def2-TZVP/JK TIGHTSCF
|  2> % maxcore 2000
|  3> % mp2 density relaxed end
|  4> *xyz 0 1
|  5>  C       -0.0150487964     1.5246230110    -0.1215897977
|  6>  C        1.3069870864     0.8126726860     0.0210665170
|  7>  C       -0.0089077780     0.0125432979    -0.0345020721
|  8>  C        0.3151615292    -0.7148699414    -1.3210092190
|  9>  C        0.0632011987    -1.7140886313    -2.4819651263
| 10>  C        1.4903173317    -1.1302713338    -2.7768017579
| 11>  C        1.8410421745    -1.0622601734    -1.2756275831
| 12>  N        2.1192198008     0.4362898462    -1.1808208416
| 13>  C        1.0705464745     0.2647506763    -2.2563840102
| 14>  H       -0.3585071544     2.0645990279     0.7560407119
| 15>  H       -0.2850717249     2.0057548582    -1.0545896526
| 16>  H        1.8749682529     0.9193712812     0.9371633684
| 17>  H       -0.4004114177    -0.5028031646     0.8334173236
| 18>  H        0.0112271300    -2.7758536533    -2.2236916975
| 19>  H       -0.7236992543    -1.4545032770    -3.1961022729
| 20>  H        2.1512114556    -1.3549462314    -3.6125270599
| 21>  H        2.3374867449    -1.7986819776    -0.6415812771
| 22>  H        0.6642665864     1.0933648489    -2.8365997530
| 23> *
| 24>
| 25>                          ****END OF INPUT****

CARTESIAN COORDINATES (ANGSTROEM)
---------------------------------
  C     -0.015049    1.524623   -0.121590
  C      1.306987    0.812673    0.021067
  C     -0.008908    0.012543   -0.034502
  C      0.315162   -0.714870   -1.321009
  C      0.063201   -1.714089   -2.481965
  C      1.490317   -1.130271   -2.776802
  C      1.841042   -1.062260   -1.275628
  N      2.119220    0.436290   -1.180821
  C      1.070546    0.264751   -2.256384
  H     -0.358507    2.064599    0.756041
  H     -0.285072    2.005755   -1.054590
  H      1.874968    0.919371    0.937163
  H     -0.400411   -0.502803    0.833417
  H      0.011227   -2.775854   -2.223692
  H     -0.723699   -1.454503   -3.196102
  H      2.151211   -1.354946   -3.612527
  H      2.337487   -1.798682   -0.641581
  H      0.664267    1.093365   -2.836600

 Total Charge           Charge          ....    0
 Multiplicity           Mult            ....    1
 Number of Electrons    NEL             ....   64
 Basis Dimension        Dim             ....  333

ORBITAL ENERGIES
----------------

  NO   OCC          E(Eh)            E(eV)
   0   2.0000     -15.555785      -423.2944
   1   2.0000     -11.263482      -306.4949
   2   2.0000     -11.263097      -306.4844
   3   2.0000     -11.252888      -306.2066
   4   2.0000     -11.250394      -306.1388
   5   2.0000     -11.246121      -306.0225
   6   2.0000     -11.242879      -305.9343
   7   2.0000     -11.234872      -305.7164
   8   2.0000     -11.233723      -305.6851
   9   2.0000      -1.319763       -35.9126
  10   2.0000      -1.147369       -31.2215
  11   2.0000      -1.078274       -29.3413
  12   2.0000      -0.904825       -24.6215
  13   2.0000      -0.893060       -24.3014
  14   2.0000      -0.877561       -23.8796
  15   2.0000      -0.798664       -21.7328
  16   2.0000      -0.766107       -20.8468
  17   2.0000      -0.697878       -18.9902
  18   2.0000      -0.688157       -18.7257
  19   2.0000      -0.662273       -18.0214
  20   2.0000      -0.610737       -16.6190
  21   2.0000      -0.592858       -16.1325
  22   2.0000      -0.552784       -15.0420
  23   2.0000      -0.551401       -15.0044
  24   2.0000      -0.508882       -13.8474
  25   2.0000      -0.470470       -12.8022
  26   2.0000      -0.458255       -12.4698
  27   2.0000      -0.454043       -12.3551
  28   2.0000      -0.435814       -11.8591
  29   2.0000      -0.404313       -11.0019
  30   2.0000      -0.375627       -10.2213
  31   2.0000      -0.349535        -9.5113
  32   0.0000       0.145869         3.9693
  33   0.0000       0.157237         4.2786
  34   0.0000       0.160222         4.3599
  35   0.0000       0.172172         4.6850
  36   0.0000       0.189633         5.1602

MULLIKEN ATOMIC CHARGES
-----------------------
   0 C :   -0.252131
   1 C :   -0.060014
   2 C :   -0.218774
   3 C :    0.030142
   4 C :   -0.172731
   5 C :   -0.183806
   6 C :   -0.007005
   7 N :   -0.231087
   8 C :   -0.032504
   9 H :    0.131282
  10 H :    0.133863
  11 H :    0.125690
  12 H :    0.131536
  13 H :    0.116652
  14 H :    0.117121
  15 H :    0.135535
  16 H :    0.119237
  17 H :    0.116997
Sum of atomic charges:    0.0000000

LOEWDIN ATOMIC CHARGES
----------------------
   0 C :   -0.200650
   1 C :   -0.210156
   2 C :   -0.177466
   3 C :   -0.151291
   4 C :   -0.173303
   5 C :   -0.138625
   6 C :   -0.124916
   7 N :    0.128556
   8 C :   -0.147191
   9 H :    0.137836
  10 H :    0.135798
  11 H :    0.137321
  12 H :    0.142490
  13 H :    0.128089
  14 H :    0.129023
  15 H :    0.127463
  16 H :    0.128192
  17 H :    0.128830

  Mayer bond orders larger than 0.1
B(  0-C ,  1-C ) :   0.8946 B(  0-C ,  2-C ) :   0.9000 B(  0-C ,  9-H ) :   0.9274
B(  0-C , 10-H ) :   0.9060 B(  1-C ,  2-C ) :   0.8676 B(  1-C ,  7-N ) :   0.9598
B(  1-C , 11-H ) :   0.9460 B(  2-C ,  3-C ) :   0.9434 B(  2-C , 12-H ) :   0.9277
B(  3-C ,  4-C ) :   0.8687 B(  3-C ,  6-C ) :   0.8744 B(  3-C ,  8-C ) :   0.8782
B(  4-C ,  5-C ) :   0.9197 B(  4-C , 13-H ) :   0.9207 B(  4-C , 14-H ) :   0.9208
B(  5-C ,  6-C ) :   0.8732 B(  5-C ,  8-C ) :   0.8537 B(  5-C , 15-H ) :   0.8940
B(  6-C ,  7-N ) :   0.8764 B(  6-C , 16-H ) :   0.8956 B(  7-N ,  8-C ) :   0.8900
B(  8-C , 17-H ) :   0.9053

MP2 TOTAL ENERGY:     -364.012249626 Eh
FINAL SINGLE POINT ENERGY      -364.012249625721

DIPOLE MOMENT
-------------
                                X             Y             Z
Electronic contribution:      2.10787      -0.04847      -0.23762
Nuclear contribution   :     -2.68761      -0.28510       0.32520
                        -----------------------------------------
Total Dipole Moment    :     -0.57974      -0.33357       0.08758
                        -----------------------------------------
Magnitude (a.u.)       :      0.67457
Magnitude (Debye)      :      1.71462

                             ****ORCA TERMINATED NORMALLY****
TOTAL RUN TIME: 0 days 0 hours 18 minutes 18 seconds 61 msec
