                         Program Version 3.0.3 - RELEASE   -
|  1> ! RI-MP2 RIJK def2-TZVP def2-TZVP/C def2-TZVP/JK TIGHTSCF
|  2> % maxcore 2000
|  3> % mp2 density relaxed end
|  4> *xyz 0 1
|  5>  C        0.0106652126     1.2878374498    -0.1803525655
|  6>  C        0.3149135461    -0.1685216163     0.0871582934
|  7>  C        1.7130436080    -0.7071863337     0.0885366187
|  8>  C        0.9264145499    -0.6794075557     1.3941488940
|  9>  C        1.3472847239     0.3257881388     2.4133907669
| 10>  O        2.0267789684     1.3014289274     2.1950100899
| 11>  N        0.3542921037    -1.8420364575     2.0345110650
| 12>  C        0.1232875723    -3.0667560106     1.2846029834
| 13>  C        1.2205529440    -2.9951587916     2.2872485081
| 14>  H        0.7714200769     1.9391389282     0.2530655578
| 15>  H       -0.0200375104     1.4684831926    -1.2604445515
| 16>  H       -0.9626673435     1.5717944503     0.2334340059
| 17>  H       -0.4368272090    -0.8584505555    -0.2908273414
| 18>  H        1.9108666359    -1.6682889172    -0.3739248654
| 19>  H        2.5270417997     0.0083617291     0.0326001404
| 20>  H        0.9649388293     0.0962793929     3.4308186428
| 21>  H       -0.8052069543    -3.5817337221     1.5148613705
| 22>  H        0.4112844151    -3.1104868418     0.2366251487
| 23>  H        2.2372955893    -2.9579481567     1.9013068766
| 24>  H        1.1132001919    -3.4602097704     3.2625559616
| 25> *
| 26>
| 27>                          ****END OF INPUT****

CARTESIAN COORDINATES (ANGSTROEM)
---------------------------------
  C      0.010665    1.287837   -0.180353
  C      0.314914   -0.168522    0.087158
  C      1.713044   -0.707186    0.088537
  C      0.926415   -0.679408    1.394149
  C      1.347285    0.325788    2.413391
  O      2.026779    1.301429    2.195010
  N      0.354292   -1.842036    2.034511
  C      0.123288   -3.066756    1.284603
  C      1.220553   -2.995159    2.287249
  H      0.771420    1.939139    0.253066
  H     -0.020038    1.468483   -1.260445
  H     -0.962667    1.571794    0.233434
  H     -0.436827   -0.858451   -0.290827
  H      1.910867   -1.668289   -0.373925
  H      2.527042    0.008362    0.032600
  H      0.964939    0.096279    3.430819
  H     -0.805207   -3.581734    1.514861
  H      0.411284   -3.110487    0.236625
  H      2.237296   -2.957948    1.901307
  H      1.113200   -3.460210    3.262556

 Total Charge           Charge          ....    0
 Multiplicity           Mult            ....    1
 Number of Electrons    NEL             ....   68
 Basis Dimension        Dim             ....  345

ORBITAL ENERGIES
----------------

  NO   OCC          E(Eh)            E(eV)
   0   2.0000     -20.548808      -559.1615
   1   2.0000     -15.575628      -423.8344
   2   2.0000     -11.326295      -308.2041
   3   2.0000     -11.276982      -306.8623
   4   2.0000     -11.268831      -306.6405
   5   2.0000     -11.264947      -306.5348
   6   2.0000     -11.249707      -306.1201
   7   2.0000     -11.236995      -305.7742
   8   2.0000     -11.216424      -305.2144
   9   2.0000      -1.389442       -37.8086
  10   2.0000      -1.292213       -35.1629
  11   2.0000      -1.154740       -31.4221
  12   2.0000      -0.992068       -26.9955
  13   2.0000      -0.946429       -25.7537
  14   2.0000      -0.867927       -23.6175
  15   2.0000      -0.849100       -23.1052
  16   2.0000      -0.799801       -21.7637
  17   2.0000      -0.744260       -20.2523
  18   2.0000      -0.723591       -19.6899
  19   2.0000      -0.671496       -18.2723
  20   2.0000      -0.644132       -17.5277
  21   2.0000      -0.631800       -17.1921
  22   2.0000      -0.599051       -16.3010
  23   2.0000      -0.579457       -15.7678
  24   2.0000      -0.562529       -15.3072
  25   2.0000      -0.537961       -14.6387
  26   2.0000      -0.528811       -14.3897
  27   2.0000      -0.513140       -13.9632
  28   2.0000      -0.500799       -13.6274
  29   2.0000      -0.491861       -13.3842
  30   2.0000      -0.457255       -12.4425
  31   2.0000      -0.432448       -11.7675
  32   2.0000      -0.398089       -10.8326
  33   2.0000      -0.365532        -9.9466
  34   0.0000       0.123964         3.3732
  35   0.0000       0.141098         3.8395
  36   0.0000       0.156940         4.2706
  37   0.0000       0.165944         4.5156
  38   0.0000       0.173694         4.7265

MULLIKEN ATOMIC CHARGES
-----------------------
   0 C :   -0.435369
   1 C :   -0.066812
   2 C :   -0.297071
   3 C :    0.127964
   4 C :    0.063388
   5 O :   -0.294665
   6 N :   -0.211754
   7 C :   -0.199616
   8 C :   -0.173436
   9 H :    0.163409
  10 H :    0.134819
  11 H :    0.135664
  12 H :    0.127941
  13 H :    0.144058
  14 H :    0.148677
  15 H :    0.097399
  16 H :    0.137353
  17 H :    0.128757
  18 H :    0.133193
  19 H :    0.136102
Sum of atomic charges:   -0.0000000

LOEWDIN ATOMIC CHARGES
----------------------
   0 C :   -0.289232
   1 C :   -0.196119
   2 C :   -0.181286
   3 C :   -0.282576
   4 C :   -0.253648
   5 O :    0.125141
   6 N :    0.141303
   7 C :   -0.263469
   8 C :   -0.252259
   9 H :    0.134615
  10 H :    0.128213
  11 H :    0.127551
  12 H :    0.155960
  13 H :    0.134508
  14 H :    0.146397
  15 H :    0.122718
  16 H :    0.126485
  17 H :    0.124077
  18 H :    0.126445
  19 H :    0.125178

  Mayer bond orders larger than 0.1
B(  0-C ,  1-C ) :   0.9115 B(  0-C ,  9-H ) :   0.9276 B(  0-C , 10-H ) :   0.9351
B(  0-C , 11-H ) :   0.9409 B(  1-C ,  2-C ) :   0.8965 B(  1-C ,  3-C ) :   0.7982
B(  1-C , 12-H ) :   0.9285 B(  2-C ,  3-C ) :   0.8356 B(  2-C , 13-H ) :   0.9235
B(  2-C , 14-H ) :   0.9033 B(  3-C ,  4-C ) :   0.8930 B(  3-C ,  6-N ) :   0.9236
B(  4-C ,  5-O ) :   1.9438 B(  4-C , 15-H ) :   0.9544 B(  6-N ,  7-C ) :   0.8868
B(  6-N ,  8-C ) :   0.8663 B(  7-C ,  8-C ) :   0.9370 B(  7-C , 16-H ) :   0.9255
B(  7-C , 17-H ) :   0.9286 B(  8-C , 18-H ) :   0.9185 B(  8-C , 19-H ) :   0.9281

MP2 TOTAL ENERGY:     -402.413911424 Eh
FINAL SINGLE POINT ENERGY      -402.413911423870

DIPOLE MOMENT
-------------
                                X             Y             Z
Electronic contribution:      1.79087       1.63209       4.39034
Nuclear contribution   :     -2.07642      -2.64473      -4.88593
                        -----------------------------------------
Total Dipole Moment    :     -0.28555      -1.01264      -0.49559
                        -----------------------------------------
Magnitude (a.u.)       :      1.16301
Magnitude (Debye)      :      2.95613

                             ****ORCA TERMINATED NORMALLY****
TOTAL RUN TIME: 0 days 0 hours 20 minutes 51 seconds 959 msec
