                         Program Version 3.0.3 - RELEASE   -
|  1> ! RI-MP2 RIJK def2-TZVP def2-TZVP/C def2-TZVP/JK TIGHTSCF
|  2> % maxcore 2000
|  3> % mp2 density relaxed end
|  4> *xyz 0 1
|  5>  C       -0.0965719123     1.5177452758     0.0031903055
|  6>  C        0.0591852894     0.0144943678     0.0010022029
|  7>  C        1.1333809754    -0.6771949072    -0.8945859159
|  8>  C        1.1267759262    -1.8085605238     0.1764926763
|  9>  C        0.7154197265    -0.7198958063     1.2068779980
| 10>  C       -0.0818884944    -2.7287742063    -0.0568054806
| 11>  C       -1.2373288426    -1.8998034665    -0.6560532523
| 12>  O       -1.2401363333    -0.5426621500    -0.2213065377
| 13>  H        0.8565477210     2.0044763562     0.2294786429
| 14>  H       -0.4479027791     1.8696054075    -0.9719177853
| 15>  H       -0.8308416319     1.8215935489     0.7560348880
| 16>  H        0.8789935149    -0.9154861845    -1.9306487898
| 17>  H        2.0674280881    -0.1099501113    -0.8772362969
| 18>  H        2.0475271808    -2.3689465784     0.3520848587
| 19>  H        1.5777342855    -0.1730760106     1.5989639487
| 20>  H        0.0490937230    -1.0073739565     2.0249179442
| 21>  H        0.1651669041    -3.5420936620    -0.7488753409
| 22>  H       -0.3753799541    -3.1903092484     0.8932245600
| 23>  H       -1.1712261082    -1.9284339171    -1.7533736710
| 24>  H       -2.2135785189    -2.3119390174    -0.3841794146
| 25> *
| 26>
| 27>                          ****END OF INPUT****

CARTESIAN COORDINATES (ANGSTROEM)
---------------------------------
  C     -0.096572    1.517745    0.003190
  C      0.059185    0.014494    0.001002
  C      1.133381   -0.677195   -0.894586
  C      1.126776   -1.808561    0.176493
  C      0.715420   -0.719896    1.206878
  C     -0.081888   -2.728774   -0.056805
  C     -1.237329   -1.899803   -0.656053
  O     -1.240136   -0.542662   -0.221307
  H      0.856548    2.004476    0.229479
  H     -0.447903    1.869605   -0.971918
  H     -0.830842    1.821594    0.756035
  H      0.878994   -0.915486   -1.930649
  H      2.067428   -0.109950   -0.877236
  H      2.047527   -2.368947    0.352085
  H      1.577734   -0.173076    1.598964
  H      0.049094   -1.007374    2.024918
  H      0.165167   -3.542094   -0.748875
  H     -0.375380   -3.190309    0.893225
  H     -1.171226   -1.928434   -1.753374
  H     -2.213579   -2.311939   -0.384179

 Total Charge           Charge          ....    0
 Multiplicity           Mult            ....    1
 Number of Electrons    NEL             ....   62
 Basis Dimension        Dim             ....  320

ORBITAL ENERGIES
----------------

  NO   OCC          E(Eh)            E(eV)
   0   2.0000     -20.542558      -558.9914
   1   2.0000     -11.281626      -306.9887
   2   2.0000     -11.268326      -306.6267
   3   2.0000     -11.231455      -305.6234
   4   2.0000     -11.222188      -305.3713
   5   2.0000     -11.219586      -305.3005
   6   2.0000     -11.213967      -305.1475
   7   2.0000     -11.207643      -304.9755
   8   2.0000      -1.366698       -37.1897
   9   2.0000      -1.129839       -30.7445
  10   2.0000      -1.041843       -28.3500
  11   2.0000      -0.951406       -25.8891
  12   2.0000      -0.903739       -24.5920
  13   2.0000      -0.859662       -23.3926
  14   2.0000      -0.803545       -21.8656
  15   2.0000      -0.711242       -19.3539
  16   2.0000      -0.667883       -18.1740
  17   2.0000      -0.656374       -17.8608
  18   2.0000      -0.620588       -16.8871
  19   2.0000      -0.597487       -16.2584
  20   2.0000      -0.577294       -15.7090
  21   2.0000      -0.557000       -15.1567
  22   2.0000      -0.539648       -14.6846
  23   2.0000      -0.532695       -14.4954
  24   2.0000      -0.522244       -14.2110
  25   2.0000      -0.516516       -14.0551
  26   2.0000      -0.468425       -12.7465
  27   2.0000      -0.446914       -12.1611
  28   2.0000      -0.441846       -12.0232
  29   2.0000      -0.410731       -11.1766
  30   2.0000      -0.386581       -10.5194
  31   0.0000       0.135555         3.6886
  32   0.0000       0.155299         4.2259
  33   0.0000       0.163346         4.4449
  34   0.0000       0.176098         4.7919
  35   0.0000       0.196365         5.3434

MULLIKEN ATOMIC CHARGES
-----------------------
   0 C :   -0.405444
   1 C :    0.276949
   2 C :   -0.309059
   3 C :    0.016707
   4 C :   -0.309180
   5 C :   -0.281967
   6 C :   -0.077773
   7 O :   -0.321812
   8 H :    0.117922
   9 H :    0.130401
  10 H :    0.136739
  11 H :    0.121442
  12 H :    0.119451
  13 H :    0.113611
  14 H :    0.111823
  15 H :    0.110829
  16 H :    0.121662
  17 H :    0.111278
  18 H :    0.094317
  19 H :    0.122102
Sum of atomic charges:    0.0000000

LOEWDIN ATOMIC CHARGES
----------------------
   0 C :   -0.274435
   1 C :   -0.346829
   2 C :   -0.184016
   3 C :   -0.224422
   4 C :   -0.183743
   5 C :   -0.245542
   6 C :   -0.304661
   7 O :    0.186386
   8 H :    0.125828
   9 H :    0.128543
  10 H :    0.130646
  11 H :    0.128928
  12 H :    0.141382
  13 H :    0.133832
  14 H :    0.137032
  15 H :    0.128669
  16 H :    0.139445
  17 H :    0.137024
  18 H :    0.118752
  19 H :    0.127183

  Mayer bond orders larger than 0.1
B(  0-C ,  1-C ) :   0.8753 B(  0-C ,  8-H ) :   0.9395 B(  0-C ,  9-H ) :   0.9399
B(  0-C , 10-H ) :   0.9419 B(  1-C ,  2-C ) :   0.9042 B(  1-C ,  4-C ) :   0.9143
B(  1-C ,  7-O ) :   0.9145 B(  2-C ,  3-C ) :   0.9337 B(  2-C , 11-H ) :   0.9165
B(  2-C , 12-H ) :   0.9163 B(  3-C ,  4-C ) :   0.9203 B(  3-C ,  5-C ) :   0.9035
B(  3-C , 13-H ) :   0.9297 B(  4-C , 14-H ) :   0.9132 B(  4-C , 15-H ) :   0.9194
B(  5-C ,  6-C ) :   0.9600 B(  5-C , 16-H ) :   0.9263 B(  5-C , 17-H ) :   0.9267
B(  6-C ,  7-O ) :   0.9543 B(  6-C , 18-H ) :   0.9351 B(  6-C , 19-H ) :   0.9246

MP2 TOTAL ENERGY:     -348.398240554 Eh
FINAL SINGLE POINT ENERGY      -348.398240553956

DIPOLE MOMENT
-------------
                                X             Y             Z
Electronic contribution:     -1.73694      -0.52344      -0.00214
Nuclear contribution   :      2.20026       0.22656      -0.06118
                        -----------------------------------------
Total Dipole Moment    :      0.46332      -0.29688      -0.06332
                        -----------------------------------------
Magnitude (a.u.)       :      0.55390
Magnitude (Debye)      :      1.40791

                             ****ORCA TERMINATED NORMALLY****
TOTAL RUN TIME: 0 days 0 hours 14 minutes 58 seconds 357 msec
