                         Program Version 3.0.3 - RELEASE   -
|  1> ! RI-MP2 RIJK def2-TZVP def2-TZVP/C def2-TZVP/JK TIGHTSCF
|  2> % maxcore 2000
|  3> % mp2 density relaxed end
|  4> *xyz 0 1
|  5>  C        0.0090977050     1.4898284488    -0.0634274943
|  6>  C        0.0543664547    -0.0195271999     0.0418045692
|  7>  C        1.3722537409    -0.7637800960    -0.1199073347
|  8>  C        0.6860812543    -0.7106991720     1.2114726271
|  9>  C        1.0869068223    -0.0731880892     2.5218894630
| 10>  C        0.0633307475    -0.8449980039     3.2659575175
| 11>  C        0.0764099373    -1.8501484448     2.0440131591
| 12>  C        1.3250574527    -2.4404274755     2.7229766283
| 13>  N        1.5003102820    -1.1597978004     3.4916871682
| 14>  H        0.9155597539     1.9444872909     0.3491162046
| 15>  H       -0.0714934394     1.8075177298    -1.1087991638
| 16>  H       -0.8473761135     1.9055154658     0.4789072803
| 17>  H       -0.8135626265    -0.5219299733    -0.3810224325
| 18>  H        1.3731483488    -1.7021853836    -0.6665376798
| 19>  H        2.2700759156    -0.1682413751    -0.2589729797
| 20>  H        1.4874076477     0.9123511366     2.7183204653
| 21>  H       -0.6448970521    -0.5893453726     4.0430407787
| 22>  H       -0.7415411111    -2.4559671333     1.6569142040
| 23>  H        1.1040597342    -3.2362914769     3.4387319295
| 24>  H        2.1695866457    -2.7275790054     2.0861229399
| 25> *
| 26>
| 27>                          ****END OF INPUT****

CARTESIAN COORDINATES (ANGSTROEM)
---------------------------------
  C      0.009098    1.489828   -0.063427
  C      0.054366   -0.019527    0.041805
  C      1.372254   -0.763780   -0.119907
  C      0.686081   -0.710699    1.211473
  C      1.086907   -0.073188    2.521889
  C      0.063331   -0.844998    3.265958
  C      0.076410   -1.850148    2.044013
  C      1.325057   -2.440427    2.722977
  N      1.500310   -1.159798    3.491687
  H      0.915560    1.944487    0.349116
  H     -0.071493    1.807518   -1.108799
  H     -0.847376    1.905515    0.478907
  H     -0.813563   -0.521930   -0.381022
  H      1.373148   -1.702185   -0.666538
  H      2.270076   -0.168241   -0.258973
  H      1.487408    0.912351    2.718320
  H     -0.644897   -0.589345    4.043041
  H     -0.741541   -2.455967    1.656914
  H      1.104060   -3.236291    3.438732
  H      2.169587   -2.727579    2.086123

 Total Charge           Charge          ....    0
 Multiplicity           Mult            ....    1
 Number of Electrons    NEL             ....   66
 Basis Dimension        Dim             ....  345

ORBITAL ENERGIES
----------------

  NO   OCC          E(Eh)            E(eV)
   0   2.0000     -15.558571      -423.3702
   1   2.0000     -11.260384      -306.4106
   2   2.0000     -11.258967      -306.3721
   3   2.0000     -11.250586      -306.1440
   4   2.0000     -11.243421      -305.9490
   5   2.0000     -11.241669      -305.9014
   6   2.0000     -11.234206      -305.6983
   7   2.0000     -11.220969      -305.3381
   8   2.0000     -11.220122      -305.3150
   9   2.0000      -1.312800       -35.7231
  10   2.0000      -1.146860       -31.2077
  11   2.0000      -0.992794       -27.0153
  12   2.0000      -0.978989       -26.6396
  13   2.0000      -0.948390       -25.8070
  14   2.0000      -0.846791       -23.0424
  15   2.0000      -0.794825       -21.6283
  16   2.0000      -0.757728       -20.6188
  17   2.0000      -0.716813       -19.5055
  18   2.0000      -0.686931       -18.6923
  19   2.0000      -0.648926       -17.6582
  20   2.0000      -0.602836       -16.4040
  21   2.0000      -0.598239       -16.2789
  22   2.0000      -0.579555       -15.7705
  23   2.0000      -0.562535       -15.3074
  24   2.0000      -0.551799       -15.0152
  25   2.0000      -0.509802       -13.8724
  26   2.0000      -0.500451       -13.6180
  27   2.0000      -0.476594       -12.9688
  28   2.0000      -0.443003       -12.0547
  29   2.0000      -0.418674       -11.3927
  30   2.0000      -0.403631       -10.9834
  31   2.0000      -0.391414       -10.6509
  32   2.0000      -0.358385        -9.7522
  33   0.0000       0.139896         3.8068
  34   0.0000       0.158378         4.3097
  35   0.0000       0.160950         4.3797
  36   0.0000       0.172725         4.7001
  37   0.0000       0.191444         5.2095

MULLIKEN ATOMIC CHARGES
-----------------------
   0 C :   -0.416959
   1 C :   -0.105224
   2 C :   -0.290773
   3 C :   -0.027478
   4 C :   -0.059240
   5 C :   -0.124577
   6 C :   -0.044860
   7 C :   -0.115797
   8 N :   -0.228625
   9 H :    0.124605
  10 H :    0.136754
  11 H :    0.134459
  12 H :    0.115053
  13 H :    0.129625
  14 H :    0.126124
  15 H :    0.141422
  16 H :    0.141629
  17 H :    0.136192
  18 H :    0.120601
  19 H :    0.107069
Sum of atomic charges:   -0.0000000

LOEWDIN ATOMIC CHARGES
----------------------
   0 C :   -0.291549
   1 C :   -0.204998
   2 C :   -0.190085
   3 C :   -0.195170
   4 C :   -0.168378
   5 C :   -0.157606
   6 C :   -0.141053
   7 C :   -0.226677
   8 N :    0.122019
   9 H :    0.126495
  10 H :    0.125846
  11 H :    0.125825
  12 H :    0.148961
  13 H :    0.134757
  14 H :    0.137084
  15 H :    0.138575
  16 H :    0.128956
  17 H :    0.133951
  18 H :    0.131373
  19 H :    0.121674

  Mayer bond orders larger than 0.1
B(  0-C ,  1-C ) :   0.8919 B(  0-C ,  9-H ) :   0.9382 B(  0-C , 10-H ) :   0.9383
B(  0-C , 11-H ) :   0.9403 B(  1-C ,  2-C ) :   0.9391 B(  1-C ,  3-C ) :   0.8599
B(  1-C , 12-H ) :   0.9155 B(  2-C ,  3-C ) :   0.8411 B(  2-C , 13-H ) :   0.9182
B(  2-C , 14-H ) :   0.9121 B(  3-C ,  4-C ) :   0.8662 B(  3-C ,  6-C ) :   0.8588
B(  4-C ,  5-C ) :   0.9336 B(  4-C ,  8-N ) :   0.9201 B(  4-C , 15-H ) :   0.9128
B(  5-C ,  6-C ) :   0.9205 B(  5-C ,  8-N ) :   0.8714 B(  5-C , 16-H ) :   0.8991
B(  6-C ,  7-C ) :   0.9248 B(  6-C , 17-H ) :   0.8937 B(  7-C ,  8-N ) :   0.9228
B(  7-C , 18-H ) :   0.9318 B(  7-C , 19-H ) :   0.9193

MP2 TOTAL ENERGY:     -365.260243830 Eh
FINAL SINGLE POINT ENERGY      -365.260243829865

DIPOLE MOMENT
-------------
                                X             Y             Z
Electronic contribution:      0.73403      -2.63888       4.94184
Nuclear contribution   :     -1.28017       2.59475      -5.51409
                        -----------------------------------------
Total Dipole Moment    :     -0.54615      -0.04413      -0.57226
                        -----------------------------------------
Magnitude (a.u.)       :      0.79228
Magnitude (Debye)      :      2.01380

                             ****ORCA TERMINATED NORMALLY****
TOTAL RUN TIME: 0 days 0 hours 20 minutes 42 seconds 851 msec
