                         Program Version 3.0.3 - RELEASE   -
|  1> ! RI-MP2 RIJK def2-TZVP def2-TZVP/C def2-TZVP/JK TIGHTSCF
|  2> % maxcore 2000
|  3> % mp2 density relaxed end
|  4> *xyz 0 1
|  5>  C       -0.0908880016     1.4898572871    -0.2444442618
|  6>  C       -0.0312092454    -0.0040334492     0.0856257138
|  7>  C       -1.4120896789    -0.6294865600     0.1897219623
|  8>  O       -2.1147496667    -0.5784469477    -1.0941763209
|  9>  C       -2.0725713022    -2.0033374130    -1.1878243240
| 10>  C       -1.4491357352    -2.1560079237     0.1838540417
| 11>  C       -2.8571642885    -2.6746979025    -0.0940663667
| 12>  C       -4.0965624104    -2.0332489526     0.4949147837
| 13>  C       -2.9170052236    -4.1880163863    -0.2131594822
| 14>  H        0.9126863267     1.9122000498    -0.3498003068
| 15>  H       -0.6305867589     1.6494876878    -1.1819758917
| 16>  H       -0.6089851790     2.0497042295     0.5420452597
| 17>  H        0.5403023010    -0.5393657225    -0.6820213466
| 18>  H        0.4880991139    -0.1655332946     1.0401710964
| 19>  H       -1.9994377028    -0.1281293194     0.9712845165
| 20>  H       -1.8488027137    -2.4391100129    -2.1564439934
| 21>  H       -0.6460439127    -2.7972211764     0.5266280414
| 22>  H       -4.0779445095    -0.9480214797     0.3789780968
| 23>  H       -4.9931347778    -2.4025744136    -0.0160523909
| 24>  H       -4.2007381715    -2.2711579791     1.5597648292
| 25>  H       -3.0107792559    -4.6553702614     0.7738250439
| 26>  H       -3.7797815519    -4.4988014215    -0.8128185780
| 27>  H       -2.0157876656    -4.5925218682    -0.6862362524
| 28> *
| 29>
| 30>                          ****END OF INPUT****

CARTESIAN COORDINATES (ANGSTROEM)
---------------------------------
  C     -0.090888    1.489857   -0.244444
  C     -0.031209   -0.004033    0.085626
  C     -1.412090   -0.629487    0.189722
  O     -2.114750   -0.578447   -1.094176
  C     -2.072571   -2.003337   -1.187824
  C     -1.449136   -2.156008    0.183854
  C     -2.857164   -2.674698   -0.094066
  C     -4.096562   -2.033249    0.494915
  C     -2.917005   -4.188016   -0.213159
  H      0.912686    1.912200   -0.349800
  H     -0.630587    1.649488   -1.181976
  H     -0.608985    2.049704    0.542045
  H      0.540302   -0.539366   -0.682021
  H      0.488099   -0.165533    1.040171
  H     -1.999438   -0.128129    0.971285
  H     -1.848803   -2.439110   -2.156444
  H     -0.646044   -2.797221    0.526628
  H     -4.077945   -0.948021    0.378978
  H     -4.993135   -2.402574   -0.016052
  H     -4.200738   -2.271158    1.559765
  H     -3.010779   -4.655370    0.773825
  H     -3.779782   -4.498801   -0.812819
  H     -2.015788   -4.592522   -0.686236

 Total Charge           Charge          ....    0
 Multiplicity           Mult            ....    1
 Number of Electrons    NEL             ....   70
 Basis Dimension        Dim             ....  363

ORBITAL ENERGIES
----------------

  NO   OCC          E(Eh)            E(eV)
   0   2.0000     -20.547414      -559.1236
   1   2.0000     -11.282314      -307.0074
   2   2.0000     -11.280591      -306.9605
   3   2.0000     -11.242474      -305.9233
   4   2.0000     -11.229502      -305.5703
   5   2.0000     -11.221867      -305.3625
   6   2.0000     -11.221145      -305.3429
   7   2.0000     -11.211214      -305.0726
   8   2.0000     -11.209428      -305.0241
   9   2.0000      -1.386007       -37.7152
  10   2.0000      -1.133619       -30.8474
  11   2.0000      -1.051873       -28.6229
  12   2.0000      -0.981412       -26.7056
  13   2.0000      -0.939782       -25.5728
  14   2.0000      -0.920447       -25.0466
  15   2.0000      -0.824821       -22.4445
  16   2.0000      -0.752344       -20.4723
  17   2.0000      -0.739783       -20.1305
  18   2.0000      -0.683266       -18.5926
  19   2.0000      -0.654314       -17.8048
  20   2.0000      -0.632985       -17.2244
  21   2.0000      -0.593568       -16.1518
  22   2.0000      -0.585131       -15.9222
  23   2.0000      -0.571884       -15.5618
  24   2.0000      -0.543604       -14.7922
  25   2.0000      -0.537849       -14.6356
  26   2.0000      -0.535590       -14.5741
  27   2.0000      -0.519672       -14.1410
  28   2.0000      -0.502871       -13.6838
  29   2.0000      -0.489930       -13.3317
  30   2.0000      -0.482247       -13.1226
  31   2.0000      -0.474034       -12.8991
  32   2.0000      -0.451544       -12.2871
  33   2.0000      -0.387091       -10.5333
  34   2.0000      -0.366962        -9.9855
  35   0.0000       0.136179         3.7056
  36   0.0000       0.150580         4.0975
  37   0.0000       0.161865         4.4046
  38   0.0000       0.174368         4.7448
  39   0.0000       0.188997         5.1429

MULLIKEN ATOMIC CHARGES
-----------------------
   0 C :   -0.396889
   1 C :   -0.232725
   2 C :    0.135812
   3 O :   -0.352060
   4 C :    0.019036
   5 C :   -0.260899
   6 C :    0.144776
   7 C :   -0.413111
   8 C :   -0.447264
   9 H :    0.133089
  10 H :    0.147341
  11 H :    0.118143
  12 H :    0.118601
  13 H :    0.105063
  14 H :    0.097752
  15 H :    0.129745
  16 H :    0.132622
  17 H :    0.157454
  18 H :    0.127314
  19 H :    0.128046
  20 H :    0.136715
  21 H :    0.137865
  22 H :    0.133573
Sum of atomic charges:    0.0000000

LOEWDIN ATOMIC CHARGES
----------------------
   0 C :   -0.315920
   1 C :   -0.272365
   2 C :   -0.253754
   3 O :    0.166449
   4 C :   -0.217268
   5 C :   -0.151330
   6 C :   -0.266470
   7 C :   -0.265040
   8 C :   -0.260585
   9 H :    0.120711
  10 H :    0.127493
  11 H :    0.120407
  12 H :    0.142598
  13 H :    0.140475
  14 H :    0.136986
  15 H :    0.131710
  16 H :    0.140997
  17 H :    0.133659
  18 H :    0.128410
  19 H :    0.126372
  20 H :    0.128372
  21 H :    0.127778
  22 H :    0.130315

  Mayer bond orders larger than 0.1
B(  0-C ,  1-C ) :   0.9225 B(  0-C ,  9-H ) :   0.9410 B(  0-C , 10-H ) :   0.9379
B(  0-C , 11-H ) :   0.9361 B(  1-C ,  2-C ) :   0.9107 B(  1-C , 12-H ) :   0.9369
B(  1-C , 13-H ) :   0.9277 B(  2-C ,  3-O ) :   0.8536 B(  2-C ,  5-C ) :   0.8973
B(  2-C , 14-H ) :   0.9166 B(  3-O ,  4-C ) :   0.9580 B(  4-C ,  5-C ) :   0.9182
B(  4-C ,  6-C ) :   0.8539 B(  4-C , 15-H ) :   0.9256 B(  5-C ,  6-C ) :   0.8313
B(  5-C , 16-H ) :   0.9194 B(  6-C ,  7-C ) :   0.9053 B(  6-C ,  8-C ) :   0.8864
B(  7-C , 17-H ) :   0.9300 B(  7-C , 18-H ) :   0.9356 B(  7-C , 19-H ) :   0.9360
B(  8-C , 20-H ) :   0.9418 B(  8-C , 21-H ) :   0.9438 B(  8-C , 22-H ) :   0.9291

MP2 TOTAL ENERGY:     -387.581825619 Eh
FINAL SINGLE POINT ENERGY      -387.581825619388

DIPOLE MOMENT
-------------
                                X             Y             Z
Electronic contribution:     -0.34961      -0.17642      -2.36782
Nuclear contribution   :      0.62011      -0.29583       2.71351
                        -----------------------------------------
Total Dipole Moment    :      0.27050      -0.47225       0.34570
                        -----------------------------------------
Magnitude (a.u.)       :      0.64475
Magnitude (Debye)      :      1.63882

                             ****ORCA TERMINATED NORMALLY****
TOTAL RUN TIME: 0 days 0 hours 31 minutes 10 seconds 467 msec
