                         Program Version 3.0.3 - RELEASE   -
|  1> ! RI-MP2 RIJK def2-TZVP def2-TZVP/C def2-TZVP/JK TIGHTSCF
|  2> % maxcore 2000
|  3> % mp2 density relaxed end
|  4> *xyz 0 1
|  5>  N       -0.0244025804    -1.1072576652    -0.4848388513
|  6>  C       -0.0051778818     0.0180739024    -0.2214096785
|  7>  C        0.0189061224     1.4476018593     0.0840760312
|  8>  C       -0.7951224975     2.2791405557    -0.9381064213
|  9>  O       -0.1656085359     3.5468145085    -0.9831713983
| 10>  C        1.2352453453     3.2898783231    -0.9401872769
| 11>  C        1.4004762355     2.2057491598     0.1210787776
| 12>  C        1.0139593298     2.6361619341     1.5585177525
| 13>  N       -0.1789546692     1.7556771230     1.5147467001
| 14>  H       -0.7708720360     1.7843420873    -1.9214554001
| 15>  H       -1.8376928021     2.4179732043    -0.6388175938
| 16>  H        1.5987427062     2.9381688425    -1.9186508105
| 17>  H        1.7392536406     4.2275929694    -0.6920193684
| 18>  H        2.3009336257     1.6025255965     0.0187048280
| 19>  H        1.7185269741     2.3569556671     2.3478067954
| 20>  H        0.7936249403     3.7066504743     1.6377644557
| 21>  H       -1.0651877270     2.1994087879     1.7300234687
| 22> *
| 23>
| 24>                          ****END OF INPUT****

CARTESIAN COORDINATES (ANGSTROEM)
---------------------------------
  N     -0.024403   -1.107258   -0.484839
  C     -0.005178    0.018074   -0.221410
  C      0.018906    1.447602    0.084076
  C     -0.795122    2.279141   -0.938106
  O     -0.165609    3.546815   -0.983171
  C      1.235245    3.289878   -0.940187
  C      1.400476    2.205749    0.121079
  C      1.013959    2.636162    1.558518
  N     -0.178955    1.755677    1.514747
  H     -0.770872    1.784342   -1.921455
  H     -1.837693    2.417973   -0.638818
  H      1.598743    2.938169   -1.918651
  H      1.739254    4.227593   -0.692019
  H      2.300934    1.602526    0.018705
  H      1.718527    2.356956    2.347807
  H      0.793625    3.706650    1.637764
  H     -1.065188    2.199409    1.730023

 Total Charge           Charge          ....    0
 Multiplicity           Mult            ....    1
 Number of Electrons    NEL             ....   66
 Basis Dimension        Dim             ....  327

ORBITAL ENERGIES
----------------

  NO   OCC          E(Eh)            E(eV)
   0   2.0000     -20.581717      -560.0570
   1   2.0000     -15.572595      -423.7519
   2   2.0000     -15.571325      -423.7173
   3   2.0000     -11.319939      -308.0312
   4   2.0000     -11.305705      -307.6439
   5   2.0000     -11.299308      -307.4698
   6   2.0000     -11.274587      -306.7971
   7   2.0000     -11.272050      -306.7281
   8   2.0000     -11.265670      -306.5545
   9   2.0000      -1.410910       -38.3928
  10   2.0000      -1.267541       -34.4915
  11   2.0000      -1.214689       -33.0534
  12   2.0000      -1.047516       -28.5044
  13   2.0000      -1.033790       -28.1308
  14   2.0000      -0.933477       -25.4012
  15   2.0000      -0.867179       -23.5971
  16   2.0000      -0.811289       -22.0763
  17   2.0000      -0.742164       -20.1953
  18   2.0000      -0.706907       -19.2359
  19   2.0000      -0.701461       -19.0877
  20   2.0000      -0.639263       -17.3952
  21   2.0000      -0.612696       -16.6723
  22   2.0000      -0.595512       -16.2047
  23   2.0000      -0.582838       -15.8598
  24   2.0000      -0.566227       -15.4078
  25   2.0000      -0.552584       -15.0366
  26   2.0000      -0.517751       -14.0887
  27   2.0000      -0.511310       -13.9134
  28   2.0000      -0.505183       -13.7467
  29   2.0000      -0.462924       -12.5968
  30   2.0000      -0.453138       -12.3305
  31   2.0000      -0.435804       -11.8588
  32   2.0000      -0.403271       -10.9736
  33   0.0000       0.128071         3.4850
  34   0.0000       0.132666         3.6100
  35   0.0000       0.152901         4.1607
  36   0.0000       0.162504         4.4219
  37   0.0000       0.170911         4.6507

MULLIKEN ATOMIC CHARGES
-----------------------
   0 N :   -0.047276
   1 C :   -0.222007
   2 C :    0.125232
   3 C :   -0.034668
   4 O :   -0.312878
   5 C :   -0.084396
   6 C :   -0.048092
   7 C :   -0.179962
   8 N :   -0.291393
   9 H :    0.116342
  10 H :    0.130609
  11 H :    0.112746
  12 H :    0.132457
  13 H :    0.152426
  14 H :    0.115940
  15 H :    0.123816
  16 H :    0.211104
Sum of atomic charges:    0.0000000

LOEWDIN ATOMIC CHARGES
----------------------
   0 N :    0.070947
   1 C :   -0.149311
   2 C :   -0.277770
   3 C :   -0.257711
   4 O :    0.160385
   5 C :   -0.283777
   6 C :   -0.167281
   7 C :   -0.236356
   8 N :    0.042728
   9 H :    0.134692
  10 H :    0.135403
  11 H :    0.127889
  12 H :    0.134334
  13 H :    0.152490
  14 H :    0.123590
  15 H :    0.126502
  16 H :    0.163248

  Mayer bond orders larger than 0.1
B(  0-N ,  1-C ) :   2.8767 B(  1-C ,  2-C ) :   0.9142 B(  2-C ,  3-C ) :   0.9417
B(  2-C ,  6-C ) :   0.8455 B(  2-C ,  8-N ) :   1.0631 B(  3-C ,  4-O ) :   0.9369
B(  3-C ,  9-H ) :   0.9165 B(  3-C , 10-H ) :   0.9062 B(  4-O ,  5-C ) :   0.9186
B(  5-C ,  6-C ) :   0.9620 B(  5-C , 11-H ) :   0.9324 B(  5-C , 12-H ) :   0.9147
B(  6-C ,  7-C ) :   0.9041 B(  6-C , 13-H ) :   0.9023 B(  7-C ,  8-N ) :   0.9823
B(  7-C , 14-H ) :   0.9178 B(  7-C , 15-H ) :   0.9090 B(  8-N , 16-H ) :   0.8716

MP2 TOTAL ENERGY:     -417.294971885 Eh
FINAL SINGLE POINT ENERGY      -417.294971884726

DIPOLE MOMENT
-------------
                                X             Y             Z
Electronic contribution:     -1.80927      -4.54754      -0.70037
Nuclear contribution   :      2.16671       6.03101       0.80916
                        -----------------------------------------
Total Dipole Moment    :      0.35744       1.48347       0.10878
                        -----------------------------------------
Magnitude (a.u.)       :      1.52980
Magnitude (Debye)      :      3.88845

                             ****ORCA TERMINATED NORMALLY****
TOTAL RUN TIME: 0 days 0 hours 18 minutes 48 seconds 239 msec
