                         Program Version 3.0.3 - RELEASE   -
|  1> ! RI-MP2 RIJK def2-TZVP def2-TZVP/C def2-TZVP/JK TIGHTSCF
|  2> % maxcore 2000
|  3> % mp2 density relaxed end
|  4> *xyz 0 1
|  5>  O        0.0174395802    -0.0385890264    -0.2413290486
|  6>  C       -0.0239706591     1.1231098461     0.0467644129
|  7>  O       -1.2067042213     1.6999374692     0.3944204565
|  8>  C       -1.3215191991     3.0758349627     0.8265985404
|  9>  C       -0.1014636610     3.5952170814     1.5490349561
| 10>  C        1.0535640438     3.1267712564     1.1143291859
| 11>  C        2.5029751917     2.8983908324     1.4754148558
| 12>  N        2.4281929293     1.6209591434     0.6914185366
| 13>  C        1.1629266691     2.0706322616     0.0529164191
| 14>  H       -1.5683802096     3.6881582987    -0.0518112625
| 15>  H       -2.1957433579     3.0825002097     1.4827536561
| 16>  H       -0.2297437838     4.2573774776     2.3979999634
| 17>  H        3.1813990639     3.6518460651     1.0496700178
| 18>  H        2.7442172005     2.7649576165     2.5348712233
| 19>  H        3.1948716134     1.4708421128     0.0455482044
| 20>  H        1.2813972899     2.4750843428    -0.9655326971
| 21> *
| 22>
| 23>                          ****END OF INPUT****

CARTESIAN COORDINATES (ANGSTROEM)
---------------------------------
  O      0.017440   -0.038589   -0.241329
  C     -0.023971    1.123110    0.046764
  O     -1.206704    1.699937    0.394420
  C     -1.321519    3.075835    0.826599
  C     -0.101464    3.595217    1.549035
  C      1.053564    3.126771    1.114329
  C      2.502975    2.898391    1.475415
  N      2.428193    1.620959    0.691419
  C      1.162927    2.070632    0.052916
  H     -1.568380    3.688158   -0.051811
  H     -2.195743    3.082500    1.482754
  H     -0.229744    4.257377    2.398000
  H      3.181399    3.651846    1.049670
  H      2.744217    2.764958    2.534871
  H      3.194872    1.470842    0.045548
  H      1.281397    2.475084   -0.965533

 Total Charge           Charge          ....    0
 Multiplicity           Mult            ....    1
 Number of Electrons    NEL             ....   66
 Basis Dimension        Dim             ....  321

ORBITAL ENERGIES
----------------

  NO   OCC          E(Eh)            E(eV)
   0   2.0000     -20.598134      -560.5037
   1   2.0000     -20.533502      -558.7450
   2   2.0000     -15.569752      -423.6745
   3   2.0000     -11.375382      -309.5399
   4   2.0000     -11.311746      -307.8082
   5   2.0000     -11.288193      -307.1674
   6   2.0000     -11.283252      -307.0329
   7   2.0000     -11.261571      -306.4429
   8   2.0000     -11.252471      -306.1953
   9   2.0000      -1.448643       -39.4196
  10   2.0000      -1.356624       -36.9156
  11   2.0000      -1.263702       -34.3871
  12   2.0000      -1.089604       -29.6496
  13   2.0000      -1.001409       -27.2497
  14   2.0000      -0.965480       -26.2721
  15   2.0000      -0.885151       -24.0862
  16   2.0000      -0.808942       -22.0124
  17   2.0000      -0.731703       -19.9106
  18   2.0000      -0.713844       -19.4247
  19   2.0000      -0.704259       -19.1639
  20   2.0000      -0.671380       -18.2692
  21   2.0000      -0.653577       -17.7847
  22   2.0000      -0.612912       -16.6782
  23   2.0000      -0.604241       -16.4422
  24   2.0000      -0.578099       -15.7309
  25   2.0000      -0.555864       -15.1258
  26   2.0000      -0.541197       -14.7267
  27   2.0000      -0.515732       -14.0338
  28   2.0000      -0.501713       -13.6523
  29   2.0000      -0.449511       -12.2318
  30   2.0000      -0.437170       -11.8960
  31   2.0000      -0.418695       -11.3933
  32   2.0000      -0.368210       -10.0195
  33   0.0000       0.109291         2.9740
  34   0.0000       0.129614         3.5270
  35   0.0000       0.145301         3.9538
  36   0.0000       0.158913         4.3243
  37   0.0000       0.175211         4.7677

MULLIKEN ATOMIC CHARGES
-----------------------
   0 O :   -0.278931
   1 C :    0.220228
   2 O :   -0.208046
   3 C :   -0.031556
   4 C :   -0.204344
   5 C :   -0.082407
   6 C :   -0.119743
   7 N :   -0.326180
   8 C :    0.030781
   9 H :    0.127271
  10 H :    0.141943
  11 H :    0.146027
  12 H :    0.125637
  13 H :    0.124878
  14 H :    0.210830
  15 H :    0.123612
Sum of atomic charges:    0.0000000

LOEWDIN ATOMIC CHARGES
----------------------
   0 O :    0.148660
   1 C :   -0.451084
   2 O :    0.257015
   3 C :   -0.252225
   4 C :   -0.149879
   5 C :   -0.145271
   6 C :   -0.218064
   7 N :    0.017359
   8 C :   -0.206758
   9 H :    0.135274
  10 H :    0.139729
  11 H :    0.146875
  12 H :    0.129586
  13 H :    0.130585
  14 H :    0.159253
  15 H :    0.158944

  Mayer bond orders larger than 0.1
B(  0-O ,  1-C ) :   2.0466 B(  1-C ,  2-O ) :   1.1279 B(  1-C ,  8-C ) :   0.8926
B(  2-O ,  3-C ) :   0.8833 B(  3-C ,  4-C ) :   0.9418 B(  3-C ,  9-H ) :   0.9168
B(  3-C , 10-H ) :   0.9365 B(  4-C ,  5-C ) :   1.7452 B(  4-C , 11-H ) :   0.9093
B(  5-C ,  6-C ) :   0.9077 B(  5-C ,  8-C ) :   0.9128 B(  6-C ,  7-N ) :   0.9535
B(  6-C , 12-H ) :   0.9055 B(  6-C , 13-H ) :   0.9135 B(  7-N ,  8-C ) :   0.9952
B(  7-N , 14-H ) :   0.8751 B(  8-C , 15-H ) :   0.8825

MP2 TOTAL ENERGY:     -437.150692272 Eh
FINAL SINGLE POINT ENERGY      -437.150692272152

DIPOLE MOMENT
-------------
                                X             Y             Z
Electronic contribution:     -2.29096      -4.29455      -1.72311
Nuclear contribution   :      2.80216       6.29318       1.90247
                        -----------------------------------------
Total Dipole Moment    :      0.51120       1.99863       0.17935
                        -----------------------------------------
Magnitude (a.u.)       :      2.07075
Magnitude (Debye)      :      5.26342

                             ****ORCA TERMINATED NORMALLY****
TOTAL RUN TIME: 0 days 0 hours 16 minutes 29 seconds 476 msec
