                         Program Version 3.0.3 - RELEASE   -
|  1> ! RI-MP2 RIJK def2-TZVP def2-TZVP/C def2-TZVP/JK TIGHTSCF
|  2> % maxcore 2000
|  3> % mp2 density relaxed end
|  4> *xyz 0 1
|  5>  N        0.2810028972    -1.1468788834     0.4078643490
|  6>  C        0.1392125644    -0.0173965776     0.2112594136
|  7>  C       -0.0565756251     1.4169328232    -0.0517726276
|  8>  C       -0.9429069348     2.0484512747     1.0031692492
|  9>  C       -0.7116097065     3.2388720091     1.5465738329
| 10>  C        0.4591821553     4.1205683189     1.2182184997
| 11>  C        1.5219967959     3.4332195875     0.3940390470
| 12>  O        2.0871413374     2.2423217189     0.9529978255
| 13>  C        1.2889057443     2.1169643752    -0.2159810251
| 14>  H       -0.5681402195     1.4799030212    -1.0251653099
| 15>  H       -1.8141655701     1.4698429318     1.2922633070
| 16>  H       -1.4139048221     3.6248475932     2.2805938001
| 17>  H        0.1137614375     5.0115424434     0.6739981189
| 18>  H        0.9132275738     4.5003860557     2.1433148699
| 19>  H        2.2541038304     4.0904533922    -0.0753663391
| 20>  H        1.8378330318     1.8357691361    -1.1142523310
| 21> *
| 22>
| 23>                          ****END OF INPUT****

CARTESIAN COORDINATES (ANGSTROEM)
---------------------------------
  N      0.281003   -1.146879    0.407864
  C      0.139213   -0.017397    0.211259
  C     -0.056576    1.416933   -0.051773
  C     -0.942907    2.048451    1.003169
  C     -0.711610    3.238872    1.546574
  C      0.459182    4.120568    1.218218
  C      1.521997    3.433220    0.394039
  O      2.087141    2.242322    0.952998
  C      1.288906    2.116964   -0.215981
  H     -0.568140    1.479903   -1.025165
  H     -1.814166    1.469843    1.292263
  H     -1.413905    3.624848    2.280594
  H      0.113761    5.011542    0.673998
  H      0.913228    4.500386    2.143315
  H      2.254104    4.090453   -0.075366
  H      1.837833    1.835769   -1.114252

 Total Charge           Charge          ....    0
 Multiplicity           Mult            ....    1
 Number of Electrons    NEL             ....   64
 Basis Dimension        Dim             ....  321

ORBITAL ENERGIES
----------------

  NO   OCC          E(Eh)            E(eV)
   0   2.0000     -20.584627      -560.1362
   1   2.0000     -15.570332      -423.6903
   2   2.0000     -11.314747      -307.8899
   3   2.0000     -11.309065      -307.7353
   4   2.0000     -11.302347      -307.5525
   5   2.0000     -11.273352      -306.7635
   6   2.0000     -11.257455      -306.3309
   7   2.0000     -11.256948      -306.3171
   8   2.0000     -11.255289      -306.2720
   9   2.0000      -1.435630       -39.0655
  10   2.0000      -1.220474       -33.2108
  11   2.0000      -1.135033       -30.8858
  12   2.0000      -1.066738       -29.0274
  13   2.0000      -0.990653       -26.9570
  14   2.0000      -0.894759       -24.3476
  15   2.0000      -0.858937       -23.3729
  16   2.0000      -0.754878       -20.5413
  17   2.0000      -0.728828       -19.8324
  18   2.0000      -0.697858       -18.9897
  19   2.0000      -0.672971       -18.3125
  20   2.0000      -0.637512       -17.3476
  21   2.0000      -0.612789       -16.6748
  22   2.0000      -0.604337       -16.4448
  23   2.0000      -0.571113       -15.5408
  24   2.0000      -0.556095       -15.1321
  25   2.0000      -0.541056       -14.7229
  26   2.0000      -0.506240       -13.7755
  27   2.0000      -0.475151       -12.9295
  28   2.0000      -0.460311       -12.5257
  29   2.0000      -0.457576       -12.4513
  30   2.0000      -0.446727       -12.1561
  31   2.0000      -0.381468       -10.3803
  32   0.0000       0.120554         3.2804
  33   0.0000       0.129313         3.5188
  34   0.0000       0.148304         4.0355
  35   0.0000       0.160954         4.3798
  36   0.0000       0.166786         4.5385

MULLIKEN ATOMIC CHARGES
-----------------------
   0 N :   -0.052544
   1 C :   -0.205716
   2 C :    0.187610
   3 C :   -0.245138
   4 C :   -0.186360
   5 C :   -0.088889
   6 C :   -0.017382
   7 O :   -0.319595
   8 C :   -0.018416
   9 H :    0.141181
  10 H :    0.144616
  11 H :    0.135156
  12 H :    0.126005
  13 H :    0.133331
  14 H :    0.126944
  15 H :    0.139197
Sum of atomic charges:    0.0000000

LOEWDIN ATOMIC CHARGES
----------------------
   0 N :    0.068944
   1 C :   -0.157602
   2 C :   -0.210149
   3 C :   -0.128198
   4 C :   -0.149121
   5 C :   -0.231743
   6 C :   -0.247724
   7 O :    0.190492
   8 C :   -0.229436
   9 H :    0.190987
  10 H :    0.154232
  11 H :    0.149644
  12 H :    0.156479
  13 H :    0.156499
  14 H :    0.141204
  15 H :    0.145491

  Mayer bond orders larger than 0.1
B(  0-N ,  1-C ) :   2.8670 B(  1-C ,  2-C ) :   0.9063 B(  2-C ,  3-C ) :   0.8993
B(  2-C ,  8-C ) :   0.8993 B(  2-C ,  9-H ) :   0.8877 B(  3-C ,  4-C ) :   1.8011
B(  3-C , 10-H ) :   0.9252 B(  4-C ,  5-C ) :   0.9562 B(  4-C , 11-H ) :   0.9252
B(  5-C ,  6-C ) :   0.9361 B(  5-C , 12-H ) :   0.8925 B(  5-C , 13-H ) :   0.9047
B(  6-C ,  7-O ) :   0.8975 B(  6-C ,  8-C ) :   0.9505 B(  6-C , 14-H ) :   0.9313
B(  7-O ,  8-C ) :   0.9251 B(  8-C , 15-H ) :   0.9214

MP2 TOTAL ENERGY:     -400.056438128 Eh
FINAL SINGLE POINT ENERGY      -400.056438128470

DIPOLE MOMENT
-------------
                                X             Y             Z
Electronic contribution:      1.39108      -5.72178      -0.48688
Nuclear contribution   :     -1.93825       7.71066      -0.11663
                        -----------------------------------------
Total Dipole Moment    :     -0.54717       1.98889      -0.60350
                        -----------------------------------------
Magnitude (a.u.)       :      2.14925
Magnitude (Debye)      :      5.46297

                             ****ORCA TERMINATED NORMALLY****
TOTAL RUN TIME: 0 days 0 hours 16 minutes 53 seconds 598 msec
