                         Program Version 3.0.3 - RELEASE   -
|  1> ! RI-MP2 RIJK def2-TZVP def2-TZVP/C def2-TZVP/JK TIGHTSCF
|  2> % maxcore 2000
|  3> % mp2 density relaxed end
|  4> *xyz 0 1
|  5>  C       -0.1168699155     1.6272383210     0.0881887681
|  6>  C        0.0051871915     0.1041462778    -0.0152469653
|  7>  C       -1.3561514826    -0.5889933429    -0.1365167341
|  8>  C       -1.3276312599    -2.1331471423    -0.0402628920
|  9>  C       -0.4223586950    -2.7457442085    -1.1116794991
| 10>  O       -0.7307313097    -2.5282242031     1.2078505454
| 11>  C       -2.7675059045    -2.6446074700    -0.0903056806
| 12>  C       -3.4366563100    -3.1811253322    -1.3323822488
| 13>  C       -3.1117291717    -4.1077204922    -0.1884369868
| 14>  H        0.8665567007     2.1012376100     0.1682460186
| 15>  H       -0.6179718580     2.0486296200    -0.7908651936
| 16>  H       -0.6995051584     1.9201193865     0.9691292280
| 17>  H        0.6316028412    -0.1475716197    -0.8791965677
| 18>  H        0.5197930816    -0.2927634553     0.8664088016
| 19>  H       -2.0110958132    -0.2202068003     0.6670482364
| 20>  H       -1.8453773821    -0.3028988377    -1.0771131874
| 21>  H        0.6166937860    -2.4815050536    -0.9052316637
| 22>  H       -0.4865750130    -3.8368175705    -1.1087716714
| 23>  H       -0.6803253138    -2.3795284121    -2.1087777994
| 24>  H       -1.3643806544    -2.3370708607     1.9076054552
| 25>  H       -3.4240066850    -2.0666636038     0.5594371738
| 26>  H       -4.4729441638    -2.9150765433    -1.5099136859
| 27>  H       -2.8446393825    -3.2743626116    -2.2355695966
| 28>  H       -2.3020944713    -4.8158613676    -0.3219411164
| 29>  H       -3.9255542665    -4.4811625377     0.4234776014
| 30> *
| 31>
| 32>                          ****END OF INPUT****

CARTESIAN COORDINATES (ANGSTROEM)
---------------------------------
  C     -0.116870    1.627238    0.088189
  C      0.005187    0.104146   -0.015247
  C     -1.356151   -0.588993   -0.136517
  C     -1.327631   -2.133147   -0.040263
  C     -0.422359   -2.745744   -1.111679
  O     -0.730731   -2.528224    1.207851
  C     -2.767506   -2.644607   -0.090306
  C     -3.436656   -3.181125   -1.332382
  C     -3.111729   -4.107720   -0.188437
  H      0.866557    2.101238    0.168246
  H     -0.617972    2.048630   -0.790865
  H     -0.699505    1.920119    0.969129
  H      0.631603   -0.147572   -0.879197
  H      0.519793   -0.292763    0.866409
  H     -2.011096   -0.220207    0.667048
  H     -1.845377   -0.302899   -1.077113
  H      0.616694   -2.481505   -0.905232
  H     -0.486575   -3.836818   -1.108772
  H     -0.680325   -2.379528   -2.108778
  H     -1.364381   -2.337071    1.907605
  H     -3.424007   -2.066664    0.559437
  H     -4.472944   -2.915077   -1.509914
  H     -2.844639   -3.274363   -2.235570
  H     -2.302094   -4.815861   -0.321941
  H     -3.925554   -4.481163    0.423478

 Total Charge           Charge          ....    0
 Multiplicity           Mult            ....    1
 Number of Electrons    NEL             ....   72
 Basis Dimension        Dim             ....  375

ORBITAL ENERGIES
----------------

  NO   OCC          E(Eh)            E(eV)
   0   2.0000     -20.544586      -559.0466
   1   2.0000     -11.284994      -307.0803
   2   2.0000     -11.229942      -305.5822
   3   2.0000     -11.226961      -305.5011
   4   2.0000     -11.223493      -305.4068
   5   2.0000     -11.215776      -305.1968
   6   2.0000     -11.212011      -305.0943
   7   2.0000     -11.209524      -305.0267
   8   2.0000     -11.209028      -305.0131
   9   2.0000      -1.352474       -36.8027
  10   2.0000      -1.143575       -31.1183
  11   2.0000      -1.066623       -29.0243
  12   2.0000      -1.004360       -27.3300
  13   2.0000      -0.928442       -25.2642
  14   2.0000      -0.865593       -23.5540
  15   2.0000      -0.823548       -22.4099
  16   2.0000      -0.790955       -21.5230
  17   2.0000      -0.755594       -20.5608
  18   2.0000      -0.685361       -18.6496
  19   2.0000      -0.659092       -17.9348
  20   2.0000      -0.636044       -17.3076
  21   2.0000      -0.624868       -17.0035
  22   2.0000      -0.578500       -15.7418
  23   2.0000      -0.574477       -15.6323
  24   2.0000      -0.559663       -15.2292
  25   2.0000      -0.537445       -14.6246
  26   2.0000      -0.529981       -14.4215
  27   2.0000      -0.512275       -13.9397
  28   2.0000      -0.508713       -13.8428
  29   2.0000      -0.497284       -13.5318
  30   2.0000      -0.486734       -13.2447
  31   2.0000      -0.463411       -12.6101
  32   2.0000      -0.451475       -12.2853
  33   2.0000      -0.442914       -12.0523
  34   2.0000      -0.414674       -11.2838
  35   2.0000      -0.403021       -10.9668
  36   0.0000       0.130735         3.5575
  37   0.0000       0.150232         4.0880
  38   0.0000       0.157986         4.2990
  39   0.0000       0.167289         4.5522
  40   0.0000       0.174575         4.7504

MULLIKEN ATOMIC CHARGES
-----------------------
   0 C :   -0.385761
   1 C :   -0.207671
   2 C :   -0.295411
   3 C :    0.296974
   4 C :   -0.461743
   5 O :   -0.465681
   6 C :   -0.150443
   7 C :   -0.273940
   8 C :   -0.242558
   9 H :    0.133950
  10 H :    0.118971
  11 H :    0.120470
  12 H :    0.110870
  13 H :    0.127173
  14 H :    0.096372
  15 H :    0.119042
  16 H :    0.153121
  17 H :    0.136493
  18 H :    0.127892
  19 H :    0.307114
  20 H :    0.112629
  21 H :    0.127340
  22 H :    0.133684
  23 H :    0.132108
  24 H :    0.129002
Sum of atomic charges:   -0.0000000

LOEWDIN ATOMIC CHARGES
----------------------
   0 C :   -0.322376
   1 C :   -0.294732
   2 C :   -0.236601
   3 C :   -0.379963
   4 C :   -0.264466
   5 O :    0.003508
   6 C :   -0.208535
   7 C :   -0.223912
   8 C :   -0.225629
   9 H :    0.120169
  10 H :    0.119150
  11 H :    0.118927
  12 H :    0.134438
  13 H :    0.139302
  14 H :    0.138838
  15 H :    0.143931
  16 H :    0.132361
  17 H :    0.127149
  18 H :    0.127552
  19 H :    0.172671
  20 H :    0.149939
  21 H :    0.130094
  22 H :    0.133907
  23 H :    0.133941
  24 H :    0.130337

  Mayer bond orders larger than 0.1
B(  0-C ,  1-C ) :   0.9119 B(  0-C ,  9-H ) :   0.9451 B(  0-C , 10-H ) :   0.9374
B(  0-C , 11-H ) :   0.9427 B(  1-C ,  2-C ) :   0.9270 B(  1-C , 12-H ) :   0.9331
B(  1-C , 13-H ) :   0.9365 B(  2-C ,  3-C ) :   0.9373 B(  2-C , 14-H ) :   0.9153
B(  2-C , 15-H ) :   0.9221 B(  3-C ,  4-C ) :   0.8148 B(  3-C ,  5-O ) :   0.9405
B(  3-C ,  6-C ) :   0.9439 B(  4-C , 16-H ) :   0.9382 B(  4-C , 17-H ) :   0.9487
B(  4-C , 18-H ) :   0.9357 B(  5-O , 19-H ) :   0.8452 B(  6-C ,  7-C ) :   0.8871
B(  6-C ,  8-C ) :   0.8703 B(  6-C , 20-H ) :   0.9131 B(  7-C ,  8-C ) :   0.9119
B(  7-C , 21-H ) :   0.9252 B(  7-C , 22-H ) :   0.9295 B(  8-C , 23-H ) :   0.9292
B(  8-C , 24-H ) :   0.9313

MP2 TOTAL ENERGY:     -388.812351924 Eh
FINAL SINGLE POINT ENERGY      -388.812351923951

DIPOLE MOMENT
-------------
                                X             Y             Z
Electronic contribution:     -1.44680      -4.48994       2.59270
Nuclear contribution   :      0.92773       4.68843      -2.67666
                        -----------------------------------------
Total Dipole Moment    :     -0.51907       0.19848      -0.08396
                        -----------------------------------------
Magnitude (a.u.)       :      0.56203
Magnitude (Debye)      :      1.42856

                             ****ORCA TERMINATED NORMALLY****
TOTAL RUN TIME: 0 days 0 hours 20 minutes 30 seconds 931 msec
