                         Program Version 3.0.3 - RELEASE   -
|  1> ! RI-MP2 RIJK def2-TZVP def2-TZVP/C def2-TZVP/JK TIGHTSCF
|  2> % maxcore 2000
|  3> % mp2 density relaxed end
|  4> *xyz 0 1
|  5>  C       -0.1329821116     1.3755555949     0.1066566136
|  6>  N        0.1836022786    -0.0364729987    -0.0265352951
|  7>  C        0.7478597109    -0.7049162508     1.0360731017
|  8>  N        0.6319390807    -2.0167425844     1.1855326298
|  9>  N        1.4161694864    -2.2396641150     2.3031503891
| 10>  C        1.6116616769    -3.5719987968     2.8141797693
| 11>  C        1.8957875655    -1.0657310257     2.7514061903
| 12>  N        2.7533351521    -0.9520323487     3.8356582092
| 13>  N        1.5022732649    -0.0640916460     1.9799248169
| 14>  H        0.7553200931     1.9097876703     0.4477267973
| 15>  H       -0.4212201891     1.7677653619    -0.8721246020
| 16>  H       -0.9453228880     1.5814678370     0.8208265683
| 17>  H       -0.5131378368    -0.5929964281    -0.4994149782
| 18>  H        2.5228669338    -3.5926736373     3.4170645460
| 19>  H        0.7639133495    -3.9060208651     3.4245886889
| 20>  H        1.7264494567    -4.2589855302     1.9732743490
| 21>  H        2.4456060388    -1.4389282934     4.6672781090
| 22>  H        2.9319522175     0.0226451962     4.0384255169
| 23> *
| 24>
| 25>                          ****END OF INPUT****

CARTESIAN COORDINATES (ANGSTROEM)
---------------------------------
  C     -0.132982    1.375556    0.106657
  N      0.183602   -0.036473   -0.026535
  C      0.747860   -0.704916    1.036073
  N      0.631939   -2.016743    1.185533
  N      1.416169   -2.239664    2.303150
  C      1.611662   -3.571999    2.814180
  C      1.895788   -1.065731    2.751406
  N      2.753335   -0.952032    3.835658
  N      1.502273   -0.064092    1.979925
  H      0.755320    1.909788    0.447727
  H     -0.421220    1.767765   -0.872125
  H     -0.945323    1.581468    0.820827
  H     -0.513138   -0.592996   -0.499415
  H      2.522867   -3.592674    3.417065
  H      0.763913   -3.906021    3.424589
  H      1.726449   -4.258986    1.973274
  H      2.445606   -1.438928    4.667278
  H      2.931952    0.022645    4.038426

 Total Charge           Charge          ....    0
 Multiplicity           Mult            ....    1
 Number of Electrons    NEL             ....   68
 Basis Dimension        Dim             ....  333

ORBITAL ENERGIES
----------------

  NO   OCC          E(Eh)            E(eV)
   0   2.0000     -15.621522      -425.0832
   1   2.0000     -15.588640      -424.1885
   2   2.0000     -15.556866      -423.3238
   3   2.0000     -15.549081      -423.1120
   4   2.0000     -15.530767      -422.6136
   5   2.0000     -11.344392      -308.6966
   6   2.0000     -11.310008      -307.7610
   7   2.0000     -11.271772      -306.7205
   8   2.0000     -11.244748      -305.9851
   9   2.0000      -1.395777       -37.9810
  10   2.0000      -1.246462       -33.9179
  11   2.0000      -1.230089       -33.4724
  12   2.0000      -1.167014       -31.7561
  13   2.0000      -1.082265       -29.4499
  14   2.0000      -0.961035       -26.1511
  15   2.0000      -0.914988       -24.8981
  16   2.0000      -0.810766       -22.0621
  17   2.0000      -0.793072       -21.5806
  18   2.0000      -0.729423       -19.8486
  19   2.0000      -0.680601       -18.5201
  20   2.0000      -0.661984       -18.0135
  21   2.0000      -0.651439       -17.7266
  22   2.0000      -0.620913       -16.8959
  23   2.0000      -0.601901       -16.3785
  24   2.0000      -0.590806       -16.0766
  25   2.0000      -0.566398       -15.4125
  26   2.0000      -0.552989       -15.0476
  27   2.0000      -0.530757       -14.4426
  28   2.0000      -0.495107       -13.4726
  29   2.0000      -0.485779       -13.2187
  30   2.0000      -0.433577       -11.7982
  31   2.0000      -0.424297       -11.5457
  32   2.0000      -0.375537       -10.2189
  33   2.0000      -0.303958        -8.2711
  34   0.0000       0.120734         3.2853
  35   0.0000       0.155483         4.2309
  36   0.0000       0.161890         4.4053
  37   0.0000       0.176627         4.8063
  38   0.0000       0.186044         5.0625

MULLIKEN ATOMIC CHARGES
-----------------------
   0 C :   -0.266602
   1 N :   -0.340816
   2 C :    0.228692
   3 N :   -0.310253
   4 N :    0.059985
   5 C :   -0.341406
   6 C :    0.267336
   7 N :   -0.541018
   8 N :   -0.382040
   9 H :    0.154445
  10 H :    0.131603
  11 H :    0.113707
  12 H :    0.232073
  13 H :    0.153956
  14 H :    0.147501
  15 H :    0.165243
  16 H :    0.258069
  17 H :    0.269525
Sum of atomic charges:    0.0000000

LOEWDIN ATOMIC CHARGES
----------------------
   0 C :   -0.328461
   1 N :    0.041701
   2 C :   -0.448142
   3 N :    0.015048
   4 N :    0.169532
   5 C :   -0.285491
   6 C :   -0.427940
   7 N :   -0.075462
   8 N :    0.080661
   9 H :    0.124295
  10 H :    0.114787
  11 H :    0.104274
  12 H :    0.183967
  13 H :    0.127716
  14 H :    0.120515
  15 H :    0.131579
  16 H :    0.170062
  17 H :    0.181358

  Mayer bond orders larger than 0.1
B(  0-C ,  1-N ) :   0.8985 B(  0-C ,  9-H ) :   0.9359 B(  0-C , 10-H ) :   0.9365
B(  0-C , 11-H ) :   0.9315 B(  1-N ,  2-C ) :   1.1111 B(  1-N , 12-H ) :   0.8743
B(  2-C ,  3-N ) :   1.5800 B(  2-C ,  8-N ) :   1.2856 B(  3-N ,  4-N ) :   0.9281
B(  4-N ,  5-C ) :   0.8768 B(  4-N ,  6-C ) :   1.2792 B(  5-C , 13-H ) :   0.9265
B(  5-C , 14-H ) :   0.9266 B(  5-C , 15-H ) :   0.9292 B(  6-C ,  7-N ) :   1.0197
B(  6-C ,  8-N ) :   1.5097 B(  7-N , 16-H ) :   0.8715 B(  7-N , 17-H ) :   0.8688

MP2 TOTAL ENERGY:     -430.754413834 Eh
FINAL SINGLE POINT ENERGY      -430.754413834364

DIPOLE MOMENT
-------------
                                X             Y             Z
Electronic contribution:      1.13048      -1.05636      -0.11284
Nuclear contribution   :     -1.24557       0.68892       1.19640
                        -----------------------------------------
Total Dipole Moment    :     -0.11509      -0.36745       1.08356
                        -----------------------------------------
Magnitude (a.u.)       :      1.14994
Magnitude (Debye)      :      2.92291

                             ****ORCA TERMINATED NORMALLY****
TOTAL RUN TIME: 0 days 0 hours 17 minutes 16 seconds 325 msec
