                         Program Version 3.0.3 - RELEASE   -
|  1> ! RI-MP2 RIJK def2-TZVP def2-TZVP/C def2-TZVP/JK TIGHTSCF
|  2> % maxcore 2000
|  3> % mp2 density relaxed end
|  4> *xyz 0 1
|  5>  C        0.0977510423    -3.7574708886     0.0050059562
|  6>  C        0.0640108253    -2.5497589213    -0.0034028600
|  7>  C        0.0236133522    -1.1920828684    -0.0117254977
|  8>  C       -0.0027765782     0.0202628278    -0.0277058599
|  9>  C       -0.0875766992     1.4361468921    -0.0213646466
| 10>  C        0.2860020270     2.2868345106    -1.1827468516
| 11>  N        1.1425908080     2.3807493991     0.0008616479
| 12>  C        0.3860331988     3.2492054645     0.9727479625
| 13>  C       -0.8169326608     2.2767887681     1.0361690990
| 14>  H        0.1310524030    -4.8186237651     0.0103069889
| 15>  H        0.7670039635     1.7895615884    -2.0186114030
| 16>  H       -0.3523754710     3.1281804672    -1.4506609735
| 17>  H        0.9397929718     3.3250725931     1.9093462070
| 18>  H        0.1935842148     4.2555932800     0.5867621027
| 19>  H       -1.8042516234     2.6487959576     0.7496181880
| 20>  H       -0.8935238641     1.7638428349     1.9952304600
| 21> *
| 22>
| 23>                          ****END OF INPUT****

CARTESIAN COORDINATES (ANGSTROEM)
---------------------------------
  C      0.097751   -3.757471    0.005006
  C      0.064011   -2.549759   -0.003403
  C      0.023613   -1.192083   -0.011725
  C     -0.002777    0.020263   -0.027706
  C     -0.087577    1.436147   -0.021365
  C      0.286002    2.286835   -1.182747
  N      1.142591    2.380749    0.000862
  C      0.386033    3.249205    0.972748
  C     -0.816933    2.276789    1.036169
  H      0.131052   -4.818624    0.010307
  H      0.767004    1.789562   -2.018611
  H     -0.352375    3.128180   -1.450661
  H      0.939793    3.325073    1.909346
  H      0.193584    4.255593    0.586762
  H     -1.804252    2.648796    0.749618
  H     -0.893524    1.763843    1.995230

 Total Charge           Charge          ....    0
 Multiplicity           Mult            ....    1
 Number of Electrons    NEL             ....   62
 Basis Dimension        Dim             ....  321

ORBITAL ENERGIES
----------------

  NO   OCC          E(Eh)            E(eV)
   0   2.0000     -15.579511      -423.9401
   1   2.0000     -11.298049      -307.4355
   2   2.0000     -11.273670      -306.7721
   3   2.0000     -11.266826      -306.5859
   4   2.0000     -11.259377      -306.3832
   5   2.0000     -11.257790      -306.3400
   6   2.0000     -11.253593      -306.2258
   7   2.0000     -11.249570      -306.1164
   8   2.0000     -11.247418      -306.0578
   9   2.0000      -1.304400       -35.4945
  10   2.0000      -1.090966       -29.6867
  11   2.0000      -1.030564       -28.0431
  12   2.0000      -1.021228       -27.7890
  13   2.0000      -0.957364       -26.0512
  14   2.0000      -0.869321       -23.6554
  15   2.0000      -0.829295       -22.5663
  16   2.0000      -0.784153       -21.3379
  17   2.0000      -0.711728       -19.3671
  18   2.0000      -0.702535       -19.1169
  19   2.0000      -0.648529       -17.6474
  20   2.0000      -0.643462       -17.5095
  21   2.0000      -0.562018       -15.2933
  22   2.0000      -0.557325       -15.1656
  23   2.0000      -0.523213       -14.2373
  24   2.0000      -0.503252       -13.6942
  25   2.0000      -0.485271       -13.2049
  26   2.0000      -0.465564       -12.6686
  27   2.0000      -0.447935       -12.1889
  28   2.0000      -0.401497       -10.9253
  29   2.0000      -0.355105        -9.6629
  30   2.0000      -0.335913        -9.1407
  31   0.0000       0.098843         2.6897
  32   0.0000       0.111042         3.0216
  33   0.0000       0.140888         3.8338
  34   0.0000       0.155471         4.2306
  35   0.0000       0.165682         4.5084

MULLIKEN ATOMIC CHARGES
-----------------------
   0 C :   -0.147204
   1 C :   -0.005086
   2 C :    0.118187
   3 C :   -0.119285
   4 C :   -0.081920
   5 C :   -0.145792
   6 N :   -0.218008
   7 C :   -0.154588
   8 C :   -0.217095
   9 H :    0.194859
  10 H :    0.142552
  11 H :    0.122356
  12 H :    0.130343
  13 H :    0.119958
  14 H :    0.126632
  15 H :    0.134092
Sum of atomic charges:   -0.0000000

LOEWDIN ATOMIC CHARGES
----------------------
   0 C :   -0.044492
   1 C :   -0.097882
   2 C :   -0.039546
   3 C :    0.013573
   4 C :   -0.235335
   5 C :   -0.212509
   6 N :    0.126383
   7 C :   -0.243253
   8 C :   -0.193431
   9 H :    0.130413
  10 H :    0.140308
  11 H :    0.129465
  12 H :    0.129526
  13 H :    0.121808
  14 H :    0.132088
  15 H :    0.142883

  Mayer bond orders larger than 0.1
B(  0-C ,  1-C ) :   2.5307 B(  0-C ,  3-C ) :   0.1258 B(  0-C ,  9-H ) :   0.8860
B(  1-C ,  2-C ) :   1.2793 B(  2-C ,  3-C ) :   2.5576 B(  2-C ,  4-C ) :  -0.2404
B(  3-C ,  4-C ) :   1.1581 B(  4-C ,  5-C ) :   0.9006 B(  4-C ,  6-N ) :   0.8581
B(  4-C ,  8-C ) :   0.8904 B(  5-C ,  6-N ) :   0.9124 B(  5-C , 10-H ) :   0.9238
B(  5-C , 11-H ) :   0.9025 B(  6-N ,  7-C ) :   0.9142 B(  7-C ,  8-C ) :   0.9731
B(  7-C , 12-H ) :   0.9191 B(  7-C , 13-H ) :   0.9372 B(  8-C , 14-H ) :   0.9125
B(  8-C , 15-H ) :   0.9254

MP2 TOTAL ENERGY:     -362.825381102 Eh
FINAL SINGLE POINT ENERGY      -362.825381101616

DIPOLE MOMENT
-------------
                                X             Y             Z
Electronic contribution:      1.11470      -7.20769      -1.00858
Nuclear contribution   :     -1.75614       7.61042       1.05352
                        -----------------------------------------
Total Dipole Moment    :     -0.64144       0.40273       0.04494
                        -----------------------------------------
Magnitude (a.u.)       :      0.75872
Magnitude (Debye)      :      1.92851

                             ****ORCA TERMINATED NORMALLY****
TOTAL RUN TIME: 0 days 0 hours 15 minutes 8 seconds 164 msec
