                         Program Version 3.0.3 - RELEASE   -
|  1> ! RI-MP2 RIJK def2-TZVP def2-TZVP/C def2-TZVP/JK TIGHTSCF
|  2> % maxcore 2000
|  3> % mp2 density relaxed end
|  4> *xyz 0 1
|  5>  C       -0.1717089705     1.5641066497    -0.0034283588
|  6>  C        0.0305114353     0.0505700262    -0.0152806661
|  7>  C        0.9384616183    -0.5073098251    -1.1595979717
|  8>  C        1.9429408318    -1.3351757748    -0.3383665406
|  9>  O        1.1808218785    -1.8377577818     0.7345905639
| 10>  C        0.7728212880    -0.5476008533     1.2196642931
| 11>  C        2.1344097309     0.1498209121     1.3144902324
| 12>  O        2.5358584661     1.0096401093     2.0387389474
| 13>  O        2.8584569761    -0.4029731233     0.2919908334
| 14>  H        0.7797319922     2.1014300530     0.0549879057
| 15>  H       -0.6857650562     1.8878040273    -0.9133913759
| 16>  H       -0.7810993774     1.8746880509     0.8514381810
| 17>  H       -0.9423556294    -0.4472880027    -0.0571915564
| 18>  H        0.3856308182    -1.1434174092    -1.8538312458
| 19>  H        1.4440539773     0.2770472040    -1.7268878438
| 20>  H        2.5149600224    -2.1179399068    -0.8309330086
| 21>  H        0.2204629585    -0.6211466755     2.1522185507
| 22> *
| 23>
| 24>                          ****END OF INPUT****

CARTESIAN COORDINATES (ANGSTROEM)
---------------------------------
  C     -0.171709    1.564107   -0.003428
  C      0.030511    0.050570   -0.015281
  C      0.938462   -0.507310   -1.159598
  C      1.942941   -1.335176   -0.338367
  O      1.180822   -1.837758    0.734591
  C      0.772821   -0.547601    1.219664
  C      2.134410    0.149821    1.314490
  O      2.535858    1.009640    2.038739
  O      2.858457   -0.402973    0.291991
  H      0.779732    2.101430    0.054988
  H     -0.685765    1.887804   -0.913391
  H     -0.781099    1.874688    0.851438
  H     -0.942356   -0.447288   -0.057192
  H      0.385631   -1.143417   -1.853831
  H      1.444054    0.277047   -1.726888
  H      2.514960   -2.117940   -0.830933
  H      0.220463   -0.621147    2.152219

 Total Charge           Charge          ....    0
 Multiplicity           Mult            ....    1
 Number of Electrons    NEL             ....   68
 Basis Dimension        Dim             ....  327

ORBITAL ENERGIES
----------------

  NO   OCC          E(Eh)            E(eV)
   0   2.0000     -20.608919      -560.7972
   1   2.0000     -20.594581      -560.4070
   2   2.0000     -20.554451      -559.3150
   3   2.0000     -11.386288      -309.8367
   4   2.0000     -11.364022      -309.2308
   5   2.0000     -11.317422      -307.9627
   6   2.0000     -11.264488      -306.5223
   7   2.0000     -11.250511      -306.1420
   8   2.0000     -11.234736      -305.7127
   9   2.0000      -1.499669       -40.8081
  10   2.0000      -1.413127       -38.4531
  11   2.0000      -1.358750       -36.9735
  12   2.0000      -1.107504       -30.1367
  13   2.0000      -1.037504       -28.2319
  14   2.0000      -0.963730       -26.2244
  15   2.0000      -0.869396       -23.6575
  16   2.0000      -0.835641       -22.7390
  17   2.0000      -0.790946       -21.5227
  18   2.0000      -0.739532       -20.1237
  19   2.0000      -0.710088       -19.3225
  20   2.0000      -0.671322       -18.2676
  21   2.0000      -0.647451       -17.6180
  22   2.0000      -0.617546       -16.8043
  23   2.0000      -0.609537       -16.5864
  24   2.0000      -0.587220       -15.9791
  25   2.0000      -0.581959       -15.8359
  26   2.0000      -0.561966       -15.2919
  27   2.0000      -0.552881       -15.0447
  28   2.0000      -0.524295       -14.2668
  29   2.0000      -0.508985       -13.8502
  30   2.0000      -0.505529       -13.7561
  31   2.0000      -0.476624       -12.9696
  32   2.0000      -0.459056       -12.4915
  33   2.0000      -0.431183       -11.7331
  34   0.0000       0.123081         3.3492
  35   0.0000       0.148500         4.0409
  36   0.0000       0.157608         4.2887
  37   0.0000       0.172340         4.6896
  38   0.0000       0.179787         4.8923

MULLIKEN ATOMIC CHARGES
-----------------------
   0 C :   -0.433723
   1 C :   -0.093483
   2 C :   -0.233426
   3 C :    0.146797
   4 O :   -0.294474
   5 C :    0.087752
   6 C :    0.201963
   7 O :   -0.270301
   8 O :   -0.232413
   9 H :    0.153135
  10 H :    0.140538
  11 H :    0.140053
  12 H :    0.115978
  13 H :    0.131955
  14 H :    0.132211
  15 H :    0.146554
  16 H :    0.160884
Sum of atomic charges:    0.0000000

LOEWDIN ATOMIC CHARGES
----------------------
   0 C :   -0.287652
   1 C :   -0.237058
   2 C :   -0.207617
   3 C :   -0.334161
   4 O :    0.210246
   5 C :   -0.236423
   6 C :   -0.442876
   7 O :    0.151496
   8 O :    0.258555
   9 H :    0.131690
  10 H :    0.128084
  11 H :    0.129276
  12 H :    0.157174
  13 H :    0.141165
  14 H :    0.146260
  15 H :    0.139366
  16 H :    0.152475

  Mayer bond orders larger than 0.1
B(  0-C ,  1-C ) :   0.9234 B(  0-C ,  9-H ) :   0.9212 B(  0-C , 10-H ) :   0.9340
B(  0-C , 11-H ) :   0.9377 B(  1-C ,  2-C ) :   0.9496 B(  1-C ,  5-C ) :   0.9164
B(  1-C , 12-H ) :   0.9092 B(  2-C ,  3-C ) :   0.9652 B(  2-C , 13-H ) :   0.9186
B(  2-C , 14-H ) :   0.9054 B(  3-C ,  4-O ) :   0.9960 B(  3-C ,  8-O ) :   0.8799
B(  3-C , 15-H ) :   0.9233 B(  4-O ,  5-C ) :   0.9042 B(  5-C ,  6-C ) :   0.9106
B(  5-C , 16-H ) :   0.8974 B(  6-C ,  7-O ) :   2.0411 B(  6-C ,  8-O ) :   1.0934

MP2 TOTAL ENERGY:     -458.281637987 Eh
FINAL SINGLE POINT ENERGY      -458.281637987489

DIPOLE MOMENT
-------------
                                X             Y             Z
Electronic contribution:      6.41318      -3.51594       4.59393
Nuclear contribution   :     -7.51847       3.17676      -5.60647
                        -----------------------------------------
Total Dipole Moment    :     -1.10529      -0.33918      -1.01253
                        -----------------------------------------
Magnitude (a.u.)       :      1.53686
Magnitude (Debye)      :      3.90638

                             ****ORCA TERMINATED NORMALLY****
TOTAL RUN TIME: 0 days 0 hours 17 minutes 31 seconds 953 msec
