                         Program Version 3.0.3 - RELEASE   -
|  1> ! RI-MP2 RIJK def2-TZVP def2-TZVP/C def2-TZVP/JK TIGHTSCF
|  2> % maxcore 2000
|  3> % mp2 density relaxed end
|  4> *xyz 0 1
|  5>  N       -0.3635211667     1.1467041602     0.1053689841
|  6>  C       -0.5653973656    -0.0616281317     0.4031609413
|  7>  O       -0.5275134888    -0.9954777961    -0.5804596465
|  8>  C       -0.7471477880    -2.3471237382    -0.2078917781
|  9>  C       -2.2329728006    -2.6942999527    -0.0985036905
| 10>  C       -2.6103323552    -4.1837516824     0.0656903575
| 11>  O       -3.2702648790    -3.8840892264     1.3347809646
| 12>  C       -2.9064269548    -2.5573927496     1.2580749097
| 13>  N       -3.0663495109    -1.6193477687     2.0744472061
| 14>  H       -0.4241697233     1.7196448224     0.9447673999
| 15>  H       -0.7878516376    -0.4704290274     1.3940531626
| 16>  H       -0.2972569757    -2.9418363467    -1.0085494128
| 17>  H       -0.2229434590    -2.5883855495     0.7262124887
| 18>  H       -2.7779285443    -2.1883117603    -0.8988097159
| 19>  H       -3.3148630735    -4.5944558720    -0.6600321055
| 20>  H       -1.7748346664    -4.8733306143     0.2179431722
| 21>  H       -3.5590215305    -1.9289401866     2.9137787227
| 22> *
| 23>
| 24>                          ****END OF INPUT****

CARTESIAN COORDINATES (ANGSTROEM)
---------------------------------
  N     -0.363521    1.146704    0.105369
  C     -0.565397   -0.061628    0.403161
  O     -0.527513   -0.995478   -0.580460
  C     -0.747148   -2.347124   -0.207892
  C     -2.232973   -2.694300   -0.098504
  C     -2.610332   -4.183752    0.065690
  O     -3.270265   -3.884089    1.334781
  C     -2.906427   -2.557393    1.258075
  N     -3.066350   -1.619348    2.074447
  H     -0.424170    1.719645    0.944767
  H     -0.787852   -0.470429    1.394053
  H     -0.297257   -2.941836   -1.008549
  H     -0.222943   -2.588386    0.726212
  H     -2.777929   -2.188312   -0.898810
  H     -3.314863   -4.594456   -0.660032
  H     -1.774835   -4.873331    0.217943
  H     -3.559022   -1.928940    2.913779

 Total Charge           Charge          ....    0
 Multiplicity           Mult            ....    1
 Number of Electrons    NEL             ....   68
 Basis Dimension        Dim             ....  327

ORBITAL ENERGIES
----------------

  NO   OCC          E(Eh)            E(eV)
   0   2.0000     -20.608122      -560.7755
   1   2.0000     -20.594825      -560.4137
   2   2.0000     -15.553079      -423.2208
   3   2.0000     -15.533841      -422.6973
   4   2.0000     -11.356338      -309.0217
   5   2.0000     -11.330507      -308.3188
   6   2.0000     -11.319539      -308.0203
   7   2.0000     -11.315966      -307.9231
   8   2.0000     -11.273391      -306.7646
   9   2.0000      -1.451433       -39.4955
  10   2.0000      -1.429057       -38.8866
  11   2.0000      -1.213635       -33.0247
  12   2.0000      -1.194805       -32.5123
  13   2.0000      -1.086041       -29.5527
  14   2.0000      -0.955225       -25.9930
  15   2.0000      -0.910640       -24.7798
  16   2.0000      -0.822718       -22.3873
  17   2.0000      -0.762943       -20.7607
  18   2.0000      -0.734620       -19.9900
  19   2.0000      -0.717554       -19.5256
  20   2.0000      -0.698639       -19.0109
  21   2.0000      -0.682125       -18.5616
  22   2.0000      -0.659962       -17.9585
  23   2.0000      -0.621620       -16.9152
  24   2.0000      -0.603174       -16.4132
  25   2.0000      -0.553461       -15.0604
  26   2.0000      -0.548590       -14.9279
  27   2.0000      -0.533627       -14.5207
  28   2.0000      -0.514637       -14.0040
  29   2.0000      -0.506284       -13.7767
  30   2.0000      -0.453554       -12.3418
  31   2.0000      -0.432479       -11.7683
  32   2.0000      -0.418186       -11.3794
  33   2.0000      -0.398624       -10.8471
  34   0.0000       0.124257         3.3812
  35   0.0000       0.145448         3.9578
  36   0.0000       0.153607         4.1799
  37   0.0000       0.155644         4.2353
  38   0.0000       0.168707         4.5908

MULLIKEN ATOMIC CHARGES
-----------------------
   0 N :   -0.347498
   1 C :    0.072459
   2 O :   -0.222617
   3 C :   -0.149366
   4 C :   -0.048368
   5 C :   -0.036076
   6 O :   -0.259830
   7 C :    0.137648
   8 N :   -0.394267
   9 H :    0.227427
  10 H :    0.110387
  11 H :    0.142829
  12 H :    0.140348
  13 H :    0.147569
  14 H :    0.127036
  15 H :    0.119478
  16 H :    0.232840
Sum of atomic charges:    0.0000000

LOEWDIN ATOMIC CHARGES
----------------------
   0 N :   -0.080384
   1 C :   -0.390628
   2 O :    0.237950
   3 C :   -0.283615
   4 C :   -0.200106
   5 C :   -0.207978
   6 O :    0.214185
   7 C :   -0.387899
   8 N :   -0.053754
   9 H :    0.169523
  10 H :    0.114544
  11 H :    0.139645
  12 H :    0.133454
  13 H :    0.168670
  14 H :    0.125362
  15 H :    0.125998
  16 H :    0.175033

  Mayer bond orders larger than 0.1
B(  0-N ,  1-C ) :   1.9576 B(  0-N ,  9-H ) :   0.8515 B(  1-C ,  2-O ) :   1.0205
B(  1-C , 10-H ) :   0.9204 B(  2-O ,  3-C ) :   0.8969 B(  3-C ,  4-C ) :   0.8954
B(  3-C , 11-H ) :   0.9298 B(  3-C , 12-H ) :   0.9455 B(  4-C ,  5-C ) :   0.9366
B(  4-C ,  7-C ) :   0.8970 B(  4-C , 13-H ) :   0.9048 B(  5-C ,  6-O ) :   0.8935
B(  5-C , 14-H ) :   0.9194 B(  5-C , 15-H ) :   0.9125 B(  6-O ,  7-C ) :   1.0714
B(  7-C ,  8-N ) :   1.9853 B(  8-N , 16-H ) :   0.8429

MP2 TOTAL ENERGY:     -454.387493260 Eh
FINAL SINGLE POINT ENERGY      -454.387493259627

DIPOLE MOMENT
-------------
                                X             Y             Z
Electronic contribution:     -1.31158       0.84179       0.65495
Nuclear contribution   :      1.17880      -2.40998      -0.30104
                        -----------------------------------------
Total Dipole Moment    :     -0.13278      -1.56820       0.35391
                        -----------------------------------------
Magnitude (a.u.)       :      1.61311
Magnitude (Debye)      :      4.10020

                             ****ORCA TERMINATED NORMALLY****
TOTAL RUN TIME: 0 days 0 hours 13 minutes 50 seconds 574 msec
