                         Program Version 3.0.3 - RELEASE   -
|  1> ! RI-MP2 RIJK def2-TZVP def2-TZVP/C def2-TZVP/JK TIGHTSCF
|  2> % maxcore 2000
|  3> % mp2 density relaxed end
|  4> *xyz 0 1
|  5>  O       -0.1178250330    -0.0573617849     0.0538202858
|  6>  C       -0.1036310973     1.1378373928     0.0306546253
|  7>  C       -1.1842111855     2.2319598946     0.1492730881
|  8>  C       -0.0575980827     3.1794234722     0.6895002315
|  9>  C        0.0311599849     3.1812781626     2.1858293863
| 10>  C        0.9505763777     2.4763694260     2.8441335829
| 11>  C        2.0201653012     1.6662832025     2.1669544030
| 12>  O        2.2032850974     1.9954705500     0.7942785577
| 13>  C        1.0179479492     2.2092087419     0.0982629935
| 14>  H       -1.5638191051     2.5357598601    -0.8315090061
| 15>  H       -2.0251150374     2.0106955305     0.8086504809
| 16>  H       -0.0685629866     4.1893665232     0.2733210184
| 17>  H       -0.7164821485     3.7521965273     2.7313645702
| 18>  H        0.9572186969     2.4534335544     3.9307743029
| 19>  H        2.9904530363     1.8440686008     2.6437355535
| 20>  H        1.8023297560     0.5908974251     2.2717906311
| 21>  H        1.2949922863     2.5025727308    -0.9207532950
| 22> *
| 23>
| 24>                          ****END OF INPUT****

CARTESIAN COORDINATES (ANGSTROEM)
---------------------------------
  O     -0.117825   -0.057362    0.053820
  C     -0.103631    1.137837    0.030655
  C     -1.184211    2.231960    0.149273
  C     -0.057598    3.179423    0.689500
  C      0.031160    3.181278    2.185829
  C      0.950576    2.476369    2.844134
  C      2.020165    1.666283    2.166954
  O      2.203285    1.995471    0.794279
  C      1.017948    2.209209    0.098263
  H     -1.563819    2.535760   -0.831509
  H     -2.025115    2.010696    0.808650
  H     -0.068563    4.189367    0.273321
  H     -0.716482    3.752197    2.731365
  H      0.957219    2.453434    3.930774
  H      2.990453    1.844069    2.643736
  H      1.802330    0.590897    2.271791
  H      1.294992    2.502573   -0.920753

 Total Charge           Charge          ....    0
 Multiplicity           Mult            ....    1
 Number of Electrons    NEL             ....   66
 Basis Dimension        Dim             ....  327

ORBITAL ENERGIES
----------------

  NO   OCC          E(Eh)            E(eV)
   0   2.0000     -20.572663      -559.8106
   1   2.0000     -20.559060      -559.4405
   2   2.0000     -11.335460      -308.4535
   3   2.0000     -11.299476      -307.4744
   4   2.0000     -11.288863      -307.1856
   5   2.0000     -11.255178      -306.2690
   6   2.0000     -11.248793      -306.0952
   7   2.0000     -11.244570      -305.9803
   8   2.0000     -11.242713      -305.9298
   9   2.0000      -1.407369       -38.2965
  10   2.0000      -1.390026       -37.8245
  11   2.0000      -1.150620       -31.3100
  12   2.0000      -1.075833       -29.2749
  13   2.0000      -0.963347       -26.2140
  14   2.0000      -0.905693       -24.6451
  15   2.0000      -0.865087       -23.5402
  16   2.0000      -0.773734       -21.0544
  17   2.0000      -0.715018       -19.4566
  18   2.0000      -0.695148       -18.9159
  19   2.0000      -0.679867       -18.5001
  20   2.0000      -0.657291       -17.8858
  21   2.0000      -0.641720       -17.4621
  22   2.0000      -0.612025       -16.6540
  23   2.0000      -0.595575       -16.2064
  24   2.0000      -0.572541       -15.5796
  25   2.0000      -0.552435       -15.0325
  26   2.0000      -0.532251       -14.4833
  27   2.0000      -0.524236       -14.2652
  28   2.0000      -0.497376       -13.5343
  29   2.0000      -0.490093       -13.3361
  30   2.0000      -0.431898       -11.7525
  31   2.0000      -0.392166       -10.6714
  32   2.0000      -0.363449        -9.8899
  33   0.0000       0.113949         3.1007
  34   0.0000       0.134758         3.6670
  35   0.0000       0.150196         4.0870
  36   0.0000       0.164849         4.4858
  37   0.0000       0.171611         4.6698

MULLIKEN ATOMIC CHARGES
-----------------------
   0 O :   -0.243185
   1 C :    0.077478
   2 C :   -0.227854
   3 C :   -0.001058
   4 C :   -0.249502
   5 C :   -0.178271
   6 C :   -0.018979
   7 O :   -0.301777
   8 C :    0.084354
   9 H :    0.141965
  10 H :    0.137814
  11 H :    0.128322
  12 H :    0.129206
  13 H :    0.129597
  14 H :    0.134479
  15 H :    0.128648
  16 H :    0.128762
Sum of atomic charges:    0.0000000

LOEWDIN ATOMIC CHARGES
----------------------
   0 O :    0.172528
   1 C :   -0.294385
   2 C :   -0.183107
   3 C :   -0.194499
   4 C :   -0.150283
   5 C :   -0.164897
   6 C :   -0.288655
   7 O :    0.198939
   8 C :   -0.260875
   9 H :    0.148153
  10 H :    0.141885
  11 H :    0.147762
  12 H :    0.146348
  13 H :    0.147198
  14 H :    0.138479
  15 H :    0.136278
  16 H :    0.159130

  Mayer bond orders larger than 0.1
B(  0-O ,  1-C ) :   2.0362 B(  1-C ,  2-C ) :   0.8803 B(  1-C ,  8-C ) :   0.8373
B(  2-C ,  3-C ) :   0.8913 B(  2-C ,  9-H ) :   0.9005 B(  2-C , 10-H ) :   0.8985
B(  3-C ,  4-C ) :   0.9120 B(  3-C ,  8-C ) :   0.8884 B(  3-C , 11-H ) :   0.9154
B(  4-C ,  5-C ) :   1.8039 B(  4-C , 12-H ) :   0.9282 B(  5-C ,  6-C ) :   0.9383
B(  5-C , 13-H ) :   0.9150 B(  6-C ,  7-O ) :   0.9160 B(  6-C , 14-H ) :   0.9199
B(  6-C , 15-H ) :   0.9262 B(  7-O ,  8-C ) :   0.9911 B(  8-C , 16-H ) :   0.9135

MP2 TOTAL ENERGY:     -421.114189998 Eh
FINAL SINGLE POINT ENERGY      -421.114189997754

DIPOLE MOMENT
-------------
                                X             Y             Z
Electronic contribution:      1.22816      -2.88551      -2.46440
Nuclear contribution   :     -1.60166       3.85554       2.80228
                        -----------------------------------------
Total Dipole Moment    :     -0.37351       0.97003       0.33788
                        -----------------------------------------
Magnitude (a.u.)       :      1.09299
Magnitude (Debye)      :      2.77817

                             ****ORCA TERMINATED NORMALLY****
TOTAL RUN TIME: 0 days 0 hours 18 minutes 30 seconds 352 msec
