                         Program Version 3.0.3 - RELEASE   -
|  1> ! RI-MP2 RIJK def2-TZVP def2-TZVP/C def2-TZVP/JK TIGHTSCF
|  2> % maxcore 2000
|  3> % mp2 density relaxed end
|  4> *xyz 0 1
|  5>  C       -0.3302547783     1.6190509114     0.3008747526
|  6>  C       -0.0940749398     0.1172602302     0.2108238746
|  7>  C        0.2572301555    -0.4854064643    -1.1865969944
|  8>  N        1.0334751026     0.3776829785    -2.0740174011
|  9>  C        2.2636832312     0.0934576779    -1.4974001179
| 10>  O        3.3559750241     0.5725091872    -1.6432997827
| 11>  C        1.6036812950    -0.9624897960    -0.5620913595
| 12>  N        1.1790736563    -0.4427214722     0.7440012961
| 13>  C        2.0943455045     0.3027358562     1.5841936859
| 14>  H        0.4620785078     2.1941943363    -0.1856220754
| 15>  H       -1.2844063505     1.8776876679    -0.1713021089
| 16>  H       -0.3850205461     1.9400680167     1.3458289669
| 17>  H       -0.9477079175    -0.4052669209     0.6638087388
| 18>  H       -0.4649136807    -1.1369869476    -1.6761979188
| 19>  H        0.7492366483     1.2196925028    -2.5578600087
| 20>  H        1.9986184619    -1.9805794164    -0.5749004386
| 21>  H        2.4970910845     1.2217961804     1.1299896757
| 22>  H        1.5959797309     0.5683107460     2.5222562506
| 23>  H        2.9450508604    -0.3406961339     1.8325964149
| 24> *
| 25>
| 26>                          ****END OF INPUT****

CARTESIAN COORDINATES (ANGSTROEM)
---------------------------------
  C     -0.330255    1.619051    0.300875
  C     -0.094075    0.117260    0.210824
  C      0.257230   -0.485406   -1.186597
  N      1.033475    0.377683   -2.074017
  C      2.263683    0.093458   -1.497400
  O      3.355975    0.572509   -1.643300
  C      1.603681   -0.962490   -0.562091
  N      1.179074   -0.442721    0.744001
  C      2.094346    0.302736    1.584194
  H      0.462079    2.194194   -0.185622
  H     -1.284406    1.877688   -0.171302
  H     -0.385021    1.940068    1.345829
  H     -0.947708   -0.405267    0.663809
  H     -0.464914   -1.136987   -1.676198
  H      0.749237    1.219693   -2.557860
  H      1.998618   -1.980579   -0.574900
  H      2.497091    1.221796    1.129990
  H      1.595980    0.568311    2.522256
  H      2.945051   -0.340696    1.832596

 Total Charge           Charge          ....    0
 Multiplicity           Mult            ....    1
 Number of Electrons    NEL             ....   68
 Basis Dimension        Dim             ....  339

ORBITAL ENERGIES
----------------

  NO   OCC          E(Eh)            E(eV)
   0   2.0000     -20.531183      -558.6819
   1   2.0000     -15.587209      -424.1495
   2   2.0000     -15.557860      -423.3509
   3   2.0000     -11.350715      -308.8687
   4   2.0000     -11.283667      -307.0442
   5   2.0000     -11.277411      -306.8740
   6   2.0000     -11.272393      -306.7374
   7   2.0000     -11.246717      -306.0387
   8   2.0000     -11.229688      -305.5754
   9   2.0000      -1.392294       -37.8863
  10   2.0000      -1.299814       -35.3697
  11   2.0000      -1.213998       -33.0346
  12   2.0000      -1.032343       -28.0915
  13   2.0000      -1.002217       -27.2717
  14   2.0000      -0.912904       -24.8414
  15   2.0000      -0.880489       -23.9593
  16   2.0000      -0.805107       -21.9081
  17   2.0000      -0.741996       -20.1907
  18   2.0000      -0.699276       -19.0283
  19   2.0000      -0.670239       -18.2381
  20   2.0000      -0.666101       -18.1255
  21   2.0000      -0.632741       -17.2177
  22   2.0000      -0.596584       -16.2339
  23   2.0000      -0.591300       -16.0901
  24   2.0000      -0.567099       -15.4315
  25   2.0000      -0.558294       -15.1920
  26   2.0000      -0.551501       -15.0071
  27   2.0000      -0.533375       -14.5139
  28   2.0000      -0.496948       -13.5226
  29   2.0000      -0.491648       -13.3784
  30   2.0000      -0.469232       -12.7684
  31   2.0000      -0.430653       -11.7187
  32   2.0000      -0.401618       -10.9286
  33   2.0000      -0.349894        -9.5211
  34   0.0000       0.124146         3.3782
  35   0.0000       0.151978         4.1355
  36   0.0000       0.154904         4.2152
  37   0.0000       0.167338         4.5535
  38   0.0000       0.178034         4.8446

MULLIKEN ATOMIC CHARGES
-----------------------
   0 C :   -0.442408
   1 C :   -0.033013
   2 C :    0.062308
   3 N :   -0.331199
   4 C :    0.185457
   5 O :   -0.305573
   6 C :   -0.104129
   7 N :   -0.132591
   8 C :   -0.326583
   9 H :    0.139356
  10 H :    0.140200
  11 H :    0.143901
  12 H :    0.093468
  13 H :    0.140536
  14 H :    0.234562
  15 H :    0.129842
  16 H :    0.126635
  17 H :    0.134319
  18 H :    0.144912
Sum of atomic charges:   -0.0000000

LOEWDIN ATOMIC CHARGES
----------------------
   0 C :   -0.301155
   1 C :   -0.254019
   2 C :   -0.193710
   3 N :    0.139667
   4 C :   -0.421296
   5 O :    0.108452
   6 C :   -0.176611
   7 N :    0.111964
   8 C :   -0.329344
   9 H :    0.124578
  10 H :    0.129694
  11 H :    0.129444
  12 H :    0.142365
  13 H :    0.132751
  14 H :    0.169568
  15 H :    0.136544
  16 H :    0.107995
  17 H :    0.118253
  18 H :    0.124861

  Mayer bond orders larger than 0.1
B(  0-C ,  1-C ) :   0.9119 B(  0-C ,  9-H ) :   0.9320 B(  0-C , 10-H ) :   0.9340
B(  0-C , 11-H ) :   0.9363 B(  1-C ,  2-C ) :   0.8847 B(  1-C ,  7-N ) :   0.9539
B(  1-C , 12-H ) :   0.9182 B(  2-C ,  3-N ) :   0.9327 B(  2-C ,  6-C ) :   0.8400
B(  2-C , 13-H ) :   0.9157 B(  3-N ,  4-C ) :   1.1534 B(  3-N , 14-H ) :   0.8557
B(  4-C ,  5-O ) :   2.0177 B(  4-C ,  6-C ) :   0.8722 B(  6-C ,  7-N ) :   0.9828
B(  6-C , 15-H ) :   0.8970 B(  7-N ,  8-C ) :   0.8966 B(  8-C , 16-H ) :   0.9236
B(  8-C , 17-H ) :   0.9342 B(  8-C , 18-H ) :   0.9350

MP2 TOTAL ENERGY:     -418.486548456 Eh
FINAL SINGLE POINT ENERGY      -418.486548455521

DIPOLE MOMENT
-------------
                                X             Y             Z
Electronic contribution:      3.89175      -3.12526      -6.15831
Nuclear contribution   :     -5.25855       3.23145       6.35785
                        -----------------------------------------
Total Dipole Moment    :     -1.36680       0.10619       0.19953
                        -----------------------------------------
Magnitude (a.u.)       :      1.38537
Magnitude (Debye)      :      3.52132

                             ****ORCA TERMINATED NORMALLY****
TOTAL RUN TIME: 0 days 0 hours 20 minutes 5 seconds 641 msec
