                         Program Version 3.0.3 - RELEASE   -
|  1> ! RI-MP2 RIJK def2-TZVP def2-TZVP/C def2-TZVP/JK TIGHTSCF
|  2> % maxcore 2000
|  3> % mp2 density relaxed end
|  4> *xyz 0 1
|  5>  C        0.1012935347     1.5999035230     0.0139080935
|  6>  C        0.0961183514     0.0680408113    -0.0067250965
|  7>  C        0.7724737766    -0.5766308138    -1.2169901472
|  8>  C        2.2449144028    -0.4721513545    -1.3401750852
|  9>  N        1.6380919509    -1.7085197674    -0.8057239799
| 10>  C        1.5789859085    -1.8103125668     0.6650651546
| 11>  C        2.7504767970    -1.2112462171     1.4564274988
| 12>  O        2.0316568982     0.0335061398     1.6364117379
| 13>  C        0.7926346752    -0.5883402133     1.1942982237
| 14>  H        1.1210052566     1.9834519451     0.0916751666
| 15>  H       -0.3522826606     2.0030295616    -0.8966968832
| 16>  H       -0.4667692528     1.9824110276     0.8679990012
| 17>  H       -0.9458767951    -0.2790864378     0.0092370798
| 18>  H        0.1656284122    -0.7380607074    -2.1044786790
| 19>  H        2.7204112580    -0.5992253910    -2.3088535004
| 20>  H        2.7590283117     0.2038823891    -0.6646366471
| 21>  H        1.2499248747    -2.8142252036     0.9377936719
| 22>  H        2.9341221037    -1.7076588257     2.4177544882
| 23>  H        3.6998144634    -1.0783081743     0.9277382209
| 24>  H        0.1198285927    -0.7420798750     2.0463804314
| 25> *
| 26>
| 27>                          ****END OF INPUT****

CARTESIAN COORDINATES (ANGSTROEM)
---------------------------------
  C      0.101294    1.599904    0.013908
  C      0.096118    0.068041   -0.006725
  C      0.772474   -0.576631   -1.216990
  C      2.244914   -0.472151   -1.340175
  N      1.638092   -1.708520   -0.805724
  C      1.578986   -1.810313    0.665065
  C      2.750477   -1.211246    1.456427
  O      2.031657    0.033506    1.636412
  C      0.792635   -0.588340    1.194298
  H      1.121005    1.983452    0.091675
  H     -0.352283    2.003030   -0.896697
  H     -0.466769    1.982411    0.867999
  H     -0.945877   -0.279086    0.009237
  H      0.165628   -0.738061   -2.104479
  H      2.720411   -0.599225   -2.308854
  H      2.759028    0.203882   -0.664637
  H      1.249925   -2.814225    0.937794
  H      2.934122   -1.707659    2.417754
  H      3.699814   -1.078308    0.927738
  H      0.119829   -0.742080    2.046380

 Total Charge           Charge          ....    0
 Multiplicity           Mult            ....    1
 Number of Electrons    NEL             ....   68
 Basis Dimension        Dim             ....  345

ORBITAL ENERGIES
----------------

  NO   OCC          E(Eh)            E(eV)
   0   2.0000     -20.550913      -559.2188
   1   2.0000     -15.558328      -423.3636
   2   2.0000     -11.282077      -307.0009
   3   2.0000     -11.279618      -306.9340
   4   2.0000     -11.259608      -306.3895
   5   2.0000     -11.256261      -306.2984
   6   2.0000     -11.249651      -306.1186
   7   2.0000     -11.237214      -305.7801
   8   2.0000     -11.216789      -305.2243
   9   2.0000      -1.383592       -37.6495
  10   2.0000      -1.270805       -34.5804
  11   2.0000      -1.061926       -28.8965
  12   2.0000      -1.022799       -27.8318
  13   2.0000      -0.932783       -25.3823
  14   2.0000      -0.892518       -24.2866
  15   2.0000      -0.853102       -23.2141
  16   2.0000      -0.775087       -21.0912
  17   2.0000      -0.750516       -20.4226
  18   2.0000      -0.711661       -19.3653
  19   2.0000      -0.652573       -17.7574
  20   2.0000      -0.632645       -17.2152
  21   2.0000      -0.617848       -16.8125
  22   2.0000      -0.598741       -16.2926
  23   2.0000      -0.583436       -15.8761
  24   2.0000      -0.558798       -15.2057
  25   2.0000      -0.546696       -14.8764
  26   2.0000      -0.517108       -14.0712
  27   2.0000      -0.501618       -13.6497
  28   2.0000      -0.484008       -13.1705
  29   2.0000      -0.462988       -12.5985
  30   2.0000      -0.448591       -12.2068
  31   2.0000      -0.428474       -11.6594
  32   2.0000      -0.417027       -11.3479
  33   2.0000      -0.369288       -10.0488
  34   0.0000       0.136545         3.7156
  35   0.0000       0.154703         4.2097
  36   0.0000       0.160219         4.3598
  37   0.0000       0.178318         4.8523
  38   0.0000       0.192674         5.2429

MULLIKEN ATOMIC CHARGES
-----------------------
   0 C :   -0.415674
   1 C :   -0.030211
   2 C :   -0.055105
   3 C :   -0.215537
   4 N :   -0.226962
   5 C :   -0.061446
   6 C :   -0.051372
   7 O :   -0.347399
   8 C :    0.044270
   9 H :    0.144007
  10 H :    0.133494
  11 H :    0.131708
  12 H :    0.097768
  13 H :    0.123144
  14 H :    0.126383
  15 H :    0.149397
  16 H :    0.123545
  17 H :    0.107962
  18 H :    0.118919
  19 H :    0.103109
Sum of atomic charges:   -0.0000000

LOEWDIN ATOMIC CHARGES
----------------------
   0 C :   -0.283721
   1 C :   -0.242219
   2 C :   -0.218419
   3 C :   -0.238269
   4 N :    0.125332
   5 C :   -0.239600
   6 C :   -0.259664
   7 O :    0.126762
   8 C :   -0.225917
   9 H :    0.128252
  10 H :    0.125134
  11 H :    0.125543
  12 H :    0.160978
  13 H :    0.138866
  14 H :    0.125231
  15 H :    0.133600
  16 H :    0.138951
  17 H :    0.122310
  18 H :    0.121355
  19 H :    0.135496

  Mayer bond orders larger than 0.1
B(  0-C ,  1-C ) :   0.8917 B(  0-C ,  9-H ) :   0.9317 B(  0-C , 10-H ) :   0.9384
B(  0-C , 11-H ) :   0.9356 B(  1-C ,  2-C ) :   0.9381 B(  1-C ,  8-C ) :   0.9183
B(  1-C , 12-H ) :   0.9174 B(  2-C ,  3-C ) :   0.9297 B(  2-C ,  4-N ) :   0.8999
B(  2-C , 13-H ) :   0.9150 B(  3-C ,  4-N ) :   0.8859 B(  3-C , 14-H ) :   0.9241
B(  3-C , 15-H ) :   0.9092 B(  4-N ,  5-C ) :   0.9578 B(  5-C ,  6-C ) :   0.9607
B(  5-C ,  8-C ) :   0.9480 B(  5-C , 16-H ) :   0.9295 B(  6-C ,  7-O ) :   0.9071
B(  6-C , 17-H ) :   0.9217 B(  6-C , 18-H ) :   0.9117 B(  7-O ,  8-C ) :   0.9549
B(  8-C , 19-H ) :   0.9207

MP2 TOTAL ENERGY:     -402.419269686 Eh
FINAL SINGLE POINT ENERGY      -402.419269686120

DIPOLE MOMENT
-------------
                                X             Y             Z
Electronic contribution:      1.39608      -3.38118       0.89689
Nuclear contribution   :     -1.69561       3.36444      -0.83873
                        -----------------------------------------
Total Dipole Moment    :     -0.29953      -0.01674       0.05815
                        -----------------------------------------
Magnitude (a.u.)       :      0.30558
Magnitude (Debye)      :      0.77672

                             ****ORCA TERMINATED NORMALLY****
TOTAL RUN TIME: 0 days 0 hours 20 minutes 37 seconds 749 msec
