                         Program Version 3.0.3 - RELEASE   -
|  1> ! RI-MP2 RIJK def2-TZVP def2-TZVP/C def2-TZVP/JK TIGHTSCF
|  2> % maxcore 2000
|  3> % mp2 density relaxed end
|  4> *xyz 0 1
|  5>  C       -0.0788792056     1.4478012630     0.0372905760
|  6>  C        0.0501744457    -0.0432541262     0.0562111259
|  7>  C       -0.5500204972    -1.1058306978    -0.8394603517
|  8>  N        0.4861469761    -2.0958641779    -0.3304401233
|  9>  C        1.2564177216    -0.9469233130     0.3585489725
| 10>  C        1.0491262854    -1.6195823291     1.7292387461
| 11>  C       -0.2159147148    -2.1667826398     1.0451501354
| 12>  C       -1.0640584945    -0.9764607174     0.5692759578
| 13>  O       -2.2258560160    -0.4422178560     1.0787291441
| 14>  H        0.5434392117     1.8982610725    -0.7435863993
| 15>  H       -1.1179789514     1.7399768292    -0.1417700886
| 16>  H        0.2210983171     1.8812070196     0.9985897295
| 17>  H       -0.9958189845    -1.0970402657    -1.8269355480
| 18>  H        2.2429652788    -0.6814597765    -0.0251179794
| 19>  H        1.7873718366    -2.4064663760     1.9046363968
| 20>  H        0.9357154415    -0.9923657240     2.6169417992
| 21>  H       -0.6976093559    -3.1024965655     1.3344318688
| 22>  H       -2.9581166346    -1.0237698892     0.8466174683
| 23> *
| 24>
| 25>                          ****END OF INPUT****

CARTESIAN COORDINATES (ANGSTROEM)
---------------------------------
  C     -0.078879    1.447801    0.037291
  C      0.050174   -0.043254    0.056211
  C     -0.550020   -1.105831   -0.839460
  N      0.486147   -2.095864   -0.330440
  C      1.256418   -0.946923    0.358549
  C      1.049126   -1.619582    1.729239
  C     -0.215915   -2.166783    1.045150
  C     -1.064058   -0.976461    0.569276
  O     -2.225856   -0.442218    1.078729
  H      0.543439    1.898261   -0.743586
  H     -1.117979    1.739977   -0.141770
  H      0.221098    1.881207    0.998590
  H     -0.995819   -1.097040   -1.826936
  H      2.242965   -0.681460   -0.025118
  H      1.787372   -2.406466    1.904636
  H      0.935715   -0.992366    2.616942
  H     -0.697609   -3.102497    1.334432
  H     -2.958117   -1.023770    0.846617

 Total Charge           Charge          ....    0
 Multiplicity           Mult            ....    1
 Number of Electrons    NEL             ....   66
 Basis Dimension        Dim             ....  333

ORBITAL ENERGIES
----------------

  NO   OCC          E(Eh)            E(eV)
   0   2.0000     -20.579762      -560.0038
   1   2.0000     -15.553777      -423.2398
   2   2.0000     -11.291166      -307.2482
   3   2.0000     -11.263132      -306.4854
   4   2.0000     -11.261580      -306.4432
   5   2.0000     -11.256098      -306.2940
   6   2.0000     -11.240200      -305.8614
   7   2.0000     -11.225727      -305.4676
   8   2.0000     -11.221620      -305.3558
   9   2.0000      -1.392842       -37.9012
  10   2.0000      -1.311109       -35.6771
  11   2.0000      -1.067733       -29.0545
  12   2.0000      -1.005836       -27.3702
  13   2.0000      -0.958962       -26.0947
  14   2.0000      -0.916328       -24.9345
  15   2.0000      -0.819834       -22.3088
  16   2.0000      -0.759963       -20.6797
  17   2.0000      -0.722738       -19.6667
  18   2.0000      -0.690338       -18.7851
  19   2.0000      -0.654780       -17.8175
  20   2.0000      -0.641230       -17.4488
  21   2.0000      -0.606565       -16.5055
  22   2.0000      -0.591698       -16.1009
  23   2.0000      -0.562558       -15.3080
  24   2.0000      -0.559747       -15.2315
  25   2.0000      -0.552730       -15.0406
  26   2.0000      -0.502935       -13.6856
  27   2.0000      -0.485028       -13.1983
  28   2.0000      -0.446282       -12.1440
  29   2.0000      -0.442826       -12.0499
  30   2.0000      -0.434656       -11.8276
  31   2.0000      -0.369352       -10.0506
  32   2.0000      -0.343287        -9.3413
  33   0.0000       0.132148         3.5959
  34   0.0000       0.150309         4.0901
  35   0.0000       0.166458         4.5296
  36   0.0000       0.176420         4.8006
  37   0.0000       0.189829         5.1655

MULLIKEN ATOMIC CHARGES
-----------------------
   0 C :   -0.419392
   1 C :    0.000059
   2 C :   -0.172849
   3 N :   -0.183421
   4 C :    0.000606
   5 C :   -0.270482
   6 C :   -0.021070
   7 C :    0.116037
   8 O :   -0.450557
   9 H :    0.139590
  10 H :    0.147892
  11 H :    0.134277
  12 H :    0.147794
  13 H :    0.124885
  14 H :    0.122604
  15 H :    0.122852
  16 H :    0.124640
  17 H :    0.336534
Sum of atomic charges:    0.0000000

LOEWDIN ATOMIC CHARGES
----------------------
   0 C :   -0.271795
   1 C :   -0.182787
   2 C :   -0.147175
   3 N :    0.151543
   4 C :   -0.161219
   5 C :   -0.210136
   6 C :   -0.171860
   7 C :   -0.298591
   8 O :    0.042169
   9 H :    0.128550
  10 H :    0.136581
  11 H :    0.131998
  12 H :    0.128953
  13 H :    0.131878
  14 H :    0.141666
  15 H :    0.131406
  16 H :    0.130551
  17 H :    0.188266

  Mayer bond orders larger than 0.1
B(  0-C ,  1-C ) :   0.8660 B(  0-C ,  9-H ) :   0.9489 B(  0-C , 10-H ) :   0.9299
B(  0-C , 11-H ) :   0.9312 B(  1-C ,  2-C ) :   0.8994 B(  1-C ,  4-C ) :   0.9196
B(  1-C ,  7-C ) :   0.8131 B(  2-C ,  3-N ) :   0.9794 B(  2-C ,  7-C ) :   0.8956
B(  2-C , 12-H ) :   0.8928 B(  3-N ,  4-C ) :   0.9485 B(  3-N ,  6-C ) :   0.9497
B(  4-C ,  5-C ) :   0.9672 B(  4-C , 13-H ) :   0.8968 B(  5-C ,  6-C ) :   0.9585
B(  5-C , 14-H ) :   0.9096 B(  5-C , 15-H ) :   0.9138 B(  6-C ,  7-C ) :   0.9763
B(  6-C , 16-H ) :   0.8883 B(  7-C ,  8-O ) :   1.0878 B(  8-O , 17-H ) :   0.8314

MP2 TOTAL ENERGY:     -401.168804725 Eh
FINAL SINGLE POINT ENERGY      -401.168804725195

DIPOLE MOMENT
-------------
                                X             Y             Z
Electronic contribution:     -1.91905      -3.48524      -0.88707
Nuclear contribution   :      1.54651       3.66426       1.01891
                        -----------------------------------------
Total Dipole Moment    :     -0.37255       0.17902       0.13184
                        -----------------------------------------
Magnitude (a.u.)       :      0.43384
Magnitude (Debye)      :      1.10274

                             ****ORCA TERMINATED NORMALLY****
TOTAL RUN TIME: 0 days 0 hours 18 minutes 40 seconds 341 msec
