                         Program Version 3.0.3 - RELEASE   -
|  1> ! RI-MP2 RIJK def2-TZVP def2-TZVP/C def2-TZVP/JK TIGHTSCF
|  2> % maxcore 2000
|  3> % mp2 density relaxed end
|  4> *xyz 0 1
|  5>  N       -0.0570172427     1.4418618569     0.0395257484
|  6>  C        0.0019271503     0.0040779449    -0.0010599237
|  7>  C       -0.5013171174    -0.7312022579     1.2376877386
|  8>  C       -1.3283939620    -0.7277286706     0.0031681992
|  9>  C       -2.6898971891    -0.1051782136    -0.2724583273
| 10>  O       -3.0190419790    -1.1885058676    -1.1706090780
| 11>  C       -1.7745169689    -1.8713931133    -0.9003865094
| 12>  C        1.0826466799    -0.6091085390    -0.7453674687
| 13>  N        1.9454448272    -1.0703734580    -1.3644837802
| 14>  H        0.7636477182     1.8222924789     0.5013884217
| 15>  H       -0.0800363247     1.8279243779    -0.8996723791
| 16>  H        0.0063614883    -1.6470365892     1.5201272725
| 17>  H       -0.8063672745    -0.0902682737     2.0578817309
| 18>  H       -3.3676134764    -0.0635075110     0.5897984115
| 19>  H       -2.6828859409     0.8697020793    -0.7726231999
| 20>  H       -1.1777176039    -2.0321431565    -1.8062009059
| 21>  H       -1.9340870742    -2.8323670175    -0.3947624108
| 22> *
| 23>
| 24>                          ****END OF INPUT****

CARTESIAN COORDINATES (ANGSTROEM)
---------------------------------
  N     -0.057017    1.441862    0.039526
  C      0.001927    0.004078   -0.001060
  C     -0.501317   -0.731202    1.237688
  C     -1.328394   -0.727729    0.003168
  C     -2.689897   -0.105178   -0.272458
  O     -3.019042   -1.188506   -1.170609
  C     -1.774517   -1.871393   -0.900387
  C      1.082647   -0.609109   -0.745367
  N      1.945445   -1.070373   -1.364484
  H      0.763648    1.822292    0.501388
  H     -0.080036    1.827924   -0.899672
  H      0.006361   -1.647037    1.520127
  H     -0.806367   -0.090268    2.057882
  H     -3.367613   -0.063508    0.589798
  H     -2.682886    0.869702   -0.772623
  H     -1.177718   -2.032143   -1.806201
  H     -1.934087   -2.832367   -0.394762

 Total Charge           Charge          ....    0
 Multiplicity           Mult            ....    1
 Number of Electrons    NEL             ....   66
 Basis Dimension        Dim             ....  327

ORBITAL ENERGIES
----------------

  NO   OCC          E(Eh)            E(eV)
   0   2.0000     -20.560787      -559.4874
   1   2.0000     -15.582236      -424.0142
   2   2.0000     -15.577425      -423.8833
   3   2.0000     -11.323098      -308.1172
   4   2.0000     -11.294595      -307.3416
   5   2.0000     -11.294423      -307.3369
   6   2.0000     -11.279495      -306.9307
   7   2.0000     -11.273381      -306.7643
   8   2.0000     -11.264948      -306.5348
   9   2.0000      -1.391642       -37.8685
  10   2.0000      -1.260616       -34.3031
  11   2.0000      -1.213663       -33.0254
  12   2.0000      -1.137115       -30.9425
  13   2.0000      -0.960790       -26.1444
  14   2.0000      -0.952030       -25.9061
  15   2.0000      -0.895784       -24.3755
  16   2.0000      -0.781141       -21.2559
  17   2.0000      -0.732827       -19.9412
  18   2.0000      -0.704720       -19.1764
  19   2.0000      -0.687748       -18.7146
  20   2.0000      -0.678269       -18.4566
  21   2.0000      -0.619651       -16.8616
  22   2.0000      -0.589758       -16.0481
  23   2.0000      -0.576600       -15.6901
  24   2.0000      -0.565091       -15.3769
  25   2.0000      -0.560327       -15.2473
  26   2.0000      -0.520050       -14.1513
  27   2.0000      -0.497200       -13.5295
  28   2.0000      -0.485197       -13.2029
  29   2.0000      -0.461289       -12.5523
  30   2.0000      -0.441925       -12.0254
  31   2.0000      -0.424328       -11.5465
  32   2.0000      -0.406139       -11.0516
  33   0.0000       0.114981         3.1288
  34   0.0000       0.142501         3.8776
  35   0.0000       0.150834         4.1044
  36   0.0000       0.161794         4.4026
  37   0.0000       0.171634         4.6704

MULLIKEN ATOMIC CHARGES
-----------------------
   0 N :   -0.553783
   1 C :    0.275188
   2 C :   -0.278196
   3 C :   -0.028515
   4 C :   -0.004499
   5 O :   -0.323991
   6 C :   -0.001586
   7 C :   -0.266059
   8 N :   -0.053051
   9 H :    0.248819
  10 H :    0.249628
  11 H :    0.157498
  12 H :    0.152509
  13 H :    0.101085
  14 H :    0.103126
  15 H :    0.119373
  16 H :    0.102454
Sum of atomic charges:   -0.0000000

LOEWDIN ATOMIC CHARGES
----------------------
   0 N :   -0.083836
   1 C :   -0.301178
   2 C :   -0.138350
   3 C :   -0.190858
   4 C :   -0.218959
   5 O :    0.118651
   6 C :   -0.218470
   7 C :   -0.163043
   8 N :    0.064515
   9 H :    0.167901
  10 H :    0.168232
  11 H :    0.147711
  12 H :    0.148721
  13 H :    0.123901
  14 H :    0.123373
  15 H :    0.127971
  16 H :    0.123718

  Mayer bond orders larger than 0.1
B(  0-N ,  1-C ) :   0.9853 B(  0-N ,  9-H ) :   0.8848 B(  0-N , 10-H ) :   0.8851
B(  1-C ,  2-C ) :   0.8463 B(  1-C ,  3-C ) :   0.7815 B(  1-C ,  7-C ) :   0.9588
B(  2-C ,  3-C ) :   0.9036 B(  2-C , 11-H ) :   0.9153 B(  2-C , 12-H ) :   0.9156
B(  3-C ,  4-C ) :   0.9686 B(  3-C ,  6-C ) :   0.9825 B(  4-C ,  5-O ) :   0.9628
B(  4-C , 13-H ) :   0.9131 B(  4-C , 14-H ) :   0.9020 B(  5-O ,  6-C ) :   0.9665
B(  6-C , 15-H ) :   0.8980 B(  6-C , 16-H ) :   0.9150 B(  7-C ,  8-N ) :   2.8575

MP2 TOTAL ENERGY:     -417.265743912 Eh
FINAL SINGLE POINT ENERGY      -417.265743911741

DIPOLE MOMENT
-------------
                                X             Y             Z
Electronic contribution:      2.80140      -1.19581      -2.42663
Nuclear contribution   :     -3.05037       1.88493       3.42984
                        -----------------------------------------
Total Dipole Moment    :     -0.24897       0.68912       1.00321
                        -----------------------------------------
Magnitude (a.u.)       :      1.24230
Magnitude (Debye)      :      3.15767

                             ****ORCA TERMINATED NORMALLY****
TOTAL RUN TIME: 0 days 0 hours 16 minutes 29 seconds 645 msec
