                         Program Version 3.0.3 - RELEASE   -
|  1> ! RI-MP2 RIJK def2-TZVP def2-TZVP/C def2-TZVP/JK TIGHTSCF
|  2> % maxcore 2000
|  3> % mp2 density relaxed end
|  4> *xyz 0 1
|  5>  O        0.0000583778     1.3666740250    -0.2767690076
|  6>  C       -0.0119249689    -0.0218007829     0.0314317759
|  7>  C       -1.4699975893    -0.4400384110     0.1247209228
|  8>  N       -2.1327979769    -0.1254861779    -1.1316999655
|  9>  C       -3.4066446965    -0.5197765693    -1.3590453349
| 10>  N       -4.0825852919    -1.4072057974    -0.6714440271
| 11>  O       -5.2788795205    -1.4835547954    -1.3471927743
| 12>  N       -5.2579462200    -0.6149207890    -2.4069211262
| 13>  N       -4.1444973861    -0.0279850777    -2.4299456776
| 14>  H        0.8999554062     1.6289458802    -0.4898669175
| 15>  H        0.4889368665    -0.6067549107    -0.7532222354
| 16>  H        0.4858922229    -0.2291254555     0.9893923447
| 17>  H       -1.5391842469    -1.5162338818     0.3073121923
| 18>  H       -1.9501100314     0.0721864694     0.9711305118
| 19>  H       -1.8719363749     0.7634214039    -1.5344419413
| 20> *
| 21>
| 22>                          ****END OF INPUT****

CARTESIAN COORDINATES (ANGSTROEM)
---------------------------------
  O      0.000058    1.366674   -0.276769
  C     -0.011925   -0.021801    0.031432
  C     -1.469998   -0.440038    0.124721
  N     -2.132798   -0.125486   -1.131700
  C     -3.406645   -0.519777   -1.359045
  N     -4.082585   -1.407206   -0.671444
  O     -5.278880   -1.483555   -1.347193
  N     -5.257946   -0.614921   -2.406921
  N     -4.144497   -0.027985   -2.429946
  H      0.899955    1.628946   -0.489867
  H      0.488937   -0.606755   -0.753222
  H      0.485892   -0.229125    0.989392
  H     -1.539184   -1.516234    0.307312
  H     -1.950110    0.072186    0.971131
  H     -1.871936    0.763421   -1.534442

 Total Charge           Charge          ....    0
 Multiplicity           Mult            ....    1
 Number of Electrons    NEL             ....   68
 Basis Dimension        Dim             ....  315

ORBITAL ENERGIES
----------------

  NO   OCC          E(Eh)            E(eV)
   0   2.0000     -20.684996      -562.8673
   1   2.0000     -20.583091      -560.0944
   2   2.0000     -15.724745      -427.8921
   3   2.0000     -15.642904      -425.6651
   4   2.0000     -15.631215      -425.3470
   5   2.0000     -15.598008      -424.4434
   6   2.0000     -11.359940      -309.1197
   7   2.0000     -11.302312      -307.5516
   8   2.0000     -11.282311      -307.0073
   9   2.0000      -1.573779       -42.8247
  10   2.0000      -1.388886       -37.7935
  11   2.0000      -1.331159       -36.2227
  12   2.0000      -1.290939       -35.1282
  13   2.0000      -1.171870       -31.8882
  14   2.0000      -1.029200       -28.0059
  15   2.0000      -0.932155       -25.3652
  16   2.0000      -0.876691       -23.8560
  17   2.0000      -0.841311       -22.8932
  18   2.0000      -0.772830       -21.0298
  19   2.0000      -0.727590       -19.7987
  20   2.0000      -0.713128       -19.4052
  21   2.0000      -0.682044       -18.5593
  22   2.0000      -0.665399       -18.1064
  23   2.0000      -0.628686       -17.1074
  24   2.0000      -0.607748       -16.5377
  25   2.0000      -0.581631       -15.8270
  26   2.0000      -0.563555       -15.3351
  27   2.0000      -0.537147       -14.6165
  28   2.0000      -0.510684       -13.8964
  29   2.0000      -0.503023       -13.6879
  30   2.0000      -0.495195       -13.4749
  31   2.0000      -0.481823       -13.1111
  32   2.0000      -0.474638       -12.9156
  33   2.0000      -0.371422       -10.1069
  34   0.0000       0.087595         2.3836
  35   0.0000       0.117577         3.1994
  36   0.0000       0.149720         4.0741
  37   0.0000       0.167334         4.5534
  38   0.0000       0.186593         5.0775

MULLIKEN ATOMIC CHARGES
-----------------------
   0 O :   -0.488867
   1 C :   -0.063763
   2 C :   -0.103971
   3 N :   -0.339155
   4 C :    0.219715
   5 N :   -0.165495
   6 O :   -0.006647
   7 N :   -0.010342
   8 N :   -0.132521
   9 H :    0.327976
  10 H :    0.115192
  11 H :    0.111619
  12 H :    0.142436
  13 H :    0.128491
  14 H :    0.265333
Sum of atomic charges:   -0.0000000

LOEWDIN ATOMIC CHARGES
----------------------
   0 O :   -0.052117
   1 C :   -0.346754
   2 C :   -0.280496
   3 N :    0.093274
   4 C :   -0.474351
   5 N :    0.006111
   6 O :    0.179401
   7 N :   -0.057149
   8 N :    0.030032
   9 H :    0.177849
  10 H :    0.121500
  11 H :    0.122573
  12 H :    0.145149
  13 H :    0.134719
  14 H :    0.200259

  Mayer bond orders larger than 0.1
B(  0-O ,  1-C ) :   0.9737 B(  0-O ,  9-H ) :   0.8432 B(  1-C ,  2-C ) :   0.9459
B(  1-C , 10-H ) :   0.9279 B(  1-C , 11-H ) :   0.9254 B(  2-C ,  3-N ) :   0.8821
B(  2-C , 12-H ) :   0.9209 B(  2-C , 13-H ) :   0.9262 B(  3-N ,  4-C ) :   1.1630
B(  3-N , 14-H ) :   0.8476 B(  4-C ,  5-N ) :   1.5223 B(  4-C ,  8-N ) :   1.2029
B(  5-N ,  6-O ) :   0.9041 B(  5-N ,  7-N ) :   0.1295 B(  6-O ,  7-N ) :   0.9643
B(  6-O ,  8-N ) :   0.1012 B(  7-N ,  8-N ) :   1.4312

MP2 TOTAL ENERGY:     -486.435119411 Eh
FINAL SINGLE POINT ENERGY      -486.435119410620

DIPOLE MOMENT
-------------
                                X             Y             Z
Electronic contribution:    -10.51366      -1.75098      -4.71219
Nuclear contribution   :     12.52092       2.01378       5.30969
                        -----------------------------------------
Total Dipole Moment    :      2.00726       0.26279       0.59751
                        -----------------------------------------
Magnitude (a.u.)       :      2.11073
Magnitude (Debye)      :      5.36505

                             ****ORCA TERMINATED NORMALLY****
TOTAL RUN TIME: 0 days 0 hours 13 minutes 57 seconds 551 msec
