                         Program Version 3.0.3 - RELEASE   -
|  1> ! RI-MP2 RIJK def2-TZVP def2-TZVP/C def2-TZVP/JK TIGHTSCF
|  2> % maxcore 2000
|  3> % mp2 density relaxed end
|  4> *xyz 0 1
|  5>  C       -0.0964318675     1.6415159966     0.1016824429
|  6>  C        0.0001742485     0.1209754037     0.0364611294
|  7>  C       -1.3897769580    -0.5095687210    -0.1873539652
|  8>  C       -1.9786667250    -0.1170973797    -1.4657577348
|  9>  N       -2.4227575646     0.2039017251    -2.4837283752
| 10>  C        1.1696220300    -0.5892499598    -0.7287514994
| 11>  C        2.1789039189    -0.1401478602     0.3540916197
| 12>  C        0.9019967702    -0.6778001412     1.0406880836
| 13>  O        0.9252264014    -1.8082336559     0.0831034892
| 14>  H        0.8660078753     2.1346914183     0.2377743502
| 15>  H       -0.5445739430     2.0314340849    -0.8176412849
| 16>  H       -0.7442099077     1.9421240639     0.9330192516
| 17>  H       -1.2983634567    -1.5974541849    -0.1581459221
| 18>  H       -2.0717607147    -0.2042609188     0.6152070779
| 19>  H        1.3087661338    -0.7209150623    -1.8021019068
| 20>  H        3.0397599457    -0.8006152585     0.4520901505
| 21>  H        2.4456737197     0.9116791381     0.4470099683
| 22>  H        0.7222097135    -0.9140802484     2.0908328153
| 23> *
| 24>
| 25>                          ****END OF INPUT****

CARTESIAN COORDINATES (ANGSTROEM)
---------------------------------
  C     -0.096432    1.641516    0.101682
  C      0.000174    0.120975    0.036461
  C     -1.389777   -0.509569   -0.187354
  C     -1.978667   -0.117097   -1.465758
  N     -2.422758    0.203902   -2.483728
  C      1.169622   -0.589250   -0.728751
  C      2.178904   -0.140148    0.354092
  C      0.901997   -0.677800    1.040688
  O      0.925226   -1.808234    0.083103
  H      0.866008    2.134691    0.237774
  H     -0.544574    2.031434   -0.817641
  H     -0.744210    1.942124    0.933019
  H     -1.298363   -1.597454   -0.158146
  H     -2.071761   -0.204261    0.615207
  H      1.308766   -0.720915   -1.802102
  H      3.039760   -0.800615    0.452090
  H      2.445674    0.911679    0.447010
  H      0.722210   -0.914080    2.090833

 Total Charge           Charge          ....    0
 Multiplicity           Mult            ....    1
 Number of Electrons    NEL             ....   66
 Basis Dimension        Dim             ....  333

ORBITAL ENERGIES
----------------

  NO   OCC          E(Eh)            E(eV)
   0   2.0000     -20.564310      -559.5833
   1   2.0000     -15.566365      -423.5823
   2   2.0000     -11.318280      -307.9861
   3   2.0000     -11.316433      -307.9358
   4   2.0000     -11.280054      -306.9459
   5   2.0000     -11.276362      -306.8454
   6   2.0000     -11.271767      -306.7204
   7   2.0000     -11.251732      -306.1752
   8   2.0000     -11.238060      -305.8032
   9   2.0000      -1.413286       -38.4575
  10   2.0000      -1.217183       -33.1212
  11   2.0000      -1.122245       -30.5378
  12   2.0000      -1.048972       -28.5440
  13   2.0000      -0.975049       -26.5324
  14   2.0000      -0.902354       -24.5543
  15   2.0000      -0.889588       -24.2069
  16   2.0000      -0.735716       -20.0199
  17   2.0000      -0.718237       -19.5442
  18   2.0000      -0.687994       -18.7213
  19   2.0000      -0.677386       -18.4326
  20   2.0000      -0.637308       -17.3420
  21   2.0000      -0.594504       -16.1773
  22   2.0000      -0.587325       -15.9819
  23   2.0000      -0.556711       -15.1489
  24   2.0000      -0.552830       -15.0433
  25   2.0000      -0.550816       -14.9885
  26   2.0000      -0.526121       -14.3165
  27   2.0000      -0.488888       -13.3033
  28   2.0000      -0.482848       -13.1390
  29   2.0000      -0.457637       -12.4529
  30   2.0000      -0.455711       -12.4005
  31   2.0000      -0.452381       -12.3099
  32   2.0000      -0.423500       -11.5240
  33   0.0000       0.125671         3.4197
  34   0.0000       0.151327         4.1178
  35   0.0000       0.160164         4.3583
  36   0.0000       0.163866         4.4590
  37   0.0000       0.173849         4.7307

MULLIKEN ATOMIC CHARGES
-----------------------
   0 C :   -0.418997
   1 C :    0.120852
   2 C :   -0.174923
   3 C :   -0.202727
   4 N :   -0.058298
   5 C :   -0.063548
   6 C :   -0.170711
   7 C :   -0.047280
   8 O :   -0.318218
   9 H :    0.133408
  10 H :    0.167874
  11 H :    0.137914
  12 H :    0.196190
  13 H :    0.154786
  14 H :    0.153245
  15 H :    0.130748
  16 H :    0.117965
  17 H :    0.141718
Sum of atomic charges:    0.0000000

LOEWDIN ATOMIC CHARGES
----------------------
   0 C :   -0.260928
   1 C :   -0.219576
   2 C :   -0.207948
   3 C :   -0.192334
   4 N :    0.052892
   5 C :   -0.181102
   6 C :   -0.195252
   7 C :   -0.189506
   8 O :    0.130855
   9 H :    0.126220
  10 H :    0.139578
  11 H :    0.132662
  12 H :    0.176335
  13 H :    0.166663
  14 H :    0.130957
  15 H :    0.137453
  16 H :    0.126215
  17 H :    0.126815

  Mayer bond orders larger than 0.1
B(  0-C ,  1-C ) :   0.9289 B(  0-C ,  9-H ) :   0.9287 B(  0-C , 10-H ) :   0.9285
B(  0-C , 11-H ) :   0.9289 B(  1-C ,  2-C ) :   0.8618 B(  1-C ,  5-C ) :   0.9116
B(  1-C ,  7-C ) :   0.8993 B(  2-C ,  3-C ) :   0.9254 B(  2-C , 12-H ) :   0.8978
B(  2-C , 13-H ) :   0.9108 B(  3-C ,  4-N ) :   2.8755 B(  5-C ,  6-C ) :   0.9116
B(  5-C ,  8-O ) :   0.8941 B(  5-C , 14-H ) :   0.8797 B(  6-C ,  7-C ) :   0.9196
B(  6-C , 15-H ) :   0.9218 B(  6-C , 16-H ) :   0.9228 B(  7-C ,  8-O ) :   0.8933
B(  7-C , 17-H ) :   0.8825

MP2 TOTAL ENERGY:     -401.203794571 Eh
FINAL SINGLE POINT ENERGY      -401.203794570902

DIPOLE MOMENT
-------------
                                X             Y             Z
Electronic contribution:     -3.04137      -3.95373      -3.34281
Nuclear contribution   :      3.90195       4.40813       4.72398
                        -----------------------------------------
Total Dipole Moment    :      0.86059       0.45440       1.38116
                        -----------------------------------------
Magnitude (a.u.)       :      1.68959
Magnitude (Debye)      :      4.29459

                             ****ORCA TERMINATED NORMALLY****
TOTAL RUN TIME: 0 days 0 hours 20 minutes 0 seconds 60 msec
