                         Program Version 3.0.3 - RELEASE   -
|  1> ! RI-MP2 RIJK def2-TZVP def2-TZVP/C def2-TZVP/JK TIGHTSCF
|  2> % maxcore 2000
|  3> % mp2 density relaxed end
|  4> *xyz 0 1
|  5>  C       -0.1118887156     1.5558686909     0.0393983040
|  6>  C        0.0216861902     0.0374283938     0.0040329896
|  7>  C        0.9779284030    -0.5420168903    -1.0320422415
|  8>  C        2.4170017297    -0.2898111745    -0.4416855693
|  9>  C        2.7489211773    -1.7818518820    -0.6706261763
| 10>  C        1.2260633929    -2.0201181117    -0.5634192301
| 11>  O        0.8369120008    -1.9819627970     0.8240321246
| 12>  C        0.8431435382    -0.5978763383     1.1429764013
| 13>  O        2.1503318850    -0.0702407570     0.9565279118
| 14>  H        0.8642185769     2.0377197134     0.1376115708
| 15>  H       -0.5870915977     1.9274520940    -0.8741343870
| 16>  H       -0.7297746893     1.8747452094     0.8856621440
| 17>  H       -0.9599949681    -0.4435261719    -0.0479279219
| 18>  H        0.8213191566    -0.3590843810    -2.0922128567
| 19>  H        3.0766122296     0.4970402734    -0.8086185131
| 20>  H        3.1190649118    -1.9648150239    -1.6844355128
| 21>  H        3.3855142494    -2.2715691653     0.0683306577
| 22>  H        0.7512453325    -2.8759477052    -1.0446084039
| 23>  H        0.5398094067    -0.4600376769     2.1795446689
| 24> *
| 25>
| 26>                          ****END OF INPUT****

CARTESIAN COORDINATES (ANGSTROEM)
---------------------------------
  C     -0.111889    1.555869    0.039398
  C      0.021686    0.037428    0.004033
  C      0.977928   -0.542017   -1.032042
  C      2.417002   -0.289811   -0.441686
  C      2.748921   -1.781852   -0.670626
  C      1.226063   -2.020118   -0.563419
  O      0.836912   -1.981963    0.824032
  C      0.843144   -0.597876    1.142976
  O      2.150332   -0.070241    0.956528
  H      0.864219    2.037720    0.137612
  H     -0.587092    1.927452   -0.874134
  H     -0.729775    1.874745    0.885662
  H     -0.959995   -0.443526   -0.047928
  H      0.821319   -0.359084   -2.092213
  H      3.076612    0.497040   -0.808619
  H      3.119065   -1.964815   -1.684436
  H      3.385514   -2.271569    0.068331
  H      0.751245   -2.875948   -1.044608
  H      0.539809   -0.460038    2.179545

 Total Charge           Charge          ....    0
 Multiplicity           Mult            ....    1
 Number of Electrons    NEL             ....   68
 Basis Dimension        Dim             ....  339

ORBITAL ENERGIES
----------------

  NO   OCC          E(Eh)            E(eV)
   0   2.0000     -20.557506      -559.3982
   1   2.0000     -20.557013      -559.3848
   2   2.0000     -11.327613      -308.2400
   3   2.0000     -11.286407      -307.1187
   4   2.0000     -11.286136      -307.1114
   5   2.0000     -11.238337      -305.8107
   6   2.0000     -11.232445      -305.6504
   7   2.0000     -11.223775      -305.4144
   8   2.0000     -11.219139      -305.2883
   9   2.0000      -1.433647       -39.0115
  10   2.0000      -1.335019       -36.3277
  11   2.0000      -1.121762       -30.5247
  12   2.0000      -1.066043       -29.0085
  13   2.0000      -0.934024       -25.4161
  14   2.0000      -0.892691       -24.2914
  15   2.0000      -0.875267       -23.8172
  16   2.0000      -0.792079       -21.5536
  17   2.0000      -0.738902       -20.1066
  18   2.0000      -0.726695       -19.7744
  19   2.0000      -0.673240       -18.3198
  20   2.0000      -0.639072       -17.3900
  21   2.0000      -0.599429       -16.3113
  22   2.0000      -0.594880       -16.1875
  23   2.0000      -0.585796       -15.9403
  24   2.0000      -0.566253       -15.4085
  25   2.0000      -0.553248       -15.0546
  26   2.0000      -0.539844       -14.6899
  27   2.0000      -0.508648       -13.8410
  28   2.0000      -0.500795       -13.6273
  29   2.0000      -0.489215       -13.3122
  30   2.0000      -0.459561       -12.5053
  31   2.0000      -0.439661       -11.9638
  32   2.0000      -0.407203       -11.0806
  33   2.0000      -0.404552       -11.0084
  34   0.0000       0.134089         3.6487
  35   0.0000       0.155213         4.2236
  36   0.0000       0.167564         4.5596
  37   0.0000       0.182752         4.9729
  38   0.0000       0.190798         5.1919

MULLIKEN ATOMIC CHARGES
-----------------------
   0 C :   -0.436188
   1 C :   -0.076240
   2 C :   -0.164598
   3 C :    0.058873
   4 C :   -0.232368
   5 C :    0.078485
   6 O :   -0.317806
   7 C :    0.151836
   8 O :   -0.323522
   9 H :    0.148627
  10 H :    0.132137
  11 H :    0.133476
  12 H :    0.109235
  13 H :    0.140439
  14 H :    0.121702
  15 H :    0.110862
  16 H :    0.119770
  17 H :    0.119110
  18 H :    0.126170
Sum of atomic charges:    0.0000000

LOEWDIN ATOMIC CHARGES
----------------------
   0 C :   -0.286497
   1 C :   -0.241483
   2 C :   -0.167723
   3 C :   -0.238520
   4 C :   -0.211544
   5 C :   -0.236471
   6 O :    0.189422
   7 C :   -0.352969
   8 O :    0.190684
   9 H :    0.130660
  10 H :    0.125300
  11 H :    0.126150
  12 H :    0.158745
  13 H :    0.147253
  14 H :    0.128098
  15 H :    0.139942
  16 H :    0.132442
  17 H :    0.128207
  18 H :    0.138304

  Mayer bond orders larger than 0.1
B(  0-C ,  1-C ) :   0.8966 B(  0-C ,  9-H ) :   0.9346 B(  0-C , 10-H ) :   0.9356
B(  0-C , 11-H ) :   0.9403 B(  1-C ,  2-C ) :   0.9257 B(  1-C ,  7-C ) :   0.9527
B(  1-C , 12-H ) :   0.9122 B(  2-C ,  3-C ) :   0.9112 B(  2-C ,  5-C ) :   0.9043
B(  2-C , 13-H ) :   0.9114 B(  3-C ,  4-C ) :   0.9557 B(  3-C ,  8-O ) :   0.8881
B(  3-C , 14-H ) :   0.9248 B(  4-C ,  5-C ) :   0.9520 B(  4-C , 15-H ) :   0.9231
B(  4-C , 16-H ) :   0.8976 B(  5-C ,  6-O ) :   0.8926 B(  5-C , 17-H ) :   0.9194
B(  6-O ,  7-C ) :   0.9837 B(  7-C ,  8-O ) :   0.9732 B(  7-C , 18-H ) :   0.9224

MP2 TOTAL ENERGY:     -422.327779124 Eh
FINAL SINGLE POINT ENERGY      -422.327779123825

DIPOLE MOMENT
-------------
                                X             Y             Z
Electronic contribution:      1.65864      -3.65304       2.73783
Nuclear contribution   :     -1.92741       3.92041      -3.56690
                        -----------------------------------------
Total Dipole Moment    :     -0.26878       0.26737      -0.82907
                        -----------------------------------------
Magnitude (a.u.)       :      0.91164
Magnitude (Debye)      :      2.31720

                             ****ORCA TERMINATED NORMALLY****
TOTAL RUN TIME: 0 days 0 hours 18 minutes 53 seconds 116 msec
