                         Program Version 3.0.3 - RELEASE   -
|  1> ! RI-MP2 RIJK def2-TZVP def2-TZVP/C def2-TZVP/JK TIGHTSCF
|  2> % maxcore 2000
|  3> % mp2 density relaxed end
|  4> *xyz 0 1
|  5>  C       -0.2924467819     1.6380706903    -0.1138882857
|  6>  C        0.0736279211     0.1536906991     0.0189097930
|  7>  N        0.7092181895    -0.4257443393    -1.1599197778
|  8>  C        2.1518193395    -0.7236391961    -1.1355147570
|  9>  C        2.9975019605     0.5214491105    -0.8412850835
| 10>  C        2.4767734211    -1.8786734195    -0.1780420922
| 11>  C        0.0152300950    -0.7313074366    -2.3131800818
| 12>  N       -1.3516357833    -0.4645802962    -2.2925066122
| 13>  O        0.5456740485    -1.1686325044    -3.3234273790
| 14>  H        0.6010647997     2.2421756398    -0.2911315062
| 15>  H       -0.9810273563     1.7990624662    -0.9465312502
| 16>  H       -0.7700825869     1.9931213713     0.8056086160
| 17>  H        0.7633674586     0.0242825542     0.8568964812
| 18>  H       -0.8162816470    -0.4295667203     0.2959526283
| 19>  H        2.3685209286    -1.0523530996    -2.1526887124
| 20>  H        4.0610979594     0.2738364616    -0.9152372318
| 21>  H        2.7830209400     1.3176560343    -1.5596078335
| 22>  H        2.8246606627     0.9113090197     0.1683624723
| 23>  H        1.8955562253    -2.7684309422    -0.4359827725
| 24>  H        3.5391507919    -2.1344282499    -0.2434558644
| 25>  H        2.2672585883    -1.6229653994     0.8671410716
| 26>  H       -1.8534295951    -0.5255142869    -1.4209680755
| 27>  H       -1.8188403893    -0.9050499665    -3.0702996366
| 28> *
| 29>
| 30>                          ****END OF INPUT****

CARTESIAN COORDINATES (ANGSTROEM)
---------------------------------
  C     -0.292447    1.638071   -0.113888
  C      0.073628    0.153691    0.018910
  N      0.709218   -0.425744   -1.159920
  C      2.151819   -0.723639   -1.135515
  C      2.997502    0.521449   -0.841285
  C      2.476773   -1.878673   -0.178042
  C      0.015230   -0.731307   -2.313180
  N     -1.351636   -0.464580   -2.292507
  O      0.545674   -1.168633   -3.323427
  H      0.601065    2.242176   -0.291132
  H     -0.981027    1.799062   -0.946531
  H     -0.770083    1.993121    0.805609
  H      0.763367    0.024283    0.856896
  H     -0.816282   -0.429567    0.295953
  H      2.368521   -1.052353   -2.152689
  H      4.061098    0.273836   -0.915237
  H      2.783021    1.317656   -1.559608
  H      2.824661    0.911309    0.168362
  H      1.895556   -2.768431   -0.435983
  H      3.539151   -2.134428   -0.243456
  H      2.267259   -1.622965    0.867141
  H     -1.853430   -0.525514   -1.420968
  H     -1.818840   -0.905050   -3.070300

 Total Charge           Charge          ....    0
 Multiplicity           Mult            ....    1
 Number of Electrons    NEL             ....   72
 Basis Dimension        Dim             ....  363

ORBITAL ENERGIES
----------------

  NO   OCC          E(Eh)            E(eV)
   0   2.0000     -20.496865      -557.7481
   1   2.0000     -15.573598      -423.7791
   2   2.0000     -15.571797      -423.7301
   3   2.0000     -11.366096      -309.2872
   4   2.0000     -11.274346      -306.7906
   5   2.0000     -11.259546      -306.3878
   6   2.0000     -11.222540      -305.3808
   7   2.0000     -11.216596      -305.2191
   8   2.0000     -11.215499      -305.1893
   9   2.0000      -1.381265       -37.5861
  10   2.0000      -1.245078       -33.8803
  11   2.0000      -1.189332       -32.3634
  12   2.0000      -1.053196       -28.6589
  13   2.0000      -1.011384       -27.5212
  14   2.0000      -0.935856       -25.4659
  15   2.0000      -0.875719       -23.8295
  16   2.0000      -0.835333       -22.7306
  17   2.0000      -0.744164       -20.2497
  18   2.0000      -0.731619       -19.9084
  19   2.0000      -0.676245       -18.4016
  20   2.0000      -0.646495       -17.5920
  21   2.0000      -0.627586       -17.0775
  22   2.0000      -0.605673       -16.4812
  23   2.0000      -0.599151       -16.3037
  24   2.0000      -0.589806       -16.0494
  25   2.0000      -0.560467       -15.2511
  26   2.0000      -0.550151       -14.9704
  27   2.0000      -0.542030       -14.7494
  28   2.0000      -0.532399       -14.4873
  29   2.0000      -0.519491       -14.1361
  30   2.0000      -0.498988       -13.5782
  31   2.0000      -0.490611       -13.3502
  32   2.0000      -0.475142       -12.9293
  33   2.0000      -0.431154       -11.7323
  34   2.0000      -0.414553       -11.2805
  35   2.0000      -0.367376        -9.9968
  36   0.0000       0.122848         3.3429
  37   0.0000       0.145733         3.9656
  38   0.0000       0.158449         4.3116
  39   0.0000       0.170039         4.6270
  40   0.0000       0.183810         5.0017

MULLIKEN ATOMIC CHARGES
-----------------------
   0 C :   -0.381948
   1 C :   -0.217318
   2 N :   -0.102854
   3 C :   -0.019726
   4 C :   -0.396185
   5 C :   -0.386917
   6 C :    0.333729
   7 N :   -0.517077
   8 O :   -0.415171
   9 H :    0.134198
  10 H :    0.151317
  11 H :    0.126771
  12 H :    0.137829
  13 H :    0.118110
  14 H :    0.145748
  15 H :    0.135990
  16 H :    0.146630
  17 H :    0.116844
  18 H :    0.142961
  19 H :    0.131745
  20 H :    0.111505
  21 H :    0.246267
  22 H :    0.257551
Sum of atomic charges:    0.0000000

LOEWDIN ATOMIC CHARGES
----------------------
   0 C :   -0.317618
   1 C :   -0.294159
   2 N :    0.190887
   3 C :   -0.301106
   4 C :   -0.293120
   5 C :   -0.293715
   6 C :   -0.547812
   7 N :   -0.062840
   8 O :    0.036468
   9 H :    0.122517
  10 H :    0.124806
  11 H :    0.122415
  12 H :    0.139704
  13 H :    0.126243
  14 H :    0.165174
  15 H :    0.127687
  16 H :    0.126769
  17 H :    0.119753
  18 H :    0.126999
  19 H :    0.126610
  20 H :    0.117673
  21 H :    0.161489
  22 H :    0.175175

  Mayer bond orders larger than 0.1
B(  0-C ,  1-C ) :   0.9149 B(  0-C ,  9-H ) :   0.9338 B(  0-C , 10-H ) :   0.9332
B(  0-C , 11-H ) :   0.9345 B(  1-C ,  2-N ) :   0.8403 B(  1-C , 12-H ) :   0.9300
B(  1-C , 13-H ) :   0.9314 B(  2-N ,  3-C ) :   0.8432 B(  2-N ,  6-C ) :   1.1458
B(  3-C ,  4-C ) :   0.9201 B(  3-C ,  5-C ) :   0.9360 B(  3-C , 14-H ) :   0.9129
B(  4-C , 15-H ) :   0.9337 B(  4-C , 16-H ) :   0.9419 B(  4-C , 17-H ) :   0.9221
B(  5-C , 18-H ) :   0.9414 B(  5-C , 19-H ) :   0.9373 B(  5-C , 20-H ) :   0.9219
B(  6-C ,  7-N ) :   1.0750 B(  6-C ,  8-O ) :   1.8881 B(  7-N , 21-H ) :   0.8660
B(  7-N , 22-H ) :   0.8691

MP2 TOTAL ENERGY:     -420.952489305 Eh
FINAL SINGLE POINT ENERGY      -420.952489304584

DIPOLE MOMENT
-------------
                                X             Y             Z
Electronic contribution:     -3.93037      -3.40611      -7.63418
Nuclear contribution   :      3.45034       3.63398       9.00960
                        -----------------------------------------
Total Dipole Moment    :     -0.48004       0.22787       1.37542
                        -----------------------------------------
Magnitude (a.u.)       :      1.47450
Magnitude (Debye)      :      3.74788

                             ****ORCA TERMINATED NORMALLY****
TOTAL RUN TIME: 0 days 0 hours 21 minutes 28 seconds 254 msec
