                         Program Version 3.0.3 - RELEASE   -
|  1> ! RI-MP2 RIJK def2-TZVP def2-TZVP/C def2-TZVP/JK TIGHTSCF
|  2> % maxcore 2000
|  3> % mp2 density relaxed end
|  4> *xyz 0 1
|  5>  C        0.5514332598     1.9030720712     0.3229200353
|  6>  C        0.1266115511     0.4938459893     0.6694164080
|  7>  C        0.6384184742    -0.7673554592    -0.0202559666
|  8>  C        2.1376863323    -0.6538632350    -0.2613105584
|  9>  O        2.3736539162    -0.2747268992     1.1235660316
| 10>  C        0.9838166302    -0.4743403171     1.4256032216
| 11>  C        0.7013774643    -1.1477127881     2.7457389286
| 12>  C       -0.7071904940    -1.4621167117     2.9471211987
| 13>  C       -1.8704662664    -1.7226817304     3.0989316769
| 14>  H        1.6392651399     1.9813064814     0.2556413216
| 15>  H        0.1194085412     2.2272923149    -0.6298102734
| 16>  H        0.2194025928     2.6047257269     1.0954145560
| 17>  H       -0.9238765709     0.3806093377     0.9284268963
| 18>  H       -0.0193297280    -1.5120869588    -0.4480327481
| 19>  H        2.6202840859    -1.6128432451    -0.4801828742
| 20>  H        2.4935530450     0.1064393264    -0.9661519143
| 21>  H        1.3030066690    -2.0634101324     2.8094822795
| 22>  H        1.0566914133    -0.4925090501     3.5536190223
| 23>  H       -2.8960293959    -1.9563570706     3.2442516386
| 24> *
| 25>
| 26>                          ****END OF INPUT****

CARTESIAN COORDINATES (ANGSTROEM)
---------------------------------
  C      0.551433    1.903072    0.322920
  C      0.126612    0.493846    0.669416
  C      0.638418   -0.767355   -0.020256
  C      2.137686   -0.653863   -0.261311
  O      2.373654   -0.274727    1.123566
  C      0.983817   -0.474340    1.425603
  C      0.701377   -1.147713    2.745739
  C     -0.707190   -1.462117    2.947121
  C     -1.870466   -1.722682    3.098932
  H      1.639265    1.981306    0.255641
  H      0.119409    2.227292   -0.629810
  H      0.219403    2.604726    1.095415
  H     -0.923877    0.380609    0.928427
  H     -0.019330   -1.512087   -0.448033
  H      2.620284   -1.612843   -0.480183
  H      2.493553    0.106439   -0.966152
  H      1.303007   -2.063410    2.809482
  H      1.056691   -0.492509    3.553619
  H     -2.896029   -1.956357    3.244252

 Total Charge           Charge          ....    0
 Multiplicity           Mult            ....    1
 Number of Electrons    NEL             ....   66
 Basis Dimension        Dim             ....  339

ORBITAL ENERGIES
----------------

  NO   OCC          E(Eh)            E(eV)
   0   2.0000     -20.555462      -559.3426
   1   2.0000     -11.296609      -307.3964
   2   2.0000     -11.284700      -307.0723
   3   2.0000     -11.261101      -306.4301
   4   2.0000     -11.240162      -305.8604
   5   2.0000     -11.236977      -305.7737
   6   2.0000     -11.234903      -305.7172
   7   2.0000     -11.226044      -305.4762
   8   2.0000     -11.214746      -305.1688
   9   2.0000      -1.394171       -37.9373
  10   2.0000      -1.130834       -30.7716
  11   2.0000      -1.070642       -29.1336
  12   2.0000      -0.988423       -26.8964
  13   2.0000      -0.973525       -26.4910
  14   2.0000      -0.916617       -24.9424
  15   2.0000      -0.779345       -21.2070
  16   2.0000      -0.745015       -20.2729
  17   2.0000      -0.723735       -19.6938
  18   2.0000      -0.694298       -18.8928
  19   2.0000      -0.654136       -17.8000
  20   2.0000      -0.643368       -17.5069
  21   2.0000      -0.608235       -16.5509
  22   2.0000      -0.592498       -16.1227
  23   2.0000      -0.573330       -15.6011
  24   2.0000      -0.565755       -15.3950
  25   2.0000      -0.543045       -14.7770
  26   2.0000      -0.505830       -13.7643
  27   2.0000      -0.489338       -13.3156
  28   2.0000      -0.473647       -12.8886
  29   2.0000      -0.406852       -11.0710
  30   2.0000      -0.394571       -10.7368
  31   2.0000      -0.384903       -10.4737
  32   2.0000      -0.371764       -10.1162
  33   0.0000       0.138947         3.7809
  34   0.0000       0.157509         4.2860
  35   0.0000       0.162202         4.4137
  36   0.0000       0.169037         4.5997
  37   0.0000       0.173817         4.7298

MULLIKEN ATOMIC CHARGES
-----------------------
   0 C :   -0.414752
   1 C :   -0.101843
   2 C :   -0.202621
   3 C :   -0.036917
   4 O :   -0.347534
   5 C :    0.175131
   6 C :   -0.256268
   7 C :   -0.049855
   8 C :   -0.178326
   9 H :    0.151655
  10 H :    0.131816
  11 H :    0.133733
  12 H :    0.139016
  13 H :    0.144458
  14 H :    0.112745
  15 H :    0.112495
  16 H :    0.147385
  17 H :    0.149606
  18 H :    0.190077
Sum of atomic charges:    0.0000000

LOEWDIN ATOMIC CHARGES
----------------------
   0 C :   -0.290759
   1 C :   -0.195863
   2 C :   -0.162898
   3 C :   -0.240644
   4 O :    0.164410
   5 C :   -0.258723
   6 C :   -0.206448
   7 C :   -0.101537
   8 C :   -0.103044
   9 H :    0.131974
  10 H :    0.125478
  11 H :    0.127549
  12 H :    0.165411
  13 H :    0.139143
  14 H :    0.125205
  15 H :    0.118769
  16 H :    0.166193
  17 H :    0.168740
  18 H :    0.127044

  Mayer bond orders larger than 0.1
B(  0-C ,  1-C ) :   0.8939 B(  0-C ,  9-H ) :   0.9347 B(  0-C , 10-H ) :   0.9371
B(  0-C , 11-H ) :   0.9376 B(  1-C ,  2-C ) :   0.8640 B(  1-C ,  5-C ) :   0.9071
B(  1-C , 12-H ) :   0.9210 B(  2-C ,  3-C ) :   0.9649 B(  2-C ,  5-C ) :   0.8739
B(  2-C , 13-H ) :   0.9024 B(  3-C ,  4-O ) :   0.9045 B(  3-C , 14-H ) :   0.9161
B(  3-C , 15-H ) :   0.9211 B(  4-O ,  5-C ) :   0.9577 B(  5-C ,  6-C ) :   0.8564
B(  6-C ,  7-C ) :   1.0487 B(  6-C , 16-H ) :   0.9260 B(  6-C , 17-H ) :   0.9121
B(  7-C ,  8-C ) :   2.6176 B(  8-C , 18-H ) :   0.9070

MP2 TOTAL ENERGY:     -385.127273575 Eh
FINAL SINGLE POINT ENERGY      -385.127273574898

DIPOLE MOMENT
-------------
                                X             Y             Z
Electronic contribution:      0.02877      -3.74574       3.06784
Nuclear contribution   :     -0.42216       3.58346      -3.40389
                        -----------------------------------------
Total Dipole Moment    :     -0.39339      -0.16228      -0.33606
                        -----------------------------------------
Magnitude (a.u.)       :      0.54224
Magnitude (Debye)      :      1.37826

                             ****ORCA TERMINATED NORMALLY****
TOTAL RUN TIME: 0 days 0 hours 19 minutes 0 seconds 66 msec
