                         Program Version 3.0.3 - RELEASE   -
|  1> ! RI-MP2 RIJK def2-TZVP def2-TZVP/C def2-TZVP/JK TIGHTSCF
|  2> % maxcore 2000
|  3> % mp2 density relaxed end
|  4> *xyz 0 1
|  5>  O        0.2232738279     0.0436278351    -0.1338529450
|  6>  C        0.0424634935     1.2282929354    -0.0389116608
|  7>  N       -1.0917034562     1.9994473051     0.0426870757
|  8>  C       -0.3994102050     3.2827820318     0.1840825244
|  9>  C        0.9426648120     2.4913597023     0.0701002717
| 10>  C        1.8923075172     2.5208313702     1.2504868223
| 11>  C        3.1471503357     1.6021010334     1.2173402613
| 12>  C        3.9529431221     2.7457094690     1.8904973861
| 13>  C        2.8456683886     3.7373937403     1.4405764953
| 14>  H       -2.0694216351     1.7504866690     0.0692540916
| 15>  H       -0.6003316078     3.9941568281    -0.6230523050
| 16>  H       -0.5559952846     3.7717365468     1.1516399571
| 17>  H        1.4780979204     2.6914137950    -0.8637313041
| 18>  H        1.3298864815     2.3427661731     2.1753740563
| 19>  H        3.0815065406     0.6394755456     1.7274129272
| 20>  H        3.4786412657     1.4246850944     0.1894738820
| 21>  H        3.9805499012     2.6372529981     2.9786036215
| 22>  H        4.9698866930     2.9283119068     1.5361349531
| 23>  H        3.0892955467     4.2017946558     0.4789792782
| 24>  H        2.5404717925     4.5224613747     2.1371061410
| 25> *
| 26>
| 27>                          ****END OF INPUT****

CARTESIAN COORDINATES (ANGSTROEM)
---------------------------------
  O      0.223274    0.043628   -0.133853
  C      0.042463    1.228293   -0.038912
  N     -1.091703    1.999447    0.042687
  C     -0.399410    3.282782    0.184083
  C      0.942665    2.491360    0.070100
  C      1.892308    2.520831    1.250487
  C      3.147150    1.602101    1.217340
  C      3.952943    2.745709    1.890497
  C      2.845668    3.737394    1.440576
  H     -2.069422    1.750487    0.069254
  H     -0.600332    3.994157   -0.623052
  H     -0.555995    3.771737    1.151640
  H      1.478098    2.691414   -0.863731
  H      1.329886    2.342766    2.175374
  H      3.081507    0.639476    1.727413
  H      3.478641    1.424685    0.189474
  H      3.980550    2.637253    2.978604
  H      4.969887    2.928312    1.536135
  H      3.089296    4.201795    0.478979
  H      2.540472    4.522461    2.137106

 Total Charge           Charge          ....    0
 Multiplicity           Mult            ....    1
 Number of Electrons    NEL             ....   68
 Basis Dimension        Dim             ....  345

ORBITAL ENERGIES
----------------

  NO   OCC          E(Eh)            E(eV)
   0   2.0000     -20.521197      -558.4102
   1   2.0000     -15.582557      -424.0229
   2   2.0000     -11.345463      -308.7257
   3   2.0000     -11.278456      -306.9024
   4   2.0000     -11.247793      -306.0680
   5   2.0000     -11.236978      -305.7737
   6   2.0000     -11.226390      -305.4856
   7   2.0000     -11.222574      -305.3818
   8   2.0000     -11.219803      -305.3064
   9   2.0000      -1.383024       -37.6340
  10   2.0000      -1.264970       -34.4216
  11   2.0000      -1.136231       -30.9184
  12   2.0000      -1.017110       -27.6770
  13   2.0000      -0.911206       -24.7952
  14   2.0000      -0.898218       -24.4418
  15   2.0000      -0.874907       -23.8074
  16   2.0000      -0.775210       -21.0945
  17   2.0000      -0.753437       -20.5021
  18   2.0000      -0.672920       -18.3111
  19   2.0000      -0.669821       -18.2267
  20   2.0000      -0.652966       -17.7681
  21   2.0000      -0.642181       -17.4746
  22   2.0000      -0.599272       -16.3070
  23   2.0000      -0.559454       -15.2235
  24   2.0000      -0.545160       -14.8345
  25   2.0000      -0.543145       -14.7797
  26   2.0000      -0.537085       -14.6148
  27   2.0000      -0.509780       -13.8718
  28   2.0000      -0.484707       -13.1895
  29   2.0000      -0.458987       -12.4897
  30   2.0000      -0.450197       -12.2505
  31   2.0000      -0.432637       -11.7726
  32   2.0000      -0.399993       -10.8844
  33   2.0000      -0.396843       -10.7986
  34   0.0000       0.131410         3.5759
  35   0.0000       0.143017         3.8917
  36   0.0000       0.148653         4.0450
  37   0.0000       0.154523         4.2048
  38   0.0000       0.170083         4.6282

MULLIKEN ATOMIC CHARGES
-----------------------
   0 O :   -0.317991
   1 C :    0.211345
   2 N :   -0.327827
   3 C :   -0.102467
   4 C :   -0.072972
   5 C :   -0.119611
   6 C :   -0.234507
   7 C :   -0.201081
   8 C :   -0.225357
   9 H :    0.234461
  10 H :    0.119365
  11 H :    0.121585
  12 H :    0.121788
  13 H :    0.103934
  14 H :    0.128922
  15 H :    0.112558
  16 H :    0.110840
  17 H :    0.116221
  18 H :    0.106270
  19 H :    0.114525
Sum of atomic charges:   -0.0000000

LOEWDIN ATOMIC CHARGES
----------------------
   0 O :    0.100667
   1 C :   -0.424374
   2 N :    0.118406
   3 C :   -0.223666
   4 C :   -0.180124
   5 C :   -0.217046
   6 C :   -0.212241
   7 C :   -0.243603
   8 C :   -0.220838
   9 H :    0.167890
  10 H :    0.121750
  11 H :    0.124451
  12 H :    0.156434
  13 H :    0.155943
  14 H :    0.127447
  15 H :    0.137919
  16 H :    0.132935
  17 H :    0.121867
  18 H :    0.134424
  19 H :    0.121762

  Mayer bond orders larger than 0.1
B(  0-O ,  1-C ) :   2.0219 B(  1-C ,  2-N ) :   1.1730 B(  1-C ,  4-C ) :   0.8352
B(  2-N ,  3-C ) :   0.9116 B(  2-N ,  4-C ) :  -0.1024 B(  2-N ,  9-H ) :   0.8589
B(  3-C ,  4-C ) :   0.8990 B(  3-C , 10-H ) :   0.9267 B(  3-C , 11-H ) :   0.9267
B(  4-C ,  5-C ) :   0.9117 B(  4-C , 12-H ) :   0.8912 B(  5-C ,  6-C ) :   0.9377
B(  5-C ,  8-C ) :   0.9294 B(  5-C , 13-H ) :   0.9082 B(  6-C ,  7-C ) :   0.9305
B(  6-C , 14-H ) :   0.9334 B(  6-C , 15-H ) :   0.9244 B(  7-C ,  8-C ) :   0.9378
B(  7-C , 16-H ) :   0.9268 B(  7-C , 17-H ) :   0.9273 B(  8-C , 18-H ) :   0.9196
B(  8-C , 19-H ) :   0.9286

MP2 TOTAL ENERGY:     -402.463873812 Eh
FINAL SINGLE POINT ENERGY      -402.463873812152

DIPOLE MOMENT
-------------
                                X             Y             Z
Electronic contribution:     -6.69994      -5.22552      -3.30637
Nuclear contribution   :      6.35422       6.58953       3.52580
                        -----------------------------------------
Total Dipole Moment    :     -0.34573       1.36401       0.21943
                        -----------------------------------------
Magnitude (a.u.)       :      1.42415
Magnitude (Debye)      :      3.61990

                             ****ORCA TERMINATED NORMALLY****
TOTAL RUN TIME: 0 days 0 hours 17 minutes 28 seconds 58 msec
