                         Program Version 3.0.3 - RELEASE   -
|  1> ! RI-MP2 RIJK def2-TZVP def2-TZVP/C def2-TZVP/JK TIGHTSCF
|  2> % maxcore 2000
|  3> % mp2 density relaxed end
|  4> *xyz 0 1
|  5>  C        0.3658312658     1.4505546060     0.3182948754
|  6>  C       -0.2767720320     0.1460229189    -0.1671538676
|  7>  C        0.4902389620    -0.4773646448    -1.3226004409
|  8>  O        1.7716552821    -1.0563503325    -0.9882751954
|  9>  C        0.7448805364    -1.9361735069    -1.4467238305
| 10>  C        0.2432256026    -2.9948225440    -0.4992508451
| 11>  C        0.4807307411     0.3011273143    -2.5445769137
| 12>  C        0.4445083386     0.9573689216    -3.5514514903
| 13>  H        1.3886236072     1.2687089613     0.6609470949
| 14>  H        0.4040033219     2.1927851197    -0.4842215543
| 15>  H       -0.2039358525     1.8757408366     1.1494586093
| 16>  H       -0.3263909137    -0.5682137152     0.6582258061
| 17>  H       -1.3055730397     0.3308752721    -0.4981907354
| 18>  H        0.9081524578    -2.2919377414    -2.4660617197
| 19>  H        0.1083426945    -2.6138636352     0.5140992236
| 20>  H       -0.7088167610    -3.4032997735    -0.8544406240
| 21>  H        0.9640534396    -3.8181652214    -0.4553740385
| 22>  H        0.4231448092     1.5331876446    -4.4436334638
| 23> *
| 24>
| 25>                          ****END OF INPUT****

CARTESIAN COORDINATES (ANGSTROEM)
---------------------------------
  C      0.365831    1.450555    0.318295
  C     -0.276772    0.146023   -0.167154
  C      0.490239   -0.477365   -1.322600
  O      1.771655   -1.056350   -0.988275
  C      0.744881   -1.936174   -1.446724
  C      0.243226   -2.994823   -0.499251
  C      0.480731    0.301127   -2.544577
  C      0.444508    0.957369   -3.551451
  H      1.388624    1.268709    0.660947
  H      0.404003    2.192785   -0.484222
  H     -0.203936    1.875741    1.149459
  H     -0.326391   -0.568214    0.658226
  H     -1.305573    0.330875   -0.498191
  H      0.908152   -2.291938   -2.466062
  H      0.108343   -2.613864    0.514099
  H     -0.708817   -3.403300   -0.854441
  H      0.964053   -3.818165   -0.455374
  H      0.423145    1.533188   -4.443633

 Total Charge           Charge          ....    0
 Multiplicity           Mult            ....    1
 Number of Electrons    NEL             ....   60
 Basis Dimension        Dim             ....  308

ORBITAL ENERGIES
----------------

  NO   OCC          E(Eh)            E(eV)
   0   2.0000     -20.570671      -559.7564
   1   2.0000     -11.313788      -307.8638
   2   2.0000     -11.296129      -307.3833
   3   2.0000     -11.238121      -305.8048
   4   2.0000     -11.235710      -305.7392
   5   2.0000     -11.231404      -305.6220
   6   2.0000     -11.231056      -305.6126
   7   2.0000     -11.214769      -305.1694
   8   2.0000      -1.416037       -38.5323
   9   2.0000      -1.076128       -29.2829
  10   2.0000      -1.025008       -27.8919
  11   2.0000      -1.016886       -27.6709
  12   2.0000      -0.926887       -25.2219
  13   2.0000      -0.851177       -23.1617
  14   2.0000      -0.810610       -22.0578
  15   2.0000      -0.729740       -19.8572
  16   2.0000      -0.697487       -18.9796
  17   2.0000      -0.646196       -17.5839
  18   2.0000      -0.622661       -16.9435
  19   2.0000      -0.592834       -16.1318
  20   2.0000      -0.585063       -15.9204
  21   2.0000      -0.555757       -15.1229
  22   2.0000      -0.538102       -14.6425
  23   2.0000      -0.526182       -14.3181
  24   2.0000      -0.499703       -13.5976
  25   2.0000      -0.491662       -13.3788
  26   2.0000      -0.466329       -12.6895
  27   2.0000      -0.443667       -12.0728
  28   2.0000      -0.399713       -10.8767
  29   2.0000      -0.377205       -10.2643
  30   0.0000       0.140875         3.8334
  31   0.0000       0.154692         4.2094
  32   0.0000       0.161387         4.3916
  33   0.0000       0.164333         4.4717
  34   0.0000       0.172072         4.6823

MULLIKEN ATOMIC CHARGES
-----------------------
   0 C :   -0.423540
   1 C :   -0.177226
   2 C :    0.000619
   3 O :   -0.330681
   4 C :    0.049895
   5 C :   -0.377861
   6 C :    0.008461
   7 C :   -0.115523
   8 H :    0.144709
   9 H :    0.141123
  10 H :    0.133544
  11 H :    0.103933
  12 H :    0.118908
  13 H :    0.117298
  14 H :    0.135023
  15 H :    0.134156
  16 H :    0.143741
  17 H :    0.193419
Sum of atomic charges:   -0.0000000

LOEWDIN ATOMIC CHARGES
----------------------
   0 C :   -0.304770
   1 C :   -0.235067
   2 C :   -0.291897
   3 O :    0.192762
   4 C :   -0.257884
   5 C :   -0.291720
   6 C :   -0.061588
   7 C :   -0.078809
   8 H :    0.127921
   9 H :    0.126857
  10 H :    0.121602
  11 H :    0.141299
  12 H :    0.148140
  13 H :    0.143631
  14 H :    0.126154
  15 H :    0.132459
  16 H :    0.132572
  17 H :    0.128337

  Mayer bond orders larger than 0.1
B(  0-C ,  1-C ) :   0.9275 B(  0-C ,  8-H ) :   0.9382 B(  0-C ,  9-H ) :   0.9342
B(  0-C , 10-H ) :   0.9387 B(  1-C ,  2-C ) :   0.9426 B(  1-C , 11-H ) :   0.9224
B(  1-C , 12-H ) :   0.9256 B(  2-C ,  3-O ) :   0.8623 B(  2-C ,  4-C ) :   0.9681
B(  2-C ,  6-C ) :   1.1268 B(  2-C ,  7-C ) :  -0.1392 B(  3-O ,  4-C ) :   0.9074
B(  4-C ,  5-C ) :   0.8740 B(  4-C , 13-H ) :   0.9184 B(  5-C , 14-H ) :   0.9421
B(  5-C , 15-H ) :   0.9231 B(  5-C , 16-H ) :   0.9324 B(  6-C ,  7-C ) :   2.5938
B(  7-C , 17-H ) :   0.8883

MP2 TOTAL ENERGY:     -347.143289421 Eh
FINAL SINGLE POINT ENERGY      -347.143289420884

DIPOLE MOMENT
-------------
                                X             Y             Z
Electronic contribution:      2.83327       0.42314      -5.49844
Nuclear contribution   :     -3.53806      -0.64006       5.47398
                        -----------------------------------------
Total Dipole Moment    :     -0.70479      -0.21691      -0.02446
                        -----------------------------------------
Magnitude (a.u.)       :      0.73782
Magnitude (Debye)      :      1.87539

                             ****ORCA TERMINATED NORMALLY****
TOTAL RUN TIME: 0 days 0 hours 13 minutes 16 seconds 257 msec
