                         Program Version 3.0.3 - RELEASE   -
|  1> ! RI-MP2 RIJK def2-TZVP def2-TZVP/C def2-TZVP/JK TIGHTSCF
|  2> % maxcore 2000
|  3> % mp2 density relaxed end
|  4> *xyz 0 1
|  5>  C       -0.1194620326     1.5865240389     0.1048601493
|  6>  C        0.0144987109     0.0664449088    -0.0344167417
|  7>  C        0.7228023030    -0.5677608773     1.1546235135
|  8>  C        0.0329183363    -0.5773020472     2.5475067392
|  9>  C        0.6441147803    -1.9769987440     2.8032279140
| 10>  O       -0.0535045048    -2.9495562892     3.5114506078
| 11>  C        0.8530083904    -2.1324092552     1.2432679699
| 12>  C       -0.2584086808    -2.8538332484     0.6486673398
| 13>  N       -1.1768463722    -3.4283716216     0.2406660996
| 14>  H        0.8617288179     2.0673525377     0.1864702135
| 15>  H       -0.6299499562     2.0160802849    -0.7619060961
| 16>  H       -0.6957625652     1.8548715617     0.9966586011
| 17>  H       -0.9781680390    -0.3849234088    -0.1490520555
| 18>  H        0.5672747157    -0.1729691534    -0.9519308039
| 19>  H        1.7333620686    -0.1545581576     1.2462284087
| 20>  H        0.2693707976     0.2182007125     3.2561902005
| 21>  H       -1.0557639554    -0.6481317875     2.4414527682
| 22>  H        1.6254041441    -1.8971210005     3.2781315135
| 23>  H       -0.8934513596    -3.1159806707     3.0656267559
| 24>  H        1.7954793209    -2.5748685232     0.9129901426
| 25> *
| 26>
| 27>                          ****END OF INPUT****

CARTESIAN COORDINATES (ANGSTROEM)
---------------------------------
  C     -0.119462    1.586524    0.104860
  C      0.014499    0.066445   -0.034417
  C      0.722802   -0.567761    1.154624
  C      0.032918   -0.577302    2.547507
  C      0.644115   -1.976999    2.803228
  O     -0.053505   -2.949556    3.511451
  C      0.853008   -2.132409    1.243268
  C     -0.258409   -2.853833    0.648667
  N     -1.176846   -3.428372    0.240666
  H      0.861729    2.067353    0.186470
  H     -0.629950    2.016080   -0.761906
  H     -0.695763    1.854872    0.996659
  H     -0.978168   -0.384923   -0.149052
  H      0.567275   -0.172969   -0.951931
  H      1.733362   -0.154558    1.246228
  H      0.269371    0.218201    3.256190
  H     -1.055764   -0.648132    2.441453
  H      1.625404   -1.897121    3.278132
  H     -0.893451   -3.115981    3.065627
  H      1.795479   -2.574869    0.912990

 Total Charge           Charge          ....    0
 Multiplicity           Mult            ....    1
 Number of Electrons    NEL             ....   68
 Basis Dimension        Dim             ....  345

ORBITAL ENERGIES
----------------

  NO   OCC          E(Eh)            E(eV)
   0   2.0000     -20.573226      -559.8259
   1   2.0000     -15.574674      -423.8084
   2   2.0000     -11.310500      -307.7744
   3   2.0000     -11.282165      -307.0033
   4   2.0000     -11.278287      -306.8978
   5   2.0000     -11.261364      -306.4373
   6   2.0000     -11.241406      -305.8942
   7   2.0000     -11.235886      -305.7440
   8   2.0000     -11.226537      -305.4896
   9   2.0000      -1.386592       -37.7311
  10   2.0000      -1.226425       -33.3727
  11   2.0000      -1.161087       -31.5948
  12   2.0000      -1.047274       -28.4978
  13   2.0000      -0.968782       -26.3619
  14   2.0000      -0.916141       -24.9295
  15   2.0000      -0.845859       -23.0170
  16   2.0000      -0.805984       -21.9319
  17   2.0000      -0.719282       -19.5727
  18   2.0000      -0.694969       -18.9111
  19   2.0000      -0.643608       -17.5135
  20   2.0000      -0.627942       -17.0872
  21   2.0000      -0.624917       -17.0049
  22   2.0000      -0.592389       -16.1197
  23   2.0000      -0.583033       -15.8651
  24   2.0000      -0.561380       -15.2759
  25   2.0000      -0.554082       -15.0773
  26   2.0000      -0.529674       -14.4132
  27   2.0000      -0.518760       -14.1162
  28   2.0000      -0.497131       -13.5276
  29   2.0000      -0.489909       -13.3311
  30   2.0000      -0.484387       -13.1808
  31   2.0000      -0.452615       -12.3163
  32   2.0000      -0.437417       -11.9027
  33   2.0000      -0.429065       -11.6755
  34   0.0000       0.115722         3.1489
  35   0.0000       0.135361         3.6834
  36   0.0000       0.147895         4.0244
  37   0.0000       0.152083         4.1384
  38   0.0000       0.176701         4.8083

MULLIKEN ATOMIC CHARGES
-----------------------
   0 C :   -0.395075
   1 C :   -0.217377
   2 C :   -0.125838
   3 C :   -0.248669
   4 C :    0.001837
   5 O :   -0.436119
   6 C :    0.145721
   7 C :   -0.303100
   8 N :   -0.041929
   9 H :    0.125010
  10 H :    0.142536
  11 H :    0.131199
  12 H :    0.130737
  13 H :    0.120005
  14 H :    0.113051
  15 H :    0.135063
  16 H :    0.125740
  17 H :    0.113479
  18 H :    0.330822
  19 H :    0.152907
Sum of atomic charges:    0.0000000

LOEWDIN ATOMIC CHARGES
----------------------
   0 C :   -0.311925
   1 C :   -0.274459
   2 C :   -0.198952
   3 C :   -0.202105
   4 C :   -0.303404
   5 O :    0.012641
   6 C :   -0.179448
   7 C :   -0.186460
   8 N :    0.058954
   9 H :    0.121653
  10 H :    0.124093
  11 H :    0.122786
  12 H :    0.144946
  13 H :    0.142098
  14 H :    0.157591
  15 H :    0.129009
  16 H :    0.144898
  17 H :    0.149274
  18 H :    0.184153
  19 H :    0.164656

  Mayer bond orders larger than 0.1
B(  0-C ,  1-C ) :   0.9153 B(  0-C ,  9-H ) :   0.9376 B(  0-C , 10-H ) :   0.9408
B(  0-C , 11-H ) :   0.9382 B(  1-C ,  2-C ) :   0.9126 B(  1-C , 12-H ) :   0.9254
B(  1-C , 13-H ) :   0.9335 B(  2-C ,  3-C ) :   0.9257 B(  2-C ,  6-C ) :   0.8685
B(  2-C , 14-H ) :   0.9207 B(  3-C ,  4-C ) :   0.9137 B(  3-C , 15-H ) :   0.9249
B(  3-C , 16-H ) :   0.9114 B(  4-C ,  5-O ) :   1.0477 B(  4-C ,  6-C ) :   0.8223
B(  4-C , 17-H ) :   0.9353 B(  5-O , 18-H ) :   0.8227 B(  6-C ,  7-C ) :   0.9163
B(  6-C , 19-H ) :   0.8941 B(  7-C ,  8-N ) :   2.8394

MP2 TOTAL ENERGY:     -402.472636842 Eh
FINAL SINGLE POINT ENERGY      -402.472636842356

DIPOLE MOMENT
-------------
                                X             Y             Z
Electronic contribution:     -0.93646     -10.60374       1.78355
Nuclear contribution   :      1.77276      11.82093      -1.70891
                        -----------------------------------------
Total Dipole Moment    :      0.83630       1.21719       0.07464
                        -----------------------------------------
Magnitude (a.u.)       :      1.47869
Magnitude (Debye)      :      3.75853

                             ****ORCA TERMINATED NORMALLY****
TOTAL RUN TIME: 0 days 0 hours 31 minutes 32 seconds 844 msec
