                         Program Version 3.0.3 - RELEASE   -
|  1> ! RI-MP2 RIJK def2-TZVP def2-TZVP/C def2-TZVP/JK TIGHTSCF
|  2> % maxcore 2000
|  3> % mp2 density relaxed end
|  4> *xyz 0 1
|  5>  C        0.0600560541     1.4714005228     0.0209146185
|  6>  C       -0.0121252207    -0.0233462902     0.0430361724
|  7>  N        0.5676153153    -0.9171606729    -1.0647166493
|  8>  C        0.0126240206    -1.9273020532    -0.0655514211
|  9>  C        0.6409639167    -1.0396897748     1.0555059364
| 10>  C        2.1428704493    -1.0305195561     1.1729354839
| 11>  O        2.7008606668    -1.0064167247     2.2432839216
| 12>  C       -1.2209288699    -0.9975099391     0.0087457981
| 13>  O       -2.4047654962    -1.0005968697    -0.1108043837
| 14>  H        1.0930933876     1.8175546352    -0.0735284693
| 15>  H       -0.5183823858     1.8713049481    -0.8179157457
| 16>  H       -0.3596273183     1.8807732102     0.9445366465
| 17>  H       -0.0102530190    -0.8790404041    -1.9089990518
| 18>  H        0.1144642094    -3.0002265819    -0.2114879938
| 19>  H        0.1844168736    -1.0963751497     2.0449278264
| 20>  H        2.7054831162    -1.0466145697     0.2220412409
| 21> *
| 22>
| 23>                          ****END OF INPUT****

CARTESIAN COORDINATES (ANGSTROEM)
---------------------------------
  C      0.060056    1.471401    0.020915
  C     -0.012125   -0.023346    0.043036
  N      0.567615   -0.917161   -1.064717
  C      0.012624   -1.927302   -0.065551
  C      0.640964   -1.039690    1.055506
  C      2.142870   -1.030520    1.172935
  O      2.700861   -1.006417    2.243284
  C     -1.220929   -0.997510    0.008746
  O     -2.404765   -1.000597   -0.110804
  H      1.093093    1.817555   -0.073528
  H     -0.518382    1.871305   -0.817916
  H     -0.359627    1.880773    0.944537
  H     -0.010253   -0.879040   -1.908999
  H      0.114464   -3.000227   -0.211488
  H      0.184417   -1.096375    2.044928
  H      2.705483   -1.046615    0.222041

 Total Charge           Charge          ....    0
 Multiplicity           Mult            ....    1
 Number of Electrons    NEL             ....   66
 Basis Dimension        Dim             ....  321

ORBITAL ENERGIES
----------------

  NO   OCC          E(Eh)            E(eV)
   0   2.0000     -20.576949      -559.9272
   1   2.0000     -20.565100      -559.6048
   2   2.0000     -15.601185      -424.5298
   3   2.0000     -11.363455      -309.2153
   4   2.0000     -11.338961      -308.5488
   5   2.0000     -11.321690      -308.0789
   6   2.0000     -11.314917      -307.8945
   7   2.0000     -11.278620      -306.9068
   8   2.0000     -11.250300      -306.1362
   9   2.0000      -1.425670       -38.7944
  10   2.0000      -1.402535       -38.1649
  11   2.0000      -1.319897       -35.9162
  12   2.0000      -1.054608       -28.6973
  13   2.0000      -1.030063       -28.0295
  14   2.0000      -0.946022       -25.7426
  15   2.0000      -0.873321       -23.7643
  16   2.0000      -0.793601       -21.5950
  17   2.0000      -0.763194       -20.7676
  18   2.0000      -0.689513       -18.7626
  19   2.0000      -0.681757       -18.5515
  20   2.0000      -0.662455       -18.0263
  21   2.0000      -0.646275       -17.5860
  22   2.0000      -0.628923       -17.1139
  23   2.0000      -0.611378       -16.6364
  24   2.0000      -0.581198       -15.8152
  25   2.0000      -0.564859       -15.3706
  26   2.0000      -0.552505       -15.0344
  27   2.0000      -0.523334       -14.2406
  28   2.0000      -0.511871       -13.9287
  29   2.0000      -0.477905       -13.0045
  30   2.0000      -0.458733       -12.4828
  31   2.0000      -0.415629       -11.3098
  32   2.0000      -0.411907       -11.2086
  33   0.0000       0.110857         3.0166
  34   0.0000       0.123511         3.3609
  35   0.0000       0.134568         3.6618
  36   0.0000       0.157305         4.2805
  37   0.0000       0.169205         4.6043

MULLIKEN ATOMIC CHARGES
-----------------------
   0 C :   -0.416000
   1 C :   -0.023861
   2 N :   -0.299770
   3 C :   -0.098155
   4 C :    0.003748
   5 C :    0.014565
   6 O :   -0.260841
   7 C :    0.204535
   8 O :   -0.237649
   9 H :    0.157641
  10 H :    0.149327
  11 H :    0.154411
  12 H :    0.218051
  13 H :    0.165041
  14 H :    0.142154
  15 H :    0.126804
Sum of atomic charges:    0.0000000

LOEWDIN ATOMIC CHARGES
----------------------
   0 C :   -0.266940
   1 C :   -0.221707
   2 N :    0.059199
   3 C :   -0.160695
   4 C :   -0.159134
   5 C :   -0.273358
   6 O :    0.133283
   7 C :   -0.282075
   8 O :    0.169876
   9 H :    0.137823
  10 H :    0.138362
  11 H :    0.141886
  12 H :    0.167005
  13 H :    0.132742
  14 H :    0.159994
  15 H :    0.123739

  Mayer bond orders larger than 0.1
B(  0-C ,  1-C ) :   0.8518 B(  0-C ,  9-H ) :   0.9410 B(  0-C , 10-H ) :   0.9314
B(  0-C , 11-H ) :   0.9328 B(  1-C ,  2-N ) :   0.9224 B(  1-C ,  4-C ) :   0.7701
B(  1-C ,  7-C ) :   0.8725 B(  2-N ,  3-C ) :   0.9407 B(  2-N , 12-H ) :   0.8832
B(  3-C ,  4-C ) :   0.8266 B(  3-C ,  7-C ) :   0.9037 B(  3-C , 13-H ) :   0.8790
B(  4-C ,  5-C ) :   0.8281 B(  4-C , 14-H ) :   0.9111 B(  5-C ,  6-O ) :   1.9718
B(  5-C , 15-H ) :   0.9536 B(  7-C ,  8-O ) :   2.0722

MP2 TOTAL ENERGY:     -437.115869226 Eh
FINAL SINGLE POINT ENERGY      -437.115869225557

DIPOLE MOMENT
-------------
                                X             Y             Z
Electronic contribution:     -1.25652      -3.96991       1.45468
Nuclear contribution   :      1.14925       4.18477      -2.22783
                        -----------------------------------------
Total Dipole Moment    :     -0.10727       0.21486      -0.77315
                        -----------------------------------------
Magnitude (a.u.)       :      0.80959
Magnitude (Debye)      :      2.05782

                             ****ORCA TERMINATED NORMALLY****
TOTAL RUN TIME: 0 days 0 hours 15 minutes 58 seconds 715 msec
