                         Program Version 3.0.3 - RELEASE   -
|  1> ! RI-MP2 RIJK def2-TZVP def2-TZVP/C def2-TZVP/JK TIGHTSCF
|  2> % maxcore 2000
|  3> % mp2 density relaxed end
|  4> *xyz 0 1
|  5>  O       -0.0383980663     1.3711792445     0.0035968123
|  6>  N        0.0577451458    -0.0318035393    -0.0127170170
|  7>  C       -1.0828321658    -0.6062434124     0.0106472163
|  8>  C       -2.4341323841     0.0653380491     0.0193393299
|  9>  C       -3.3504389869    -0.5306621585    -1.0666689823
| 10>  C       -3.4162353213    -2.0551189939    -0.9873330570
| 11>  O       -4.2656572099    -2.4889712722    -2.0404972233
| 12>  C       -2.0121596527    -2.6638700489    -1.0887569243
| 13>  C       -1.0848398986    -2.1141210158     0.0113532763
| 14>  H        0.8868701891     1.6323983335    -0.0438567021
| 15>  H       -2.8907864992    -0.0963940560     1.0064665840
| 16>  H       -2.3241555964     1.1415737152    -0.1110944418
| 17>  H       -4.3598592403    -0.1170845804    -0.9796901467
| 18>  H       -2.9771405770    -0.2570157502    -2.0608293005
| 19>  H       -3.8498483230    -2.3365488461    -0.0102559318
| 20>  H       -4.2887383348    -3.4511838565    -2.0277733641
| 21>  H       -2.0689846726    -3.7575407212    -1.0149578120
| 22>  H       -1.6042365755    -2.4274901825    -2.0791086070
| 23>  H       -0.0625401691    -2.4809902785    -0.1052216780
| 24>  H       -1.4475788916    -2.4648963698     0.9889766494
| 25> *
| 26>
| 27>                          ****END OF INPUT****

CARTESIAN COORDINATES (ANGSTROEM)
---------------------------------
  O     -0.038398    1.371179    0.003597
  N      0.057745   -0.031804   -0.012717
  C     -1.082832   -0.606243    0.010647
  C     -2.434132    0.065338    0.019339
  C     -3.350439   -0.530662   -1.066669
  C     -3.416235   -2.055119   -0.987333
  O     -4.265657   -2.488971   -2.040497
  C     -2.012160   -2.663870   -1.088757
  C     -1.084840   -2.114121    0.011353
  H      0.886870    1.632398   -0.043857
  H     -2.890786   -0.096394    1.006467
  H     -2.324156    1.141574   -0.111094
  H     -4.359859   -0.117085   -0.979690
  H     -2.977141   -0.257016   -2.060829
  H     -3.849848   -2.336549   -0.010256
  H     -4.288738   -3.451184   -2.027773
  H     -2.068985   -3.757541   -1.014958
  H     -1.604237   -2.427490   -2.079109
  H     -0.062540   -2.480990   -0.105222
  H     -1.447579   -2.464896    0.988977

 Total Charge           Charge          ....    0
 Multiplicity           Mult            ....    1
 Number of Electrons    NEL             ....   70
 Basis Dimension        Dim             ....  345

ORBITAL ENERGIES
----------------

  NO   OCC          E(Eh)            E(eV)
   0   2.0000     -20.585443      -560.1584
   1   2.0000     -20.558373      -559.4218
   2   2.0000     -15.609766      -424.7633
   3   2.0000     -11.284241      -307.0598
   4   2.0000     -11.274764      -306.8019
   5   2.0000     -11.237126      -305.7778
   6   2.0000     -11.233644      -305.6830
   7   2.0000     -11.231984      -305.6378
   8   2.0000     -11.226438      -305.4869
   9   2.0000      -1.412102       -38.4252
  10   2.0000      -1.365305       -37.1518
  11   2.0000      -1.173830       -31.9415
  12   2.0000      -1.085595       -29.5405
  13   2.0000      -1.022880       -27.8340
  14   2.0000      -0.951364       -25.8879
  15   2.0000      -0.862832       -23.4788
  16   2.0000      -0.802160       -21.8279
  17   2.0000      -0.734941       -19.9988
  18   2.0000      -0.702412       -19.1136
  19   2.0000      -0.684812       -18.6347
  20   2.0000      -0.671358       -18.2686
  21   2.0000      -0.619243       -16.8504
  22   2.0000      -0.612662       -16.6714
  23   2.0000      -0.604146       -16.4397
  24   2.0000      -0.580963       -15.8088
  25   2.0000      -0.567073       -15.4308
  26   2.0000      -0.549099       -14.9418
  27   2.0000      -0.527658       -14.3583
  28   2.0000      -0.508952       -13.8493
  29   2.0000      -0.503677       -13.7058
  30   2.0000      -0.499773       -13.5995
  31   2.0000      -0.460542       -12.5320
  32   2.0000      -0.438262       -11.9257
  33   2.0000      -0.419020       -11.4021
  34   2.0000      -0.377256       -10.2657
  35   0.0000       0.120431         3.2771
  36   0.0000       0.146482         3.9860
  37   0.0000       0.155830         4.2404
  38   0.0000       0.162896         4.4326
  39   0.0000       0.166959         4.5432

MULLIKEN ATOMIC CHARGES
-----------------------
   0 O :   -0.372957
   1 N :   -0.083642
   2 C :    0.020309
   3 C :   -0.255089
   4 C :   -0.200636
   5 C :    0.074196
   6 O :   -0.456212
   7 C :   -0.246775
   8 C :   -0.228714
   9 H :    0.335862
  10 H :    0.124002
  11 H :    0.158177
  12 H :    0.130695
  13 H :    0.121962
  14 H :    0.073853
  15 H :    0.311925
  16 H :    0.114453
  17 H :    0.124975
  18 H :    0.134475
  19 H :    0.119140
Sum of atomic charges:    0.0000000

LOEWDIN ATOMIC CHARGES
----------------------
   0 O :   -0.082385
   1 N :    0.023539
   2 C :   -0.281710
   3 C :   -0.225267
   4 C :   -0.230765
   5 C :   -0.355650
   6 O :   -0.018471
   7 C :   -0.247360
   8 C :   -0.222132
   9 H :    0.168363
  10 H :    0.152135
  11 H :    0.149846
  12 H :    0.142430
  13 H :    0.146342
  14 H :    0.133514
  15 H :    0.172711
  16 H :    0.134572
  17 H :    0.144573
  18 H :    0.147875
  19 H :    0.147839

  Mayer bond orders larger than 0.1
B(  0-O ,  1-N ) :   0.8069 B(  0-O ,  9-H ) :   0.8439 B(  1-N ,  2-C ) :   1.8739
B(  2-C ,  3-C ) :   0.9288 B(  2-C ,  8-C ) :   0.9460 B(  3-C ,  4-C ) :   0.9058
B(  3-C , 10-H ) :   0.9146 B(  3-C , 11-H ) :   0.9191 B(  4-C ,  5-C ) :   0.9105
B(  4-C , 12-H ) :   0.9284 B(  4-C , 13-H ) :   0.9246 B(  5-C ,  6-O ) :   0.9936
B(  5-C ,  7-C ) :   0.9161 B(  5-C , 14-H ) :   0.9399 B(  6-O , 15-H ) :   0.8464
B(  7-C ,  8-C ) :   0.9066 B(  7-C , 16-H ) :   0.9235 B(  7-C , 17-H ) :   0.9228
B(  8-C , 18-H ) :   0.9127 B(  8-C , 19-H ) :   0.9250

MP2 TOTAL ENERGY:     -439.550311933 Eh
FINAL SINGLE POINT ENERGY      -439.550311932917

DIPOLE MOMENT
-------------
                                X             Y             Z
Electronic contribution:      3.20187       2.95874       0.26119
Nuclear contribution   :     -3.14541      -3.46587       0.06417
                        -----------------------------------------
Total Dipole Moment    :      0.05646      -0.50713       0.32536
                        -----------------------------------------
Magnitude (a.u.)       :      0.60517
Magnitude (Debye)      :      1.53822

                             ****ORCA TERMINATED NORMALLY****
TOTAL RUN TIME: 0 days 0 hours 17 minutes 38 seconds 771 msec
