                         Program Version 3.0.3 - RELEASE   -
|  1> ! RI-MP2 RIJK def2-TZVP def2-TZVP/C def2-TZVP/JK TIGHTSCF
|  2> % maxcore 2000
|  3> % mp2 density relaxed end
|  4> *xyz 0 1
|  5>  C        0.1864058185     1.5826568569    -0.0892367195
|  6>  C        0.5326722774     0.1023895842     0.0140681034
|  7>  O        1.9470556022    -0.0029422823    -0.0355935187
|  8>  C       -0.0223729173    -0.5241493945     1.3098067403
|  9>  C        0.1622102367    -2.0407876918     1.3975592691
| 10>  C       -1.0839315315    -2.8595063782     1.1382530556
| 11>  O        1.3424746803    -2.5879125004     0.7424449743
| 12>  C        1.2605651500    -2.6462661448     2.1783861271
| 13>  C        2.2917692054    -1.8635846213     2.9492503903
| 14>  H        0.5905705197     2.1292614009     0.7692549490
| 15>  H        0.6260266383     2.0050730962    -0.9966212579
| 16>  H       -0.8968889176     1.7337571816    -0.1217902341
| 17>  H        0.0848234087    -0.4246454558    -0.8463007032
| 18>  H        2.1400024669    -0.9489686042     0.0365930737
| 19>  H        0.4560692748    -0.0198952551     2.1555659604
| 20>  H       -1.0946471084    -0.3094694246     1.3792342321
| 21>  H       -1.5136095393    -2.6068519378     0.1624836984
| 22>  H       -0.8562895348    -3.9282271515     1.1449445521
| 23>  H       -1.8439707733    -2.6555632840     1.9002672338
| 24>  H        1.0877911281    -3.6593938631     2.5477439958
| 25>  H        2.4906692882    -0.9014280741     2.4728589424
| 26>  H        1.9558573499    -1.6928557063     3.9780963424
| 27>  H        3.2320541971    -2.4228414400     2.9939828231
| 28> *
| 29>
| 30>                          ****END OF INPUT****

CARTESIAN COORDINATES (ANGSTROEM)
---------------------------------
  C      0.186406    1.582657   -0.089237
  C      0.532672    0.102390    0.014068
  O      1.947056   -0.002942   -0.035594
  C     -0.022373   -0.524149    1.309807
  C      0.162210   -2.040788    1.397559
  C     -1.083932   -2.859506    1.138253
  O      1.342475   -2.587913    0.742445
  C      1.260565   -2.646266    2.178386
  C      2.291769   -1.863585    2.949250
  H      0.590571    2.129261    0.769255
  H      0.626027    2.005073   -0.996621
  H     -0.896889    1.733757   -0.121790
  H      0.084823   -0.424645   -0.846301
  H      2.140002   -0.948969    0.036593
  H      0.456069   -0.019895    2.155566
  H     -1.094647   -0.309469    1.379234
  H     -1.513610   -2.606852    0.162484
  H     -0.856290   -3.928227    1.144945
  H     -1.843971   -2.655563    1.900267
  H      1.087791   -3.659394    2.547744
  H      2.490669   -0.901428    2.472859
  H      1.955857   -1.692856    3.978096
  H      3.232054   -2.422841    2.993983

 Total Charge           Charge          ....    0
 Multiplicity           Mult            ....    1
 Number of Electrons    NEL             ....   72
 Basis Dimension        Dim             ....  363

ORBITAL ENERGIES
----------------

  NO   OCC          E(Eh)            E(eV)
   0   2.0000     -20.568457      -559.6962
   1   2.0000     -20.532150      -558.7082
   2   2.0000     -11.297809      -307.4290
   3   2.0000     -11.290603      -307.2329
   4   2.0000     -11.276007      -306.8357
   5   2.0000     -11.229022      -305.5572
   6   2.0000     -11.228945      -305.5551
   7   2.0000     -11.226417      -305.4863
   8   2.0000     -11.208863      -305.0087
   9   2.0000      -1.410773       -38.3891
  10   2.0000      -1.343332       -36.5539
  11   2.0000      -1.065249       -28.9869
  12   2.0000      -1.015317       -27.6282
  13   2.0000      -1.007551       -27.4169
  14   2.0000      -0.942254       -25.6400
  15   2.0000      -0.859615       -23.3913
  16   2.0000      -0.805469       -21.9179
  17   2.0000      -0.760873       -20.7044
  18   2.0000      -0.692264       -18.8375
  19   2.0000      -0.677373       -18.4322
  20   2.0000      -0.648145       -17.6369
  21   2.0000      -0.622114       -16.9286
  22   2.0000      -0.595649       -16.2084
  23   2.0000      -0.581043       -15.8110
  24   2.0000      -0.572217       -15.5708
  25   2.0000      -0.557744       -15.1770
  26   2.0000      -0.549551       -14.9540
  27   2.0000      -0.532033       -14.4774
  28   2.0000      -0.527058       -14.3420
  29   2.0000      -0.518908       -14.1202
  30   2.0000      -0.507204       -13.8017
  31   2.0000      -0.501926       -13.6581
  32   2.0000      -0.478037       -13.0080
  33   2.0000      -0.437066       -11.8932
  34   2.0000      -0.433487       -11.7958
  35   2.0000      -0.409451       -11.1417
  36   0.0000       0.131926         3.5899
  37   0.0000       0.152789         4.1576
  38   0.0000       0.158600         4.3157
  39   0.0000       0.179838         4.8937
  40   0.0000       0.184181         5.0118

MULLIKEN ATOMIC CHARGES
-----------------------
   0 C :   -0.385086
   1 C :    0.123541
   2 O :   -0.490736
   3 C :   -0.294396
   4 C :    0.236361
   5 C :   -0.429549
   6 O :   -0.393717
   7 C :    0.020236
   8 C :   -0.413994
   9 H :    0.123704
  10 H :    0.141328
  11 H :    0.118045
  12 H :    0.084407
  13 H :    0.332866
  14 H :    0.137879
  15 H :    0.126547
  16 H :    0.138748
  17 H :    0.140929
  18 H :    0.137669
  19 H :    0.111769
  20 H :    0.156318
  21 H :    0.133268
  22 H :    0.143863
Sum of atomic charges:   -0.0000000

LOEWDIN ATOMIC CHARGES
----------------------
   0 C :   -0.295155
   1 C :   -0.374110
   2 O :   -0.024647
   3 C :   -0.212272
   4 C :   -0.309215
   5 C :   -0.268972
   6 O :    0.153435
   7 C :   -0.273048
   8 C :   -0.296780
   9 H :    0.124983
  10 H :    0.127903
  11 H :    0.122542
  12 H :    0.133738
  13 H :    0.166704
  14 H :    0.147577
  15 H :    0.150682
  16 H :    0.130934
  17 H :    0.131346
  18 H :    0.130834
  19 H :    0.139029
  20 H :    0.132002
  21 H :    0.131519
  22 H :    0.130970

  Mayer bond orders larger than 0.1
B(  0-C ,  1-C ) :   0.9026 B(  0-C ,  9-H ) :   0.9369 B(  0-C , 10-H ) :   0.9397
B(  0-C , 11-H ) :   0.9380 B(  1-C ,  2-O ) :   0.9634 B(  1-C ,  3-C ) :   0.9068
B(  1-C , 12-H ) :   0.9403 B(  2-O , 13-H ) :   0.8097 B(  3-C ,  4-C ) :   0.8740
B(  3-C , 14-H ) :   0.9345 B(  3-C , 15-H ) :   0.9231 B(  4-C ,  5-C ) :   0.8862
B(  4-C ,  6-O ) :   0.8066 B(  4-C ,  7-C ) :   0.9824 B(  5-C , 16-H ) :   0.9360
B(  5-C , 17-H ) :   0.9384 B(  5-C , 18-H ) :   0.9352 B(  6-O ,  7-C ) :   0.8621
B(  7-C ,  8-C ) :   0.8878 B(  7-C , 19-H ) :   0.9197 B(  8-C , 20-H ) :   0.9312
B(  8-C , 21-H ) :   0.9234 B(  8-C , 22-H ) :   0.9335

MP2 TOTAL ENERGY:     -424.722353262 Eh
FINAL SINGLE POINT ENERGY      -424.722353261732

DIPOLE MOMENT
-------------
                                X             Y             Z
Electronic contribution:      3.11675      -3.09338      -1.97081
Nuclear contribution   :     -3.91320       2.71351       2.75833
                        -----------------------------------------
Total Dipole Moment    :     -0.79644      -0.37987       0.78752
                        -----------------------------------------
Magnitude (a.u.)       :      1.18271
Magnitude (Debye)      :      3.00622

                             ****ORCA TERMINATED NORMALLY****
TOTAL RUN TIME: 0 days 0 hours 20 minutes 52 seconds 211 msec
