                         Program Version 3.0.3 - RELEASE   -
|  1> ! RI-MP2 RIJK def2-TZVP def2-TZVP/C def2-TZVP/JK TIGHTSCF
|  2> % maxcore 2000
|  3> % mp2 density relaxed end
|  4> *xyz 0 1
|  5>  C       -0.0365510200     1.5269924372     0.0682263915
|  6>  C       -0.0044552000     0.0282970188     0.0215636238
|  7>  C       -0.9137423135    -0.8597236365     0.8252778180
|  8>  C        0.5807936342    -0.9682044927     1.0081318602
|  9>  C        1.3017337251    -1.7156765012    -0.1384868714
| 10>  C        0.4030703888    -2.2131055972    -1.2239693560
| 11>  C        0.7087156301    -0.7270497187    -1.1631396889
| 12>  C        1.3703848614    -0.0430087040    -2.2162652849
| 13>  C        1.9237848589     0.5552563495    -3.1041876532
| 14>  H        0.9418040330     1.9528858715    -0.1769282670
| 15>  H       -0.7599055253     1.9319474169    -0.6497334360
| 16>  H       -0.3222750920     1.8760868723     1.0655803263
| 17>  H       -1.4147396023    -0.3403238623     1.6376401923
| 18>  H       -1.5151001384    -1.6536817205     0.3971017389
| 19>  H        1.0599083863    -0.7661020002     1.9576027192
| 20>  H        2.3396283857    -2.0146353493    -0.0742422691
| 21>  H        0.9176020849    -2.7171742032    -2.0357675503
| 22>  H       -0.5912227901    -2.6012617862    -1.0357290693
| 23>  H        2.4134193133     1.0765584657    -3.8884268241
| 24> *
| 25>
| 26>                          ****END OF INPUT****

CARTESIAN COORDINATES (ANGSTROEM)
---------------------------------
  C     -0.036551    1.526992    0.068226
  C     -0.004455    0.028297    0.021564
  C     -0.913742   -0.859724    0.825278
  C      0.580794   -0.968204    1.008132
  C      1.301734   -1.715677   -0.138487
  C      0.403070   -2.213106   -1.223969
  C      0.708716   -0.727050   -1.163140
  C      1.370385   -0.043009   -2.216265
  C      1.923785    0.555256   -3.104188
  H      0.941804    1.952886   -0.176928
  H     -0.759906    1.931947   -0.649733
  H     -0.322275    1.876087    1.065580
  H     -1.414740   -0.340324    1.637640
  H     -1.515100   -1.653682    0.397102
  H      1.059908   -0.766102    1.957603
  H      2.339628   -2.014635   -0.074242
  H      0.917602   -2.717174   -2.035768
  H     -0.591223   -2.601262   -1.035729
  H      2.413419    1.076558   -3.888427

 Total Charge           Charge          ....    0
 Multiplicity           Mult            ....    1
 Number of Electrons    NEL             ....   64
 Basis Dimension        Dim             ....  339

ORBITAL ENERGIES
----------------

  NO   OCC          E(Eh)            E(eV)
   0   2.0000     -11.257734      -306.3385
   1   2.0000     -11.248069      -306.0755
   2   2.0000     -11.247411      -306.0576
   3   2.0000     -11.241356      -305.8928
   4   2.0000     -11.235440      -305.7319
   5   2.0000     -11.231601      -305.6274
   6   2.0000     -11.231198      -305.6164
   7   2.0000     -11.217708      -305.2493
   8   2.0000     -11.215921      -305.2007
   9   2.0000      -1.227384       -33.3988
  10   2.0000      -1.091931       -29.7129
  11   2.0000      -1.023934       -27.8627
  12   2.0000      -0.970240       -26.4016
  13   2.0000      -0.880649       -23.9637
  14   2.0000      -0.869976       -23.6732
  15   2.0000      -0.775465       -21.1015
  16   2.0000      -0.754720       -20.5370
  17   2.0000      -0.692593       -18.8464
  18   2.0000      -0.687140       -18.6980
  19   2.0000      -0.658766       -17.9259
  20   2.0000      -0.607399       -16.5282
  21   2.0000      -0.574042       -15.6205
  22   2.0000      -0.564077       -15.3493
  23   2.0000      -0.537945       -14.6382
  24   2.0000      -0.530634       -14.4393
  25   2.0000      -0.505474       -13.7546
  26   2.0000      -0.474359       -12.9080
  27   2.0000      -0.461618       -12.5613
  28   2.0000      -0.414066       -11.2673
  29   2.0000      -0.391862       -10.6631
  30   2.0000      -0.373862       -10.1733
  31   2.0000      -0.308812        -8.4032
  32   0.0000       0.145849         3.9687
  33   0.0000       0.156646         4.2626
  34   0.0000       0.160220         4.3598
  35   0.0000       0.167022         4.5449
  36   0.0000       0.174899         4.7592

MULLIKEN ATOMIC CHARGES
-----------------------
   0 C :   -0.414290
   1 C :    0.050377
   2 C :   -0.258365
   3 C :   -0.125254
   4 C :   -0.126214
   5 C :   -0.234711
   6 C :   -0.139266
   7 C :   -0.002012
   8 C :   -0.141883
   9 H :    0.143884
  10 H :    0.139500
  11 H :    0.128230
  12 H :    0.128296
  13 H :    0.121142
  14 H :    0.136336
  15 H :    0.142290
  16 H :    0.140082
  17 H :    0.124757
  18 H :    0.187104
Sum of atomic charges:   -0.0000000

LOEWDIN ATOMIC CHARGES
----------------------
   0 C :   -0.265824
   1 C :   -0.171897
   2 C :   -0.181593
   3 C :   -0.143622
   4 C :   -0.117562
   5 C :   -0.158799
   6 C :   -0.141547
   7 C :   -0.079392
   8 C :   -0.099606
   9 H :    0.133642
  10 H :    0.132192
  11 H :    0.130019
  12 H :    0.144715
  13 H :    0.128859
  14 H :    0.139485
  15 H :    0.143680
  16 H :    0.149829
  17 H :    0.131879
  18 H :    0.125545

  Mayer bond orders larger than 0.1
B(  0-C ,  1-C ) :   0.8851 B(  0-C ,  9-H ) :   0.9378 B(  0-C , 10-H ) :   0.9422
B(  0-C , 11-H ) :   0.9398 B(  1-C ,  2-C ) :   0.9194 B(  1-C ,  3-C ) :   0.8582
B(  1-C ,  6-C ) :   0.9183 B(  2-C ,  3-C ) :   0.8961 B(  2-C , 12-H ) :   0.9276
B(  2-C , 13-H ) :   0.8962 B(  3-C ,  4-C ) :   0.9005 B(  3-C , 14-H ) :   0.9145
B(  4-C ,  5-C ) :   0.9371 B(  4-C ,  6-C ) :   0.7861 B(  4-C , 15-H ) :   0.9061
B(  5-C ,  6-C ) :   0.8484 B(  5-C , 16-H ) :   0.9216 B(  5-C , 17-H ) :   0.8898
B(  6-C ,  7-C ) :   1.2478 B(  6-C ,  8-C ) :  -0.1412 B(  7-C ,  8-C ) :   2.5791
B(  8-C , 18-H ) :   0.8828

MP2 TOTAL ENERGY:     -347.995443113 Eh
FINAL SINGLE POINT ENERGY      -347.995443112798

DIPOLE MOMENT
-------------
                                X             Y             Z
Electronic contribution:      2.41716      -1.45580      -2.95353
Nuclear contribution   :     -2.45197       1.41700       3.24215
                        -----------------------------------------
Total Dipole Moment    :     -0.03480      -0.03880       0.28861
                        -----------------------------------------
Magnitude (a.u.)       :      0.29328
Magnitude (Debye)      :      0.74547

                             ****ORCA TERMINATED NORMALLY****
TOTAL RUN TIME: 0 days 0 hours 20 minutes 33 seconds 618 msec
