                         Program Version 3.0.3 - RELEASE   -
|  1> ! RI-MP2 RIJK def2-TZVP def2-TZVP/C def2-TZVP/JK TIGHTSCF
|  2> % maxcore 2000
|  3> % mp2 density relaxed end
|  4> *xyz 0 1
|  5>  C       -0.0753424858     1.5437013498    -0.0252099272
|  6>  C       -0.0039127230     0.0149725277     0.0336324532
|  7>  C       -1.4220143373    -0.5634706871    -0.0562026430
|  8>  O        0.7764358732    -0.4623975528    -1.0907171274
|  9>  C        1.8887749768    -1.2249791608    -0.5399709181
| 10>  C        1.2342956744    -1.9260500889     0.6584692977
| 11>  C        0.8051140343    -0.5598241711     1.2623989445
| 12>  C        2.1504721745     0.1506666931     1.2665286191
| 13>  C        2.8139626551    -0.2483799601     0.1756409236
| 14>  H        0.9208039053     1.9876168777    -0.0280666619
| 15>  H       -0.5863713418     1.8529013865    -0.9422106873
| 16>  H       -0.6381796182     1.9424124448     0.8261511818
| 17>  H       -1.8763853263    -0.2767979158    -1.0093500692
| 18>  H       -1.4316257078    -1.6534705147     0.0024861766
| 19>  H       -2.0495818236    -0.1694310493     0.7504894243
| 20>  H        2.3081242902    -1.8287792917    -1.3432724935
| 21>  H        0.4143030803    -2.5876104474     0.3742487052
| 22>  H        1.9434833915    -2.4579055572     1.2941535473
| 23>  H        0.2452117590    -0.5649132095     2.1975519172
| 24>  H        2.4432489239     0.9138135035     1.9765250531
| 25>  H        3.7587680651     0.1179597535    -0.2042283361
| 26> *
| 27>
| 28>                          ****END OF INPUT****

CARTESIAN COORDINATES (ANGSTROEM)
---------------------------------
  C     -0.075342    1.543701   -0.025210
  C     -0.003913    0.014973    0.033632
  C     -1.422014   -0.563471   -0.056203
  O      0.776436   -0.462398   -1.090717
  C      1.888775   -1.224979   -0.539971
  C      1.234296   -1.926050    0.658469
  C      0.805114   -0.559824    1.262399
  C      2.150472    0.150667    1.266529
  C      2.813963   -0.248380    0.175641
  H      0.920804    1.987617   -0.028067
  H     -0.586371    1.852901   -0.942211
  H     -0.638180    1.942412    0.826151
  H     -1.876385   -0.276798   -1.009350
  H     -1.431626   -1.653471    0.002486
  H     -2.049582   -0.169431    0.750489
  H      2.308124   -1.828779   -1.343272
  H      0.414303   -2.587610    0.374249
  H      1.943483   -2.457906    1.294154
  H      0.245212   -0.564913    2.197552
  H      2.443249    0.913814    1.976525
  H      3.758768    0.117960   -0.204228

 Total Charge           Charge          ....    0
 Multiplicity           Mult            ....    1
 Number of Electrons    NEL             ....   68
 Basis Dimension        Dim             ....  351

ORBITAL ENERGIES
----------------

  NO   OCC          E(Eh)            E(eV)
   0   2.0000     -20.539305      -558.9029
   1   2.0000     -11.282707      -307.0181
   2   2.0000     -11.279703      -306.9363
   3   2.0000     -11.237855      -305.7976
   4   2.0000     -11.229475      -305.5696
   5   2.0000     -11.223329      -305.4023
   6   2.0000     -11.222217      -305.3721
   7   2.0000     -11.209216      -305.0183
   8   2.0000     -11.205815      -304.9257
   9   2.0000      -1.364487       -37.1296
  10   2.0000      -1.130594       -30.7650
  11   2.0000      -1.056380       -28.7456
  12   2.0000      -0.974742       -26.5241
  13   2.0000      -0.928820       -25.2745
  14   2.0000      -0.921128       -25.0652
  15   2.0000      -0.797022       -21.6881
  16   2.0000      -0.775605       -21.1053
  17   2.0000      -0.707538       -19.2531
  18   2.0000      -0.695540       -18.9266
  19   2.0000      -0.662054       -18.0154
  20   2.0000      -0.610224       -16.6050
  21   2.0000      -0.602856       -16.4045
  22   2.0000      -0.568353       -15.4657
  23   2.0000      -0.555109       -15.1053
  24   2.0000      -0.540987       -14.7210
  25   2.0000      -0.529890       -14.4190
  26   2.0000      -0.513140       -13.9633
  27   2.0000      -0.511133       -13.9086
  28   2.0000      -0.490618       -13.3504
  29   2.0000      -0.480409       -13.0726
  30   2.0000      -0.476330       -12.9616
  31   2.0000      -0.441720       -12.0198
  32   2.0000      -0.396524       -10.7900
  33   2.0000      -0.350380        -9.5343
  34   0.0000       0.138047         3.7564
  35   0.0000       0.141284         3.8445
  36   0.0000       0.166428         4.5287
  37   0.0000       0.170658         4.6438
  38   0.0000       0.181084         4.9276

MULLIKEN ATOMIC CHARGES
-----------------------
   0 C :   -0.425066
   1 C :    0.161990
   2 C :   -0.390482
   3 O :   -0.325271
   4 C :    0.123529
   5 C :   -0.267841
   6 C :    0.023783
   7 C :   -0.254658
   8 C :   -0.199495
   9 H :    0.144675
  10 H :    0.134249
  11 H :    0.121484
  12 H :    0.139085
  13 H :    0.122558
  14 H :    0.121677
  15 H :    0.125966
  16 H :    0.119879
  17 H :    0.123897
  18 H :    0.133827
  19 H :    0.134420
  20 H :    0.131793
Sum of atomic charges:    0.0000000

LOEWDIN ATOMIC CHARGES
----------------------
   0 C :   -0.271111
   1 C :   -0.341035
   2 C :   -0.271661
   3 O :    0.192116
   4 C :   -0.263529
   5 C :   -0.196619
   6 C :   -0.178411
   7 C :   -0.128162
   8 C :   -0.130517
   9 H :    0.128613
  10 H :    0.129034
  11 H :    0.125659
  12 H :    0.129634
  13 H :    0.121745
  14 H :    0.126310
  15 H :    0.137582
  16 H :    0.132891
  17 H :    0.141093
  18 H :    0.146597
  19 H :    0.135684
  20 H :    0.134088

  Mayer bond orders larger than 0.1
B(  0-C ,  1-C ) :   0.8902 B(  0-C ,  9-H ) :   0.9378 B(  0-C , 10-H ) :   0.9372
B(  0-C , 11-H ) :   0.9347 B(  1-C ,  2-C ) :   0.9179 B(  1-C ,  3-O ) :   0.9080
B(  1-C ,  6-C ) :   0.8616 B(  2-C , 12-H ) :   0.9379 B(  2-C , 13-H ) :   0.9343
B(  2-C , 14-H ) :   0.9323 B(  3-O ,  4-C ) :   0.9066 B(  4-C ,  5-C ) :   0.9558
B(  4-C ,  8-C ) :   0.9219 B(  4-C , 15-H ) :   0.9253 B(  5-C ,  6-C ) :   0.9226
B(  5-C , 16-H ) :   0.9258 B(  5-C , 17-H ) :   0.9153 B(  6-C ,  7-C ) :   0.9127
B(  6-C , 18-H ) :   0.9112 B(  7-C ,  8-C ) :   1.7867 B(  7-C , 19-H ) :   0.9354
B(  8-C , 20-H ) :   0.9299

MP2 TOTAL ENERGY:     -386.424402813 Eh
FINAL SINGLE POINT ENERGY      -386.424402813340

DIPOLE MOMENT
-------------
                                X             Y             Z
Electronic contribution:      4.59766      -1.49943      -1.29090
Nuclear contribution   :     -4.55918       1.42566       1.83936
                        -----------------------------------------
Total Dipole Moment    :      0.03847      -0.07377       0.54847
                        -----------------------------------------
Magnitude (a.u.)       :      0.55474
Magnitude (Debye)      :      1.41004

                             ****ORCA TERMINATED NORMALLY****
TOTAL RUN TIME: 0 days 0 hours 27 minutes 45 seconds 508 msec
