                         Program Version 3.0.3 - RELEASE   -
|  1> ! RI-MP2 RIJK def2-TZVP def2-TZVP/C def2-TZVP/JK TIGHTSCF
|  2> % maxcore 2000
|  3> % mp2 density relaxed end
|  4> *xyz 0 1
|  5>  C       -0.0365257208     1.6694457375    -0.0858764089
|  6>  C       -0.0132824689     0.1400344809     0.0472789507
|  7>  C        0.7625623876    -0.3049951559     1.3039993294
|  8>  C        2.2367993024     0.0175550298     1.2053904412
|  9>  O        2.8699111960     0.6386970398     2.0183187481
| 10>  C       -1.4449102726    -0.4472479848     0.0819363048
| 11>  O       -2.1759678908     0.0356514541     1.1742868872
| 12>  C       -2.1854190388    -0.1674596389    -1.2111527850
| 13>  O       -3.2590200882     0.3839576640    -1.2239278371
| 14>  H        0.9747267327     2.0851816310    -0.0580904302
| 15>  H       -0.5008191277     1.9873206473    -1.0251956789
| 16>  H       -0.6058326547     2.1076725028     0.7379771954
| 17>  H        0.4859964644    -0.2943150083    -0.8322470751
| 18>  H        0.3483177082     0.1539096159     2.2047771743
| 19>  H        0.6815658004    -1.3970620318     1.4087564940
| 20>  H        2.7270233672    -0.3819792722     0.2840888423
| 21>  H       -1.3509200818    -1.5489518861     0.1400468032
| 22>  H       -2.9928579281     0.4053200336     0.8028839219
| 23>  H       -1.6910500268    -0.5064316587    -2.1449134072
| 24> *
| 25>
| 26>                          ****END OF INPUT****

CARTESIAN COORDINATES (ANGSTROEM)
---------------------------------
  C     -0.036526    1.669446   -0.085876
  C     -0.013282    0.140034    0.047279
  C      0.762562   -0.304995    1.303999
  C      2.236799    0.017555    1.205390
  O      2.869911    0.638697    2.018319
  C     -1.444910   -0.447248    0.081936
  O     -2.175968    0.035651    1.174287
  C     -2.185419   -0.167460   -1.211153
  O     -3.259020    0.383958   -1.223928
  H      0.974727    2.085182   -0.058090
  H     -0.500819    1.987321   -1.025196
  H     -0.605833    2.107673    0.737977
  H      0.485996   -0.294315   -0.832247
  H      0.348318    0.153910    2.204777
  H      0.681566   -1.397062    1.408756
  H      2.727023   -0.381979    0.284089
  H     -1.350920   -1.548952    0.140047
  H     -2.992858    0.405320    0.802884
  H     -1.691050   -0.506432   -2.144913

 Total Charge           Charge          ....    0
 Multiplicity           Mult            ....    1
 Number of Electrons    NEL             ....   70
 Basis Dimension        Dim             ....  339

ORBITAL ENERGIES
----------------

  NO   OCC          E(Eh)            E(eV)
   0   2.0000     -20.588037      -560.2290
   1   2.0000     -20.571502      -559.7790
   2   2.0000     -20.562994      -559.5475
   3   2.0000     -11.357433      -309.0515
   4   2.0000     -11.338188      -308.5278
   5   2.0000     -11.313376      -307.8526
   6   2.0000     -11.268165      -306.6224
   7   2.0000     -11.248870      -306.0973
   8   2.0000     -11.232724      -305.6580
   9   2.0000      -1.434514       -39.0351
  10   2.0000      -1.401844       -38.1461
  11   2.0000      -1.379244       -37.5311
  12   2.0000      -1.119816       -30.4717
  13   2.0000      -1.009723       -27.4760
  14   2.0000      -0.971051       -26.4236
  15   2.0000      -0.861012       -23.4293
  16   2.0000      -0.799752       -21.7624
  17   2.0000      -0.794508       -21.6197
  18   2.0000      -0.742035       -20.1918
  19   2.0000      -0.698543       -19.0083
  20   2.0000      -0.680249       -18.5105
  21   2.0000      -0.665149       -18.0996
  22   2.0000      -0.641547       -17.4574
  23   2.0000      -0.635756       -17.2998
  24   2.0000      -0.594200       -16.1690
  25   2.0000      -0.571935       -15.5632
  26   2.0000      -0.561489       -15.2789
  27   2.0000      -0.555992       -15.1293
  28   2.0000      -0.536509       -14.5992
  29   2.0000      -0.534540       -14.5456
  30   2.0000      -0.504824       -13.7370
  31   2.0000      -0.495442       -13.4817
  32   2.0000      -0.462076       -12.5737
  33   2.0000      -0.450759       -12.2658
  34   2.0000      -0.421939       -11.4816
  35   0.0000       0.101441         2.7604
  36   0.0000       0.123117         3.3502
  37   0.0000       0.135998         3.7007
  38   0.0000       0.150600         4.0980
  39   0.0000       0.151815         4.1311

MULLIKEN ATOMIC CHARGES
-----------------------
   0 C :   -0.456858
   1 C :   -0.086423
   2 C :   -0.158375
   3 C :    0.084862
   4 O :   -0.254400
   5 C :    0.096190
   6 O :   -0.484979
   7 C :    0.103487
   8 O :   -0.287628
   9 H :    0.149803
  10 H :    0.136992
  11 H :    0.156184
  12 H :    0.102651
  13 H :    0.147315
  14 H :    0.129643
  15 H :    0.068233
  16 H :    0.112219
  17 H :    0.335888
  18 H :    0.105197
Sum of atomic charges:   -0.0000000

LOEWDIN ATOMIC CHARGES
----------------------
   0 C :   -0.282862
   1 C :   -0.262256
   2 C :   -0.235674
   3 C :   -0.299940
   4 O :    0.136756
   5 C :   -0.352107
   6 O :    0.007267
   7 C :   -0.270531
   8 O :    0.132679
   9 H :    0.129803
  10 H :    0.126033
  11 H :    0.134559
  12 H :    0.156293
  13 H :    0.155069
  14 H :    0.155134
  15 H :    0.108607
  16 H :    0.154902
  17 H :    0.184768
  18 H :    0.121500

  Mayer bond orders larger than 0.1
B(  0-C ,  1-C ) :   0.9121 B(  0-C ,  9-H ) :   0.9320 B(  0-C , 10-H ) :   0.9319
B(  0-C , 11-H ) :   0.9302 B(  1-C ,  2-C ) :   0.8806 B(  1-C ,  5-C ) :   0.8308
B(  1-C , 12-H ) :   0.9223 B(  2-C ,  3-C ) :   0.8598 B(  2-C , 13-H ) :   0.9063
B(  2-C , 14-H ) :   0.9157 B(  3-C ,  4-O ) :   2.0124 B(  3-C , 15-H ) :   0.9366
B(  5-C ,  6-O ) :   1.0930 B(  5-C ,  7-C ) :   0.8663 B(  5-C , 16-H ) :   0.9354
B(  6-O , 17-H ) :   0.8041 B(  7-C ,  8-O ) :   1.9242 B(  7-C , 18-H ) :   0.9340

MP2 TOTAL ENERGY:     -459.444769638 Eh
FINAL SINGLE POINT ENERGY      -459.444769638211

DIPOLE MOMENT
-------------
                                X             Y             Z
Electronic contribution:     -1.92027      -1.00901       1.05284
Nuclear contribution   :      1.86224       0.25863      -2.10587
                        -----------------------------------------
Total Dipole Moment    :     -0.05803      -0.75038      -1.05303
                        -----------------------------------------
Magnitude (a.u.)       :      1.29434
Magnitude (Debye)      :      3.28995

                             ****ORCA TERMINATED NORMALLY****
TOTAL RUN TIME: 0 days 0 hours 18 minutes 40 seconds 393 msec
