                         Program Version 3.0.3 - RELEASE   -
|  1> ! RI-MP2 RIJK def2-TZVP def2-TZVP/C def2-TZVP/JK TIGHTSCF
|  2> % maxcore 2000
|  3> % mp2 density relaxed end
|  4> *xyz 0 1
|  5>  O       -0.0350046786    -0.0617420478    -0.0004212913
|  6>  C       -0.0101653424     1.1467121333     0.0090450650
|  7>  C        1.1861094903     1.9672573755     0.0021453002
|  8>  C        1.3012293199     3.3156972688     0.0118974829
|  9>  N        2.6440441704     3.5976893624    -0.0011397454
| 10>  C        3.3826785909     2.4149640001    -0.0192353801
| 11>  O        4.5684132546     2.2685450718    -0.0336968666
| 12>  O        2.4469406391     1.4053227220    -0.0166427141
| 13>  H       -0.9379564714     1.7611398455     0.0245608972
| 14>  H        0.5370163746     4.0750570531     0.0267899601
| 15>  H        3.0829717326     4.5025275454     0.0012464621
| 16> *
| 17>
| 18>                          ****END OF INPUT****

CARTESIAN COORDINATES (ANGSTROEM)
---------------------------------
  O     -0.035005   -0.061742   -0.000421
  C     -0.010165    1.146712    0.009045
  C      1.186109    1.967257    0.002145
  C      1.301229    3.315697    0.011897
  N      2.644044    3.597689   -0.001140
  C      3.382679    2.414964   -0.019235
  O      4.568413    2.268545   -0.033697
  O      2.446941    1.405323   -0.016643
  H     -0.937956    1.761140    0.024561
  H      0.537016    4.075057    0.026790
  H      3.082972    4.502528    0.001246

 Total Charge           Charge          ....    0
 Multiplicity           Mult            ....    1
 Number of Electrons    NEL             ....   58
 Basis Dimension        Dim             ....  266

ORBITAL ENERGIES
----------------

  NO   OCC          E(Eh)            E(eV)
   0   2.0000     -20.646649      -561.8239
   1   2.0000     -20.567643      -559.6740
   2   2.0000     -20.554439      -559.3147
   3   2.0000     -15.652547      -425.9275
   4   2.0000     -11.434916      -311.1599
   5   2.0000     -11.355929      -309.0105
   6   2.0000     -11.339445      -308.5620
   7   2.0000     -11.325817      -308.1911
   8   2.0000      -1.515395       -41.2360
   9   2.0000      -1.408941       -38.3392
  10   2.0000      -1.397022       -38.0149
  11   2.0000      -1.301001       -35.4020
  12   2.0000      -1.086671       -29.5698
  13   2.0000      -0.934827       -25.4379
  14   2.0000      -0.891283       -24.2530
  15   2.0000      -0.846822       -23.0432
  16   2.0000      -0.749625       -20.3983
  17   2.0000      -0.708535       -19.2802
  18   2.0000      -0.703669       -19.1478
  19   2.0000      -0.693432       -18.8692
  20   2.0000      -0.658321       -17.9138
  21   2.0000      -0.650091       -17.6899
  22   2.0000      -0.601854       -16.3773
  23   2.0000      -0.569205       -15.4889
  24   2.0000      -0.542123       -14.7519
  25   2.0000      -0.518165       -14.1000
  26   2.0000      -0.488269       -13.2865
  27   2.0000      -0.451164       -12.2768
  28   2.0000      -0.357168        -9.7190
  29   0.0000       0.065956         1.7948
  30   0.0000       0.108328         2.9478
  31   0.0000       0.136907         3.7254
  32   0.0000       0.174453         4.7471
  33   0.0000       0.190822         5.1925

MULLIKEN ATOMIC CHARGES
-----------------------
   0 O :   -0.257853
   1 C :    0.037438
   2 C :    0.189491
   3 C :   -0.073425
   4 N :   -0.281777
   5 C :    0.332423
   6 O :   -0.298449
   7 O :   -0.190489
   8 H :    0.086936
   9 H :    0.183931
  10 H :    0.271773
Sum of atomic charges:   -0.0000000

LOEWDIN ATOMIC CHARGES
----------------------
   0 O :    0.141503
   1 C :   -0.295046
   2 C :   -0.265707
   3 C :   -0.174140
   4 N :    0.167379
   5 C :   -0.519000
   6 O :    0.118904
   7 O :    0.348841
   8 H :    0.123119
   9 H :    0.151108
  10 H :    0.203040

  Mayer bond orders larger than 0.1
B(  0-O ,  1-C ) :   2.0036 B(  1-C ,  2-C ) :   0.8561 B(  1-C ,  8-H ) :   0.9894
B(  2-C ,  3-C ) :   1.5542 B(  2-C ,  7-O ) :   1.0052 B(  2-C ,  8-H ) :  -0.1166
B(  3-C ,  4-N ) :   1.1040 B(  3-C ,  9-H ) :   0.8933 B(  4-N ,  5-C ) :   1.0674
B(  4-N , 10-H ) :   0.8629 B(  5-C ,  6-O ) :   2.0331 B(  5-C ,  7-O ) :   1.0572

MP2 TOTAL ENERGY:     -433.909218134 Eh
FINAL SINGLE POINT ENERGY      -433.909218134171

DIPOLE MOMENT
-------------
                                X             Y             Z
Electronic contribution:      2.02852      -1.71909      -0.03717
Nuclear contribution   :     -2.98475       4.07707       0.06705
                        -----------------------------------------
Total Dipole Moment    :     -0.95623       2.35798       0.02988
                        -----------------------------------------
Magnitude (a.u.)       :      2.54467
Magnitude (Debye)      :      6.46803

                             ****ORCA TERMINATED NORMALLY****
TOTAL RUN TIME: 0 days 0 hours 7 minutes 57 seconds 902 msec
