                         Program Version 3.0.3 - RELEASE   -
|  1> ! RI-MP2 RIJK def2-TZVP def2-TZVP/C def2-TZVP/JK TIGHTSCF
|  2> % maxcore 2000
|  3> % mp2 density relaxed end
|  4> *xyz 0 1
|  5>  C       -0.3473300299     0.6915260995    -0.2934929117
|  6>  O       -0.0544623969     0.4720106249     1.0755795341
|  7>  C        1.0708429792    -0.3526150847     1.2861421322
|  8>  C        0.8012583928    -1.8147953284     1.0610851602
|  9>  N       -0.2329505263    -2.5483963593     1.8744371044
| 10>  C        1.1459575111    -3.0331302205     1.8892560696
| 11>  C        1.2760517165    -3.9347824406     0.6534843056
| 12>  C        0.9655702954    -2.6616770928    -0.1862540202
| 13>  O        1.0288695128    -2.4025542437    -1.3530615228
| 14>  H       -0.5192468116    -0.2443592951    -0.8401457943
| 15>  H       -1.2514060535     1.3032641355    -0.3291665213
| 16>  H        0.4714214083     1.2324907868    -0.7921260791
| 17>  H        1.9136757302    -0.0364431218     0.6509411810
| 18>  H        1.3642763358    -0.2019834075     2.3323258634
| 19>  H       -0.3901873801    -1.9644821104     2.6975677315
| 20>  H        1.7441065779    -3.0591371583     2.7909827322
| 21>  H        2.2903439686    -4.2885566833     0.4481986253
| 22>  H        0.5649591797    -4.7604849801     0.5898944801
| 23> *
| 24>
| 25>                          ****END OF INPUT****

CARTESIAN COORDINATES (ANGSTROEM)
---------------------------------
  C     -0.347330    0.691526   -0.293493
  O     -0.054462    0.472011    1.075580
  C      1.070843   -0.352615    1.286142
  C      0.801258   -1.814795    1.061085
  N     -0.232951   -2.548396    1.874437
  C      1.145958   -3.033130    1.889256
  C      1.276052   -3.934782    0.653484
  C      0.965570   -2.661677   -0.186254
  O      1.028870   -2.402554   -1.353062
  H     -0.519247   -0.244359   -0.840146
  H     -1.251406    1.303264   -0.329167
  H      0.471421    1.232491   -0.792126
  H      1.913676   -0.036443    0.650941
  H      1.364276   -0.201983    2.332326
  H     -0.390187   -1.964482    2.697568
  H      1.744107   -3.059137    2.790983
  H      2.290344   -4.288557    0.448199
  H      0.564959   -4.760485    0.589894

 Total Charge           Charge          ....    0
 Multiplicity           Mult            ....    1
 Number of Electrons    NEL             ....   68
 Basis Dimension        Dim             ....  333

ORBITAL ENERGIES
----------------

  NO   OCC          E(Eh)            E(eV)
   0   2.0000     -20.562592      -559.5366
   1   2.0000     -20.558156      -559.4159
   2   2.0000     -15.588353      -424.1807
   3   2.0000     -11.342875      -308.6553
   4   2.0000     -11.298714      -307.4536
   5   2.0000     -11.292223      -307.2770
   6   2.0000     -11.283558      -307.0412
   7   2.0000     -11.267524      -306.6049
   8   2.0000     -11.252134      -306.1861
   9   2.0000      -1.403689       -38.1963
  10   2.0000      -1.381902       -37.6035
  11   2.0000      -1.303939       -35.4820
  12   2.0000      -1.056049       -28.7366
  13   2.0000      -1.008276       -27.4366
  14   2.0000      -0.920899       -25.0589
  15   2.0000      -0.859808       -23.3966
  16   2.0000      -0.841786       -22.9062
  17   2.0000      -0.719728       -19.5848
  18   2.0000      -0.714191       -19.4341
  19   2.0000      -0.678945       -18.4750
  20   2.0000      -0.662688       -18.0327
  21   2.0000      -0.646439       -17.5905
  22   2.0000      -0.633286       -17.2326
  23   2.0000      -0.613916       -16.7055
  24   2.0000      -0.585602       -15.9350
  25   2.0000      -0.550983       -14.9930
  26   2.0000      -0.541982       -14.7481
  27   2.0000      -0.539115       -14.6701
  28   2.0000      -0.506000       -13.7690
  29   2.0000      -0.489739       -13.3265
  30   2.0000      -0.483492       -13.1565
  31   2.0000      -0.437951       -11.9173
  32   2.0000      -0.406636       -11.0651
  33   2.0000      -0.383999       -10.4492
  34   0.0000       0.128143         3.4870
  35   0.0000       0.141452         3.8491
  36   0.0000       0.155406         4.2288
  37   0.0000       0.158036         4.3004
  38   0.0000       0.175732         4.7819

MULLIKEN ATOMIC CHARGES
-----------------------
   0 C :   -0.220480
   1 O :   -0.309951
   2 C :   -0.018121
   3 C :    0.076059
   4 N :   -0.355353
   5 C :   -0.156514
   6 C :   -0.120523
   7 C :    0.084042
   8 O :   -0.257797
   9 H :    0.138071
  10 H :    0.138202
  11 H :    0.109861
  12 H :    0.116595
  13 H :    0.125779
  14 H :    0.225802
  15 H :    0.154790
  16 H :    0.135040
  17 H :    0.134498
Sum of atomic charges:    0.0000000

LOEWDIN ATOMIC CHARGES
----------------------
   0 C :   -0.346716
   1 O :    0.131879
   2 C :   -0.305030
   3 C :   -0.222893
   4 N :    0.044344
   5 C :   -0.210835
   6 C :   -0.184329
   7 C :   -0.279672
   8 O :    0.164293
   9 H :    0.110354
  10 H :    0.113528
  11 H :    0.103584
  12 H :    0.136173
  13 H :    0.140096
  14 H :    0.180488
  15 H :    0.134628
  16 H :    0.147702
  17 H :    0.142408

  Mayer bond orders larger than 0.1
B(  0-C ,  1-O ) :   0.9026 B(  0-C ,  9-H ) :   0.9307 B(  0-C , 10-H ) :   0.9375
B(  0-C , 11-H ) :   0.9352 B(  1-O ,  2-C ) :   0.9470 B(  2-C ,  3-C ) :   0.9205
B(  2-C , 12-H ) :   0.9385 B(  2-C , 13-H ) :   0.9193 B(  3-C ,  4-N ) :   0.7850
B(  3-C ,  5-C ) :   0.8312 B(  3-C ,  6-C ) :  -0.1375 B(  3-C ,  7-C ) :   0.8390
B(  4-N ,  5-C ) :   1.0257 B(  4-N , 14-H ) :   0.8641 B(  5-C ,  6-C ) :   0.9211
B(  5-C , 15-H ) :   0.9057 B(  6-C ,  7-C ) :   0.9742 B(  6-C , 16-H ) :   0.9026
B(  6-C , 17-H ) :   0.8781 B(  7-C ,  8-O ) :   2.0180

MP2 TOTAL ENERGY:     -438.313736590 Eh
FINAL SINGLE POINT ENERGY      -438.313736590238

DIPOLE MOMENT
-------------
                                X             Y             Z
Electronic contribution:      0.06855      -2.87761      -0.66807
Nuclear contribution   :      0.64592       2.82401       1.59336
                        -----------------------------------------
Total Dipole Moment    :      0.71446      -0.05361       0.92529
                        -----------------------------------------
Magnitude (a.u.)       :      1.17025
Magnitude (Debye)      :      2.97455

                             ****ORCA TERMINATED NORMALLY****
TOTAL RUN TIME: 0 days 0 hours 16 minutes 0 seconds 753 msec
