                         Program Version 3.0.3 - RELEASE   -
|  1> ! RI-MP2 RIJK def2-TZVP def2-TZVP/C def2-TZVP/JK TIGHTSCF
|  2> % maxcore 2000
|  3> % mp2 density relaxed end
|  4> *xyz 0 1
|  5>  N        0.9248524665     0.4008843379    -0.7101959009
|  6>  C       -0.1026597495     0.5235792581     0.0236426825
|  7>  N       -1.2908913119    -0.0968000544    -0.3434068191
|  8>  C       -2.4512080948    -0.0237166671     0.3975944899
|  9>  O       -2.5367435760     0.6046037517     1.4329273516
| 10>  C       -3.6393035385    -0.7768643074    -0.1835087444
| 11>  C       -4.8673119974     0.1253826542    -0.2626964299
| 12>  O       -5.6458035560     0.1033119958    -1.1770763554
| 13>  H        1.7103049389     0.9105863249    -0.3098878936
| 14>  H       -0.1994726760     1.0777587054     0.9587296577
| 15>  H       -1.2659449352    -0.6268303873    -1.2030007099
| 16>  H       -3.4570180651    -1.2293848531    -1.1606167305
| 17>  H       -3.8818675501    -1.5762505730     0.5297910332
| 18>  H       -4.9849853650     0.8012926144     0.6079299888
| 19> *
| 20>
| 21>                          ****END OF INPUT****

CARTESIAN COORDINATES (ANGSTROEM)
---------------------------------
  N      0.924852    0.400884   -0.710196
  C     -0.102660    0.523579    0.023643
  N     -1.290891   -0.096800   -0.343407
  C     -2.451208   -0.023717    0.397594
  O     -2.536744    0.604604    1.432927
  C     -3.639304   -0.776864   -0.183509
  C     -4.867312    0.125383   -0.262696
  O     -5.645804    0.103312   -1.177076
  H      1.710305    0.910586   -0.309888
  H     -0.199473    1.077759    0.958730
  H     -1.265945   -0.626830   -1.203001
  H     -3.457018   -1.229385   -1.160617
  H     -3.881868   -1.576251    0.529791
  H     -4.984985    0.801293    0.607930

 Total Charge           Charge          ....    0
 Multiplicity           Mult            ....    1
 Number of Electrons    NEL             ....   60
 Basis Dimension        Dim             ....  284

ORBITAL ENERGIES
----------------

  NO   OCC          E(Eh)            E(eV)
   0   2.0000     -20.575332      -559.8833
   1   2.0000     -20.557056      -559.3859
   2   2.0000     -15.626140      -425.2089
   3   2.0000     -15.560168      -423.4137
   4   2.0000     -11.393428      -310.0309
   5   2.0000     -11.352503      -308.9173
   6   2.0000     -11.337190      -308.5006
   7   2.0000     -11.278278      -306.8975
   8   2.0000      -1.426230       -38.8097
   9   2.0000      -1.414721       -38.4965
  10   2.0000      -1.299758       -35.3682
  11   2.0000      -1.194434       -32.5022
  12   2.0000      -1.069952       -29.1149
  13   2.0000      -0.903229       -24.5781
  14   2.0000      -0.835280       -22.7291
  15   2.0000      -0.815538       -22.1919
  16   2.0000      -0.739763       -20.1300
  17   2.0000      -0.694287       -18.8925
  18   2.0000      -0.681357       -18.5407
  19   2.0000      -0.667125       -18.1534
  20   2.0000      -0.654268       -17.8035
  21   2.0000      -0.627134       -17.0652
  22   2.0000      -0.612721       -16.6730
  23   2.0000      -0.594155       -16.1678
  24   2.0000      -0.531092       -14.4518
  25   2.0000      -0.512212       -13.9380
  26   2.0000      -0.480269       -13.0688
  27   2.0000      -0.452105       -12.3024
  28   2.0000      -0.433149       -11.7866
  29   2.0000      -0.401553       -10.9268
  30   0.0000       0.101207         2.7540
  31   0.0000       0.122699         3.3388
  32   0.0000       0.126752         3.4491
  33   0.0000       0.145508         3.9595
  34   0.0000       0.161725         4.4008

MULLIKEN ATOMIC CHARGES
-----------------------
   0 N :   -0.375590
   1 C :    0.047263
   2 N :   -0.283725
   3 C :    0.293169
   4 O :   -0.354866
   5 C :   -0.198173
   6 C :    0.083195
   7 O :   -0.254905
   8 H :    0.232219
   9 H :    0.148054
  10 H :    0.253424
  11 H :    0.132183
  12 H :    0.158894
  13 H :    0.118857
Sum of atomic charges:    0.0000000

LOEWDIN ATOMIC CHARGES
----------------------
   0 N :   -0.079764
   1 C :   -0.317915
   2 N :    0.140709
   3 C :   -0.431681
   4 O :    0.106332
   5 C :   -0.225907
   6 C :   -0.280156
   7 O :    0.142058
   8 H :    0.169452
   9 H :    0.132524
  10 H :    0.201090
  11 H :    0.147348
  12 H :    0.173124
  13 H :    0.122787

  Mayer bond orders larger than 0.1
B(  0-N ,  1-C ) :   1.9233 B(  0-N ,  8-H ) :   0.8629 B(  1-C ,  2-N ) :   0.9761
B(  1-C ,  9-H ) :   0.9249 B(  2-N ,  3-C ) :   1.0884 B(  2-N , 10-H ) :   0.8552
B(  3-C ,  4-O ) :   1.8807 B(  3-C ,  5-C ) :   0.8819 B(  5-C ,  6-C ) :   0.8763
B(  5-C , 11-H ) :   0.9111 B(  5-C , 12-H ) :   0.8950 B(  6-C ,  7-O ) :   1.9911
B(  6-C , 13-H ) :   0.9258

MP2 TOTAL ENERGY:     -415.229384485 Eh
FINAL SINGLE POINT ENERGY      -415.229384485217

DIPOLE MOMENT
-------------
                                X             Y             Z
Electronic contribution:     -1.89269       0.84769       0.22403
Nuclear contribution   :      2.51032      -1.24267       0.03031
                        -----------------------------------------
Total Dipole Moment    :      0.61763      -0.39498       0.25434
                        -----------------------------------------
Magnitude (a.u.)       :      0.77600
Magnitude (Debye)      :      1.97242

                             ****ORCA TERMINATED NORMALLY****
TOTAL RUN TIME: 0 days 0 hours 8 minutes 40 seconds 322 msec
