                         Program Version 3.0.3 - RELEASE   -
|  1> ! RI-MP2 RIJK def2-TZVP def2-TZVP/C def2-TZVP/JK TIGHTSCF
|  2> % maxcore 2000
|  3> % mp2 density relaxed end
|  4> *xyz 0 1
|  5>  C       -0.3891008586     1.4622402277    -0.1300955348
|  6>  C       -0.0532973138    -0.0070986654     0.0011607212
|  7>  C        1.3055978224    -0.6010155580    -0.3249213449
|  8>  C        2.5107629774     0.2664682167    -0.6862151321
|  9>  C        3.4145550099     0.5516937850     0.5237625800
| 10>  C        2.6112306318     1.1651865906     1.6750103059
| 11>  C        1.5143497771     0.2061172817     2.1829607694
| 12>  C        0.7922984257    -0.5976858477     1.1063109844
| 13>  H        0.4406183026     2.1189615310     0.1378354564
| 14>  H       -0.6779187496     1.7048552212    -1.1595630704
| 15>  H       -1.2332385283     1.7255978578     0.5173341504
| 16>  H       -0.8867814384    -0.6427268879    -0.2911795466
| 17>  H        1.2784820888    -1.5591107813    -0.8354455161
| 18>  H        3.0886354190    -0.2350760118    -1.4691860729
| 19>  H        2.1874253555     1.2215291779    -1.1199106183
| 20>  H        3.8782257571    -0.3850837378     0.8618727461
| 21>  H        4.2317588132     1.2211159014     0.2318240146
| 22>  H        3.2732300621     1.4185849632     2.5107140423
| 23>  H        2.1745687404     2.1141936360     1.3407177904
| 24>  H        1.9940491079    -0.5196987976     2.8520984520
| 25>  H        0.7943961060     0.7540865389     2.8042361915
| 26>  H        0.4334306116    -1.5551831418     1.4751483016
| 27> *
| 28>
| 29>                          ****END OF INPUT****

CARTESIAN COORDINATES (ANGSTROEM)
---------------------------------
  C     -0.389101    1.462240   -0.130096
  C     -0.053297   -0.007099    0.001161
  C      1.305598   -0.601016   -0.324921
  C      2.510763    0.266468   -0.686215
  C      3.414555    0.551694    0.523763
  C      2.611231    1.165187    1.675010
  C      1.514350    0.206117    2.182961
  C      0.792298   -0.597686    1.106311
  H      0.440618    2.118962    0.137835
  H     -0.677919    1.704855   -1.159563
  H     -1.233239    1.725598    0.517334
  H     -0.886781   -0.642727   -0.291180
  H      1.278482   -1.559111   -0.835446
  H      3.088635   -0.235076   -1.469186
  H      2.187425    1.221529   -1.119911
  H      3.878226   -0.385084    0.861873
  H      4.231759    1.221116    0.231824
  H      3.273230    1.418585    2.510714
  H      2.174569    2.114194    1.340718
  H      1.994049   -0.519699    2.852098
  H      0.794396    0.754087    2.804236
  H      0.433431   -1.555183    1.475148

 Total Charge           Charge          ....    0
 Multiplicity           Mult            ....    1
 Number of Electrons    NEL             ....   62
 Basis Dimension        Dim             ....  332

ORBITAL ENERGIES
----------------

  NO   OCC          E(Eh)            E(eV)
   0   2.0000     -11.220269      -305.3190
   1   2.0000     -11.217893      -305.2544
   2   2.0000     -11.217256      -305.2371
   3   2.0000     -11.216530      -305.2173
   4   2.0000     -11.214388      -305.1590
   5   2.0000     -11.213573      -305.1368
   6   2.0000     -11.212302      -305.1023
   7   2.0000     -11.211458      -305.0793
   8   2.0000      -1.152626       -31.3645
   9   2.0000      -1.054527       -28.6952
  10   2.0000      -0.995776       -27.0964
  11   2.0000      -0.961308       -26.1585
  12   2.0000      -0.869011       -23.6470
  13   2.0000      -0.819962       -22.3123
  14   2.0000      -0.741828       -20.1862
  15   2.0000      -0.715334       -19.4652
  16   2.0000      -0.673192       -18.3185
  17   2.0000      -0.618794       -16.8382
  18   2.0000      -0.595773       -16.2118
  19   2.0000      -0.592114       -16.1123
  20   2.0000      -0.562359       -15.3026
  21   2.0000      -0.547824       -14.9071
  22   2.0000      -0.536972       -14.6117
  23   2.0000      -0.521345       -14.1865
  24   2.0000      -0.506766       -13.7898
  25   2.0000      -0.472991       -12.8707
  26   2.0000      -0.464211       -12.6318
  27   2.0000      -0.457625       -12.4526
  28   2.0000      -0.437788       -11.9128
  29   2.0000      -0.378437       -10.2978
  30   2.0000      -0.376898       -10.2559
  31   0.0000       0.132266         3.5991
  32   0.0000       0.157924         4.2973
  33   0.0000       0.162018         4.4087
  34   0.0000       0.169076         4.6008
  35   0.0000       0.193163         5.2562

MULLIKEN ATOMIC CHARGES
-----------------------
   0 C :   -0.405622
   1 C :   -0.134287
   2 C :   -0.082309
   3 C :   -0.270355
   4 C :   -0.201225
   5 C :   -0.250977
   6 C :   -0.227878
   7 C :   -0.089791
   8 H :    0.121393
   9 H :    0.133632
  10 H :    0.133982
  11 H :    0.108697
  12 H :    0.118393
  13 H :    0.123303
  14 H :    0.124219
  15 H :    0.103797
  16 H :    0.117379
  17 H :    0.120049
  18 H :    0.111513
  19 H :    0.113485
  20 H :    0.117646
  21 H :    0.114957
Sum of atomic charges:   -0.0000000

LOEWDIN ATOMIC CHARGES
----------------------
   0 C :   -0.296469
   1 C :   -0.219759
   2 C :   -0.184534
   3 C :   -0.245099
   4 C :   -0.262682
   5 C :   -0.266946
   6 C :   -0.244640
   7 C :   -0.191357
   8 H :    0.120672
   9 H :    0.126145
  10 H :    0.126725
  11 H :    0.148220
  12 H :    0.143933
  13 H :    0.139256
  14 H :    0.139569
  15 H :    0.137763
  16 H :    0.133989
  17 H :    0.135379
  18 H :    0.131287
  19 H :    0.143066
  20 H :    0.138988
  21 H :    0.146494

  Mayer bond orders larger than 0.1
B(  0-C ,  1-C ) :   0.9078 B(  0-C ,  8-H ) :   0.9370 B(  0-C ,  9-H ) :   0.9387
B(  0-C , 10-H ) :   0.9377 B(  1-C ,  2-C ) :   0.8911 B(  1-C ,  7-C ) :   0.8930
B(  1-C , 11-H ) :   0.9304 B(  2-C ,  3-C ) :   0.8881 B(  2-C ,  7-C ) :   0.8503
B(  2-C , 12-H ) :   0.9310 B(  3-C ,  4-C ) :   0.9349 B(  3-C , 13-H ) :   0.9342
B(  3-C , 14-H ) :   0.9425 B(  4-C ,  5-C ) :   0.9170 B(  4-C , 15-H ) :   0.9311
B(  4-C , 16-H ) :   0.9329 B(  5-C ,  6-C ) :   0.9355 B(  5-C , 17-H ) :   0.9344
B(  5-C , 18-H ) :   0.9393 B(  6-C ,  7-C ) :   0.9249 B(  6-C , 19-H ) :   0.9322
B(  6-C , 20-H ) :   0.9321 B(  7-C , 21-H ) :   0.9305

MP2 TOTAL ENERGY:     -312.500207954 Eh
FINAL SINGLE POINT ENERGY      -312.500207954128

DIPOLE MOMENT
-------------
                                X             Y             Z
Electronic contribution:     -0.37395      -2.54492      -0.18468
Nuclear contribution   :      0.40140       2.53731       0.20250
                        -----------------------------------------
Total Dipole Moment    :      0.02745      -0.00761       0.01782
                        -----------------------------------------
Magnitude (a.u.)       :      0.03360
Magnitude (Debye)      :      0.08542

                             ****ORCA TERMINATED NORMALLY****
TOTAL RUN TIME: 0 days 0 hours 16 minutes 54 seconds 732 msec
