                         Program Version 3.0.3 - RELEASE   -
|  1> ! RI-MP2 RIJK def2-TZVP def2-TZVP/C def2-TZVP/JK TIGHTSCF
|  2> % maxcore 2000
|  3> % mp2 density relaxed end
|  4> *xyz 0 1
|  5>  C        0.1020950017     1.1317134910     0.9772695545
|  6>  C       -0.1058663238     0.3773213083    -0.3337548717
|  7>  O        0.8590826648    -0.6459301626    -0.5252804300
|  8>  C       -1.5396838144    -0.2071804178    -0.4495497144
|  9>  N       -1.8595806577    -0.6079963305    -1.8202825900
| 10>  C       -2.0955830774    -1.8484431560    -1.7636785579
| 11>  O       -2.0314306967    -2.4801083575    -0.5404117179
| 12>  C       -1.6733496091    -1.4917374736     0.3668563855
| 13>  O       -1.4870449774    -1.7191321895     1.5231414088
| 14>  H        1.1320861288     1.4939514387     1.0315065645
| 15>  H       -0.5708318725     1.9919245115     1.0484051069
| 16>  H       -0.0911046170     0.4793314388     1.8353355597
| 17>  H        0.0152036627     1.0534071810    -1.1857415155
| 18>  H        0.9821733817    -1.0975171828     0.3180405014
| 19>  H       -2.2632730845     0.5396871658    -0.1037388836
| 20>  H       -2.3604412091    -2.4982748749    -2.5883849104
| 21> *
| 22>
| 23>                          ****END OF INPUT****

CARTESIAN COORDINATES (ANGSTROEM)
---------------------------------
  C      0.102095    1.131713    0.977270
  C     -0.105866    0.377321   -0.333755
  O      0.859083   -0.645930   -0.525280
  C     -1.539684   -0.207180   -0.449550
  N     -1.859581   -0.607996   -1.820283
  C     -2.095583   -1.848443   -1.763679
  O     -2.031431   -2.480108   -0.540412
  C     -1.673350   -1.491737    0.366856
  O     -1.487045   -1.719132    1.523141
  H      1.132086    1.493951    1.031507
  H     -0.570832    1.991925    1.048405
  H     -0.091105    0.479331    1.835336
  H      0.015204    1.053407   -1.185742
  H      0.982173   -1.097517    0.318041
  H     -2.263273    0.539687   -0.103739
  H     -2.360441   -2.498275   -2.588385

 Total Charge           Charge          ....    0
 Multiplicity           Mult            ....    1
 Number of Electrons    NEL             ....   68
 Basis Dimension        Dim             ....  321

ORBITAL ENERGIES
----------------

  NO   OCC          E(Eh)            E(eV)
   0   2.0000     -20.643182      -561.7295
   1   2.0000     -20.576309      -559.9098
   2   2.0000     -20.571774      -559.7864
   3   2.0000     -15.581513      -423.9945
   4   2.0000     -11.407314      -310.4088
   5   2.0000     -11.363258      -309.2100
   6   2.0000     -11.307214      -307.6849
   7   2.0000     -11.298138      -307.4380
   8   2.0000     -11.232153      -305.6424
   9   2.0000      -1.506315       -40.9889
  10   2.0000      -1.412152       -38.4266
  11   2.0000      -1.381211       -37.5847
  12   2.0000      -1.253909       -34.1206
  13   2.0000      -1.068895       -29.0861
  14   2.0000      -0.994976       -27.0747
  15   2.0000      -0.890869       -24.2418
  16   2.0000      -0.850932       -23.1550
  17   2.0000      -0.799045       -21.7431
  18   2.0000      -0.743481       -20.2311
  19   2.0000      -0.707764       -19.2592
  20   2.0000      -0.681842       -18.5539
  21   2.0000      -0.663302       -18.0494
  22   2.0000      -0.653268       -17.7763
  23   2.0000      -0.622624       -16.9425
  24   2.0000      -0.616867       -16.7858
  25   2.0000      -0.594317       -16.1722
  26   2.0000      -0.553375       -15.0581
  27   2.0000      -0.544440       -14.8150
  28   2.0000      -0.540238       -14.7006
  29   2.0000      -0.515374       -14.0240
  30   2.0000      -0.498088       -13.5537
  31   2.0000      -0.473257       -12.8780
  32   2.0000      -0.442095       -12.0300
  33   2.0000      -0.418468       -11.3871
  34   0.0000       0.114177         3.1069
  35   0.0000       0.137582         3.7438
  36   0.0000       0.157199         4.2776
  37   0.0000       0.167781         4.5656
  38   0.0000       0.173467         4.7203

MULLIKEN ATOMIC CHARGES
-----------------------
   0 C :   -0.435575
   1 C :    0.053644
   2 O :   -0.468773
   3 C :    0.109415
   4 N :   -0.265127
   5 C :    0.115362
   6 O :   -0.202691
   7 C :    0.164565
   8 O :   -0.264110
   9 H :    0.153668
  10 H :    0.131786
  11 H :    0.159046
  12 H :    0.120416
  13 H :    0.326930
  14 H :    0.140760
  15 H :    0.160683
Sum of atomic charges:   -0.0000000

LOEWDIN ATOMIC CHARGES
----------------------
   0 C :   -0.298208
   1 C :   -0.342841
   2 O :   -0.003166
   3 C :   -0.238881
   4 N :    0.108390
   5 C :   -0.294244
   6 O :    0.283495
   7 C :   -0.408177
   8 O :    0.160418
   9 H :    0.130318
  10 H :    0.129707
  11 H :    0.131350
  12 H :    0.153389
  13 H :    0.179988
  14 H :    0.170930
  15 H :    0.137531

  Mayer bond orders larger than 0.1
B(  0-C ,  1-C ) :   0.9424 B(  0-C ,  9-H ) :   0.9371 B(  0-C , 10-H ) :   0.9292
B(  0-C , 11-H ) :   0.9136 B(  1-C ,  2-O ) :   0.9711 B(  1-C ,  3-C ) :   0.8414
B(  1-C , 12-H ) :   0.9305 B(  2-O ,  3-C ) :  -0.1101 B(  2-O ,  7-C ) :   0.1082
B(  2-O , 13-H ) :   0.8344 B(  3-C ,  4-N ) :   0.9248 B(  3-C ,  7-C ) :   0.8714
B(  3-C , 14-H ) :   0.8788 B(  4-N ,  5-C ) :   1.8317 B(  5-C ,  6-O ) :   0.9808
B(  5-C , 15-H ) :   0.9198 B(  6-O ,  7-C ) :   1.0230 B(  7-C ,  8-O ) :   2.0182

MP2 TOTAL ENERGY:     -474.319574213 Eh
FINAL SINGLE POINT ENERGY      -474.319574213332

DIPOLE MOMENT
-------------
                                X             Y             Z
Electronic contribution:     -4.14821      -6.86301      -2.00934
Nuclear contribution   :      3.93798       7.32873       1.98388
                        -----------------------------------------
Total Dipole Moment    :     -0.21024       0.46572      -0.02547
                        -----------------------------------------
Magnitude (a.u.)       :      0.51160
Magnitude (Debye)      :      1.30040

                             ****ORCA TERMINATED NORMALLY****
TOTAL RUN TIME: 0 days 0 hours 17 minutes 3 seconds 87 msec
