                         Program Version 3.0.3 - RELEASE   -
|  1> ! RI-MP2 RIJK def2-TZVP def2-TZVP/C def2-TZVP/JK TIGHTSCF
|  2> % maxcore 2000
|  3> % mp2 density relaxed end
|  4> *xyz 0 1
|  5>  C        0.1596885263     0.5551809970     0.9436978875
|  6>  C        0.0067611240     0.0755564249    -0.4839113931
|  7>  O        0.7706119770     0.3709686480    -1.3681550380
|  8>  C       -1.2204709869    -0.8220061835    -0.7659097989
|  9>  C       -1.0549418216    -2.1809882987    -0.1770226502
| 10>  N       -1.3601990700    -2.5874792118     1.0169899336
| 11>  C       -0.9497692625    -3.9145371186     1.0503429890
| 12>  C       -0.4102132518    -4.2399161978    -0.1461989967
| 13>  O       -0.4675854935    -3.1330428592    -0.9462545285
| 14>  H        1.1495672102     0.9889875545     1.0886612637
| 15>  H       -0.5994153388     1.3219959429     1.1430865773
| 16>  H       -0.0201420035    -0.2587326549     1.6518759394
| 17>  H       -2.1104679927    -0.3681581919    -0.3204543346
| 18>  H       -1.3394348952    -0.8925938702    -1.8480823025
| 19>  H       -1.0796165270    -4.5287544298     1.9268840933
| 20>  H        0.0201080460    -5.1258862010    -0.5794452513
| 21> *
| 22>
| 23>                          ****END OF INPUT****

CARTESIAN COORDINATES (ANGSTROEM)
---------------------------------
  C      0.159689    0.555181    0.943698
  C      0.006761    0.075556   -0.483911
  O      0.770612    0.370969   -1.368155
  C     -1.220471   -0.822006   -0.765910
  C     -1.054942   -2.180988   -0.177023
  N     -1.360199   -2.587479    1.016990
  C     -0.949769   -3.914537    1.050343
  C     -0.410213   -4.239916   -0.146199
  O     -0.467585   -3.133043   -0.946255
  H      1.149567    0.988988    1.088661
  H     -0.599415    1.321996    1.143087
  H     -0.020142   -0.258733    1.651876
  H     -2.110468   -0.368158   -0.320454
  H     -1.339435   -0.892594   -1.848082
  H     -1.079617   -4.528754    1.926884
  H      0.020108   -5.125886   -0.579445

 Total Charge           Charge          ....    0
 Multiplicity           Mult            ....    1
 Number of Electrons    NEL             ....   66
 Basis Dimension        Dim             ....  321

ORBITAL ENERGIES
----------------

  NO   OCC          E(Eh)            E(eV)
   0   2.0000     -20.645125      -561.7824
   1   2.0000     -20.555644      -559.3475
   2   2.0000     -15.572116      -423.7388
   3   2.0000     -11.350580      -308.8650
   4   2.0000     -11.344277      -308.6935
   5   2.0000     -11.299474      -307.4743
   6   2.0000     -11.268427      -306.6295
   7   2.0000     -11.264046      -306.5103
   8   2.0000     -11.236598      -305.7634
   9   2.0000      -1.494925       -40.6790
  10   2.0000      -1.400654       -38.1137
  11   2.0000      -1.241751       -33.7898
  12   2.0000      -1.094119       -29.7725
  13   2.0000      -1.021120       -27.7861
  14   2.0000      -0.973032       -26.4775
  15   2.0000      -0.849681       -23.1210
  16   2.0000      -0.808602       -22.0032
  17   2.0000      -0.763551       -20.7773
  18   2.0000      -0.725227       -19.7344
  19   2.0000      -0.680247       -18.5105
  20   2.0000      -0.659926       -17.9575
  21   2.0000      -0.641258       -17.4495
  22   2.0000      -0.625324       -17.0159
  23   2.0000      -0.616982       -16.7889
  24   2.0000      -0.585150       -15.9227
  25   2.0000      -0.573540       -15.6068
  26   2.0000      -0.567705       -15.4480
  27   2.0000      -0.545958       -14.8563
  28   2.0000      -0.503534       -13.7019
  29   2.0000      -0.470370       -12.7994
  30   2.0000      -0.464321       -12.6348
  31   2.0000      -0.426502       -11.6057
  32   2.0000      -0.345002        -9.3880
  33   0.0000       0.113577         3.0906
  34   0.0000       0.136858         3.7241
  35   0.0000       0.154240         4.1971
  36   0.0000       0.174442         4.7468
  37   0.0000       0.180413         4.9093

MULLIKEN ATOMIC CHARGES
-----------------------
   0 C :   -0.424323
   1 C :    0.193799
   2 O :   -0.270391
   3 C :   -0.162054
   4 C :    0.223126
   5 N :   -0.302110
   6 C :   -0.106043
   7 C :   -0.026573
   8 O :   -0.200314
   9 H :    0.150737
  10 H :    0.143685
  11 H :    0.170369
  12 H :    0.152922
  13 H :    0.147296
  14 H :    0.147000
  15 H :    0.162876
Sum of atomic charges:    0.0000000

LOEWDIN ATOMIC CHARGES
----------------------
   0 C :   -0.276986
   1 C :   -0.340567
   2 O :    0.159908
   3 C :   -0.194594
   4 C :   -0.346245
   5 N :    0.116137
   6 C :   -0.250338
   7 C :   -0.244044
   8 O :    0.358718
   9 H :    0.133882
  10 H :    0.142008
  11 H :    0.141283
  12 H :    0.165427
  13 H :    0.160837
  14 H :    0.138283
  15 H :    0.136292

  Mayer bond orders larger than 0.1
B(  0-C ,  1-C ) :   0.9289 B(  0-C ,  9-H ) :   0.9327 B(  0-C , 10-H ) :   0.9060
B(  0-C , 11-H ) :   0.9082 B(  1-C ,  2-O ) :   2.0222 B(  1-C ,  3-C ) :   0.8590
B(  3-C ,  4-C ) :   0.8892 B(  3-C , 12-H ) :   0.9241 B(  3-C , 13-H ) :   0.9085
B(  4-C ,  5-N ) :   1.6000 B(  4-C ,  8-O ) :   1.0830 B(  5-N ,  6-C ) :   1.1810
B(  6-C ,  7-C ) :   1.5938 B(  6-C , 14-H ) :   0.9311 B(  7-C ,  8-O ) :   1.0319
B(  7-C , 15-H ) :   0.9221

MP2 TOTAL ENERGY:     -437.207740424 Eh
FINAL SINGLE POINT ENERGY      -437.207740423841

DIPOLE MOMENT
-------------
                                X             Y             Z
Electronic contribution:      0.19649      -3.55153      -3.22090
Nuclear contribution   :     -0.57677       3.01658       3.61702
                        -----------------------------------------
Total Dipole Moment    :     -0.38029      -0.53495       0.39613
                        -----------------------------------------
Magnitude (a.u.)       :      0.76662
Magnitude (Debye)      :      1.94859

                             ****ORCA TERMINATED NORMALLY****
TOTAL RUN TIME: 0 days 0 hours 17 minutes 3 seconds 409 msec
