                         Program Version 3.0.3 - RELEASE   -
|  1> ! RI-MP2 RIJK def2-TZVP def2-TZVP/C def2-TZVP/JK TIGHTSCF
|  2> % maxcore 2000
|  3> % mp2 density relaxed end
|  4> *xyz 0 1
|  5>  N        0.0982972306     1.3894760506    -0.0571880427
|  6>  C        0.0541718280     0.0026465194    -0.0543628651
|  7>  C       -1.1498713699    -0.7086505912    -0.0412908333
|  8>  C       -1.1220650901    -2.0953168686     0.0130295023
|  9>  C        0.1083180213    -2.7436276463     0.0447215811
| 10>  N        1.2687136404    -2.0826318276     0.0321136922
| 11>  C        1.2520642312    -0.7501261810    -0.0044324065
| 12>  C        2.5900632345    -0.0490222674     0.0286424554
| 13>  O        2.7634426967     0.8933909575    -1.0402880910
| 14>  H        0.9199988666     1.7699760220    -0.5105975763
| 15>  H       -0.7580919193     1.8466466102    -0.3329182001
| 16>  H       -2.0940720113    -0.1719196767    -0.0728264260
| 17>  H       -2.0442178620    -2.6664275825     0.0228935242
| 18>  H        0.1685390651    -3.8277971332     0.0793951821
| 19>  H        2.6867264456     0.5502377333     0.9416228118
| 20>  H        3.3788138954    -0.8092381429     0.0273550798
| 21>  H        2.6981680374     0.4015268245    -1.8661889980
| 22> *
| 23>
| 24>                          ****END OF INPUT****

CARTESIAN COORDINATES (ANGSTROEM)
---------------------------------
  N      0.098297    1.389476   -0.057188
  C      0.054172    0.002647   -0.054363
  C     -1.149871   -0.708651   -0.041291
  C     -1.122065   -2.095317    0.013030
  C      0.108318   -2.743628    0.044722
  N      1.268714   -2.082632    0.032114
  C      1.252064   -0.750126   -0.004432
  C      2.590063   -0.049022    0.028642
  O      2.763443    0.893391   -1.040288
  H      0.919999    1.769976   -0.510598
  H     -0.758092    1.846647   -0.332918
  H     -2.094072   -0.171920   -0.072826
  H     -2.044218   -2.666428    0.022894
  H      0.168539   -3.827797    0.079395
  H      2.686726    0.550238    0.941623
  H      3.378814   -0.809238    0.027355
  H      2.698168    0.401527   -1.866189

 Total Charge           Charge          ....    0
 Multiplicity           Mult            ....    1
 Number of Electrons    NEL             ....   66
 Basis Dimension        Dim             ....  327

ORBITAL ENERGIES
----------------

  NO   OCC          E(Eh)            E(eV)
   0   2.0000     -20.568452      -559.6960
   1   2.0000     -15.565609      -423.5617
   2   2.0000     -15.562018      -423.4640
   3   2.0000     -11.283636      -307.0434
   4   2.0000     -11.282021      -306.9994
   5   2.0000     -11.266807      -306.5854
   6   2.0000     -11.256735      -306.3113
   7   2.0000     -11.245208      -305.9977
   8   2.0000     -11.240518      -305.8701
   9   2.0000      -1.369777       -37.2735
  10   2.0000      -1.262934       -34.3662
  11   2.0000      -1.213087       -33.0098
  12   2.0000      -1.073780       -29.2190
  13   2.0000      -1.025359       -27.9014
  14   2.0000      -0.934277       -25.4230
  15   2.0000      -0.852244       -23.1907
  16   2.0000      -0.827570       -22.5193
  17   2.0000      -0.728044       -19.8111
  18   2.0000      -0.706438       -19.2232
  19   2.0000      -0.680050       -18.5051
  20   2.0000      -0.658163       -17.9095
  21   2.0000      -0.628708       -17.1080
  22   2.0000      -0.615562       -16.7503
  23   2.0000      -0.603828       -16.4310
  24   2.0000      -0.570830       -15.5331
  25   2.0000      -0.557857       -15.1801
  26   2.0000      -0.545144       -14.8341
  27   2.0000      -0.506331       -13.7780
  28   2.0000      -0.475545       -12.9402
  29   2.0000      -0.464522       -12.6403
  30   2.0000      -0.414281       -11.2731
  31   2.0000      -0.372657       -10.1405
  32   2.0000      -0.301714        -8.2100
  33   0.0000       0.104583         2.8459
  34   0.0000       0.125013         3.4018
  35   0.0000       0.141245         3.8435
  36   0.0000       0.154774         4.2116
  37   0.0000       0.168238         4.5780

MULLIKEN ATOMIC CHARGES
-----------------------
   0 N :   -0.507928
   1 C :    0.194259
   2 C :   -0.219541
   3 C :   -0.099626
   4 C :   -0.061679
   5 N :   -0.253137
   6 C :    0.005644
   7 C :   -0.039289
   8 O :   -0.500180
   9 H :    0.279010
  10 H :    0.237935
  11 H :    0.119008
  12 H :    0.128896
  13 H :    0.124443
  14 H :    0.130799
  15 H :    0.137493
  16 H :    0.323890
Sum of atomic charges:   -0.0000000

LOEWDIN ATOMIC CHARGES
----------------------
   0 N :   -0.052578
   1 C :   -0.217970
   2 C :   -0.121731
   3 C :   -0.156279
   4 C :   -0.231534
   5 N :    0.149922
   6 C :   -0.228874
   7 C :   -0.295283
   8 O :   -0.062340
   9 H :    0.172874
  10 H :    0.165887
  11 H :    0.146855
  12 H :    0.148299
  13 H :    0.136459
  14 H :    0.138372
  15 H :    0.130811
  16 H :    0.177111

  Mayer bond orders larger than 0.1
B(  0-N ,  1-C ) :   1.0773 B(  0-N ,  9-H ) :   0.8454 B(  0-N , 10-H ) :   0.8782
B(  1-C ,  2-C ) :   1.3032 B(  1-C ,  6-C ) :   1.2476 B(  2-C ,  3-C ) :   1.3798
B(  2-C , 11-H ) :   0.9280 B(  3-C ,  4-C ) :   1.3058 B(  3-C , 12-H ) :   0.9208
B(  4-C ,  5-N ) :   1.3879 B(  4-C , 13-H ) :   0.9471 B(  5-N ,  6-C ) :   1.4489
B(  6-C ,  7-C ) :   0.9316 B(  7-C ,  8-O ) :   0.8390 B(  7-C , 14-H ) :   0.9349
B(  7-C , 15-H ) :   0.9320 B(  8-O , 16-H ) :   0.8417

MP2 TOTAL ENERGY:     -417.356063426 Eh
FINAL SINGLE POINT ENERGY      -417.356063426097

DIPOLE MOMENT
-------------
                                X             Y             Z
Electronic contribution:     -0.11022      -1.48800      -0.03657
Nuclear contribution   :     -0.71149       1.80443      -0.47537
                        -----------------------------------------
Total Dipole Moment    :     -0.82171       0.31643      -0.51194
                        -----------------------------------------
Magnitude (a.u.)       :      1.01854
Magnitude (Debye)      :      2.58891

                             ****ORCA TERMINATED NORMALLY****
TOTAL RUN TIME: 0 days 0 hours 16 minutes 31 seconds 458 msec
