                         Program Version 3.0.3 - RELEASE   -
|  1> ! RI-MP2 RIJK def2-TZVP def2-TZVP/C def2-TZVP/JK TIGHTSCF
|  2> % maxcore 2000
|  3> % mp2 density relaxed end
|  4> *xyz 0 1
|  5>  C       -0.2108800072     1.5169343327     0.0086239161
|  6>  C        0.0197224819    -0.0055140082     0.0023596407
|  7>  C        0.8491795031    -0.4846498042     1.1529977493
|  8>  C        2.2081251264    -0.7156999704     1.2706039500
|  9>  C        2.3813773178    -1.1078682327     2.6155588166
| 10>  O        3.5566557725    -1.4400630581     3.1906717834
| 11>  N        1.2451572644    -1.1281348919     3.2953852519
| 12>  N        0.3211355738    -0.7385669174     2.3759478620
| 13>  H        0.7410506047     2.0535774226    -0.0366668798
| 14>  H       -0.8180156021     1.8205257288    -0.8496795506
| 15>  H       -0.7277040131     1.8342335113     0.9195875407
| 16>  H       -0.9481206409    -0.5227916459     0.0079851064
| 17>  H        0.5169533908    -0.2969024320    -0.9279637784
| 18>  H        2.9606452416    -0.6210339672     0.5059039573
| 19>  H        3.3644284904    -1.6670770632     4.1091441615
| 20>  H       -0.6442821242    -0.6888995043     2.6507108127
| 21> *
| 22>
| 23>                          ****END OF INPUT****

CARTESIAN COORDINATES (ANGSTROEM)
---------------------------------
  C     -0.210880    1.516934    0.008624
  C      0.019722   -0.005514    0.002360
  C      0.849180   -0.484650    1.152998
  C      2.208125   -0.715700    1.270604
  C      2.381377   -1.107868    2.615559
  O      3.556656   -1.440063    3.190672
  N      1.245157   -1.128135    3.295385
  N      0.321136   -0.738567    2.375948
  H      0.741051    2.053577   -0.036667
  H     -0.818016    1.820526   -0.849680
  H     -0.727704    1.834234    0.919588
  H     -0.948121   -0.522792    0.007985
  H      0.516953   -0.296902   -0.927964
  H      2.960645   -0.621034    0.505904
  H      3.364428   -1.667077    4.109144
  H     -0.644282   -0.688900    2.650711

 Total Charge           Charge          ....    0
 Multiplicity           Mult            ....    1
 Number of Electrons    NEL             ....   60
 Basis Dimension        Dim             ....  296

ORBITAL ENERGIES
----------------

  NO   OCC          E(Eh)            E(eV)
   0   2.0000     -20.584031      -560.1200
   1   2.0000     -15.624204      -425.1562
   2   2.0000     -15.566298      -423.5805
   3   2.0000     -11.311368      -307.7980
   4   2.0000     -11.284020      -307.0538
   5   2.0000     -11.250898      -306.1525
   6   2.0000     -11.231827      -305.6335
   7   2.0000     -11.209747      -305.0327
   8   2.0000      -1.414800       -38.4987
   9   2.0000      -1.352122       -36.7931
  10   2.0000      -1.109347       -30.1869
  11   2.0000      -1.059800       -28.8386
  12   2.0000      -1.016352       -27.6563
  13   2.0000      -0.883704       -24.0468
  14   2.0000      -0.822720       -22.3874
  15   2.0000      -0.791296       -21.5323
  16   2.0000      -0.712331       -19.3835
  17   2.0000      -0.682462       -18.5707
  18   2.0000      -0.631540       -17.1851
  19   2.0000      -0.625873       -17.0309
  20   2.0000      -0.604152       -16.4398
  21   2.0000      -0.583159       -15.8686
  22   2.0000      -0.570704       -15.5296
  23   2.0000      -0.554062       -15.0768
  24   2.0000      -0.525845       -14.3090
  25   2.0000      -0.516930       -14.0664
  26   2.0000      -0.506115       -13.7721
  27   2.0000      -0.455972       -12.4076
  28   2.0000      -0.340644        -9.2694
  29   2.0000      -0.335598        -9.1321
  30   0.0000       0.120460         3.2779
  31   0.0000       0.153294         4.1713
  32   0.0000       0.162414         4.4195
  33   0.0000       0.167955         4.5703
  34   0.0000       0.171885         4.6772

MULLIKEN ATOMIC CHARGES
-----------------------
   0 C :   -0.371135
   1 C :   -0.274941
   2 C :    0.140488
   3 C :   -0.259351
   4 C :    0.203696
   5 O :   -0.433969
   6 N :   -0.245202
   7 N :   -0.144984
   8 H :    0.137446
   9 H :    0.131320
  10 H :    0.120711
  11 H :    0.124800
  12 H :    0.136940
  13 H :    0.145440
  14 H :    0.336090
  15 H :    0.252653
Sum of atomic charges:   -0.0000000

LOEWDIN ATOMIC CHARGES
----------------------
   0 C :   -0.307164
   1 C :   -0.258561
   2 C :   -0.244876
   3 C :   -0.163786
   4 C :   -0.428919
   5 O :    0.066805
   6 N :    0.006256
   7 N :    0.140329
   8 H :    0.125201
   9 H :    0.121019
  10 H :    0.119940
  11 H :    0.143831
  12 H :    0.150599
  13 H :    0.145107
  14 H :    0.197077
  15 H :    0.187141

  Mayer bond orders larger than 0.1
B(  0-C ,  1-C ) :   0.9133 B(  0-C ,  8-H ) :   0.9370 B(  0-C ,  9-H ) :   0.9347
B(  0-C , 10-H ) :   0.9366 B(  1-C ,  2-C ) :   0.8769 B(  1-C , 11-H ) :   0.9470
B(  1-C , 12-H ) :   0.9474 B(  2-C ,  3-C ) :   1.4179 B(  2-C ,  6-N ) :   0.1118
B(  2-C ,  7-N ) :   1.1934 B(  3-C ,  4-C ) :   1.3056 B(  3-C , 13-H ) :   0.9202
B(  4-C ,  5-O ) :   1.1020 B(  4-C ,  6-N ) :   1.5620 B(  5-O , 14-H ) :   0.8213
B(  6-N ,  7-N ) :   1.0291 B(  7-N , 15-H ) :   0.8705

MP2 TOTAL ENERGY:     -379.317872128 Eh
FINAL SINGLE POINT ENERGY      -379.317872127789

DIPOLE MOMENT
-------------
                                X             Y             Z
Electronic contribution:      4.67864      -5.28680       6.75872
Nuclear contribution   :     -5.59808       5.57878      -7.20671
                        -----------------------------------------
Total Dipole Moment    :     -0.91944       0.29199      -0.44799
                        -----------------------------------------
Magnitude (a.u.)       :      1.06364
Magnitude (Debye)      :      2.70356

                             ****ORCA TERMINATED NORMALLY****
TOTAL RUN TIME: 0 days 0 hours 10 minutes 56 seconds 996 msec
