                         Program Version 3.0.3 - RELEASE   -
|  1> ! RI-MP2 RIJK def2-TZVP def2-TZVP/C def2-TZVP/JK TIGHTSCF
|  2> % maxcore 2000
|  3> % mp2 density relaxed end
|  4> *xyz 0 1
|  5>  C        0.0297670298     1.5318091141    -0.0063050303
|  6>  C        0.0105660658     0.0280962101    -0.0112741324
|  7>  C       -0.0795094274    -0.7146261118    -1.1857772905
|  8>  N       -0.1007220652    -2.0485216351    -1.2518216020
|  9>  C       -0.0293159045    -2.7031481309    -0.0935302017
| 10>  C        0.0643996090    -2.0987212675     1.1595198706
| 11>  C        0.1415764108    -2.9060579660     2.4294452935
| 12>  C        0.0835316500    -0.6989245230     1.1824172761
| 13>  O        0.1718949741     0.0108278370     2.3389994462
| 14>  H        0.9462284941     1.9181623870     0.4528161405
| 15>  H       -0.0352197258     1.9224850324    -1.0249852783
| 16>  H       -0.8054996149     1.9401272806     0.5729808771
| 17>  H       -0.1381918315    -0.1870479435    -2.1364917372
| 18>  H       -0.0469954999    -3.7905905453    -0.1525811915
| 19>  H        1.0698850652    -2.7173336248     2.9855030316
| 20>  H       -0.6969493899    -2.6952245216     3.1069413423
| 21>  H        0.1129323426    -3.9755304329     2.2074967727
| 22>  H        0.2154428476    -0.5958282984     3.0853655332
| 23> *
| 24>
| 25>                          ****END OF INPUT****

CARTESIAN COORDINATES (ANGSTROEM)
---------------------------------
  C      0.029767    1.531809   -0.006305
  C      0.010566    0.028096   -0.011274
  C     -0.079509   -0.714626   -1.185777
  N     -0.100722   -2.048522   -1.251822
  C     -0.029316   -2.703148   -0.093530
  C      0.064400   -2.098721    1.159520
  C      0.141576   -2.906058    2.429445
  C      0.083532   -0.698925    1.182417
  O      0.171895    0.010828    2.338999
  H      0.946228    1.918162    0.452816
  H     -0.035220    1.922485   -1.024985
  H     -0.805500    1.940127    0.572981
  H     -0.138192   -0.187048   -2.136492
  H     -0.046995   -3.790591   -0.152581
  H      1.069885   -2.717334    2.985503
  H     -0.696949   -2.695225    3.106941
  H      0.112932   -3.975530    2.207497
  H      0.215443   -0.595828    3.085366

 Total Charge           Charge          ....    0
 Multiplicity           Mult            ....    1
 Number of Electrons    NEL             ....   66
 Basis Dimension        Dim             ....  333

ORBITAL ENERGIES
----------------

  NO   OCC          E(Eh)            E(eV)
   0   2.0000     -20.603472      -560.6490
   1   2.0000     -15.550228      -423.1432
   2   2.0000     -11.314294      -307.8776
   3   2.0000     -11.267411      -306.6018
   4   2.0000     -11.264203      -306.5146
   5   2.0000     -11.245612      -306.0087
   6   2.0000     -11.242241      -305.9169
   7   2.0000     -11.236137      -305.7508
   8   2.0000     -11.224196      -305.4259
   9   2.0000      -1.423065       -38.7236
  10   2.0000      -1.249447       -33.9992
  11   2.0000      -1.092016       -29.7153
  12   2.0000      -1.072852       -29.1938
  13   2.0000      -0.958613       -26.0852
  14   2.0000      -0.942432       -25.6449
  15   2.0000      -0.850034       -23.1306
  16   2.0000      -0.819322       -22.2949
  17   2.0000      -0.751371       -20.4458
  18   2.0000      -0.701102       -19.0779
  19   2.0000      -0.631524       -17.1846
  20   2.0000      -0.624554       -16.9950
  21   2.0000      -0.604737       -16.4557
  22   2.0000      -0.591529       -16.0963
  23   2.0000      -0.581212       -15.8156
  24   2.0000      -0.566315       -15.4102
  25   2.0000      -0.562100       -15.2955
  26   2.0000      -0.557585       -15.1727
  27   2.0000      -0.541026       -14.7221
  28   2.0000      -0.511523       -13.9192
  29   2.0000      -0.497891       -13.5483
  30   2.0000      -0.411572       -11.1994
  31   2.0000      -0.344901        -9.3852
  32   2.0000      -0.333062        -9.0631
  33   0.0000       0.117658         3.2016
  34   0.0000       0.124418         3.3856
  35   0.0000       0.129337         3.5194
  36   0.0000       0.154773         4.2116
  37   0.0000       0.172001         4.6804

MULLIKEN ATOMIC CHARGES
-----------------------
   0 C :   -0.398501
   1 C :    0.042218
   2 C :   -0.064642
   3 N :   -0.247903
   4 C :   -0.076388
   5 C :    0.105812
   6 C :   -0.521107
   7 C :    0.102463
   8 O :   -0.412508
   9 H :    0.145625
  10 H :    0.137163
  11 H :    0.145619
  12 H :    0.119058
  13 H :    0.116391
  14 H :    0.158377
  15 H :    0.158364
  16 H :    0.153497
  17 H :    0.336462
Sum of atomic charges:   -0.0000000

LOEWDIN ATOMIC CHARGES
----------------------
   0 C :   -0.259254
   1 C :   -0.155307
   2 C :   -0.200268
   3 N :    0.119988
   4 C :   -0.206603
   5 C :   -0.172064
   6 C :   -0.277382
   7 C :   -0.217260
   8 O :    0.096080
   9 H :    0.134926
  10 H :    0.130768
  11 H :    0.134926
  12 H :    0.140140
  13 H :    0.139447
  14 H :    0.130688
  15 H :    0.130685
  16 H :    0.138418
  17 H :    0.192070

  Mayer bond orders larger than 0.1
B(  0-C ,  1-C ) :   0.8990 B(  0-C ,  9-H ) :   0.9254 B(  0-C , 10-H ) :   0.9449
B(  0-C , 11-H ) :   0.9254 B(  1-C ,  2-C ) :   1.3217 B(  1-C ,  7-C ) :   1.3180
B(  2-C ,  3-N ) :   1.4001 B(  2-C , 12-H ) :   0.9531 B(  3-N ,  4-C ) :   1.4245
B(  4-C ,  5-C ) :   1.2947 B(  4-C , 13-H ) :   0.9540 B(  5-C ,  6-C ) :   0.8327
B(  5-C ,  7-C ) :   1.2871 B(  6-C , 14-H ) :   0.9364 B(  6-C , 15-H ) :   0.9364
B(  6-C , 16-H ) :   0.9348 B(  7-C ,  8-O ) :   1.1651 B(  8-O , 17-H ) :   0.8271

MP2 TOTAL ENERGY:     -401.323103541 Eh
FINAL SINGLE POINT ENERGY      -401.323103541105

DIPOLE MOMENT
-------------
                                X             Y             Z
Electronic contribution:     -0.18230      -1.03999      -2.46240
Nuclear contribution   :      0.26764       1.08245       3.69730
                        -----------------------------------------
Total Dipole Moment    :      0.08534       0.04246       1.23490
                        -----------------------------------------
Magnitude (a.u.)       :      1.23857
Magnitude (Debye)      :      3.14820

                             ****ORCA TERMINATED NORMALLY****
TOTAL RUN TIME: 0 days 0 hours 17 minutes 38 seconds 254 msec
