                         Program Version 3.0.3 - RELEASE   -
|  1> ! RI-MP2 RIJK def2-TZVP def2-TZVP/C def2-TZVP/JK TIGHTSCF
|  2> % maxcore 2000
|  3> % mp2 density relaxed end
|  4> *xyz 0 1
|  5>  C        0.1992219251     1.0452259306     0.3644604000
|  6>  O       -0.2120089024     0.1858570167    -0.6900069125
|  7>  C        0.6596439262    -0.8032100347    -0.9945189891
|  8>  N        0.3563917410    -1.6014441928    -1.9200763946
|  9>  C        1.1862264549    -2.6948351435    -2.3471732770
| 10>  C        2.5375846228    -3.0213899486    -1.7278160980
| 11>  N        3.0875804240    -2.3829717716    -0.7803111380
| 12>  O        3.0244263515    -4.1128231546    -2.3829231245
| 13>  C        4.2887338061    -4.6206447781    -1.9865552432
| 14>  H        0.3317148814     0.4964569790     1.3051124478
| 15>  H        1.1330634750     1.5666692068     0.1203991574
| 16>  H       -0.5964473234     1.7809271313     0.4908641188
| 17>  H        1.5731613142    -0.8253258814    -0.3976386613
| 18>  H        0.5942837822    -3.6187419625    -2.2797860602
| 19>  H        1.3696054083    -2.5828550391    -3.4253253764
| 20>  H        3.9927024885    -2.7663551052    -0.5140727522
| 21>  H        4.2807269683    -4.9471555428    -0.9392892104
| 22>  H        4.4843475331    -5.4797656347    -2.6290543791
| 23>  H        5.0828037330    -3.8767686247    -2.1263391877
| 24> *
| 25>
| 26>                          ****END OF INPUT****

CARTESIAN COORDINATES (ANGSTROEM)
---------------------------------
  C      0.199222    1.045226    0.364460
  O     -0.212009    0.185857   -0.690007
  C      0.659644   -0.803210   -0.994519
  N      0.356392   -1.601444   -1.920076
  C      1.186226   -2.694835   -2.347173
  C      2.537585   -3.021390   -1.727816
  N      3.087580   -2.382972   -0.780311
  O      3.024426   -4.112823   -2.382923
  C      4.288734   -4.620645   -1.986555
  H      0.331715    0.496457    1.305112
  H      1.133063    1.566669    0.120399
  H     -0.596447    1.780927    0.490864
  H      1.573161   -0.825326   -0.397639
  H      0.594284   -3.618742   -2.279786
  H      1.369605   -2.582855   -3.425325
  H      3.992702   -2.766355   -0.514073
  H      4.280727   -4.947156   -0.939289
  H      4.484348   -5.479766   -2.629054
  H      5.082804   -3.876769   -2.126339

 Total Charge           Charge          ....    0
 Multiplicity           Mult            ....    1
 Number of Electrons    NEL             ....   70
 Basis Dimension        Dim             ....  339

ORBITAL ENERGIES
----------------

  NO   OCC          E(Eh)            E(eV)
   0   2.0000     -20.603396      -560.6469
   1   2.0000     -20.576772      -559.9224
   2   2.0000     -15.542451      -422.9316
   3   2.0000     -15.533051      -422.6758
   4   2.0000     -11.347081      -308.7698
   5   2.0000     -11.314711      -307.8889
   6   2.0000     -11.299530      -307.4758
   7   2.0000     -11.281439      -306.9836
   8   2.0000     -11.264340      -306.5183
   9   2.0000      -1.435673       -39.0666
  10   2.0000      -1.410502       -38.3817
  11   2.0000      -1.221125       -33.2285
  12   2.0000      -1.189303       -32.3626
  13   2.0000      -1.019817       -27.7506
  14   2.0000      -0.966313       -26.2947
  15   2.0000      -0.920617       -25.0513
  16   2.0000      -0.814433       -22.1618
  17   2.0000      -0.769688       -20.9443
  18   2.0000      -0.732133       -19.9224
  19   2.0000      -0.692505       -18.8440
  20   2.0000      -0.679744       -18.4968
  21   2.0000      -0.678127       -18.4528
  22   2.0000      -0.650166       -17.6919
  23   2.0000      -0.619649       -16.8615
  24   2.0000      -0.603272       -16.4159
  25   2.0000      -0.576397       -15.6846
  26   2.0000      -0.563169       -15.3246
  27   2.0000      -0.535267       -14.5654
  28   2.0000      -0.521764       -14.1979
  29   2.0000      -0.508668       -13.8416
  30   2.0000      -0.499508       -13.5923
  31   2.0000      -0.458450       -12.4751
  32   2.0000      -0.417208       -11.3528
  33   2.0000      -0.392004       -10.6670
  34   2.0000      -0.372509       -10.1365
  35   0.0000       0.130471         3.5503
  36   0.0000       0.152129         4.1396
  37   0.0000       0.163688         4.4542
  38   0.0000       0.166266         4.5243
  39   0.0000       0.178443         4.8557

MULLIKEN ATOMIC CHARGES
-----------------------
   0 C :   -0.239611
   1 O :   -0.234005
   2 C :    0.076849
   3 N :   -0.222873
   4 C :   -0.099783
   5 C :    0.237193
   6 N :   -0.442535
   7 O :   -0.254756
   8 C :   -0.286038
   9 H :    0.130693
  10 H :    0.130693
  11 H :    0.145979
  12 H :    0.122455
  13 H :    0.142934
  14 H :    0.142887
  15 H :    0.211205
  16 H :    0.141169
  17 H :    0.156363
  18 H :    0.141180
Sum of atomic charges:   -0.0000000

LOEWDIN ATOMIC CHARGES
----------------------
   0 C :   -0.339920
   1 O :    0.208830
   2 C :   -0.355221
   3 N :    0.087419
   4 C :   -0.275013
   5 C :   -0.400516
   6 N :   -0.070389
   7 O :    0.220785
   8 C :   -0.336575
   9 H :    0.106899
  10 H :    0.106900
  11 H :    0.116574
  12 H :    0.123853
  13 H :    0.154381
  14 H :    0.154392
  15 H :    0.158248
  16 H :    0.109396
  17 H :    0.120558
  18 H :    0.109400

  Mayer bond orders larger than 0.1
B(  0-C ,  1-O ) :   0.8787 B(  0-C ,  9-H ) :   0.9375 B(  0-C , 10-H ) :   0.9376
B(  0-C , 11-H ) :   0.9390 B(  1-O ,  2-C ) :   1.0627 B(  2-C ,  3-N ) :   1.8504
B(  2-C , 12-H ) :   0.9203 B(  3-N ,  4-C ) :   0.9826 B(  4-C ,  5-C ) :   0.8954
B(  4-C , 13-H ) :   0.9157 B(  4-C , 14-H ) :   0.9156 B(  5-C ,  6-N ) :   1.8520
B(  5-C ,  7-O ) :   1.0863 B(  6-N , 15-H ) :   0.8710 B(  7-O ,  8-C ) :   0.8684
B(  8-C , 16-H ) :   0.9320 B(  8-C , 17-H ) :   0.9368 B(  8-C , 18-H ) :   0.9320

MP2 TOTAL ENERGY:     -455.582054796 Eh
FINAL SINGLE POINT ENERGY      -455.582054795780

DIPOLE MOMENT
-------------
                                X             Y             Z
Electronic contribution:     -3.37879      -0.24916      -2.50987
Nuclear contribution   :      4.84339      -0.23557       3.06239
                        -----------------------------------------
Total Dipole Moment    :      1.46460      -0.48473       0.55252
                        -----------------------------------------
Magnitude (a.u.)       :      1.63868
Magnitude (Debye)      :      4.16520

                             ****ORCA TERMINATED NORMALLY****
TOTAL RUN TIME: 0 days 0 hours 13 minutes 57 seconds 500 msec
