                         Program Version 3.0.3 - RELEASE   -
|  1> ! RI-MP2 RIJK def2-TZVP def2-TZVP/C def2-TZVP/JK TIGHTSCF
|  2> % maxcore 2000
|  3> % mp2 density relaxed end
|  4> *xyz 0 1
|  5>  N        0.5605273070    -1.0616319089    -0.0912099563
|  6>  C        0.3061418105     0.0661660618    -0.0814946215
|  7>  C       -0.0174854644     1.4876768094    -0.0583396766
|  8>  C       -0.2466904396     2.2364553027     1.3144811370
|  9>  C        0.9795392757     2.9247787552     2.0423326915
| 10>  C        2.4569305583     2.5863635281     1.7629228055
| 11>  C        2.3220259821     2.1206031837     0.3181072376
| 12>  C        1.1297453178     2.5141879422    -0.1741842134
| 13>  C        0.4123277777     3.4782891637     0.7882250528
| 14>  H       -0.8901453115     1.6720526453    -0.6953135157
| 15>  H       -1.1895941238     2.1756925361     1.8510209426
| 16>  H        0.6911362460     3.3424520440     3.0054223128
| 17>  H        3.0919475065     3.4598179839     1.9660524425
| 18>  H        2.8566510313     1.7542120624     2.3537978184
| 19>  H        2.8077430956     1.2057173111    -0.0065765698
| 20>  H       -0.0034505592     4.4524222294     0.5689459527
| 21> *
| 22>
| 23>                          ****END OF INPUT****

CARTESIAN COORDINATES (ANGSTROEM)
---------------------------------
  N      0.560527   -1.061632   -0.091210
  C      0.306142    0.066166   -0.081495
  C     -0.017485    1.487677   -0.058340
  C     -0.246690    2.236455    1.314481
  C      0.979539    2.924779    2.042333
  C      2.456931    2.586364    1.762923
  C      2.322026    2.120603    0.318107
  C      1.129745    2.514188   -0.174184
  C      0.412328    3.478289    0.788225
  H     -0.890145    1.672053   -0.695314
  H     -1.189594    2.175693    1.851021
  H      0.691136    3.342452    3.005422
  H      3.091948    3.459818    1.966052
  H      2.856651    1.754212    2.353798
  H      2.807743    1.205717   -0.006577
  H     -0.003451    4.452422    0.568946

 Total Charge           Charge          ....    0
 Multiplicity           Mult            ....    1
 Number of Electrons    NEL             ....   62
 Basis Dimension        Dim             ....  321

ORBITAL ENERGIES
----------------

  NO   OCC          E(Eh)            E(eV)
   0   2.0000     -15.571182      -423.7134
   1   2.0000     -11.310551      -307.7757
   2   2.0000     -11.274532      -306.7956
   3   2.0000     -11.272242      -306.7333
   4   2.0000     -11.268357      -306.6276
   5   2.0000     -11.258543      -306.3605
   6   2.0000     -11.256206      -306.2969
   7   2.0000     -11.255181      -306.2690
   8   2.0000     -11.248971      -306.1001
   9   2.0000      -1.253390       -34.1065
  10   2.0000      -1.215316       -33.0704
  11   2.0000      -1.058969       -28.8160
  12   2.0000      -1.044243       -28.4153
  13   2.0000      -0.939003       -25.5516
  14   2.0000      -0.823915       -22.4199
  15   2.0000      -0.808415       -21.9981
  16   2.0000      -0.756341       -20.5811
  17   2.0000      -0.696472       -18.9520
  18   2.0000      -0.669975       -18.2309
  19   2.0000      -0.654191       -17.8014
  20   2.0000      -0.599886       -16.3237
  21   2.0000      -0.580236       -15.7890
  22   2.0000      -0.562275       -15.3003
  23   2.0000      -0.530385       -14.4325
  24   2.0000      -0.520910       -14.1747
  25   2.0000      -0.504959       -13.7406
  26   2.0000      -0.466133       -12.6841
  27   2.0000      -0.450393       -12.2558
  28   2.0000      -0.429496       -11.6872
  29   2.0000      -0.419582       -11.4174
  30   2.0000      -0.335119        -9.1190
  31   0.0000       0.075906         2.0655
  32   0.0000       0.133645         3.6367
  33   0.0000       0.149153         4.0587
  34   0.0000       0.157328         4.2811
  35   0.0000       0.164508         4.4765

MULLIKEN ATOMIC CHARGES
-----------------------
   0 N :   -0.049998
   1 C :   -0.212566
   2 C :    0.014309
   3 C :   -0.141816
   4 C :   -0.181876
   5 C :   -0.146993
   6 C :   -0.232343
   7 C :    0.113960
   8 C :   -0.146259
   9 H :    0.149638
  10 H :    0.142794
  11 H :    0.125897
  12 H :    0.130514
  13 H :    0.130161
  14 H :    0.149917
  15 H :    0.154662
Sum of atomic charges:   -0.0000000

LOEWDIN ATOMIC CHARGES
----------------------
   0 N :    0.067510
   1 C :   -0.164711
   2 C :   -0.157867
   3 C :   -0.102151
   4 C :   -0.152825
   5 C :   -0.212725
   6 C :   -0.096200
   7 C :   -0.095075
   8 C :   -0.133462
   9 H :    0.176125
  10 H :    0.143528
  11 H :    0.150496
  12 H :    0.143828
  13 H :    0.146948
  14 H :    0.145373
  15 H :    0.141207

  Mayer bond orders larger than 0.1
B(  0-N ,  1-C ) :   2.8558 B(  1-C ,  2-C ) :   0.9378 B(  2-C ,  3-C ) :   0.8893
B(  2-C ,  7-C ) :   0.9271 B(  2-C ,  9-H ) :   0.8894 B(  3-C ,  4-C ) :   0.8520
B(  3-C ,  8-C ) :   0.8471 B(  3-C , 10-H ) :   0.9113 B(  4-C ,  5-C ) :   0.9525
B(  4-C ,  8-C ) :   0.8984 B(  4-C , 11-H ) :   0.9195 B(  5-C ,  6-C ) :   0.9664
B(  5-C , 12-H ) :   0.8990 B(  5-C , 13-H ) :   0.9121 B(  6-C ,  7-C ) :   1.6625
B(  6-C , 14-H ) :   0.9186 B(  7-C ,  8-C ) :   0.8925 B(  8-C , 15-H ) :   0.9043

MP2 TOTAL ENERGY:     -362.854920181 Eh
FINAL SINGLE POINT ENERGY      -362.854920181302

DIPOLE MOMENT
-------------
                                X             Y             Z
Electronic contribution:     -1.41460      -3.58647      -3.47551
Nuclear contribution   :      1.10716       5.01742       4.06001
                        -----------------------------------------
Total Dipole Moment    :     -0.30744       1.43096       0.58450
                        -----------------------------------------
Magnitude (a.u.)       :      1.57601
Magnitude (Debye)      :      4.00589

                             ****ORCA TERMINATED NORMALLY****
TOTAL RUN TIME: 0 days 0 hours 17 minutes 37 seconds 593 msec
