                         Program Version 3.0.3 - RELEASE   -
|  1> ! RI-MP2 RIJK def2-TZVP def2-TZVP/C def2-TZVP/JK TIGHTSCF
|  2> % maxcore 2000
|  3> % mp2 density relaxed end
|  4> *xyz 0 1
|  5>  C       -0.3272876393     1.4058665663    -0.0499683072
|  6>  C        0.0206858121    -0.0796230362    -0.0116317477
|  7>  C        1.2079788391    -0.4924489672    -0.9386511051
|  8>  C        2.1288147665    -0.4679662801     0.2934248908
|  9>  C        0.8879797553    -0.5112688771     1.2125866505
| 10>  O        3.0373090227    -1.5740600757     0.3479513674
| 11>  C        3.9582580329    -1.5381775539     1.3361671686
| 12>  C        4.8579082645    -2.7493844334     1.2698074581
| 13>  O        4.0356829850    -0.6505770656     2.1479686448
| 14>  H        0.5608701299     2.0326587275     0.0897985656
| 15>  H       -0.7781326643     1.6802432021    -1.0099915193
| 16>  H       -1.0398574714     1.6631485089     0.7411661909
| 17>  H       -0.8874495838    -0.6711276931    -0.1538520628
| 18>  H        1.0991251762    -1.5127386439    -1.3151445872
| 19>  H        1.4597027045     0.1705376436    -1.7704235059
| 20>  H        2.6972048777     0.4566619295     0.4062737687
| 21>  H        0.8962435948     0.1384174977     2.0900954618
| 22>  H        0.6745130016    -1.5368430980     1.5257535616
| 23>  H        5.3798191716    -2.7758903765     0.3088946802
| 24>  H        5.5801947558    -2.7104933736     2.0841960638
| 25>  H        4.2625377384    -3.6640392613     1.3402360023
| 26> *
| 27>
| 28>                          ****END OF INPUT****

CARTESIAN COORDINATES (ANGSTROEM)
---------------------------------
  C     -0.327288    1.405867   -0.049968
  C      0.020686   -0.079623   -0.011632
  C      1.207979   -0.492449   -0.938651
  C      2.128815   -0.467966    0.293425
  C      0.887980   -0.511269    1.212587
  O      3.037309   -1.574060    0.347951
  C      3.958258   -1.538178    1.336167
  C      4.857908   -2.749384    1.269807
  O      4.035683   -0.650577    2.147969
  H      0.560870    2.032659    0.089799
  H     -0.778133    1.680243   -1.009992
  H     -1.039857    1.663149    0.741166
  H     -0.887450   -0.671128   -0.153852
  H      1.099125   -1.512739   -1.315145
  H      1.459703    0.170538   -1.770424
  H      2.697205    0.456662    0.406274
  H      0.896244    0.138417    2.090095
  H      0.674513   -1.536843    1.525754
  H      5.379819   -2.775890    0.308895
  H      5.580195   -2.710493    2.084196
  H      4.262538   -3.664039    1.340236

 Total Charge           Charge          ....    0
 Multiplicity           Mult            ....    1
 Number of Electrons    NEL             ....   70
 Basis Dimension        Dim             ....  351

ORBITAL ENERGIES
----------------

  NO   OCC          E(Eh)            E(eV)
   0   2.0000     -20.595395      -560.4292
   1   2.0000     -20.538787      -558.8888
   2   2.0000     -11.376446      -309.5688
   3   2.0000     -11.285725      -307.1002
   4   2.0000     -11.238852      -305.8247
   5   2.0000     -11.232785      -305.6596
   6   2.0000     -11.223595      -305.4095
   7   2.0000     -11.220774      -305.3328
   8   2.0000     -11.217131      -305.2337
   9   2.0000      -1.454986       -39.5922
  10   2.0000      -1.355915       -36.8963
  11   2.0000      -1.139051       -30.9952
  12   2.0000      -1.022226       -27.8162
  13   2.0000      -0.975084       -26.5334
  14   2.0000      -0.908765       -24.7288
  15   2.0000      -0.868237       -23.6259
  16   2.0000      -0.779607       -21.2142
  17   2.0000      -0.741079       -20.1658
  18   2.0000      -0.692315       -18.8388
  19   2.0000      -0.677367       -18.4321
  20   2.0000      -0.662786       -18.0353
  21   2.0000      -0.623886       -16.9768
  22   2.0000      -0.614418       -16.7192
  23   2.0000      -0.584088       -15.8938
  24   2.0000      -0.571723       -15.5574
  25   2.0000      -0.560763       -15.2591
  26   2.0000      -0.546186       -14.8625
  27   2.0000      -0.538779       -14.6609
  28   2.0000      -0.520144       -14.1538
  29   2.0000      -0.491507       -13.3746
  30   2.0000      -0.475762       -12.9462
  31   2.0000      -0.456239       -12.4149
  32   2.0000      -0.444762       -12.1026
  33   2.0000      -0.435669       -11.8552
  34   2.0000      -0.425670       -11.5831
  35   0.0000       0.134962         3.6725
  36   0.0000       0.144198         3.9238
  37   0.0000       0.158082         4.3016
  38   0.0000       0.172017         4.6808
  39   0.0000       0.181465         4.9379

MULLIKEN ATOMIC CHARGES
-----------------------
   0 C :   -0.444555
   1 C :   -0.015505
   2 C :   -0.174230
   3 C :   -0.014917
   4 C :   -0.225591
   5 O :   -0.257387
   6 C :    0.323520
   7 C :   -0.396841
   8 O :   -0.337960
   9 H :    0.130402
  10 H :    0.132036
  11 H :    0.132984
  12 H :    0.104819
  13 H :    0.121489
  14 H :    0.120621
  15 H :    0.106946
  16 H :    0.129909
  17 H :    0.113284
  18 H :    0.149299
  19 H :    0.153424
  20 H :    0.148253
Sum of atomic charges:    0.0000000

LOEWDIN ATOMIC CHARGES
----------------------
   0 C :   -0.298220
   1 C :   -0.248455
   2 C :   -0.200236
   3 C :   -0.267699
   4 C :   -0.201482
   5 O :    0.262015
   6 C :   -0.499136
   7 C :   -0.273541
   8 O :    0.118756
   9 H :    0.124974
  10 H :    0.123706
  11 H :    0.124505
  12 H :    0.138605
  13 H :    0.141299
  14 H :    0.128441
  15 H :    0.142368
  16 H :    0.132091
  17 H :    0.139732
  18 H :    0.138904
  19 H :    0.135168
  20 H :    0.138203

  Mayer bond orders larger than 0.1
B(  0-C ,  1-C ) :   0.9150 B(  0-C ,  9-H ) :   0.9316 B(  0-C , 10-H ) :   0.9418
B(  0-C , 11-H ) :   0.9412 B(  1-C ,  2-C ) :   0.8855 B(  1-C ,  4-C ) :   0.9035
B(  1-C , 12-H ) :   0.9236 B(  2-C ,  3-C ) :   0.9182 B(  2-C , 13-H ) :   0.9105
B(  2-C , 14-H ) :   0.9309 B(  3-C ,  4-C ) :   0.9634 B(  3-C ,  5-O ) :   0.8843
B(  3-C , 15-H ) :   0.9507 B(  4-C , 16-H ) :   0.9271 B(  4-C , 17-H ) :   0.9098
B(  5-O ,  6-C ) :   1.0842 B(  6-C ,  7-C ) :   0.9248 B(  6-C ,  8-O ) :   1.9296
B(  7-C , 18-H ) :   0.9162 B(  7-C , 19-H ) :   0.9447 B(  7-C , 20-H ) :   0.9176

MP2 TOTAL ENERGY:     -423.550507373 Eh
FINAL SINGLE POINT ENERGY      -423.550507373028

DIPOLE MOMENT
-------------
                                X             Y             Z
Electronic contribution:      6.08660      -2.44460       2.54703
Nuclear contribution   :     -6.42409       2.07469      -3.08747
                        -----------------------------------------
Total Dipole Moment    :     -0.33748      -0.36991      -0.54045
                        -----------------------------------------
Magnitude (a.u.)       :      0.73676
Magnitude (Debye)      :      1.87269

                             ****ORCA TERMINATED NORMALLY****
TOTAL RUN TIME: 0 days 0 hours 17 minutes 6 seconds 811 msec
