                         Program Version 3.0.3 - RELEASE   -
|  1> ! RI-MP2 RIJK def2-TZVP def2-TZVP/C def2-TZVP/JK TIGHTSCF
|  2> % maxcore 2000
|  3> % mp2 density relaxed end
|  4> *xyz 0 1
|  5>  O       -0.0130778363     0.1901142022    -0.8372676200
|  6>  C       -0.0172803383     1.2067999494    -0.2077325291
|  7>  C       -1.1306980658     2.1115083562     0.3441679525
|  8>  C       -0.0288460073     3.1298492082     0.7354413913
|  9>  C        1.0875556034     2.1407305981     0.3117852647
| 10>  C       -0.0532720110     4.6415609576     0.4263896141
| 11>  C       -1.0737741731     4.7088752626     1.5824548477
| 12>  N       -0.0162351251     3.7378541939     2.1477421474
| 13>  C        0.9984299462     4.7361462495     1.5521858600
| 14>  H       -1.8831899597     2.4266383141    -0.3844637684
| 15>  H       -1.6392105262     1.6679696390     1.2074525162
| 16>  H        1.6325331687     1.7110640399     1.1597001115
| 17>  H        1.8099168755     2.4752852640    -0.4383621854
| 18>  H       -0.0740905827     5.1410203529    -0.5488305807
| 19>  H       -1.1448162891     5.6419796511     2.1470384778
| 20>  H       -2.0573544053     4.2564015046     1.4407230336
| 21>  H        1.9890161089     4.3096525590     1.3816178933
| 22>  H        1.0613530475     5.6710135778     2.1148123734
| 23> *
| 24>
| 25>                          ****END OF INPUT****

CARTESIAN COORDINATES (ANGSTROEM)
---------------------------------
  O     -0.013078    0.190114   -0.837268
  C     -0.017280    1.206800   -0.207733
  C     -1.130698    2.111508    0.344168
  C     -0.028846    3.129849    0.735441
  C      1.087556    2.140731    0.311785
  C     -0.053272    4.641561    0.426390
  C     -1.073774    4.708875    1.582455
  N     -0.016235    3.737854    2.147742
  C      0.998430    4.736146    1.552186
  H     -1.883190    2.426638   -0.384464
  H     -1.639211    1.667970    1.207453
  H      1.632533    1.711064    1.159700
  H      1.809917    2.475285   -0.438362
  H     -0.074091    5.141020   -0.548831
  H     -1.144816    5.641980    2.147038
  H     -2.057354    4.256402    1.440723
  H      1.989016    4.309653    1.381618
  H      1.061353    5.671014    2.114812

 Total Charge           Charge          ....    0
 Multiplicity           Mult            ....    1
 Number of Electrons    NEL             ....   66
 Basis Dimension        Dim             ....  333

ORBITAL ENERGIES
----------------

  NO   OCC          E(Eh)            E(eV)
   0   2.0000     -20.554339      -559.3120
   1   2.0000     -15.579668      -423.9443
   2   2.0000     -11.335560      -308.4563
   3   2.0000     -11.288671      -307.1803
   4   2.0000     -11.271055      -306.7010
   5   2.0000     -11.271035      -306.7005
   6   2.0000     -11.261801      -306.4492
   7   2.0000     -11.242951      -305.9363
   8   2.0000     -11.242921      -305.9354
   9   2.0000      -1.397493       -38.0277
  10   2.0000      -1.309841       -35.6426
  11   2.0000      -1.124550       -30.6006
  12   2.0000      -0.958214       -26.0743
  13   2.0000      -0.940992       -25.6057
  14   2.0000      -0.913320       -24.8527
  15   2.0000      -0.878396       -23.9024
  16   2.0000      -0.751420       -20.4472
  17   2.0000      -0.718556       -19.5529
  18   2.0000      -0.675609       -18.3843
  19   2.0000      -0.662244       -18.0206
  20   2.0000      -0.643263       -17.5041
  21   2.0000      -0.638721       -17.3805
  22   2.0000      -0.598142       -16.2763
  23   2.0000      -0.591484       -16.0951
  24   2.0000      -0.571986       -15.5645
  25   2.0000      -0.520727       -14.1697
  26   2.0000      -0.508763       -13.8441
  27   2.0000      -0.500325       -13.6145
  28   2.0000      -0.474322       -12.9070
  29   2.0000      -0.459507       -12.5038
  30   2.0000      -0.448952       -12.2166
  31   2.0000      -0.401038       -10.9128
  32   2.0000      -0.385941       -10.5020
  33   0.0000       0.122977         3.3464
  34   0.0000       0.132997         3.6190
  35   0.0000       0.153658         4.1813
  36   0.0000       0.154634         4.2078
  37   0.0000       0.165883         4.5139

MULLIKEN ATOMIC CHARGES
-----------------------
   0 O :   -0.241752
   1 C :    0.098697
   2 C :   -0.243335
   3 C :    0.031774
   4 C :   -0.243336
   5 C :   -0.086384
   6 C :   -0.164995
   7 N :   -0.192372
   8 C :   -0.164996
   9 H :    0.146294
  10 H :    0.152738
  11 H :    0.152738
  12 H :    0.146296
  13 H :    0.116189
  14 H :    0.122772
  15 H :    0.123451
  16 H :    0.123451
  17 H :    0.122771
Sum of atomic charges:    0.0000000

LOEWDIN ATOMIC CHARGES
----------------------
   0 O :    0.164250
   1 C :   -0.305110
   2 C :   -0.175942
   3 C :   -0.241547
   4 C :   -0.175943
   5 C :   -0.182057
   6 C :   -0.218343
   7 N :    0.119799
   8 C :   -0.218345
   9 H :    0.146806
  10 H :    0.157549
  11 H :    0.157550
  12 H :    0.146806
  13 H :    0.122353
  14 H :    0.125053
  15 H :    0.126034
  16 H :    0.126035
  17 H :    0.125053

  Mayer bond orders larger than 0.1
B(  0-O ,  1-C ) :   2.0770 B(  1-C ,  2-C ) :   0.9026 B(  1-C ,  4-C ) :   0.9026
B(  2-C ,  3-C ) :   0.9360 B(  2-C ,  4-C ) :  -0.1462 B(  2-C ,  9-H ) :   0.8920
B(  2-C , 10-H ) :   0.8876 B(  3-C ,  4-C ) :   0.9360 B(  3-C ,  5-C ) :   0.8922
B(  3-C ,  7-N ) :   0.9921 B(  4-C , 11-H ) :   0.8876 B(  4-C , 12-H ) :   0.8920
B(  5-C ,  6-C ) :   0.9402 B(  5-C ,  8-C ) :   0.9402 B(  5-C , 13-H ) :   0.8943
B(  6-C ,  7-N ) :   0.9086 B(  6-C , 14-H ) :   0.9271 B(  6-C , 15-H ) :   0.9248
B(  7-N ,  8-C ) :   0.9086 B(  8-C , 16-H ) :   0.9248 B(  8-C , 17-H ) :   0.9271

MP2 TOTAL ENERGY:     -401.178849679 Eh
FINAL SINGLE POINT ENERGY      -401.178849679060

DIPOLE MOMENT
-------------
                                X             Y             Z
Electronic contribution:      0.03882      -5.15950      -1.99474
Nuclear contribution   :     -0.05617       6.43373       1.95644
                        -----------------------------------------
Total Dipole Moment    :     -0.01734       1.27423      -0.03830
                        -----------------------------------------
Magnitude (a.u.)       :      1.27493
Magnitude (Debye)      :      3.24060

                             ****ORCA TERMINATED NORMALLY****
TOTAL RUN TIME: 0 days 0 hours 17 minutes 35 seconds 699 msec
