                         Program Version 3.0.3 - RELEASE   -
|  1> ! RI-MP2 RIJK def2-TZVP def2-TZVP/C def2-TZVP/JK TIGHTSCF
|  2> % maxcore 2000
|  3> % mp2 density relaxed end
|  4> *xyz 0 1
|  5>  C       -0.2271533043     1.6020059133    -0.1263180892
|  6>  C        0.0366253118     0.1028616321    -0.0288044052
|  7>  C       -1.2431465832    -0.7023847250     0.1719689730
|  8>  C        0.9280431867    -0.4402820398    -1.1882465663
|  9>  N        2.1677813533    -0.9063417165    -0.5615363874
| 10>  C        2.0325857126    -0.6852129689     0.6868251758
| 11>  O        0.8857239133    -0.1195452302     1.1453288802
| 12>  C        3.0075646088    -0.9862968719     1.6825951518
| 13>  C        3.8220852294    -1.2358082925     2.5294569228
| 14>  H        0.7130341759     2.1516303661    -0.2276026747
| 15>  H       -0.8484506726     1.8196475478    -1.0012281291
| 16>  H       -0.7467052438     1.9660927256     0.7646093712
| 17>  H       -1.9059865118    -0.5787026123    -0.6906968946
| 18>  H       -1.0144695887    -1.7665558864     0.2794280272
| 19>  H       -1.7769516843    -0.3709193881     1.0671937433
| 20>  H        0.4493920673    -1.2687205032    -1.7234367472
| 21>  H        1.1564406252     0.3335892934    -1.9304166951
| 22>  H        4.5480341544    -1.4599096436     3.2719814936
| 23> *
| 24>
| 25>                          ****END OF INPUT****

CARTESIAN COORDINATES (ANGSTROEM)
---------------------------------
  C     -0.227153    1.602006   -0.126318
  C      0.036625    0.102862   -0.028804
  C     -1.243147   -0.702385    0.171969
  C      0.928043   -0.440282   -1.188247
  N      2.167781   -0.906342   -0.561536
  C      2.032586   -0.685213    0.686825
  O      0.885724   -0.119545    1.145329
  C      3.007565   -0.986297    1.682595
  C      3.822085   -1.235808    2.529457
  H      0.713034    2.151630   -0.227603
  H     -0.848451    1.819648   -1.001228
  H     -0.746705    1.966093    0.764609
  H     -1.905987   -0.578703   -0.690697
  H     -1.014470   -1.766556    0.279428
  H     -1.776952   -0.370919    1.067194
  H      0.449392   -1.268721   -1.723437
  H      1.156441    0.333589   -1.930417
  H      4.548034   -1.459910    3.271981

 Total Charge           Charge          ....    0
 Multiplicity           Mult            ....    1
 Number of Electrons    NEL             ....   66
 Basis Dimension        Dim             ....  333

ORBITAL ENERGIES
----------------

  NO   OCC          E(Eh)            E(eV)
   0   2.0000     -20.593188      -560.3691
   1   2.0000     -15.555366      -423.2830
   2   2.0000     -11.356117      -309.0156
   3   2.0000     -11.306165      -307.6564
   4   2.0000     -11.261866      -306.4509
   5   2.0000     -11.253701      -306.2288
   6   2.0000     -11.249365      -306.1108
   7   2.0000     -11.227773      -305.5232
   8   2.0000     -11.227757      -305.5228
   9   2.0000      -1.439468       -39.1699
  10   2.0000      -1.219542       -33.1854
  11   2.0000      -1.100476       -29.9455
  12   2.0000      -1.046230       -28.4694
  13   2.0000      -0.954067       -25.9615
  14   2.0000      -0.947353       -25.7788
  15   2.0000      -0.859199       -23.3800
  16   2.0000      -0.788548       -21.4575
  17   2.0000      -0.741372       -20.1737
  18   2.0000      -0.708268       -19.2730
  19   2.0000      -0.668483       -18.1904
  20   2.0000      -0.627911       -17.0863
  21   2.0000      -0.603119       -16.4117
  22   2.0000      -0.588440       -16.0123
  23   2.0000      -0.582292       -15.8450
  24   2.0000      -0.551399       -15.0043
  25   2.0000      -0.537994       -14.6396
  26   2.0000      -0.535547       -14.5730
  27   2.0000      -0.504497       -13.7281
  28   2.0000      -0.503828       -13.7098
  29   2.0000      -0.435357       -11.8467
  30   2.0000      -0.432064       -11.7571
  31   2.0000      -0.414940       -11.2911
  32   2.0000      -0.366599        -9.9757
  33   0.0000       0.107393         2.9223
  34   0.0000       0.126196         3.4340
  35   0.0000       0.157854         4.2954
  36   0.0000       0.170025         4.6266
  37   0.0000       0.176390         4.7998

MULLIKEN ATOMIC CHARGES
-----------------------
   0 C :   -0.418158
   1 C :    0.234033
   2 C :   -0.418228
   3 C :   -0.172018
   4 N :   -0.246098
   5 C :   -0.016279
   6 O :   -0.267984
   7 C :    0.065306
   8 C :   -0.058842
   9 H :    0.146007
  10 H :    0.133100
  11 H :    0.140533
  12 H :    0.133098
  13 H :    0.146019
  14 H :    0.140534
  15 H :    0.128198
  16 H :    0.128179
  17 H :    0.202599
Sum of atomic charges:    0.0000000

LOEWDIN ATOMIC CHARGES
----------------------
   0 C :   -0.269917
   1 C :   -0.342562
   2 C :   -0.269918
   3 C :   -0.235134
   4 N :    0.112004
   5 C :   -0.377509
   6 O :    0.282411
   7 C :   -0.047860
   8 C :   -0.041990
   9 H :    0.131437
  10 H :    0.130771
  11 H :    0.130126
  12 H :    0.130767
  13 H :    0.131441
  14 H :    0.130125
  15 H :    0.137113
  16 H :    0.137112
  17 H :    0.131582

  Mayer bond orders larger than 0.1
B(  0-C ,  1-C ) :   0.9188 B(  0-C ,  9-H ) :   0.9317 B(  0-C , 10-H ) :   0.9305
B(  0-C , 11-H ) :   0.9339 B(  1-C ,  2-C ) :   0.9188 B(  1-C ,  3-C ) :   0.8832
B(  1-C ,  6-O ) :   0.8051 B(  2-C , 12-H ) :   0.9305 B(  2-C , 13-H ) :   0.9317
B(  2-C , 14-H ) :   0.9339 B(  3-C ,  4-N ) :   0.9426 B(  3-C , 15-H ) :   0.9219
B(  3-C , 16-H ) :   0.9219 B(  4-N ,  5-C ) :   1.8147 B(  5-C ,  6-O ) :   1.1434
B(  5-C ,  7-C ) :   1.1828 B(  5-C ,  8-C ) :  -0.1581 B(  7-C ,  8-C ) :   2.6371
B(  8-C , 17-H ) :   0.8688

MP2 TOTAL ENERGY:     -401.238678871 Eh
FINAL SINGLE POINT ENERGY      -401.238678870972

DIPOLE MOMENT
-------------
                                X             Y             Z
Electronic contribution:      8.74762      -3.34384       3.97692
Nuclear contribution   :     -9.43465       3.65081      -3.94706
                        -----------------------------------------
Total Dipole Moment    :     -0.68704       0.30697       0.02986
                        -----------------------------------------
Magnitude (a.u.)       :      0.75309
Magnitude (Debye)      :      1.91420

                             ****ORCA TERMINATED NORMALLY****
TOTAL RUN TIME: 0 days 0 hours 18 minutes 26 seconds 797 msec
