                         Program Version 3.0.3 - RELEASE   -
|  1> ! RI-MP2 RIJK def2-TZVP def2-TZVP/C def2-TZVP/JK TIGHTSCF
|  2> % maxcore 2000
|  3> % mp2 density relaxed end
|  4> *xyz 0 1
|  5>  C       -0.1058743792     1.3837816025     0.1009327793
|  6>  O        0.0466780247    -0.0100651284    -0.0301692456
|  7>  C        0.6853911163    -0.5076116689    -1.2107600653
|  8>  C        0.0065936694    -0.0065709818    -2.4927283592
|  9>  C        2.1812216682    -0.1522463312    -1.2063668312
| 10>  C        0.5407637303    -2.0456025108    -1.0766872989
| 11>  C       -0.8316177128    -2.5365345700    -1.1219764702
| 12>  C       -1.9586911715    -2.9578033831    -1.1669101955
| 13>  C       -3.3226740326    -3.4662379727    -1.2090935659
| 14>  H        0.8499118577     1.9260335110     0.0597526661
| 15>  H       -0.7780983671     1.8106857840    -0.6561757581
| 16>  H       -0.5498697461     1.5522919959     1.0857090194
| 17>  H        0.1549883051     1.0675284679    -2.6354275015
| 18>  H        0.4311135110    -0.5145589066    -3.3643123251
| 19>  H       -1.0650678122    -0.2165402671    -2.4629463713
| 20>  H        2.6515615964    -0.4964797703    -0.2803907605
| 21>  H        2.6931681796    -0.6219569043    -2.0519650812
| 22>  H        2.3373576923     0.9269654856    -1.2897460897
| 23>  H        1.1310206246    -2.5194380699    -1.8710268976
| 24>  H        1.0034660688    -2.3334671339    -0.1249251231
| 25>  H       -3.3957737789    -4.4488766111    -0.7294339015
| 26>  H       -4.0145573005    -2.7944389874    -0.6887133401
| 27>  H       -3.6800183635    -3.5755920691    -2.2393023432
| 28> *
| 29>
| 30>                          ****END OF INPUT****

CARTESIAN COORDINATES (ANGSTROEM)
---------------------------------
  C     -0.105874    1.383782    0.100933
  O      0.046678   -0.010065   -0.030169
  C      0.685391   -0.507612   -1.210760
  C      0.006594   -0.006571   -2.492728
  C      2.181222   -0.152246   -1.206367
  C      0.540764   -2.045603   -1.076687
  C     -0.831618   -2.536535   -1.121976
  C     -1.958691   -2.957803   -1.166910
  C     -3.322674   -3.466238   -1.209094
  H      0.849912    1.926034    0.059753
  H     -0.778098    1.810686   -0.656176
  H     -0.549870    1.552292    1.085709
  H      0.154988    1.067528   -2.635428
  H      0.431114   -0.514559   -3.364312
  H     -1.065068   -0.216540   -2.462946
  H      2.651562   -0.496480   -0.280391
  H      2.693168   -0.621957   -2.051965
  H      2.337358    0.926965   -1.289746
  H      1.131021   -2.519438   -1.871027
  H      1.003466   -2.333467   -0.124925
  H     -3.395774   -4.448877   -0.729434
  H     -4.014557   -2.794439   -0.688713
  H     -3.680018   -3.575592   -2.239302

 Total Charge           Charge          ....    0
 Multiplicity           Mult            ....    1
 Number of Electrons    NEL             ....   70
 Basis Dimension        Dim             ....  363

ORBITAL ENERGIES
----------------

  NO   OCC          E(Eh)            E(eV)
   0   2.0000     -20.545429      -559.0695
   1   2.0000     -11.290656      -307.2344
   2   2.0000     -11.264574      -306.5246
   3   2.0000     -11.239078      -305.8309
   4   2.0000     -11.238455      -305.8139
   5   2.0000     -11.216070      -305.2048
   6   2.0000     -11.211848      -305.0899
   7   2.0000     -11.210589      -305.0556
   8   2.0000     -11.206456      -304.9432
   9   2.0000      -1.366804       -37.1926
  10   2.0000      -1.089718       -29.6527
  11   2.0000      -1.041553       -28.3421
  12   2.0000      -0.980923       -26.6923
  13   2.0000      -0.940988       -25.6056
  14   2.0000      -0.928263       -25.2593
  15   2.0000      -0.902369       -24.5547
  16   2.0000      -0.759030       -20.6543
  17   2.0000      -0.673573       -18.3289
  18   2.0000      -0.651513       -17.7286
  19   2.0000      -0.643521       -17.5111
  20   2.0000      -0.628844       -17.1117
  21   2.0000      -0.603672       -16.4267
  22   2.0000      -0.585725       -15.9384
  23   2.0000      -0.577382       -15.7114
  24   2.0000      -0.574169       -15.6239
  25   2.0000      -0.556732       -15.1495
  26   2.0000      -0.544853       -14.8262
  27   2.0000      -0.540972       -14.7206
  28   2.0000      -0.530046       -14.4233
  29   2.0000      -0.498428       -13.5629
  30   2.0000      -0.494381       -13.4528
  31   2.0000      -0.452414       -12.3108
  32   2.0000      -0.413276       -11.2458
  33   2.0000      -0.356146        -9.6912
  34   2.0000      -0.355789        -9.6815
  35   0.0000       0.129972         3.5367
  36   0.0000       0.148066         4.0291
  37   0.0000       0.161829         4.4036
  38   0.0000       0.181173         4.9300
  39   0.0000       0.187389         5.0991

MULLIKEN ATOMIC CHARGES
-----------------------
   0 C :   -0.233676
   1 O :   -0.297546
   2 C :    0.228874
   3 C :   -0.452882
   4 C :   -0.418175
   5 C :   -0.343858
   6 C :   -0.004121
   7 C :    0.062510
   8 C :   -0.491328
   9 H :    0.105890
  10 H :    0.119293
  11 H :    0.143133
  12 H :    0.135648
  13 H :    0.131050
  14 H :    0.159739
  15 H :    0.139469
  16 H :    0.130435
  17 H :    0.132218
  18 H :    0.139590
  19 H :    0.134475
  20 H :    0.160280
  21 H :    0.161290
  22 H :    0.157692
Sum of atomic charges:    0.0000000

LOEWDIN ATOMIC CHARGES
----------------------
   0 C :   -0.360311
   1 O :    0.179792
   2 C :   -0.392200
   3 C :   -0.272064
   4 C :   -0.275433
   5 C :   -0.213633
   6 C :   -0.083819
   7 C :   -0.110886
   8 C :   -0.298586
   9 H :    0.100315
  10 H :    0.102363
  11 H :    0.114860
  12 H :    0.124011
  13 H :    0.131670
  14 H :    0.134845
  15 H :    0.128881
  16 H :    0.128250
  17 H :    0.123591
  18 H :    0.158507
  19 H :    0.161858
  20 H :    0.139904
  21 H :    0.139778
  22 H :    0.138306

  Mayer bond orders larger than 0.1
B(  0-C ,  1-O ) :   0.9233 B(  0-C ,  9-H ) :   0.9296 B(  0-C , 10-H ) :   0.9357
B(  0-C , 11-H ) :   0.9422 B(  1-O ,  2-C ) :   0.9622 B(  2-C ,  3-C ) :   0.9035
B(  2-C ,  4-C ) :   0.9206 B(  2-C ,  5-C ) :   0.8957 B(  3-C , 12-H ) :   0.9313
B(  3-C , 13-H ) :   0.9259 B(  3-C , 14-H ) :   0.9382 B(  4-C , 15-H ) :   0.9401
B(  4-C , 16-H ) :   0.9293 B(  4-C , 17-H ) :   0.9335 B(  5-C ,  6-C ) :   1.0882
B(  5-C ,  7-C ) :  -0.1213 B(  5-C , 18-H ) :   0.9353 B(  5-C , 19-H ) :   0.9027
B(  6-C ,  7-C ) :   2.6878 B(  7-C ,  8-C ) :   0.8480 B(  8-C , 20-H ) :   0.9517
B(  8-C , 21-H ) :   0.9474 B(  8-C , 22-H ) :   0.9496

MP2 TOTAL ENERGY:     -387.579335874 Eh
FINAL SINGLE POINT ENERGY      -387.579335873963

DIPOLE MOMENT
-------------
                                X             Y             Z
Electronic contribution:     -1.48207      -4.04382       2.24292
Nuclear contribution   :      1.57456       4.36327      -2.57766
                        -----------------------------------------
Total Dipole Moment    :      0.09249       0.31945      -0.33473
                        -----------------------------------------
Magnitude (a.u.)       :      0.47185
Magnitude (Debye)      :      1.19936

                             ****ORCA TERMINATED NORMALLY****
TOTAL RUN TIME: 0 days 0 hours 20 minutes 46 seconds 427 msec
