                         Program Version 3.0.3 - RELEASE   -
|  1> ! RI-MP2 RIJK def2-TZVP def2-TZVP/C def2-TZVP/JK TIGHTSCF
|  2> % maxcore 2000
|  3> % mp2 density relaxed end
|  4> *xyz 0 1
|  5>  C       -0.0024570362     1.5156279357    -0.0870686745
|  6>  C        0.0050211912    -0.0070020611     0.0065474477
|  7>  O        0.7253543002    -0.4692413163     1.1469322004
|  8>  C       -1.4073802884    -0.6013836073     0.0260626833
|  9>  O       -2.1121617420    -0.1627959810    -1.1361552859
| 10>  C       -3.1537195068    -1.0960487323    -1.4166346081
| 11>  C       -2.6361273498    -2.4415249045    -0.9402663243
| 12>  C       -1.2219498434    -2.7717603597    -1.3410619547
| 13>  C       -1.4923355884    -2.1190021007    -0.0082539896
| 14>  H        1.0211173197     1.9003716194    -0.0934558492
| 15>  H       -0.5167794922     1.8428840774    -0.9935174716
| 16>  H       -0.5290292135     1.9529411801     0.7717827963
| 17>  H        0.5381091460    -0.4254008784    -0.8542038250
| 18>  H        0.3891711965     0.0056715701     1.9151990695
| 19>  H       -1.9179573825    -0.2390070305     0.9398927747
| 20>  H       -4.0768349159    -0.8306572270    -0.8762008054
| 21>  H       -3.3559080162    -1.0408369326    -2.4917599944
| 22>  H       -3.3458348143    -3.2329913172    -0.7309314798
| 23>  H       -0.9287032303    -3.8152609652    -1.3281608920
| 24>  H       -0.7611765589    -2.1816216321    -2.1272148421
| 25>  H       -1.3171556250    -2.6686366768     0.9070211749
| 26> *
| 27>
| 28>                          ****END OF INPUT****

CARTESIAN COORDINATES (ANGSTROEM)
---------------------------------
  C     -0.002457    1.515628   -0.087069
  C      0.005021   -0.007002    0.006547
  O      0.725354   -0.469241    1.146932
  C     -1.407380   -0.601384    0.026063
  O     -2.112162   -0.162796   -1.136155
  C     -3.153720   -1.096049   -1.416635
  C     -2.636127   -2.441525   -0.940266
  C     -1.221950   -2.771760   -1.341062
  C     -1.492336   -2.119002   -0.008254
  H      1.021117    1.900372   -0.093456
  H     -0.516779    1.842884   -0.993517
  H     -0.529029    1.952941    0.771783
  H      0.538109   -0.425401   -0.854204
  H      0.389171    0.005672    1.915199
  H     -1.917957   -0.239007    0.939893
  H     -4.076835   -0.830657   -0.876201
  H     -3.355908   -1.040837   -2.491760
  H     -3.345835   -3.232991   -0.730931
  H     -0.928703   -3.815261   -1.328161
  H     -0.761177   -2.181622   -2.127215
  H     -1.317156   -2.668637    0.907021

 Total Charge           Charge          ....    0
 Multiplicity           Mult            ....    1
 Number of Electrons    NEL             ....   70
 Basis Dimension        Dim             ....  351

ORBITAL ENERGIES
----------------

  NO   OCC          E(Eh)            E(eV)
   0   2.0000     -20.554816      -559.3250
   1   2.0000     -20.553313      -559.2841
   2   2.0000     -11.279109      -306.9202
   3   2.0000     -11.276728      -306.8554
   4   2.0000     -11.275378      -306.8186
   5   2.0000     -11.232604      -305.6547
   6   2.0000     -11.230286      -305.5916
   7   2.0000     -11.225849      -305.4709
   8   2.0000     -11.212164      -305.0985
   9   2.0000      -1.383837       -37.6561
  10   2.0000      -1.357543       -36.9406
  11   2.0000      -1.145753       -31.1775
  12   2.0000      -1.041410       -28.3382
  13   2.0000      -0.967678       -26.3319
  14   2.0000      -0.901498       -24.5310
  15   2.0000      -0.837678       -22.7944
  16   2.0000      -0.784680       -21.3522
  17   2.0000      -0.769503       -20.9392
  18   2.0000      -0.711911       -19.3721
  19   2.0000      -0.670342       -18.2409
  20   2.0000      -0.648363       -17.6429
  21   2.0000      -0.633593       -17.2409
  22   2.0000      -0.609065       -16.5735
  23   2.0000      -0.583884       -15.8883
  24   2.0000      -0.580496       -15.7961
  25   2.0000      -0.556126       -15.1330
  26   2.0000      -0.549813       -14.9612
  27   2.0000      -0.525887       -14.3101
  28   2.0000      -0.508681       -13.8419
  29   2.0000      -0.480876       -13.0853
  30   2.0000      -0.476139       -12.9564
  31   2.0000      -0.444284       -12.0896
  32   2.0000      -0.431912       -11.7529
  33   2.0000      -0.414919       -11.2905
  34   2.0000      -0.391287       -10.6475
  35   0.0000       0.134471         3.6591
  36   0.0000       0.154450         4.2028
  37   0.0000       0.162594         4.4244
  38   0.0000       0.173667         4.7257
  39   0.0000       0.188620         5.1326

MULLIKEN ATOMIC CHARGES
-----------------------
   0 C :   -0.392151
   1 C :    0.106780
   2 O :   -0.475212
   3 C :    0.022466
   4 O :   -0.323420
   5 C :   -0.037023
   6 C :   -0.119319
   7 C :   -0.312209
   8 C :   -0.081110
   9 H :    0.145314
  10 H :    0.149297
  11 H :    0.107559
  12 H :    0.088189
  13 H :    0.309754
  14 H :    0.067312
  15 H :    0.093046
  16 H :    0.115565
  17 H :    0.131876
  18 H :    0.134154
  19 H :    0.141212
  20 H :    0.127918
Sum of atomic charges:    0.0000000

LOEWDIN ATOMIC CHARGES
----------------------
   0 C :   -0.302933
   1 C :   -0.349108
   2 O :   -0.016980
   3 C :   -0.286203
   4 O :    0.175285
   5 C :   -0.281327
   6 C :   -0.210920
   7 C :   -0.200358
   8 C :   -0.182470
   9 H :    0.125360
  10 H :    0.132855
  11 H :    0.120722
  12 H :    0.147742
  13 H :    0.172970
  14 H :    0.138754
  15 H :    0.123106
  16 H :    0.128524
  17 H :    0.143744
  18 H :    0.135908
  19 H :    0.137965
  20 H :    0.147364

  Mayer bond orders larger than 0.1
B(  0-C ,  1-C ) :   0.9502 B(  0-C ,  9-H ) :   0.9429 B(  0-C , 10-H ) :   0.9310
B(  0-C , 11-H ) :   0.9160 B(  1-C ,  2-O ) :   0.9009 B(  1-C ,  3-C ) :   0.9320
B(  1-C , 12-H ) :   0.9141 B(  2-O , 13-H ) :   0.8433 B(  3-C ,  4-O ) :   0.9266
B(  3-C ,  8-C ) :   0.9428 B(  3-C , 14-H ) :   0.8962 B(  4-O ,  5-C ) :   0.9337
B(  5-C ,  6-C ) :   0.9613 B(  5-C , 15-H ) :   0.9297 B(  5-C , 16-H ) :   0.9230
B(  6-C ,  7-C ) :   0.8863 B(  6-C ,  8-C ) :   0.8454 B(  6-C , 17-H ) :   0.9240
B(  7-C ,  8-C ) :   0.8909 B(  7-C , 18-H ) :   0.9306 B(  7-C , 19-H ) :   0.9161
B(  8-C , 20-H ) :   0.9281

MP2 TOTAL ENERGY:     -423.519679635 Eh
FINAL SINGLE POINT ENERGY      -423.519679634710

DIPOLE MOMENT
-------------
                                X             Y             Z
Electronic contribution:     -0.40751      -1.52409       0.50003
Nuclear contribution   :     -0.15706       1.41938      -0.25143
                        -----------------------------------------
Total Dipole Moment    :     -0.56457      -0.10472       0.24860
                        -----------------------------------------
Magnitude (a.u.)       :      0.62571
Magnitude (Debye)      :      1.59042

                             ****ORCA TERMINATED NORMALLY****
TOTAL RUN TIME: 0 days 0 hours 19 minutes 26 seconds 341 msec
