                         Program Version 3.0.3 - RELEASE   -
|  1> ! RI-MP2 RIJK def2-TZVP def2-TZVP/C def2-TZVP/JK TIGHTSCF
|  2> % maxcore 2000
|  3> % mp2 density relaxed end
|  4> *xyz 0 1
|  5>  N       -0.0297956507     1.2042982823    -0.1998676592
|  6>  C        0.0270391769    -0.0268795476     0.0274061275
|  7>  O        1.0801052862    -0.8228469092     0.4240311727
|  8>  C        0.2268887692    -2.0079136023     0.4598776345
|  9>  C       -0.9934964077    -1.1582492841    -0.0023561745
| 10>  C       -2.2227419083    -1.0094982778     0.9288773452
| 11>  C       -3.3968712391    -1.7152840440     0.2037317672
| 12>  C       -2.8994044083    -1.8330332013    -1.2148391944
| 13>  C       -1.6092708301    -1.5242935426    -1.3278235476
| 14>  H        0.8753883096     1.6555546824    -0.0573354078
| 15>  H        0.5814946286    -2.7667467082    -0.2422109474
| 16>  H        0.1691062601    -2.4185918448     1.4716880459
| 17>  H       -2.0360089721    -1.4041009619     1.9309427840
| 18>  H       -2.4374967834     0.0577610126     1.0314173011
| 19>  H       -3.6103755082    -2.7075060334     0.6243532829
| 20>  H       -4.3296988782    -1.1455903923     0.2783307244
| 21>  H       -3.5324145731    -2.1592386825    -2.0328255043
| 22>  H       -1.0255376515    -1.5530994752    -2.2408791402
| 23> *
| 24>
| 25>                          ****END OF INPUT****

CARTESIAN COORDINATES (ANGSTROEM)
---------------------------------
  N     -0.029796    1.204298   -0.199868
  C      0.027039   -0.026880    0.027406
  O      1.080105   -0.822847    0.424031
  C      0.226889   -2.007914    0.459878
  C     -0.993496   -1.158249   -0.002356
  C     -2.222742   -1.009498    0.928877
  C     -3.396871   -1.715284    0.203732
  C     -2.899404   -1.833033   -1.214839
  C     -1.609271   -1.524294   -1.327824
  H      0.875388    1.655555   -0.057335
  H      0.581495   -2.766747   -0.242211
  H      0.169106   -2.418592    1.471688
  H     -2.036009   -1.404101    1.930943
  H     -2.437497    0.057761    1.031417
  H     -3.610376   -2.707506    0.624353
  H     -4.329699   -1.145590    0.278331
  H     -3.532415   -2.159239   -2.032826
  H     -1.025538   -1.553099   -2.240879

 Total Charge           Charge          ....    0
 Multiplicity           Mult            ....    1
 Number of Electrons    NEL             ....   66
 Basis Dimension        Dim             ....  333

ORBITAL ENERGIES
----------------

  NO   OCC          E(Eh)            E(eV)
   0   2.0000     -20.589431      -560.2669
   1   2.0000     -15.534036      -422.7026
   2   2.0000     -11.333872      -308.4103
   3   2.0000     -11.297940      -307.4326
   4   2.0000     -11.261096      -306.4300
   5   2.0000     -11.239963      -305.8549
   6   2.0000     -11.237145      -305.7783
   7   2.0000     -11.236594      -305.7633
   8   2.0000     -11.236451      -305.7594
   9   2.0000      -1.431435       -38.9513
  10   2.0000      -1.194364       -32.5003
  11   2.0000      -1.150558       -31.3083
  12   2.0000      -1.018147       -27.7052
  13   2.0000      -0.980567       -26.6826
  14   2.0000      -0.908974       -24.7344
  15   2.0000      -0.845869       -23.0173
  16   2.0000      -0.768157       -20.9026
  17   2.0000      -0.714963       -19.4551
  18   2.0000      -0.701176       -19.0800
  19   2.0000      -0.675271       -18.3751
  20   2.0000      -0.664413       -18.0796
  21   2.0000      -0.633141       -17.2287
  22   2.0000      -0.621035       -16.8992
  23   2.0000      -0.540990       -14.7211
  24   2.0000      -0.538222       -14.6458
  25   2.0000      -0.531372       -14.4594
  26   2.0000      -0.505461       -13.7543
  27   2.0000      -0.498818       -13.5735
  28   2.0000      -0.491981       -13.3875
  29   2.0000      -0.481772       -13.1097
  30   2.0000      -0.433785       -11.8039
  31   2.0000      -0.399031       -10.8582
  32   2.0000      -0.359721        -9.7885
  33   0.0000       0.130370         3.5476
  34   0.0000       0.146184         3.9779
  35   0.0000       0.161687         4.3997
  36   0.0000       0.169897         4.6231
  37   0.0000       0.177284         4.8241

MULLIKEN ATOMIC CHARGES
-----------------------
   0 N :   -0.370770
   1 C :    0.059701
   2 O :   -0.262480
   3 C :   -0.059026
   4 C :    0.266243
   5 C :   -0.325313
   6 C :   -0.160900
   7 C :   -0.146517
   8 C :   -0.248887
   9 H :    0.228839
  10 H :    0.116620
  11 H :    0.110279
  12 H :    0.129971
  13 H :    0.148340
  14 H :    0.116704
  15 H :    0.128148
  16 H :    0.132192
  17 H :    0.136855
Sum of atomic charges:   -0.0000000

LOEWDIN ATOMIC CHARGES
----------------------
   0 N :   -0.049663
   1 C :   -0.370354
   2 O :    0.211065
   3 C :   -0.189322
   4 C :   -0.198362
   5 C :   -0.181949
   6 C :   -0.236702
   7 C :   -0.143718
   8 C :   -0.114624
   9 H :    0.173531
  10 H :    0.123510
  11 H :    0.122473
  12 H :    0.136766
  13 H :    0.152751
  14 H :    0.140490
  15 H :    0.139906
  16 H :    0.138997
  17 H :    0.145206

  Mayer bond orders larger than 0.1
B(  0-N ,  1-C ) :   2.0849 B(  0-N ,  9-H ) :   0.8465 B(  1-C ,  2-O ) :   1.0767
B(  1-C ,  4-C ) :   0.8750 B(  2-O ,  3-C ) :   0.8997 B(  3-C ,  4-C ) :   0.9409
B(  3-C , 10-H ) :   0.9128 B(  3-C , 11-H ) :   0.9111 B(  4-C ,  5-C ) :   0.8745
B(  4-C ,  8-C ) :   0.8980 B(  5-C ,  6-C ) :   0.9552 B(  5-C , 12-H ) :   0.9324
B(  5-C , 13-H ) :   0.9232 B(  6-C ,  7-C ) :   0.9387 B(  6-C , 14-H ) :   0.9110
B(  6-C , 15-H ) :   0.9287 B(  7-C ,  8-C ) :   1.7977 B(  7-C , 16-H ) :   0.9253
B(  8-C , 17-H ) :   0.9151

MP2 TOTAL ENERGY:     -401.258979531 Eh
FINAL SINGLE POINT ENERGY      -401.258979530599

DIPOLE MOMENT
-------------
                                X             Y             Z
Electronic contribution:      5.15904       2.43509      -0.97216
Nuclear contribution   :     -5.50589      -3.41429       1.15838
                        -----------------------------------------
Total Dipole Moment    :     -0.34685      -0.97920       0.18622
                        -----------------------------------------
Magnitude (a.u.)       :      1.05537
Magnitude (Debye)      :      2.68254

                             ****ORCA TERMINATED NORMALLY****
TOTAL RUN TIME: 0 days 0 hours 17 minutes 31 seconds 748 msec
