                         Program Version 3.0.3 - RELEASE   -
|  1> ! RI-MP2 RIJK def2-TZVP def2-TZVP/C def2-TZVP/JK TIGHTSCF
|  2> % maxcore 2000
|  3> % mp2 density relaxed end
|  4> *xyz 0 1
|  5>  O       -0.0592007306     0.0783913687     0.7197878682
|  6>  C       -0.0533780993     1.1915932198     0.2445965377
|  7>  C       -1.3567203936     1.9340296400    -0.0352093643
|  8>  C       -1.5922284109     2.0925492410    -1.5541492843
|  9>  C       -0.8749648113     3.3076533867    -2.1687226658
| 10>  O        0.3705358663     3.6290381879    -1.5734337027
| 11>  C        1.3019073304     2.5670331522    -1.4808785028
| 12>  C        1.2549517304     1.8924333451    -0.1009047512
| 13>  H       -2.1577093742     1.3443835840     0.4156577977
| 14>  H       -1.3349357665     2.9213539904     0.4406198599
| 15>  H       -1.2938690509     1.1675022051    -2.0610373532
| 16>  H       -2.6644898508     2.2037502694    -1.7474269489
| 17>  H       -0.7547441354     3.1555554101    -3.2534860085
| 18>  H       -1.4827272361     4.2073782957    -2.0284998962
| 19>  H        1.1529763166     1.8330989676    -2.2860682268
| 20>  H        2.2961641918     3.0046443401    -1.6224581621
| 21>  H        1.4163679881     2.6787261028     0.6492808629
| 22>  H        2.0629310862     1.1622298432     0.0003907605
| 23> *
| 24>
| 25>                          ****END OF INPUT****

CARTESIAN COORDINATES (ANGSTROEM)
---------------------------------
  O     -0.059201    0.078391    0.719788
  C     -0.053378    1.191593    0.244597
  C     -1.356720    1.934030   -0.035209
  C     -1.592228    2.092549   -1.554149
  C     -0.874965    3.307653   -2.168723
  O      0.370536    3.629038   -1.573434
  C      1.301907    2.567033   -1.480879
  C      1.254952    1.892433   -0.100905
  H     -2.157709    1.344384    0.415658
  H     -1.334936    2.921354    0.440620
  H     -1.293869    1.167502   -2.061037
  H     -2.664490    2.203750   -1.747427
  H     -0.754744    3.155555   -3.253486
  H     -1.482727    4.207378   -2.028500
  H      1.152976    1.833099   -2.286068
  H      2.296164    3.004644   -1.622458
  H      1.416368    2.678726    0.649281
  H      2.062931    1.162230    0.000391

 Total Charge           Charge          ....    0
 Multiplicity           Mult            ....    1
 Number of Electrons    NEL             ....   62
 Basis Dimension        Dim             ....  308

ORBITAL ENERGIES
----------------

  NO   OCC          E(Eh)            E(eV)
   0   2.0000     -20.563181      -559.5526
   1   2.0000     -20.542689      -558.9950
   2   2.0000     -11.327111      -308.2264
   3   2.0000     -11.291201      -307.2492
   4   2.0000     -11.286253      -307.1146
   5   2.0000     -11.242660      -305.9283
   6   2.0000     -11.237871      -305.7980
   7   2.0000     -11.237426      -305.7859
   8   2.0000      -1.388210       -37.7751
   9   2.0000      -1.382817       -37.6284
  10   2.0000      -1.078426       -29.3455
  11   2.0000      -1.057757       -28.7830
  12   2.0000      -0.943551       -25.6753
  13   2.0000      -0.902257       -24.5517
  14   2.0000      -0.803375       -21.8609
  15   2.0000      -0.744739       -20.2654
  16   2.0000      -0.684317       -18.6212
  17   2.0000      -0.671962       -18.2850
  18   2.0000      -0.653892       -17.7933
  19   2.0000      -0.648243       -17.6396
  20   2.0000      -0.612573       -16.6690
  21   2.0000      -0.590945       -16.0804
  22   2.0000      -0.574978       -15.6459
  23   2.0000      -0.542426       -14.7602
  24   2.0000      -0.541744       -14.7416
  25   2.0000      -0.519133       -14.1263
  26   2.0000      -0.505171       -13.7464
  27   2.0000      -0.479697       -13.0532
  28   2.0000      -0.467918       -12.7327
  29   2.0000      -0.429713       -11.6931
  30   2.0000      -0.401099       -10.9144
  31   0.0000       0.122287         3.3276
  32   0.0000       0.150088         4.0841
  33   0.0000       0.157756         4.2928
  34   0.0000       0.165061         4.4915
  35   0.0000       0.177698         4.8354

MULLIKEN ATOMIC CHARGES
-----------------------
   0 O :   -0.276753
   1 C :    0.132801
   2 C :   -0.164556
   3 C :   -0.269815
   4 C :   -0.081808
   5 O :   -0.318466
   6 C :   -0.078936
   7 C :   -0.207806
   8 H :    0.135649
   9 H :    0.124912
  10 H :    0.134446
  11 H :    0.137928
  12 H :    0.111659
  13 H :    0.121164
  14 H :    0.114244
  15 H :    0.129739
  16 H :    0.124522
  17 H :    0.131078
Sum of atomic charges:   -0.0000000

LOEWDIN ATOMIC CHARGES
----------------------
   0 O :    0.147592
   1 C :   -0.327850
   2 C :   -0.225920
   3 C :   -0.268045
   4 C :   -0.327484
   5 O :    0.150871
   6 C :   -0.312735
   7 C :   -0.237734
   8 H :    0.146996
   9 H :    0.151170
  10 H :    0.140238
  11 H :    0.145589
  12 H :    0.121288
  13 H :    0.131192
  14 H :    0.126200
  15 H :    0.131866
  16 H :    0.156661
  17 H :    0.150107

  Mayer bond orders larger than 0.1
B(  0-O ,  1-C ) :   2.0390 B(  1-C ,  2-C ) :   0.9130 B(  1-C ,  7-C ) :   0.9363
B(  2-C ,  3-C ) :   0.8609 B(  2-C ,  8-H ) :   0.9213 B(  2-C ,  9-H ) :   0.9023
B(  3-C ,  4-C ) :   0.9157 B(  3-C , 10-H ) :   0.9376 B(  3-C , 11-H ) :   0.9194
B(  4-C ,  5-O ) :   0.9279 B(  4-C , 12-H ) :   0.9489 B(  4-C , 13-H ) :   0.9320
B(  5-O ,  6-C ) :   0.9087 B(  6-C ,  7-C ) :   0.9067 B(  6-C , 14-H ) :   0.9340
B(  6-C , 15-H ) :   0.9272 B(  7-C , 16-H ) :   0.8969 B(  7-C , 17-H ) :   0.9149

MP2 TOTAL ENERGY:     -384.323836916 Eh
FINAL SINGLE POINT ENERGY      -384.323836916264

DIPOLE MOMENT
-------------
                                X             Y             Z
Electronic contribution:      1.29596      -1.99174       3.02299
Nuclear contribution   :     -1.45844       2.55132      -3.66786
                        -----------------------------------------
Total Dipole Moment    :     -0.16248       0.55958      -0.64488
                        -----------------------------------------
Magnitude (a.u.)       :      0.86914
Magnitude (Debye)      :      2.20917

                             ****ORCA TERMINATED NORMALLY****
TOTAL RUN TIME: 0 days 0 hours 13 minutes 57 seconds 388 msec
