                         Program Version 3.0.3 - RELEASE   -
|  1> ! RI-MP2 RIJK def2-TZVP def2-TZVP/C def2-TZVP/JK TIGHTSCF
|  2> % maxcore 2000
|  3> % mp2 density relaxed end
|  4> *xyz 0 1
|  5>  C        0.2413163351     1.4117288684     0.1518620343
|  6>  N        0.2755824079    -0.0373455635     0.0900509595
|  7>  C        0.4687357348    -0.6139369700    -1.0174790881
|  8>  O        0.6970148933     0.0887204829    -2.1653304935
|  9>  C        0.6140763935    -0.5991856516    -3.4172301512
| 10>  C        1.3511878952    -1.9224683026    -3.3526918338
| 11>  N        0.7535080775    -2.6973507473    -2.2861003786
| 12>  C        0.5097117478    -2.1277309701    -1.0523979795
| 13>  N        0.3143371518    -2.8570112230    -0.0260336631
| 14>  H        1.2537736379     1.8033596040     0.3160926812
| 15>  H       -0.1501381538     1.8780914412    -0.7596525421
| 16>  H       -0.3683277993     1.7155893999     1.0069498735
| 17>  H       -0.4393864585    -0.7681372037    -3.6730930489
| 18>  H        1.0572961383     0.0742799191    -4.1538901629
| 19>  H        1.2288146273    -2.4549286411    -4.3011610149
| 20>  H        2.4282025081    -1.7406209688    -3.2050566809
| 21>  H        0.9601317711    -3.6844335589    -2.2337103773
| 22>  H        0.1113681119    -2.2453244251     0.7653687065
| 23> *
| 24>
| 25>                          ****END OF INPUT****

CARTESIAN COORDINATES (ANGSTROEM)
---------------------------------
  C      0.241316    1.411729    0.151862
  N      0.275582   -0.037346    0.090051
  C      0.468736   -0.613937   -1.017479
  O      0.697015    0.088720   -2.165330
  C      0.614076   -0.599186   -3.417230
  C      1.351188   -1.922468   -3.352692
  N      0.753508   -2.697351   -2.286100
  C      0.509712   -2.127731   -1.052398
  N      0.314337   -2.857011   -0.026034
  H      1.253774    1.803360    0.316093
  H     -0.150138    1.878091   -0.759653
  H     -0.368328    1.715589    1.006950
  H     -0.439386   -0.768137   -3.673093
  H      1.057296    0.074280   -4.153890
  H      1.228815   -2.454929   -4.301161
  H      2.428203   -1.740621   -3.205057
  H      0.960132   -3.684434   -2.233710
  H      0.111368   -2.245324    0.765369

 Total Charge           Charge          ....    0
 Multiplicity           Mult            ....    1
 Number of Electrons    NEL             ....   68
 Basis Dimension        Dim             ....  333

ORBITAL ENERGIES
----------------

  NO   OCC          E(Eh)            E(eV)
   0   2.0000     -20.604619      -560.6802
   1   2.0000     -15.580044      -423.9546
   2   2.0000     -15.553150      -423.2227
   3   2.0000     -15.522620      -422.3920
   4   2.0000     -11.345653      -308.7309
   5   2.0000     -11.320636      -308.0502
   6   2.0000     -11.308513      -307.7203
   7   2.0000     -11.285819      -307.1027
   8   2.0000     -11.244918      -305.9898
   9   2.0000      -1.439512       -39.1711
  10   2.0000      -1.278439       -34.7881
  11   2.0000      -1.230955       -33.4960
  12   2.0000      -1.159171       -31.5426
  13   2.0000      -1.030943       -28.0534
  14   2.0000      -0.963658       -26.2225
  15   2.0000      -0.889554       -24.2060
  16   2.0000      -0.862501       -23.4698
  17   2.0000      -0.739336       -20.1184
  18   2.0000      -0.727272       -19.7901
  19   2.0000      -0.702222       -19.1084
  20   2.0000      -0.665721       -18.1152
  21   2.0000      -0.652575       -17.7575
  22   2.0000      -0.621642       -16.9158
  23   2.0000      -0.618199       -16.8220
  24   2.0000      -0.595447       -16.2029
  25   2.0000      -0.579124       -15.7588
  26   2.0000      -0.556289       -15.1374
  27   2.0000      -0.536616       -14.6021
  28   2.0000      -0.515925       -14.0390
  29   2.0000      -0.485461       -13.2101
  30   2.0000      -0.425212       -11.5706
  31   2.0000      -0.422050       -11.4846
  32   2.0000      -0.398863       -10.8536
  33   2.0000      -0.349736        -9.5168
  34   0.0000       0.108382         2.9492
  35   0.0000       0.127599         3.4722
  36   0.0000       0.154078         4.1927
  37   0.0000       0.160849         4.3769
  38   0.0000       0.176634         4.8065

MULLIKEN ATOMIC CHARGES
-----------------------
   0 C :   -0.294638
   1 N :   -0.275869
   2 C :    0.217591
   3 O :   -0.270896
   4 C :   -0.060146
   5 C :   -0.120612
   6 N :   -0.320124
   7 C :    0.092750
   8 N :   -0.358171
   9 H :    0.139527
  10 H :    0.127497
  11 H :    0.142283
  12 H :    0.114667
  13 H :    0.135385
  14 H :    0.133815
  15 H :    0.118706
  16 H :    0.239527
  17 H :    0.238709
Sum of atomic charges:    0.0000000

LOEWDIN ATOMIC CHARGES
----------------------
   0 C :   -0.331442
   1 N :    0.085444
   2 C :   -0.341690
   3 O :    0.245060
   4 C :   -0.284197
   5 C :   -0.294810
   6 N :    0.091104
   7 C :   -0.363831
   8 N :   -0.054692
   9 H :    0.122143
  10 H :    0.111607
  11 H :    0.116661
  12 H :    0.131486
  13 H :    0.134982
  14 H :    0.141502
  15 H :    0.130388
  16 H :    0.189458
  17 H :    0.170826

  Mayer bond orders larger than 0.1
B(  0-C ,  1-N ) :   0.8805 B(  0-C ,  9-H ) :   0.9281 B(  0-C , 10-H ) :   0.9286
B(  0-C , 11-H ) :   0.9408 B(  1-N ,  2-C ) :   1.8466 B(  2-C ,  3-O ) :   1.0343
B(  2-C ,  7-C ) :   0.8999 B(  3-O ,  4-C ) :   0.8754 B(  4-C ,  5-C ) :   0.9510
B(  4-C , 12-H ) :   0.9262 B(  4-C , 13-H ) :   0.9279 B(  5-C ,  6-N ) :   0.8950
B(  5-C , 14-H ) :   0.9195 B(  5-C , 15-H ) :   0.9225 B(  6-N ,  7-C ) :   1.1483
B(  6-N , 16-H ) :   0.8636 B(  7-C ,  8-N ) :   1.9705 B(  8-N , 17-H ) :   0.8546

MP2 TOTAL ENERGY:     -434.553828603 Eh
FINAL SINGLE POINT ENERGY      -434.553828602786

DIPOLE MOMENT
-------------
                                X             Y             Z
Electronic contribution:     -0.36444      -2.94152       1.28542
Nuclear contribution   :      0.76738       3.45740      -2.84837
                        -----------------------------------------
Total Dipole Moment    :      0.40295       0.51588      -1.56294
                        -----------------------------------------
Magnitude (a.u.)       :      1.69449
Magnitude (Debye)      :      4.30704

                             ****ORCA TERMINATED NORMALLY****
TOTAL RUN TIME: 0 days 0 hours 16 minutes 58 seconds 764 msec
