                         Program Version 3.0.3 - RELEASE   -
|  1> ! RI-MP2 RIJK def2-TZVP def2-TZVP/C def2-TZVP/JK TIGHTSCF
|  2> % maxcore 2000
|  3> % mp2 density relaxed end
|  4> *xyz 0 1
|  5>  C       -0.0091646031     1.4648525759    -0.0138358140
|  6>  N       -0.0149177002     0.0208572202     0.0283362209
|  7>  C       -0.0764147263    -0.8336653233    -1.0531949645
|  8>  N       -0.0690047917    -2.1165914212    -0.7345699928
|  9>  C        0.0019287651    -2.0801151408     0.6257830480
| 10>  C        0.0372876485    -0.7946232755     1.1435689024
| 11>  C        0.1054723622    -0.8709130569     2.5606159534
| 12>  C        0.1088052988    -2.2250662516     2.8430739191
| 13>  N        0.0470482643    -2.9638427883     1.6729540843
| 14>  H        0.9059930913     1.8673112334     0.4336893458
| 15>  H       -0.0600106134     1.7917545485    -1.0545405268
| 16>  H       -0.8700025706     1.8770248820     0.5236377406
| 17>  H       -0.1244856093    -0.4447605840    -2.0601072404
| 18>  H        0.1480939326    -0.0783608045     3.2902798273
| 19>  H        0.1530266861    -2.7238596995     3.7980016191
| 20>  H        0.0362923857    -3.9661054743     1.6125204674
| 21> *
| 22>
| 23>                          ****END OF INPUT****

CARTESIAN COORDINATES (ANGSTROEM)
---------------------------------
  C     -0.009165    1.464853   -0.013836
  N     -0.014918    0.020857    0.028336
  C     -0.076415   -0.833665   -1.053195
  N     -0.069005   -2.116591   -0.734570
  C      0.001929   -2.080115    0.625783
  C      0.037288   -0.794623    1.143569
  C      0.105472   -0.870913    2.560616
  C      0.108805   -2.225066    2.843074
  N      0.047048   -2.963843    1.672954
  H      0.905993    1.867311    0.433689
  H     -0.060011    1.791755   -1.054541
  H     -0.870003    1.877025    0.523638
  H     -0.124486   -0.444761   -2.060107
  H      0.148094   -0.078361    3.290280
  H      0.153027   -2.723860    3.798002
  H      0.036292   -3.966105    1.612520

 Total Charge           Charge          ....    0
 Multiplicity           Mult            ....    1
 Number of Electrons    NEL             ....   64
 Basis Dimension        Dim             ....  321

ORBITAL ENERGIES
----------------

  NO   OCC          E(Eh)            E(eV)
   0   2.0000     -15.612531      -424.8386
   1   2.0000     -15.597170      -424.4206
   2   2.0000     -15.543497      -422.9600
   3   2.0000     -11.294453      -307.3377
   4   2.0000     -11.278303      -306.8982
   5   2.0000     -11.259619      -306.3898
   6   2.0000     -11.257473      -306.3314
   7   2.0000     -11.234636      -305.7100
   8   2.0000     -11.220333      -305.3208
   9   2.0000      -1.342749       -36.5381
  10   2.0000      -1.270455       -34.5709
  11   2.0000      -1.179925       -32.1074
  12   2.0000      -1.045355       -28.4456
  13   2.0000      -0.971334       -26.4313
  14   2.0000      -0.954683       -25.9782
  15   2.0000      -0.829291       -22.5662
  16   2.0000      -0.796307       -21.6686
  17   2.0000      -0.761914       -20.7327
  18   2.0000      -0.710850       -19.3432
  19   2.0000      -0.648255       -17.6399
  20   2.0000      -0.644235       -17.5305
  21   2.0000      -0.634842       -17.2749
  22   2.0000      -0.587361       -15.9829
  23   2.0000      -0.583119       -15.8675
  24   2.0000      -0.574656       -15.6372
  25   2.0000      -0.556143       -15.1334
  26   2.0000      -0.536244       -14.5919
  27   2.0000      -0.506796       -13.7906
  28   2.0000      -0.432499       -11.7689
  29   2.0000      -0.406985       -11.0746
  30   2.0000      -0.320470        -8.7204
  31   2.0000      -0.265058        -7.2126
  32   0.0000       0.133915         3.6440
  33   0.0000       0.142898         3.8884
  34   0.0000       0.146893         3.9972
  35   0.0000       0.173116         4.7107
  36   0.0000       0.184645         5.0244

MULLIKEN ATOMIC CHARGES
-----------------------
   0 C :   -0.321960
   1 N :   -0.048239
   2 C :   -0.008957
   3 N :   -0.280984
   4 C :    0.088515
   5 C :    0.071189
   6 C :   -0.270241
   7 C :   -0.048874
   8 N :   -0.294474
   9 H :    0.151873
  10 H :    0.146683
  11 H :    0.151860
  12 H :    0.142867
  13 H :    0.129170
  14 H :    0.143856
  15 H :    0.247717
Sum of atomic charges:   -0.0000000

LOEWDIN ATOMIC CHARGES
----------------------
   0 C :   -0.271959
   1 N :    0.233597
   2 C :   -0.294820
   3 N :    0.094026
   4 C :   -0.302134
   5 C :   -0.202555
   6 C :   -0.191335
   7 C :   -0.222602
   8 N :    0.188964
   9 H :    0.123914
  10 H :    0.128699
  11 H :    0.123918
  12 H :    0.130022
  13 H :    0.137912
  14 H :    0.132247
  15 H :    0.192106

  Mayer bond orders larger than 0.1
B(  0-C ,  1-N ) :   0.8727 B(  0-C ,  9-H ) :   0.9297 B(  0-C , 10-H ) :   0.9310
B(  0-C , 11-H ) :   0.9297 B(  1-N ,  2-C ) :   1.1554 B(  1-N ,  5-C ) :   1.1030
B(  2-C ,  3-N ) :   1.5282 B(  2-C , 12-H ) :   0.9236 B(  3-N ,  4-C ) :   1.3543
B(  4-C ,  5-C ) :   1.3154 B(  4-C ,  8-N ) :   1.1162 B(  5-C ,  6-C ) :   1.1819
B(  6-C ,  7-C ) :   1.5285 B(  6-C , 13-H ) :   0.9256 B(  7-C ,  8-N ) :   1.1012
B(  7-C , 14-H ) :   0.9192 B(  8-N , 15-H ) :   0.8693

MP2 TOTAL ENERGY:     -396.281546407 Eh
FINAL SINGLE POINT ENERGY      -396.281546407095

DIPOLE MOMENT
-------------
                                X             Y             Z
Electronic contribution:     -0.05744      -5.08061      -0.59302
Nuclear contribution   :      0.08514       5.82767       1.06413
                        -----------------------------------------
Total Dipole Moment    :      0.02770       0.74706       0.47111
                        -----------------------------------------
Magnitude (a.u.)       :      0.88363
Magnitude (Debye)      :      2.24601

                             ****ORCA TERMINATED NORMALLY****
TOTAL RUN TIME: 0 days 0 hours 16 minutes 26 seconds 248 msec
