                         Program Version 3.0.3 - RELEASE   -
|  1> ! RI-MP2 RIJK def2-TZVP def2-TZVP/C def2-TZVP/JK TIGHTSCF
|  2> % maxcore 2000
|  3> % mp2 density relaxed end
|  4> *xyz 0 1
|  5>  C       -0.2971820560     1.3878002096    -0.0698278270
|  6>  O       -0.2294142452    -0.0158465294    -0.1101080838
|  7>  C        0.7743825111    -0.4859043273    -0.9872547039
|  8>  C        0.7446783750    -1.9916538773    -0.9523607264
|  9>  C        0.0187034258    -2.7960515433    -2.0208462938
| 10>  O       -0.5493643259    -2.1482236473    -3.1172501626
| 11>  C        1.5277328110    -2.8227100418    -1.9372211366
| 12>  O        2.1979154324    -2.1252816926    -2.9521592149
| 13>  C        2.6364331150    -2.9820853354    -3.9974067758
| 14>  H        0.6494408879     1.8353500414     0.2750974465
| 15>  H       -0.5359697558     1.8156988945    -1.0567637837
| 16>  H       -1.0903048598     1.6578644862     0.6318506680
| 17>  H        0.5983156203    -0.1140337472    -2.0070720278
| 18>  H        1.7630736301    -0.1113024816    -0.6717376590
| 19>  H        0.7053219784    -2.3923948352     0.0567020693
| 20>  H       -0.5632805909    -3.6610116794    -1.7198631440
| 21>  H        0.1817010438    -1.7499572272    -3.6082064658
| 22>  H        2.0551341040    -3.7086585508    -1.5838905804
| 23>  H        1.7972097823    -3.5106242929    -4.4690478168
| 24>  H        3.1331333469    -2.3528039548    -4.7391488535
| 25>  H        3.3528650596    -3.7262856483    -3.6217216679
| 26> *
| 27>
| 28>                          ****END OF INPUT****

CARTESIAN COORDINATES (ANGSTROEM)
---------------------------------
  C     -0.297182    1.387800   -0.069828
  O     -0.229414   -0.015847   -0.110108
  C      0.774383   -0.485904   -0.987255
  C      0.744678   -1.991654   -0.952361
  C      0.018703   -2.796052   -2.020846
  O     -0.549364   -2.148224   -3.117250
  C      1.527733   -2.822710   -1.937221
  O      2.197915   -2.125282   -2.952159
  C      2.636433   -2.982085   -3.997407
  H      0.649441    1.835350    0.275097
  H     -0.535970    1.815699   -1.056764
  H     -1.090305    1.657864    0.631851
  H      0.598316   -0.114034   -2.007072
  H      1.763074   -0.111302   -0.671738
  H      0.705322   -2.392395    0.056702
  H     -0.563281   -3.661012   -1.719863
  H      0.181701   -1.749957   -3.608206
  H      2.055134   -3.708659   -1.583891
  H      1.797210   -3.510624   -4.469048
  H      3.133133   -2.352804   -4.739149
  H      3.352865   -3.726286   -3.621722

 Total Charge           Charge          ....    0
 Multiplicity           Mult            ....    1
 Number of Electrons    NEL             ....   72
 Basis Dimension        Dim             ....  351

ORBITAL ENERGIES
----------------

  NO   OCC          E(Eh)            E(eV)
   0   2.0000     -20.578549      -559.9708
   1   2.0000     -20.557315      -559.3930
   2   2.0000     -20.549388      -559.1773
   3   2.0000     -11.287232      -307.1412
   4   2.0000     -11.284879      -307.0772
   5   2.0000     -11.281181      -306.9765
   6   2.0000     -11.273596      -306.7701
   7   2.0000     -11.265293      -306.5442
   8   2.0000     -11.228778      -305.5506
   9   2.0000      -1.404460       -38.2173
  10   2.0000      -1.370935       -37.3050
  11   2.0000      -1.361520       -37.0488
  12   2.0000      -1.127766       -30.6881
  13   2.0000      -0.976881       -26.5823
  14   2.0000      -0.942114       -25.6362
  15   2.0000      -0.883006       -24.0278
  16   2.0000      -0.816853       -22.2277
  17   2.0000      -0.786152       -21.3923
  18   2.0000      -0.731120       -19.8948
  19   2.0000      -0.686779       -18.6882
  20   2.0000      -0.665372       -18.1057
  21   2.0000      -0.657850       -17.9010
  22   2.0000      -0.630755       -17.1637
  23   2.0000      -0.619292       -16.8518
  24   2.0000      -0.608498       -16.5581
  25   2.0000      -0.605206       -16.4685
  26   2.0000      -0.575349       -15.6561
  27   2.0000      -0.550912       -14.9911
  28   2.0000      -0.526987       -14.3401
  29   2.0000      -0.517872       -14.0920
  30   2.0000      -0.507991       -13.8231
  31   2.0000      -0.482257       -13.1229
  32   2.0000      -0.471259       -12.8236
  33   2.0000      -0.421852       -11.4792
  34   2.0000      -0.404443       -11.0054
  35   2.0000      -0.374888       -10.2012
  36   0.0000       0.138975         3.7817
  37   0.0000       0.151907         4.1336
  38   0.0000       0.160457         4.3662
  39   0.0000       0.178972         4.8701
  40   0.0000       0.192855         5.2478

MULLIKEN ATOMIC CHARGES
-----------------------
   0 C :   -0.217632
   1 O :   -0.297428
   2 C :   -0.018433
   3 C :   -0.094976
   4 C :    0.040030
   5 O :   -0.467900
   6 C :    0.006846
   7 O :   -0.336418
   8 C :   -0.240426
   9 H :    0.107934
  10 H :    0.112127
  11 H :    0.138167
  12 H :    0.070323
  13 H :    0.099532
  14 H :    0.125882
  15 H :    0.124514
  16 H :    0.331238
  17 H :    0.110844
  18 H :    0.136751
  19 H :    0.145414
  20 H :    0.123613
Sum of atomic charges:    0.0000000

LOEWDIN ATOMIC CHARGES
----------------------
   0 C :   -0.363860
   1 O :    0.137947
   2 C :   -0.303001
   3 C :   -0.196258
   4 C :   -0.296622
   5 O :    0.006795
   6 C :   -0.289043
   7 O :    0.154092
   8 C :   -0.346297
   9 H :    0.099967
  10 H :    0.101564
  11 H :    0.113169
  12 H :    0.121963
  13 H :    0.123780
  14 H :    0.157400
  15 H :    0.136980
  16 H :    0.178457
  17 H :    0.133564
  18 H :    0.107791
  19 H :    0.115124
  20 H :    0.106489

  Mayer bond orders larger than 0.1
B(  0-C ,  1-O ) :   0.9229 B(  0-C ,  9-H ) :   0.9370 B(  0-C , 10-H ) :   0.9366
B(  0-C , 11-H ) :   0.9398 B(  1-O ,  2-C ) :   0.9560 B(  2-C ,  3-C ) :   0.9562
B(  2-C , 12-H ) :   0.9004 B(  2-C , 13-H ) :   0.9293 B(  3-C ,  4-C ) :   0.8640
B(  3-C ,  6-C ) :   0.8531 B(  3-C , 14-H ) :   0.9042 B(  4-C ,  5-O ) :   0.9685
B(  4-C ,  6-C ) :   0.9053 B(  4-C , 15-H ) :   0.9385 B(  5-O , 16-H ) :   0.8188
B(  6-C ,  7-O ) :   0.9296 B(  6-C , 17-H ) :   0.9229 B(  7-O ,  8-C ) :   0.8799
B(  8-C , 18-H ) :   0.9353 B(  8-C , 19-H ) :   0.9374 B(  8-C , 20-H ) :   0.9366

MP2 TOTAL ENERGY:     -460.570913634 Eh
FINAL SINGLE POINT ENERGY      -460.570913633974

DIPOLE MOMENT
-------------
                                X             Y             Z
Electronic contribution:     -1.87609      -2.34300       0.31913
Nuclear contribution   :      2.79084       2.11275      -0.58127
                        -----------------------------------------
Total Dipole Moment    :      0.91475      -0.23024      -0.26214
                        -----------------------------------------
Magnitude (a.u.)       :      0.97903
Magnitude (Debye)      :      2.48849

                             ****ORCA TERMINATED NORMALLY****
TOTAL RUN TIME: 0 days 0 hours 15 minutes 28 seconds 706 msec
