                         Program Version 3.0.3 - RELEASE   -
|  1> ! RI-MP2 RIJK def2-TZVP def2-TZVP/C def2-TZVP/JK TIGHTSCF
|  2> % maxcore 2000
|  3> % mp2 density relaxed end
|  4> *xyz 0 1
|  5>  C       -0.0556464231     1.5359746640    -0.1984032467
|  6>  C        1.4024005193     2.0182200610    -0.0440895089
|  7>  C        2.2223337937     0.7976737827    -0.4976916507
|  8>  C        3.6716645699     0.6928525806    -0.0342810099
|  9>  O        4.1794941102    -0.5997208037    -0.3321023133
| 10>  C        3.5310951816    -1.6411809209     0.3744006056
| 11>  C        2.0390010608    -1.4672723453     0.4964659046
| 12>  C        1.4315872376    -0.3634375313     0.0729804246
| 13>  C       -0.0256596033     0.0406458595     0.2156515675
| 14>  H       -0.7629903414     2.1236115573     0.3923527130
| 15>  H       -0.3597948919     1.6274492963    -1.2471486568
| 16>  H        1.6158852840     2.9245898479    -0.6179039764
| 17>  H        1.6175406079     2.2355899665     1.0104806678
| 18>  H        2.2080692544     0.7521952317    -1.5969581125
| 19>  H        4.3273468523     1.3993763965    -0.5518741839
| 20>  H        3.7325100986     0.8977764773     1.0480840230
| 21>  H        3.7747671164    -2.5649440370    -0.1655912596
| 22>  H        3.9651174438    -1.7463493679     1.3868697972
| 23>  H        1.4962916263    -2.2712514313     0.9892383483
| 24>  H       -0.3610994063    -0.0930124433     1.2505419311
| 25>  H       -0.6906784808    -0.5681445004    -0.4063855441
| 26> *
| 27>
| 28>                          ****END OF INPUT****

CARTESIAN COORDINATES (ANGSTROEM)
---------------------------------
  C     -0.055646    1.535975   -0.198403
  C      1.402401    2.018220   -0.044090
  C      2.222334    0.797674   -0.497692
  C      3.671665    0.692853   -0.034281
  O      4.179494   -0.599721   -0.332102
  C      3.531095   -1.641181    0.374401
  C      2.039001   -1.467272    0.496466
  C      1.431587   -0.363438    0.072980
  C     -0.025660    0.040646    0.215652
  H     -0.762990    2.123612    0.392353
  H     -0.359795    1.627449   -1.247149
  H      1.615885    2.924590   -0.617904
  H      1.617541    2.235590    1.010481
  H      2.208069    0.752195   -1.596958
  H      4.327347    1.399376   -0.551874
  H      3.732510    0.897776    1.048084
  H      3.774767   -2.564944   -0.165591
  H      3.965117   -1.746349    1.386870
  H      1.496292   -2.271251    0.989238
  H     -0.361099   -0.093012    1.250542
  H     -0.690678   -0.568145   -0.406386

 Total Charge           Charge          ....    0
 Multiplicity           Mult            ....    1
 Number of Electrons    NEL             ....   68
 Basis Dimension        Dim             ....  351

ORBITAL ENERGIES
----------------

  NO   OCC          E(Eh)            E(eV)
   0   2.0000     -20.547782      -559.1336
   1   2.0000     -11.272992      -306.7537
   2   2.0000     -11.269119      -306.6483
   3   2.0000     -11.227441      -305.5142
   4   2.0000     -11.224969      -305.4469
   5   2.0000     -11.224419      -305.4320
   6   2.0000     -11.223776      -305.4145
   7   2.0000     -11.223237      -305.3998
   8   2.0000     -11.216801      -305.2247
   9   2.0000      -1.369050       -37.2537
  10   2.0000      -1.137161       -30.9437
  11   2.0000      -1.041255       -28.3340
  12   2.0000      -1.005829       -27.3700
  13   2.0000      -0.952061       -25.9069
  14   2.0000      -0.858246       -23.3541
  15   2.0000      -0.837935       -22.8014
  16   2.0000      -0.788568       -21.4580
  17   2.0000      -0.709693       -19.3117
  18   2.0000      -0.672193       -18.2913
  19   2.0000      -0.647242       -17.6123
  20   2.0000      -0.636176       -17.3112
  21   2.0000      -0.615979       -16.7616
  22   2.0000      -0.604752       -16.4561
  23   2.0000      -0.563316       -15.3286
  24   2.0000      -0.546908       -14.8821
  25   2.0000      -0.532620       -14.4933
  26   2.0000      -0.531279       -14.4568
  27   2.0000      -0.495293       -13.4776
  28   2.0000      -0.478255       -13.0140
  29   2.0000      -0.468830       -12.7575
  30   2.0000      -0.464644       -12.6436
  31   2.0000      -0.442648       -12.0451
  32   2.0000      -0.407387       -11.0856
  33   2.0000      -0.336786        -9.1644
  34   0.0000       0.132731         3.6118
  35   0.0000       0.147925         4.0252
  36   0.0000       0.155538         4.2324
  37   0.0000       0.165871         4.5136
  38   0.0000       0.181417         4.9366

MULLIKEN ATOMIC CHARGES
-----------------------
   0 C :   -0.210428
   1 C :   -0.244357
   2 C :   -0.011163
   3 C :   -0.062892
   4 O :   -0.313293
   5 C :   -0.003602
   6 C :   -0.217770
   7 C :   -0.073148
   8 C :   -0.235129
   9 H :    0.124505
  10 H :    0.111658
  11 H :    0.122728
  12 H :    0.109153
  13 H :    0.093746
  14 H :    0.121031
  15 H :    0.091836
  16 H :    0.126222
  17 H :    0.095966
  18 H :    0.123221
  19 H :    0.122701
  20 H :    0.129014
Sum of atomic charges:    0.0000000

LOEWDIN ATOMIC CHARGES
----------------------
   0 C :   -0.247627
   1 C :   -0.228533
   2 C :   -0.219126
   3 C :   -0.284386
   4 O :    0.156883
   5 C :   -0.307432
   6 C :   -0.156579
   7 C :   -0.146221
   8 C :   -0.212937
   9 H :    0.131425
  10 H :    0.136179
  11 H :    0.133252
  12 H :    0.139295
  13 H :    0.162059
  14 H :    0.129325
  15 H :    0.124665
  16 H :    0.135199
  17 H :    0.125687
  18 H :    0.144314
  19 H :    0.143213
  20 H :    0.141345

  Mayer bond orders larger than 0.1
B(  0-C ,  1-C ) :   0.9225 B(  0-C ,  8-C ) :   0.9640 B(  0-C ,  9-H ) :   0.9321
B(  0-C , 10-H ) :   0.9311 B(  1-C ,  2-C ) :   0.9156 B(  1-C , 11-H ) :   0.9304
B(  1-C , 12-H ) :   0.9211 B(  2-C ,  3-C ) :   0.9346 B(  2-C ,  7-C ) :   0.9201
B(  2-C , 13-H ) :   0.9028 B(  3-C ,  4-O ) :   0.9167 B(  3-C , 14-H ) :   0.9262
B(  3-C , 15-H ) :   0.9361 B(  4-O ,  5-C ) :   0.9516 B(  5-C ,  6-C ) :   0.9315
B(  5-C , 16-H ) :   0.9202 B(  5-C , 17-H ) :   0.9333 B(  6-C ,  7-C ) :   1.7594
B(  6-C , 18-H ) :   0.9156 B(  7-C ,  8-C ) :   0.9059 B(  8-C , 19-H ) :   0.9162
B(  8-C , 20-H ) :   0.9275

MP2 TOTAL ENERGY:     -386.432065443 Eh
FINAL SINGLE POINT ENERGY      -386.432065443139

DIPOLE MOMENT
-------------
                                X             Y             Z
Electronic contribution:      3.57712      -2.89706      -1.03714
Nuclear contribution   :     -4.09889       3.09659       1.32059
                        -----------------------------------------
Total Dipole Moment    :     -0.52177       0.19953       0.28346
                        -----------------------------------------
Magnitude (a.u.)       :      0.62642
Magnitude (Debye)      :      1.59223

                             ****ORCA TERMINATED NORMALLY****
TOTAL RUN TIME: 0 days 0 hours 20 minutes 57 seconds 202 msec
