                         Program Version 3.0.3 - RELEASE   -
|  1> ! RI-MP2 RIJK def2-TZVP def2-TZVP/C def2-TZVP/JK TIGHTSCF
|  2> % maxcore 2000
|  3> % mp2 density relaxed end
|  4> *xyz 0 1
|  5>  C       -0.0481745569     1.5567602991    -0.0341090629
|  6>  C        0.0976477477     0.0477654307    -0.0963258552
|  7>  C        0.7033130719    -0.7317097194    -1.2073387019
|  8>  C        1.3817404465    -0.7109165333     0.2172401363
|  9>  C        2.5664833043    -0.1037908889    -0.4425740817
| 10>  O        3.7389591969    -0.0662321810    -0.1738402375
| 11>  C        1.8825904092     0.0208717971    -1.8377139468
| 12>  O        2.5896557862    -0.7431003088    -2.7865625882
| 13>  H        0.8270903141     2.0831794350    -0.4206493681
| 14>  H       -0.9190915059     1.8830234247    -0.6125444538
| 15>  H       -0.1946034732     1.8784585608     1.0017450127
| 16>  H       -0.7495977287    -0.4716122244     0.3486712721
| 17>  H        0.2358160790    -1.5898656067    -1.6714980843
| 18>  H        1.4197256141    -1.4678681102     0.9915533949
| 19>  H        1.6553848591     1.0218825642    -2.2247866862
| 20>  H        3.5278214557    -0.6411234988    -2.5812199895
| 21> *
| 22>
| 23>                          ****END OF INPUT****

CARTESIAN COORDINATES (ANGSTROEM)
---------------------------------
  C     -0.048175    1.556760   -0.034109
  C      0.097648    0.047765   -0.096326
  C      0.703313   -0.731710   -1.207339
  C      1.381740   -0.710917    0.217240
  C      2.566483   -0.103791   -0.442574
  O      3.738959   -0.066232   -0.173840
  C      1.882590    0.020872   -1.837714
  O      2.589656   -0.743100   -2.786563
  H      0.827090    2.083179   -0.420649
  H     -0.919092    1.883023   -0.612544
  H     -0.194603    1.878459    1.001745
  H     -0.749598   -0.471612    0.348671
  H      0.235816   -1.589866   -1.671498
  H      1.419726   -1.467868    0.991553
  H      1.655385    1.021883   -2.224787
  H      3.527821   -0.641123   -2.581220

 Total Charge           Charge          ....    0
 Multiplicity           Mult            ....    1
 Number of Electrons    NEL             ....   60
 Basis Dimension        Dim             ....  296

ORBITAL ENERGIES
----------------

  NO   OCC          E(Eh)            E(eV)
   0   2.0000     -20.569960      -559.7371
   1   2.0000     -20.553381      -559.2859
   2   2.0000     -11.339293      -308.5578
   3   2.0000     -11.302884      -307.5671
   4   2.0000     -11.270421      -306.6837
   5   2.0000     -11.266358      -306.5732
   6   2.0000     -11.257822      -306.3409
   7   2.0000     -11.237406      -305.7854
   8   2.0000      -1.404388       -38.2153
   9   2.0000      -1.371546       -37.3217
  10   2.0000      -1.211525       -32.9673
  11   2.0000      -1.016399       -27.6576
  12   2.0000      -0.946342       -25.7513
  13   2.0000      -0.891386       -24.2558
  14   2.0000      -0.782230       -21.2856
  15   2.0000      -0.752219       -20.4689
  16   2.0000      -0.704970       -19.1832
  17   2.0000      -0.677754       -18.4426
  18   2.0000      -0.667103       -18.1528
  19   2.0000      -0.632288       -17.2054
  20   2.0000      -0.591295       -16.0900
  21   2.0000      -0.583278       -15.8718
  22   2.0000      -0.573911       -15.6169
  23   2.0000      -0.553888       -15.0721
  24   2.0000      -0.535483       -14.5712
  25   2.0000      -0.523742       -14.2518
  26   2.0000      -0.467036       -12.7087
  27   2.0000      -0.445235       -12.1155
  28   2.0000      -0.410804       -11.1786
  29   2.0000      -0.395078       -10.7506
  30   0.0000       0.124122         3.3775
  31   0.0000       0.136974         3.7272
  32   0.0000       0.149468         4.0672
  33   0.0000       0.168555         4.5866
  34   0.0000       0.183222         4.9857

MULLIKEN ATOMIC CHARGES
-----------------------
   0 C :   -0.384007
   1 C :   -0.093340
   2 C :   -0.098898
   3 C :   -0.110257
   4 C :    0.067159
   5 O :   -0.283108
   6 C :    0.069578
   7 O :   -0.479784
   8 H :    0.137572
   9 H :    0.138642
  10 H :    0.141769
  11 H :    0.131016
  12 H :    0.162383
  13 H :    0.154335
  14 H :    0.111867
  15 H :    0.335072
Sum of atomic charges:    0.0000000

LOEWDIN ATOMIC CHARGES
----------------------
   0 C :   -0.283611
   1 C :   -0.204741
   2 C :   -0.111396
   3 C :   -0.110422
   4 C :   -0.314528
   5 O :    0.144162
   6 C :   -0.277158
   7 O :   -0.004230
   8 H :    0.128225
   9 H :    0.129194
  10 H :    0.130403
  11 H :    0.163636
  12 H :    0.147062
  13 H :    0.144696
  14 H :    0.130971
  15 H :    0.187737

  Mayer bond orders larger than 0.1
B(  0-C ,  1-C ) :   0.9183 B(  0-C ,  8-H ) :   0.9330 B(  0-C ,  9-H ) :   0.9345
B(  0-C , 10-H ) :   0.9358 B(  1-C ,  2-C ) :   0.8730 B(  1-C ,  3-C ) :   0.8031
B(  1-C , 11-H ) :   0.9236 B(  2-C ,  3-C ) :   0.8100 B(  2-C ,  6-C ) :   0.8679
B(  2-C , 12-H ) :   0.9167 B(  3-C ,  4-C ) :   0.9047 B(  3-C ,  6-C ) :  -0.1169
B(  3-C , 13-H ) :   0.9093 B(  4-C ,  5-O ) :   1.9864 B(  4-C ,  6-C ) :   0.9268
B(  6-C ,  7-O ) :   0.9629 B(  6-C , 14-H ) :   0.9419 B(  7-O , 15-H ) :   0.8256

MP2 TOTAL ENERGY:     -383.085846124 Eh
FINAL SINGLE POINT ENERGY      -383.085846123627

DIPOLE MOMENT
-------------
                                X             Y             Z
Electronic contribution:      5.87394      -2.97906      -1.12241
Nuclear contribution   :     -6.97361       3.14119       1.38491
                        -----------------------------------------
Total Dipole Moment    :     -1.09966       0.16213       0.26250
                        -----------------------------------------
Magnitude (a.u.)       :      1.14213
Magnitude (Debye)      :      2.90306

                             ****ORCA TERMINATED NORMALLY****
TOTAL RUN TIME: 0 days 0 hours 13 minutes 36 seconds 911 msec
