                         Program Version 3.0.3 - RELEASE   -
|  1> ! RI-MP2 RIJK def2-TZVP def2-TZVP/C def2-TZVP/JK TIGHTSCF
|  2> % maxcore 2000
|  3> % mp2 density relaxed end
|  4> *xyz 0 1
|  5>  C       -0.4545960942     1.6188450457     0.1389299492
|  6>  C       -0.0661150223     0.1480261841     0.0880275391
|  7>  C       -1.2344746924    -0.7403905420    -0.3731147460
|  8>  O       -1.5264296687    -0.5572817570    -1.7484186433
|  9>  N        1.1800792542    -0.1108636456    -0.6769019800
| 10>  C        1.6967751500    -1.0244916136     0.3617412826
| 11>  C        0.6196028177    -0.4888198269     1.3569005811
| 12>  C        1.1088077045     0.4424659973     2.3570630482
| 13>  N        1.4938753621     1.1848924055     3.1557465729
| 14>  H        0.3851221055     2.2293307327     0.4753259832
| 15>  H       -0.7324228694     1.9686426283    -0.8618528243
| 16>  H       -1.3019987930     1.7859272331     0.8129675963
| 17>  H       -0.9612425539    -1.7967843957    -0.2730904576
| 18>  H       -2.1172670088    -0.5645810921     0.2611510814
| 19>  H       -1.9335657027     0.3075394893    -1.8603859491
| 20>  H        1.0117162592    -0.5216928347    -1.5902249337
| 21>  H        1.5640536104    -2.0951372371     0.1629499558
| 22>  H        2.7380677226    -0.8437524024     0.6410504770
| 23>  H        0.0221335091    -1.2571381790     1.8539925272
| 24> *
| 25>
| 26>                          ****END OF INPUT****

CARTESIAN COORDINATES (ANGSTROEM)
---------------------------------
  C     -0.454596    1.618845    0.138930
  C     -0.066115    0.148026    0.088028
  C     -1.234475   -0.740391   -0.373115
  O     -1.526430   -0.557282   -1.748419
  N      1.180079   -0.110864   -0.676902
  C      1.696775   -1.024492    0.361741
  C      0.619603   -0.488820    1.356901
  C      1.108808    0.442466    2.357063
  N      1.493875    1.184892    3.155747
  H      0.385122    2.229331    0.475326
  H     -0.732423    1.968643   -0.861853
  H     -1.301999    1.785927    0.812968
  H     -0.961243   -1.796784   -0.273090
  H     -2.117267   -0.564581    0.261151
  H     -1.933566    0.307539   -1.860386
  H      1.011716   -0.521693   -1.590225
  H      1.564054   -2.095137    0.162950
  H      2.738068   -0.843752    0.641050
  H      0.022134   -1.257138    1.853993

 Total Charge           Charge          ....    0
 Multiplicity           Mult            ....    1
 Number of Electrons    NEL             ....   68
 Basis Dimension        Dim             ....  339

ORBITAL ENERGIES
----------------

  NO   OCC          E(Eh)            E(eV)
   0   2.0000     -20.579032      -559.9839
   1   2.0000     -15.569518      -423.6681
   2   2.0000     -15.557372      -423.3376
   3   2.0000     -11.298307      -307.4426
   4   2.0000     -11.293677      -307.3166
   5   2.0000     -11.288320      -307.1708
   6   2.0000     -11.282046      -307.0001
   7   2.0000     -11.273393      -306.7646
   8   2.0000     -11.229678      -305.5751
   9   2.0000      -1.384829       -37.6831
  10   2.0000      -1.264558       -34.4104
  11   2.0000      -1.214975       -33.0611
  12   2.0000      -1.047812       -28.5124
  13   2.0000      -1.024568       -27.8799
  14   2.0000      -0.950619       -25.8677
  15   2.0000      -0.881192       -23.9785
  16   2.0000      -0.800678       -21.7876
  17   2.0000      -0.729110       -19.8401
  18   2.0000      -0.710600       -19.3364
  19   2.0000      -0.690479       -18.7889
  20   2.0000      -0.629634       -17.1332
  21   2.0000      -0.614372       -16.7179
  22   2.0000      -0.606495       -16.5036
  23   2.0000      -0.594011       -16.1639
  24   2.0000      -0.564237       -15.3537
  25   2.0000      -0.560640       -15.2558
  26   2.0000      -0.544870       -14.8267
  27   2.0000      -0.522771       -14.2253
  28   2.0000      -0.509584       -13.8665
  29   2.0000      -0.493588       -13.4312
  30   2.0000      -0.481160       -13.0930
  31   2.0000      -0.453434       -12.3386
  32   2.0000      -0.436034       -11.8651
  33   2.0000      -0.390712       -10.6318
  34   0.0000       0.115154         3.1335
  35   0.0000       0.131605         3.5811
  36   0.0000       0.148011         4.0276
  37   0.0000       0.161053         4.3825
  38   0.0000       0.176873         4.8130

MULLIKEN ATOMIC CHARGES
-----------------------
   0 C :   -0.388799
   1 C :    0.063494
   2 C :   -0.064166
   3 O :   -0.464350
   4 N :   -0.330360
   5 C :   -0.162879
   6 C :    0.068839
   7 C :   -0.273167
   8 N :   -0.049012
   9 H :    0.160972
  10 H :    0.120184
  11 H :    0.134207
  12 H :    0.120415
  13 H :    0.119634
  14 H :    0.321329
  15 H :    0.218259
  16 H :    0.122522
  17 H :    0.130140
  18 H :    0.152738
Sum of atomic charges:   -0.0000000

LOEWDIN ATOMIC CHARGES
----------------------
   0 C :   -0.269926
   1 C :   -0.313209
   2 C :   -0.312568
   3 O :   -0.036050
   4 N :    0.031602
   5 C :   -0.228238
   6 C :   -0.177739
   7 C :   -0.173710
   8 N :    0.063797
   9 H :    0.138924
  10 H :    0.125995
  11 H :    0.130326
  12 H :    0.135218
  13 H :    0.125145
  14 H :    0.175973
  15 H :    0.163215
  16 H :    0.122251
  17 H :    0.128694
  18 H :    0.170301

  Mayer bond orders larger than 0.1
B(  0-C ,  1-C ) :   0.8943 B(  0-C ,  9-H ) :   0.9303 B(  0-C , 10-H ) :   0.9293
B(  0-C , 11-H ) :   0.9297 B(  1-C ,  2-C ) :   0.9636 B(  1-C ,  4-N ) :   1.0217
B(  1-C ,  6-C ) :   0.8051 B(  2-C ,  3-O ) :   0.9307 B(  2-C , 12-H ) :   0.9087
B(  2-C , 13-H ) :   0.9435 B(  3-O , 14-H ) :   0.8434 B(  4-N ,  5-C ) :   0.9970
B(  4-N , 15-H ) :   0.8754 B(  5-C ,  6-C ) :   0.8722 B(  5-C , 16-H ) :   0.9187
B(  5-C , 17-H ) :   0.9102 B(  6-C ,  7-C ) :   0.9332 B(  6-C , 18-H ) :   0.9069
B(  7-C ,  8-N ) :   2.8669

MP2 TOTAL ENERGY:     -418.498141999 Eh
FINAL SINGLE POINT ENERGY      -418.498141999114

DIPOLE MOMENT
-------------
                                X             Y             Z
Electronic contribution:      2.69961       0.28023       3.60512
Nuclear contribution   :     -3.61926      -1.09930      -4.36123
                        -----------------------------------------
Total Dipole Moment    :     -0.91965      -0.81906      -0.75611
                        -----------------------------------------
Magnitude (a.u.)       :      1.44511
Magnitude (Debye)      :      3.67317

                             ****ORCA TERMINATED NORMALLY****
TOTAL RUN TIME: 0 days 0 hours 17 minutes 21 seconds 330 msec
