                         Program Version 3.0.3 - RELEASE   -
|  1> ! RI-MP2 RIJK def2-TZVP def2-TZVP/C def2-TZVP/JK TIGHTSCF
|  2> % maxcore 2000
|  3> % mp2 density relaxed end
|  4> *xyz 0 1
|  5>  C       -0.0694205601     1.5865916244     0.0186380374
|  6>  C        0.1527506125     0.0753111618    -0.0989276519
|  7>  C        0.7147693993    -0.5372536710     1.1797570447
|  8>  C       -0.1926400832    -0.6262282962     2.4514673928
|  9>  C        0.0864839744    -2.1532485080     2.5445762709
| 10>  N       -0.8519019203    -3.0028085868     1.8085885899
| 11>  C       -0.1903395601    -2.9076206967     0.5951191108
| 12>  O       -0.4665686421    -3.2957096253    -0.5082228124
| 13>  C        0.9462159060    -2.0851048635     1.2396053389
| 14>  H        0.8688667152     2.1103089334     0.2340537897
| 15>  H       -0.4758303257     1.9996140384    -0.9094061557
| 16>  H       -0.7729054843     1.8260699780     0.8238205106
| 17>  H       -0.7890974515    -0.4197274779    -0.3636409552
| 18>  H        0.8421864160    -0.1343121407    -0.9263971598
| 19>  H        1.6526983587    -0.0327809865     1.4353526722
| 20>  H        0.1782586847    -0.0518078550     3.3033028450
| 21>  H       -1.2471583410    -0.3799248897     2.2986376077
| 22>  H        0.4404675808    -2.5685121261     3.4884428513
| 23>  H       -1.8348225610    -3.1752727198     1.9761746139
| 24>  H        1.9607917816    -2.4672165630     1.1429108192
| 25> *
| 26>
| 27>                          ****END OF INPUT****

CARTESIAN COORDINATES (ANGSTROEM)
---------------------------------
  C     -0.069421    1.586592    0.018638
  C      0.152751    0.075311   -0.098928
  C      0.714769   -0.537254    1.179757
  C     -0.192640   -0.626228    2.451467
  C      0.086484   -2.153249    2.544576
  N     -0.851902   -3.002809    1.808589
  C     -0.190340   -2.907621    0.595119
  O     -0.466569   -3.295710   -0.508223
  C      0.946216   -2.085105    1.239605
  H      0.868867    2.110309    0.234054
  H     -0.475830    1.999614   -0.909406
  H     -0.772905    1.826070    0.823821
  H     -0.789097   -0.419727   -0.363641
  H      0.842186   -0.134312   -0.926397
  H      1.652698   -0.032781    1.435353
  H      0.178259   -0.051808    3.303303
  H     -1.247158   -0.379925    2.298638
  H      0.440468   -2.568512    3.488443
  H     -1.834823   -3.175273    1.976175
  H      1.960792   -2.467217    1.142911

 Total Charge           Charge          ....    0
 Multiplicity           Mult            ....    1
 Number of Electrons    NEL             ....   68
 Basis Dimension        Dim             ....  345

ORBITAL ENERGIES
----------------

  NO   OCC          E(Eh)            E(eV)
   0   2.0000     -20.524211      -558.4922
   1   2.0000     -15.581612      -423.9972
   2   2.0000     -11.347921      -308.7926
   3   2.0000     -11.280639      -306.9618
   4   2.0000     -11.246683      -306.0378
   5   2.0000     -11.245439      -306.0040
   6   2.0000     -11.234708      -305.7119
   7   2.0000     -11.222932      -305.3915
   8   2.0000     -11.217304      -305.2384
   9   2.0000      -1.385813       -37.7099
  10   2.0000      -1.273275       -34.6476
  11   2.0000      -1.113211       -30.2920
  12   2.0000      -1.026497       -27.9324
  13   2.0000      -0.951480       -25.8911
  14   2.0000      -0.904305       -24.6074
  15   2.0000      -0.833035       -22.6680
  16   2.0000      -0.803204       -21.8563
  17   2.0000      -0.733258       -19.9530
  18   2.0000      -0.695135       -18.9156
  19   2.0000      -0.664963       -18.0946
  20   2.0000      -0.653013       -17.7694
  21   2.0000      -0.617402       -16.8004
  22   2.0000      -0.585654       -15.9364
  23   2.0000      -0.572065       -15.5667
  24   2.0000      -0.565632       -15.3916
  25   2.0000      -0.550219       -14.9722
  26   2.0000      -0.519899       -14.1472
  27   2.0000      -0.512408       -13.9433
  28   2.0000      -0.484384       -13.1808
  29   2.0000      -0.476767       -12.9735
  30   2.0000      -0.453234       -12.3331
  31   2.0000      -0.440649       -11.9907
  32   2.0000      -0.410982       -11.1834
  33   2.0000      -0.388058       -10.5596
  34   0.0000       0.129896         3.5347
  35   0.0000       0.137609         3.7445
  36   0.0000       0.151288         4.1168
  37   0.0000       0.163570         4.4510
  38   0.0000       0.186938         5.0868

MULLIKEN ATOMIC CHARGES
-----------------------
   0 C :   -0.390500
   1 C :   -0.222025
   2 C :   -0.113610
   3 C :   -0.240928
   4 C :   -0.020971
   5 N :   -0.316397
   6 C :    0.162238
   7 O :   -0.309500
   8 C :   -0.019780
   9 H :    0.121845
  10 H :    0.138801
  11 H :    0.124463
  12 H :    0.122062
  13 H :    0.121271
  14 H :    0.102673
  15 H :    0.124646
  16 H :    0.110377
  17 H :    0.128588
  18 H :    0.231625
  19 H :    0.145120
Sum of atomic charges:   -0.0000000

LOEWDIN ATOMIC CHARGES
----------------------
   0 C :   -0.315794
   1 C :   -0.273879
   2 C :   -0.207623
   3 C :   -0.200820
   4 C :   -0.208331
   5 N :    0.136839
   6 C :   -0.422825
   7 O :    0.105887
   8 C :   -0.124391
   9 H :    0.120521
  10 H :    0.122548
  11 H :    0.120173
  12 H :    0.142367
  13 H :    0.143190
  14 H :    0.153052
  15 H :    0.132662
  16 H :    0.133094
  17 H :    0.130897
  18 H :    0.169528
  19 H :    0.142904

  Mayer bond orders larger than 0.1
B(  0-C ,  1-C ) :   0.9110 B(  0-C ,  9-H ) :   0.9366 B(  0-C , 10-H ) :   0.9416
B(  0-C , 11-H ) :   0.9396 B(  1-C ,  2-C ) :   0.9260 B(  1-C , 12-H ) :   0.9277
B(  1-C , 13-H ) :   0.9329 B(  2-C ,  3-C ) :   0.9364 B(  2-C ,  8-C ) :   0.8817
B(  2-C , 14-H ) :   0.9150 B(  3-C ,  4-C ) :   0.9241 B(  3-C , 15-H ) :   0.9173
B(  3-C , 16-H ) :   0.9055 B(  4-C ,  5-N ) :   0.9305 B(  4-C ,  8-C ) :   0.8716
B(  4-C , 17-H ) :   0.9272 B(  5-N ,  6-C ) :   1.1564 B(  5-N , 18-H ) :   0.8522
B(  6-C ,  7-O ) :   2.0198 B(  6-C ,  8-C ) :   0.8457 B(  8-C , 19-H ) :   0.9046

MP2 TOTAL ENERGY:     -402.465995652 Eh
FINAL SINGLE POINT ENERGY      -402.465995652048

DIPOLE MOMENT
-------------
                                X             Y             Z
Electronic contribution:     -0.78179     -10.79029      -0.14833
Nuclear contribution   :      0.85822      11.54520       1.40203
                        -----------------------------------------
Total Dipole Moment    :      0.07643       0.75491       1.25370
                        -----------------------------------------
Magnitude (a.u.)       :      1.46543
Magnitude (Debye)      :      3.72484

                             ****ORCA TERMINATED NORMALLY****
TOTAL RUN TIME: 0 days 0 hours 33 minutes 20 seconds 802 msec
