                         Program Version 3.0.3 - RELEASE   -
|  1> ! RI-MP2 RIJK def2-TZVP def2-TZVP/C def2-TZVP/JK TIGHTSCF
|  2> % maxcore 2000
|  3> % mp2 density relaxed end
|  4> *xyz 0 1
|  5>  C       -0.0922604503     1.5530953347    -0.0045894681
|  6>  C        0.1062888097     0.0354181208    -0.0038999850
|  7>  C        0.7804667001    -0.4879731212    -1.2786094809
|  8>  O        2.0094896469     0.2189009021    -1.4310319791
|  9>  C        1.0223601926    -1.9967107925    -1.1626376544
| 10>  C        1.9590054381    -2.2856838045     0.0081876224
| 11>  N        1.4914322884    -1.6180622251     1.2150594727
| 12>  C        0.8149314508    -0.4277805132     1.2792443788
| 13>  O        0.7108728279     0.1817631386     2.3280933947
| 14>  H        0.8646073740     2.0658851488    -0.1200836334
| 15>  H       -0.7439008760     1.8517495079    -0.8320693417
| 16>  H       -0.5420288338     1.8686722328     0.9372933294
| 17>  H       -0.8827144702    -0.4435709114     0.0374618117
| 18>  H        0.1188893133    -0.2804569602    -2.1338347045
| 19>  H        2.4019077535    -0.0347687348    -2.2722315837
| 20>  H        0.0626415620    -2.5070462887    -1.0205678427
| 21>  H        1.4640038853    -2.3898920736    -2.0858897729
| 22>  H        2.0094191979    -3.3632058391     0.1977720259
| 23>  H        2.9717765334    -1.9476991922    -0.2505087328
| 24>  H        1.9585730462    -1.8446568493     2.0822267836
| 25> *
| 26>
| 27>                          ****END OF INPUT****

CARTESIAN COORDINATES (ANGSTROEM)
---------------------------------
  C     -0.092260    1.553095   -0.004589
  C      0.106289    0.035418   -0.003900
  C      0.780467   -0.487973   -1.278609
  O      2.009490    0.218901   -1.431032
  C      1.022360   -1.996711   -1.162638
  C      1.959005   -2.285684    0.008188
  N      1.491432   -1.618062    1.215059
  C      0.814931   -0.427781    1.279244
  O      0.710873    0.181763    2.328093
  H      0.864607    2.065885   -0.120084
  H     -0.743901    1.851750   -0.832069
  H     -0.542029    1.868672    0.937293
  H     -0.882714   -0.443571    0.037462
  H      0.118889   -0.280457   -2.133835
  H      2.401908   -0.034769   -2.272232
  H      0.062642   -2.507046   -1.020568
  H      1.464004   -2.389892   -2.085890
  H      2.009419   -3.363206    0.197772
  H      2.971777   -1.947699   -0.250509
  H      1.958573   -1.844657    2.082227

 Total Charge           Charge          ....    0
 Multiplicity           Mult            ....    1
 Number of Electrons    NEL             ....   70
 Basis Dimension        Dim             ....  345

ORBITAL ENERGIES
----------------

  NO   OCC          E(Eh)            E(eV)
   0   2.0000     -20.567941      -559.6821
   1   2.0000     -20.505492      -557.9828
   2   2.0000     -15.574080      -423.7922
   3   2.0000     -11.339367      -308.5599
   4   2.0000     -11.295956      -307.3786
   5   2.0000     -11.274258      -306.7882
   6   2.0000     -11.242184      -305.9154
   7   2.0000     -11.241835      -305.9059
   8   2.0000     -11.205820      -304.9259
   9   2.0000      -1.378643       -37.5148
  10   2.0000      -1.369528       -37.2667
  11   2.0000      -1.227534       -33.4029
  12   2.0000      -1.082969       -29.4691
  13   2.0000      -1.035264       -28.1710
  14   2.0000      -0.935533       -25.4571
  15   2.0000      -0.856936       -23.3184
  16   2.0000      -0.841267       -22.8921
  17   2.0000      -0.750109       -20.4115
  18   2.0000      -0.693547       -18.8724
  19   2.0000      -0.687416       -18.7056
  20   2.0000      -0.666372       -18.1329
  21   2.0000      -0.652518       -17.7559
  22   2.0000      -0.612609       -16.6699
  23   2.0000      -0.604538       -16.4503
  24   2.0000      -0.580457       -15.7950
  25   2.0000      -0.562910       -15.3176
  26   2.0000      -0.542732       -14.7685
  27   2.0000      -0.533162       -14.5081
  28   2.0000      -0.516929       -14.0664
  29   2.0000      -0.506502       -13.7826
  30   2.0000      -0.489453       -13.3187
  31   2.0000      -0.469119       -12.7654
  32   2.0000      -0.451953       -12.2983
  33   2.0000      -0.406245       -11.0545
  34   2.0000      -0.384143       -10.4531
  35   0.0000       0.110865         3.0168
  36   0.0000       0.145862         3.9691
  37   0.0000       0.151543         4.1237
  38   0.0000       0.165608         4.5064
  39   0.0000       0.180599         4.9143

MULLIKEN ATOMIC CHARGES
-----------------------
   0 C :   -0.412091
   1 C :   -0.033458
   2 C :    0.084717
   3 O :   -0.475625
   4 C :   -0.288303
   5 C :   -0.064129
   6 N :   -0.299919
   7 C :    0.167108
   8 O :   -0.351686
   9 H :    0.148103
  10 H :    0.118646
  11 H :    0.160177
  12 H :    0.111089
  13 H :    0.104092
  14 H :    0.313551
  15 H :    0.117566
  16 H :    0.131035
  17 H :    0.130843
  18 H :    0.103637
  19 H :    0.234648
Sum of atomic charges:    0.0000000

LOEWDIN ATOMIC CHARGES
----------------------
   0 C :   -0.281343
   1 C :   -0.227317
   2 C :   -0.327205
   3 O :   -0.006257
   4 C :   -0.252408
   5 C :   -0.281614
   6 N :    0.109506
   7 C :   -0.424063
   8 O :    0.082877
   9 H :    0.130671
  10 H :    0.121196
  11 H :    0.132684
  12 H :    0.172224
  13 H :    0.137561
  14 H :    0.175421
  15 H :    0.146115
  16 H :    0.139845
  17 H :    0.132941
  18 H :    0.130242
  19 H :    0.188923

  Mayer bond orders larger than 0.1
B(  0-C ,  1-C ) :   0.9129 B(  0-C ,  9-H ) :   0.9339 B(  0-C , 10-H ) :   0.9358
B(  0-C , 11-H ) :   0.9304 B(  1-C ,  2-C ) :   0.8832 B(  1-C ,  7-C ) :   0.9101
B(  1-C , 12-H ) :   0.9041 B(  2-C ,  3-O ) :   0.9565 B(  2-C ,  4-C ) :   0.9258
B(  2-C , 13-H ) :   0.9297 B(  3-O , 14-H ) :   0.8443 B(  4-C ,  5-C ) :   0.9572
B(  4-C , 15-H ) :   0.9262 B(  4-C , 16-H ) :   0.9309 B(  5-C ,  6-N ) :   0.8851
B(  5-C , 17-H ) :   0.9279 B(  5-C , 18-H ) :   0.9202 B(  6-N ,  7-C ) :   1.1864
B(  6-N , 19-H ) :   0.8593 B(  7-C ,  8-O ) :   1.9715

MP2 TOTAL ENERGY:     -439.622741746 Eh
FINAL SINGLE POINT ENERGY      -439.622741746286

DIPOLE MOMENT
-------------
                                X             Y             Z
Electronic contribution:      1.47798       0.00235       4.49882
Nuclear contribution   :     -1.23450      -1.24691      -6.05750
                        -----------------------------------------
Total Dipole Moment    :      0.24348      -1.24456      -1.55868
                        -----------------------------------------
Magnitude (a.u.)       :      2.00940
Magnitude (Debye)      :      5.10750

                             ****ORCA TERMINATED NORMALLY****
TOTAL RUN TIME: 0 days 0 hours 19 minutes 15 seconds 794 msec
