                         Program Version 3.0.3 - RELEASE   -
|  1> ! RI-MP2 RIJK def2-TZVP def2-TZVP/C def2-TZVP/JK TIGHTSCF
|  2> % maxcore 2000
|  3> % mp2 density relaxed end
|  4> *xyz 0 1
|  5>  C       -0.1636209323     1.5087626504     0.0830986682
|  6>  C        0.0254239543     0.0069613776     0.0067391072
|  7>  O        1.1201503376    -0.5196767456    -0.0374725050
|  8>  C       -1.1839322164    -0.8231835871    -0.0132225764
|  9>  C       -1.3851469224    -2.1695258102    -0.0755114902
| 10>  N       -2.7371825767    -2.4382393774    -0.0656900785
| 11>  C       -3.3047348937    -1.2669927529     0.0011082394
| 12>  C       -4.7547604737    -0.9504381569     0.0411999210
| 13>  O       -2.4301971551    -0.2363070164     0.0365609692
| 14>  H        0.8146079710     1.9898231315     0.0907886283
| 15>  H       -0.7496654364     1.8661681983    -0.7702332405
| 16>  H       -0.7215150516     1.7806014139     0.9854239631
| 17>  H       -0.6402327529    -2.9470794967    -0.1260846942
| 18>  H       -5.0116185003    -0.4071415430     0.9562893022
| 19>  H       -5.0416672428    -0.3212438972    -0.8075188001
| 20>  H       -5.3211564685    -1.8808374284     0.0055346064
| 21> *
| 22>
| 23>                          ****END OF INPUT****

CARTESIAN COORDINATES (ANGSTROEM)
---------------------------------
  C     -0.163621    1.508763    0.083099
  C      0.025424    0.006961    0.006739
  O      1.120150   -0.519677   -0.037473
  C     -1.183932   -0.823184   -0.013223
  C     -1.385147   -2.169526   -0.075511
  N     -2.737183   -2.438239   -0.065690
  C     -3.304735   -1.266993    0.001108
  C     -4.754760   -0.950438    0.041200
  O     -2.430197   -0.236307    0.036561
  H      0.814608    1.989823    0.090789
  H     -0.749665    1.866168   -0.770233
  H     -0.721515    1.780601    0.985424
  H     -0.640233   -2.947079   -0.126085
  H     -5.011619   -0.407142    0.956289
  H     -5.041667   -0.321244   -0.807519
  H     -5.321156   -1.880837    0.005535

 Total Charge           Charge          ....    0
 Multiplicity           Mult            ....    1
 Number of Electrons    NEL             ....   66
 Basis Dimension        Dim             ....  321

ORBITAL ENERGIES
----------------

  NO   OCC          E(Eh)            E(eV)
   0   2.0000     -20.650036      -561.9160
   1   2.0000     -20.545889      -559.0821
   2   2.0000     -15.573857      -423.7862
   3   2.0000     -11.359560      -309.1093
   4   2.0000     -11.345102      -308.7159
   5   2.0000     -11.297004      -307.4071
   6   2.0000     -11.283742      -307.0462
   7   2.0000     -11.257610      -306.3351
   8   2.0000     -11.239388      -305.8393
   9   2.0000      -1.501012       -40.8446
  10   2.0000      -1.389197       -37.8020
  11   2.0000      -1.247918       -33.9576
  12   2.0000      -1.091161       -29.6920
  13   2.0000      -1.024877       -27.8883
  14   2.0000      -0.979254       -26.6468
  15   2.0000      -0.871163       -23.7056
  16   2.0000      -0.815999       -22.2045
  17   2.0000      -0.784793       -21.3553
  18   2.0000      -0.705785       -19.2054
  19   2.0000      -0.687685       -18.7129
  20   2.0000      -0.657325       -17.8867
  21   2.0000      -0.625596       -17.0233
  22   2.0000      -0.606866       -16.5137
  23   2.0000      -0.597963       -16.2714
  24   2.0000      -0.583942       -15.8899
  25   2.0000      -0.580982       -15.8093
  26   2.0000      -0.574843       -15.6423
  27   2.0000      -0.562743       -15.3130
  28   2.0000      -0.510778       -13.8990
  29   2.0000      -0.474074       -12.9002
  30   2.0000      -0.466506       -12.6943
  31   2.0000      -0.429670       -11.6919
  32   2.0000      -0.346561        -9.4304
  33   0.0000       0.078283         2.1302
  34   0.0000       0.127308         3.4642
  35   0.0000       0.149924         4.0796
  36   0.0000       0.169044         4.5999
  37   0.0000       0.186931         5.0867

MULLIKEN ATOMIC CHARGES
-----------------------
   0 C :   -0.390305
   1 C :    0.178328
   2 O :   -0.291252
   3 C :    0.152973
   4 C :   -0.105288
   5 N :   -0.263937
   6 C :    0.271557
   7 C :   -0.427603
   8 O :   -0.213745
   9 H :    0.156492
  10 H :    0.147135
  11 H :    0.147129
  12 H :    0.159603
  13 H :    0.154230
  14 H :    0.154233
  15 H :    0.170453
Sum of atomic charges:    0.0000000

LOEWDIN ATOMIC CHARGES
----------------------
   0 C :   -0.270246
   1 C :   -0.341476
   2 O :    0.153394
   3 C :   -0.225358
   4 C :   -0.182840
   5 N :    0.126308
   6 C :   -0.354860
   7 C :   -0.265028
   8 O :    0.373191
   9 H :    0.135626
  10 H :    0.139348
  11 H :    0.139322
  12 H :    0.147279
  13 H :    0.139721
  14 H :    0.139718
  15 H :    0.145902

  Mayer bond orders larger than 0.1
B(  0-C ,  1-C ) :   0.9570 B(  0-C ,  9-H ) :   0.9363 B(  0-C , 10-H ) :   0.9088
B(  0-C , 11-H ) :   0.9088 B(  1-C ,  2-O ) :   1.9984 B(  1-C ,  3-C ) :   0.8956
B(  3-C ,  4-C ) :   1.5206 B(  3-C ,  8-O ) :   0.9903 B(  4-C ,  5-N ) :   1.2270
B(  4-C , 12-H ) :   0.9245 B(  5-N ,  6-C ) :   1.6244 B(  6-C ,  7-C ) :   0.8697
B(  6-C ,  8-O ) :   1.0937 B(  7-C , 13-H ) :   0.9275 B(  7-C , 14-H ) :   0.9275
B(  7-C , 15-H ) :   0.9487

MP2 TOTAL ENERGY:     -437.218031715 Eh
FINAL SINGLE POINT ENERGY      -437.218031714978

DIPOLE MOMENT
-------------
                                X             Y             Z
Electronic contribution:      3.76618      -3.95236      -0.25641
Nuclear contribution   :     -4.83586       4.82806       0.31719
                        -----------------------------------------
Total Dipole Moment    :     -1.06968       0.87570       0.06079
                        -----------------------------------------
Magnitude (a.u.)       :      1.38374
Magnitude (Debye)      :      3.51720

                             ****ORCA TERMINATED NORMALLY****
TOTAL RUN TIME: 0 days 0 hours 15 minutes 9 seconds 822 msec
