                         Program Version 3.0.3 - RELEASE   -
|  1> ! RI-MP2 RIJK def2-TZVP def2-TZVP/C def2-TZVP/JK TIGHTSCF
|  2> % maxcore 2000
|  3> % mp2 density relaxed end
|  4> *xyz 0 1
|  5>  C       -0.0307387633     1.3386587347     0.0969868103
|  6>  O       -0.1006720147    -0.0674620756    -0.0639415277
|  7>  C       -1.3719803906    -0.5669922212    -0.0587307256
|  8>  C       -2.5196477601    -0.3225253411    -1.0755638607
|  9>  C       -3.0830224225    -1.3470001536    -0.0671128548
| 10>  O       -4.3430830553    -1.8968036742     0.0172964552
| 11>  C       -1.6913576554    -2.0745459031     0.1215990916
| 12>  N       -1.6917063015    -1.9729319995     1.6180567192
| 13>  C       -2.3632180402    -0.7128946639     1.1617652047
| 14>  H        1.0274251834     1.6066092287     0.0820435571
| 15>  H       -0.5458273689     1.8662269604    -0.7178593411
| 16>  H       -0.4681078452     1.6538042133     1.0541036407
| 17>  H       -2.9864412522     0.6667493798    -1.0751323351
| 18>  H       -2.3427855725    -0.6747129421    -2.0969800495
| 19>  H       -4.5234508928    -2.3821935829    -0.7952006952
| 20>  H       -1.2687618905    -2.9133662887    -0.4338365860
| 21>  H       -2.3945089075    -2.6100278791     2.0029141320
| 22>  H       -2.7415722301     0.0559088781     1.8365146248
| 23> *
| 24>
| 25>                          ****END OF INPUT****

CARTESIAN COORDINATES (ANGSTROEM)
---------------------------------
  C     -0.030739    1.338659    0.096987
  O     -0.100672   -0.067462   -0.063942
  C     -1.371980   -0.566992   -0.058731
  C     -2.519648   -0.322525   -1.075564
  C     -3.083022   -1.347000   -0.067113
  O     -4.343083   -1.896804    0.017296
  C     -1.691358   -2.074546    0.121599
  N     -1.691706   -1.972932    1.618057
  C     -2.363218   -0.712895    1.161765
  H      1.027425    1.606609    0.082044
  H     -0.545827    1.866227   -0.717859
  H     -0.468108    1.653804    1.054104
  H     -2.986441    0.666749   -1.075132
  H     -2.342786   -0.674713   -2.096980
  H     -4.523451   -2.382194   -0.795201
  H     -1.268762   -2.913366   -0.433837
  H     -2.394509   -2.610028    2.002914
  H     -2.741572    0.055909    1.836515

 Total Charge           Charge          ....    0
 Multiplicity           Mult            ....    1
 Number of Electrons    NEL             ....   68
 Basis Dimension        Dim             ....  333

ORBITAL ENERGIES
----------------

  NO   OCC          E(Eh)            E(eV)
   0   2.0000     -20.580337      -560.0194
   1   2.0000     -20.568446      -559.6959
   2   2.0000     -15.545259      -423.0080
   3   2.0000     -11.303574      -307.5859
   4   2.0000     -11.301762      -307.5366
   5   2.0000     -11.276796      -306.8572
   6   2.0000     -11.268891      -306.6421
   7   2.0000     -11.268665      -306.6360
   8   2.0000     -11.235017      -305.7204
   9   2.0000      -1.401062       -38.1248
  10   2.0000      -1.390046       -37.8251
  11   2.0000      -1.283880       -34.9361
  12   2.0000      -1.097323       -29.8597
  13   2.0000      -0.952984       -25.9320
  14   2.0000      -0.890083       -24.2204
  15   2.0000      -0.882174       -24.0052
  16   2.0000      -0.836010       -22.7490
  17   2.0000      -0.735571       -20.0159
  18   2.0000      -0.705082       -19.1863
  19   2.0000      -0.676762       -18.4156
  20   2.0000      -0.652089       -17.7442
  21   2.0000      -0.642153       -17.4739
  22   2.0000      -0.633653       -17.2426
  23   2.0000      -0.614621       -16.7247
  24   2.0000      -0.594692       -16.1824
  25   2.0000      -0.562438       -15.3047
  26   2.0000      -0.516122       -14.0444
  27   2.0000      -0.504136       -13.7182
  28   2.0000      -0.494072       -13.4444
  29   2.0000      -0.475508       -12.9392
  30   2.0000      -0.439401       -11.9567
  31   2.0000      -0.417949       -11.3730
  32   2.0000      -0.393432       -10.7058
  33   2.0000      -0.369830       -10.0636
  34   0.0000       0.127432         3.4676
  35   0.0000       0.144443         3.9305
  36   0.0000       0.164463         4.4753
  37   0.0000       0.181940         4.9508
  38   0.0000       0.188773         5.1368

MULLIKEN ATOMIC CHARGES
-----------------------
   0 C :   -0.218897
   1 O :   -0.296939
   2 C :    0.134333
   3 C :   -0.216466
   4 C :    0.063773
   5 O :   -0.438171
   6 C :   -0.029559
   7 N :   -0.359192
   8 C :   -0.052551
   9 H :    0.146232
  10 H :    0.119600
  11 H :    0.122642
  12 H :    0.116587
  13 H :    0.112000
  14 H :    0.330316
  15 H :    0.132358
  16 H :    0.205118
  17 H :    0.128817
Sum of atomic charges:   -0.0000000

LOEWDIN ATOMIC CHARGES
----------------------
   0 C :   -0.330706
   1 O :    0.209623
   2 C :   -0.290452
   3 C :   -0.178748
   4 C :   -0.315877
   5 O :    0.033552
   6 C :   -0.156789
   7 N :   -0.003857
   8 C :   -0.158088
   9 H :    0.115819
  10 H :    0.104523
  11 H :    0.106358
  12 H :    0.130472
  13 H :    0.129261
  14 H :    0.188502
  15 H :    0.127425
  16 H :    0.161383
  17 H :    0.127598

  Mayer bond orders larger than 0.1
B(  0-C ,  1-O ) :   0.8837 B(  0-C ,  9-H ) :   0.9406 B(  0-C , 10-H ) :   0.9345
B(  0-C , 11-H ) :   0.9338 B(  1-O ,  2-C ) :   1.0240 B(  2-C ,  3-C ) :   0.9205
B(  2-C ,  6-C ) :   0.8374 B(  2-C ,  8-C ) :   0.8602 B(  3-C ,  4-C ) :   0.9427
B(  3-C , 12-H ) :   0.9076 B(  3-C , 13-H ) :   0.9089 B(  4-C ,  5-O ) :   1.1789
B(  4-C ,  6-C ) :   0.8474 B(  4-C ,  8-C ) :   0.8681 B(  5-O ,  6-C ) :  -0.1073
B(  5-O , 14-H ) :   0.8315 B(  6-C ,  7-N ) :   0.9449 B(  6-C , 15-H ) :   0.8874
B(  7-N ,  8-C ) :   0.9420 B(  7-N , 16-H ) :   0.8759 B(  8-C , 17-H ) :   0.8838

MP2 TOTAL ENERGY:     -438.255666140 Eh
FINAL SINGLE POINT ENERGY      -438.255666140061

DIPOLE MOMENT
-------------
                                X             Y             Z
Electronic contribution:     -1.50286      -4.17311       0.91148
Nuclear contribution   :      0.95705       4.47186      -1.72165
                        -----------------------------------------
Total Dipole Moment    :     -0.54581       0.29875      -0.81017
                        -----------------------------------------
Magnitude (a.u.)       :      1.02153
Magnitude (Debye)      :      2.59653

                             ****ORCA TERMINATED NORMALLY****
TOTAL RUN TIME: 0 days 0 hours 15 minutes 23 seconds 573 msec
