                         Program Version 3.0.3 - RELEASE   -
|  1> ! RI-MP2 RIJK def2-TZVP def2-TZVP/C def2-TZVP/JK TIGHTSCF
|  2> % maxcore 2000
|  3> % mp2 density relaxed end
|  4> *xyz 0 1
|  5>  C       -0.0677470341     1.5904176907    -0.0425322947
|  6>  C        1.4654121844     1.5114720308     0.0188080505
|  7>  C        1.3655258728     0.1802058767     0.8395843256
|  8>  C        2.4639847026    -0.4577075938    -0.0357591960
|  9>  O        2.2657174066    -1.7920078459    -0.4534446610
| 10>  C        1.1681444642    -1.7608062671    -1.3780735329
| 11>  C        0.6637604787    -0.3144249368    -1.3587732498
| 12>  C        0.0217690241     0.0442597212     0.0005655444
| 13>  C        1.9516095954     0.5302076152    -1.1134588525
| 14>  H       -0.4849368505     2.0098573447     0.8778855642
| 15>  H       -0.5481298028     2.0542766368    -0.9112728764
| 16>  H        2.1115715997     2.3459201892     0.2857575256
| 17>  H        1.3161144578     0.1251568145     1.9257217005
| 18>  H        3.4836429647    -0.3339832010     0.3321117034
| 19>  H        1.5219050137    -2.0620679444    -2.3743722465
| 20>  H        0.3991919363    -2.4758840239    -1.0595009958
| 21>  H        0.0566023164    -0.0483921382    -2.2263862038
| 22>  H       -0.8100828880    -0.5739087428     0.3394507559
| 23>  H        2.5504218679     0.8413319141    -1.9678086010
| 24> *
| 25>
| 26>                          ****END OF INPUT****

CARTESIAN COORDINATES (ANGSTROEM)
---------------------------------
  C     -0.067747    1.590418   -0.042532
  C      1.465412    1.511472    0.018808
  C      1.365526    0.180206    0.839584
  C      2.463985   -0.457708   -0.035759
  O      2.265717   -1.792008   -0.453445
  C      1.168144   -1.760806   -1.378074
  C      0.663760   -0.314425   -1.358773
  C      0.021769    0.044260    0.000566
  C      1.951610    0.530208   -1.113459
  H     -0.484937    2.009857    0.877886
  H     -0.548130    2.054277   -0.911273
  H      2.111572    2.345920    0.285758
  H      1.316114    0.125157    1.925722
  H      3.483643   -0.333983    0.332112
  H      1.521905   -2.062068   -2.374372
  H      0.399192   -2.475884   -1.059501
  H      0.056602   -0.048392   -2.226386
  H     -0.810083   -0.573909    0.339451
  H      2.550422    0.841332   -1.967809

 Total Charge           Charge          ....    0
 Multiplicity           Mult            ....    1
 Number of Electrons    NEL             ....   66
 Basis Dimension        Dim             ....  339

ORBITAL ENERGIES
----------------

  NO   OCC          E(Eh)            E(eV)
   0   2.0000     -20.544323      -559.0395
   1   2.0000     -11.272943      -306.7524
   2   2.0000     -11.268241      -306.6244
   3   2.0000     -11.234624      -305.7097
   4   2.0000     -11.233775      -305.6866
   5   2.0000     -11.231495      -305.6245
   6   2.0000     -11.229616      -305.5734
   7   2.0000     -11.228234      -305.5358
   8   2.0000     -11.223060      -305.3950
   9   2.0000      -1.374082       -37.3907
  10   2.0000      -1.207321       -32.8529
  11   2.0000      -1.018215       -27.7070
  12   2.0000      -1.002638       -27.2832
  13   2.0000      -0.906442       -24.6655
  14   2.0000      -0.881229       -23.9795
  15   2.0000      -0.799774       -21.7630
  16   2.0000      -0.744612       -20.2619
  17   2.0000      -0.717270       -19.5179
  18   2.0000      -0.700676       -19.0664
  19   2.0000      -0.663259       -18.0482
  20   2.0000      -0.651302       -17.7228
  21   2.0000      -0.609667       -16.5899
  22   2.0000      -0.574787       -15.6408
  23   2.0000      -0.554918       -15.1001
  24   2.0000      -0.524348       -14.2682
  25   2.0000      -0.504060       -13.7162
  26   2.0000      -0.484026       -13.1710
  27   2.0000      -0.477723       -12.9995
  28   2.0000      -0.457909       -12.4603
  29   2.0000      -0.443302       -12.0628
  30   2.0000      -0.421813       -11.4781
  31   2.0000      -0.400561       -10.8998
  32   2.0000      -0.381961       -10.3937
  33   0.0000       0.141863         3.8603
  34   0.0000       0.157980         4.2989
  35   0.0000       0.162998         4.4354
  36   0.0000       0.170148         4.6300
  37   0.0000       0.191856         5.2207

MULLIKEN ATOMIC CHARGES
-----------------------
   0 C :   -0.221068
   1 C :   -0.174378
   2 C :   -0.143565
   3 C :    0.037258
   4 O :   -0.328461
   5 C :   -0.032709
   6 C :   -0.139689
   7 C :   -0.079831
   8 C :   -0.089922
   9 H :    0.116005
  10 H :    0.109501
  11 H :    0.124817
  12 H :    0.130017
  13 H :    0.109888
  14 H :    0.098340
  15 H :    0.100190
  16 H :    0.121708
  17 H :    0.127921
  18 H :    0.133980
Sum of atomic charges:    0.0000000

LOEWDIN ATOMIC CHARGES
----------------------
   0 C :   -0.204516
   1 C :   -0.154648
   2 C :   -0.125667
   3 C :   -0.261789
   4 O :    0.162898
   5 C :   -0.263194
   6 C :   -0.194199
   7 C :   -0.156258
   8 C :   -0.136913
   9 H :    0.138915
  10 H :    0.124518
  11 H :    0.132850
  12 H :    0.133023
  13 H :    0.142236
  14 H :    0.121669
  15 H :    0.124828
  16 H :    0.147965
  17 H :    0.134281
  18 H :    0.134003

  Mayer bond orders larger than 0.1
B(  0-C ,  1-C ) :   0.9381 B(  0-C ,  7-C ) :   0.9108 B(  0-C ,  9-H ) :   0.9218
B(  0-C , 10-H ) :   0.9138 B(  1-C ,  2-C ) :   0.8805 B(  1-C ,  8-C ) :   0.8723
B(  1-C , 11-H ) :   0.9167 B(  2-C ,  3-C ) :   0.8822 B(  2-C ,  7-C ) :   0.8856
B(  2-C , 12-H ) :   0.9068 B(  3-C ,  4-O ) :   0.9844 B(  3-C ,  8-C ) :   0.9274
B(  3-C , 13-H ) :   0.9425 B(  4-O ,  5-C ) :   0.9407 B(  5-C ,  6-C ) :   0.9617
B(  5-C , 14-H ) :   0.9283 B(  5-C , 15-H ) :   0.9131 B(  6-C ,  7-C ) :   0.8872
B(  6-C ,  8-C ) :   0.9291 B(  6-C , 16-H ) :   0.9132 B(  7-C , 17-H ) :   0.9115
B(  8-C , 18-H ) :   0.9092

MP2 TOTAL ENERGY:     -385.195446132 Eh
FINAL SINGLE POINT ENERGY      -385.195446132454

DIPOLE MOMENT
-------------
                                X             Y             Z
Electronic contribution:      2.47683      -2.04706       0.56904
Nuclear contribution   :     -2.84010       2.57588      -0.72539
                        -----------------------------------------
Total Dipole Moment    :     -0.36327       0.52883      -0.15636
                        -----------------------------------------
Magnitude (a.u.)       :      0.66036
Magnitude (Debye)      :      1.67850

                             ****ORCA TERMINATED NORMALLY****
TOTAL RUN TIME: 0 days 0 hours 19 minutes 37 seconds 491 msec
