                         Program Version 3.0.3 - RELEASE   -
|  1> ! RI-MP2 RIJK def2-TZVP def2-TZVP/C def2-TZVP/JK TIGHTSCF
|  2> % maxcore 2000
|  3> % mp2 density relaxed end
|  4> *xyz 0 1
|  5>  C       -0.0407135519     1.5082108917     0.0629126289
|  6>  C        0.0125773502     0.0057568326    -0.0242562697
|  7>  C        0.5280625174    -0.9148520593    -1.1291283334
|  8>  N        0.0688993435    -1.9539091365    -0.1092236215
|  9>  C        0.5662541321    -1.0185935842     1.0334302043
| 10>  C       -0.7783167094    -1.1417346369     1.7201596305
| 11>  C       -1.3091435044    -1.8222725202     2.8892326429
| 12>  O       -1.2759328678    -0.3756108536     2.7890913592
| 13>  C       -1.1354274918    -1.0336218851     0.2520268268
| 14>  H        0.9632927183     1.9404469839    -0.0106404611
| 15>  H       -0.6450790393     1.9262717554    -0.7496354953
| 16>  H       -0.4802152160     1.8263629149     1.0133620054
| 17>  H       -0.0283554218    -0.9551620873    -2.0719550925
| 18>  H        1.6062705462    -0.9407318780    -1.3213417920
| 19>  H        1.5824571685    -1.1032563828     1.4203442575
| 20>  H       -2.3044499212    -2.2619928505     2.8600448948
| 21>  H       -0.6320446257    -2.2472247261     3.6280109635
| 22>  H       -2.0898029369    -1.1356903080    -0.2659386383
| 23> *
| 24>
| 25>                          ****END OF INPUT****

CARTESIAN COORDINATES (ANGSTROEM)
---------------------------------
  C     -0.040714    1.508211    0.062913
  C      0.012577    0.005757   -0.024256
  C      0.528063   -0.914852   -1.129128
  N      0.068899   -1.953909   -0.109224
  C      0.566254   -1.018594    1.033430
  C     -0.778317   -1.141735    1.720160
  C     -1.309144   -1.822273    2.889233
  O     -1.275933   -0.375611    2.789091
  C     -1.135427   -1.033622    0.252027
  H      0.963293    1.940447   -0.010640
  H     -0.645079    1.926272   -0.749635
  H     -0.480215    1.826363    1.013362
  H     -0.028355   -0.955162   -2.071955
  H      1.606271   -0.940732   -1.321342
  H      1.582457   -1.103256    1.420344
  H     -2.304450   -2.261993    2.860045
  H     -0.632045   -2.247225    3.628011
  H     -2.089803   -1.135690   -0.265939

 Total Charge           Charge          ....    0
 Multiplicity           Mult            ....    1
 Number of Electrons    NEL             ....   66
 Basis Dimension        Dim             ....  333

ORBITAL ENERGIES
----------------

  NO   OCC          E(Eh)            E(eV)
   0   2.0000     -20.570678      -559.7566
   1   2.0000     -15.573098      -423.7655
   2   2.0000     -11.299943      -307.4871
   3   2.0000     -11.285186      -307.0855
   4   2.0000     -11.275600      -306.8247
   5   2.0000     -11.275562      -306.8236
   6   2.0000     -11.261215      -306.4332
   7   2.0000     -11.256899      -306.3158
   8   2.0000     -11.222800      -305.3879
   9   2.0000      -1.417741       -38.5787
  10   2.0000      -1.317252       -35.8443
  11   2.0000      -1.017972       -27.7004
  12   2.0000      -1.015440       -27.6315
  13   2.0000      -0.917925       -24.9780
  14   2.0000      -0.893861       -24.3232
  15   2.0000      -0.876033       -23.8381
  16   2.0000      -0.801050       -21.7977
  17   2.0000      -0.713489       -19.4150
  18   2.0000      -0.691726       -18.8228
  19   2.0000      -0.681296       -18.5390
  20   2.0000      -0.607360       -16.5271
  21   2.0000      -0.604199       -16.4411
  22   2.0000      -0.602087       -16.3836
  23   2.0000      -0.572528       -15.5793
  24   2.0000      -0.571914       -15.5626
  25   2.0000      -0.516138       -14.0448
  26   2.0000      -0.502776       -13.6812
  27   2.0000      -0.471585       -12.8325
  28   2.0000      -0.462446       -12.5838
  29   2.0000      -0.436218       -11.8701
  30   2.0000      -0.431392       -11.7388
  31   2.0000      -0.419657       -11.4195
  32   2.0000      -0.376309       -10.2399
  33   0.0000       0.135913         3.6984
  34   0.0000       0.157134         4.2758
  35   0.0000       0.169269         4.6060
  36   0.0000       0.179442         4.8829
  37   0.0000       0.195531         5.3207

MULLIKEN ATOMIC CHARGES
-----------------------
   0 C :   -0.391828
   1 C :    0.016083
   2 C :   -0.144388
   3 N :   -0.204955
   4 C :   -0.050693
   5 C :    0.092317
   6 C :   -0.099889
   7 O :   -0.346113
   8 C :   -0.050701
   9 H :    0.131162
  10 H :    0.131161
  11 H :    0.158649
  12 H :    0.113045
  13 H :    0.113046
  14 H :    0.141984
  15 H :    0.124568
  16 H :    0.124568
  17 H :    0.141983
Sum of atomic charges:    0.0000000

LOEWDIN ATOMIC CHARGES
----------------------
   0 C :   -0.278891
   1 C :   -0.213003
   2 C :   -0.218001
   3 N :    0.134277
   4 C :   -0.111693
   5 C :   -0.299186
   6 C :   -0.218097
   7 O :    0.164481
   8 C :   -0.111693
   9 H :    0.129631
  10 H :    0.129630
  11 H :    0.136715
  12 H :    0.122949
  13 H :    0.122949
  14 H :    0.130551
  15 H :    0.124415
  16 H :    0.124415
  17 H :    0.130551

  Mayer bond orders larger than 0.1
B(  0-C ,  1-C ) :   0.8823 B(  0-C ,  9-H ) :   0.9304 B(  0-C , 10-H ) :   0.9304
B(  0-C , 11-H ) :   0.9389 B(  1-C ,  2-C ) :   0.9449 B(  1-C ,  4-C ) :   0.9080
B(  1-C ,  8-C ) :   0.9080 B(  2-C ,  3-N ) :   0.9399 B(  2-C , 12-H ) :   0.9219
B(  2-C , 13-H ) :   0.9219 B(  3-N ,  4-C ) :   0.9763 B(  3-N ,  8-C ) :   0.9763
B(  4-C ,  5-C ) :   0.8983 B(  4-C , 14-H ) :   0.8695 B(  5-C ,  6-C ) :   1.0002
B(  5-C ,  7-O ) :   0.9072 B(  5-C ,  8-C ) :   0.8983 B(  6-C ,  7-O ) :   0.8858
B(  6-C , 15-H ) :   0.9144 B(  6-C , 16-H ) :   0.9144 B(  8-C , 17-H ) :   0.8695

MP2 TOTAL ENERGY:     -401.129513856 Eh
FINAL SINGLE POINT ENERGY      -401.129513855727

DIPOLE MOMENT
-------------
                                X             Y             Z
Electronic contribution:     -1.21871      -3.13495       2.71428
Nuclear contribution   :      1.33633       3.35963      -2.97474
                        -----------------------------------------
Total Dipole Moment    :      0.11762       0.22468      -0.26046
                        -----------------------------------------
Magnitude (a.u.)       :      0.36354
Magnitude (Debye)      :      0.92404

                             ****ORCA TERMINATED NORMALLY****
TOTAL RUN TIME: 0 days 0 hours 17 minutes 37 seconds 6 msec
