                         Program Version 3.0.3 - RELEASE   -
|  1> ! RI-MP2 RIJK def2-TZVP def2-TZVP/C def2-TZVP/JK TIGHTSCF
|  2> % maxcore 2000
|  3> % mp2 density relaxed end
|  4> *xyz 0 1
|  5>  O        0.1862088632     1.3503678171     0.4077672667
|  6>  C        0.0468926129    -0.0263870721     0.1784929075
|  7>  C       -1.3888028061    -0.5940840180     0.0058427805
|  8>  C       -2.4537234645     0.2804888253    -0.7028992986
|  9>  C       -2.1416698037    -0.4996679607    -2.0157954688
| 10>  N       -0.9856929804    -1.1835667812    -1.3339111539
| 11>  C        0.2082668132    -0.4316066101    -1.3073316792
| 12>  O        0.9382083526    -0.0560703175    -2.1823844852
| 13>  H        0.8181614541     1.6814790807    -0.2427712320
| 14>  H        0.6414068998    -0.6185734648     0.8878498331
| 15>  H       -1.7394580638    -1.2968199818     0.7627765422
| 16>  H       -3.4710859387     0.1870887309    -0.3210837392
| 17>  H       -2.1735343085     1.3356799542    -0.7323015105
| 18>  H       -2.9070364077    -1.2220833851    -2.3066238851
| 19>  H       -1.8360479624     0.0781473429    -2.8909693175
| 20> *
| 21>
| 22>                          ****END OF INPUT****

CARTESIAN COORDINATES (ANGSTROEM)
---------------------------------
  O      0.186209    1.350368    0.407767
  C      0.046893   -0.026387    0.178493
  C     -1.388803   -0.594084    0.005843
  C     -2.453723    0.280489   -0.702899
  C     -2.141670   -0.499668   -2.015795
  N     -0.985693   -1.183567   -1.333911
  C      0.208267   -0.431607   -1.307332
  O      0.938208   -0.056070   -2.182384
  H      0.818161    1.681479   -0.242771
  H      0.641407   -0.618573    0.887850
  H     -1.739458   -1.296820    0.762777
  H     -3.471086    0.187089   -0.321084
  H     -2.173534    1.335680   -0.732302
  H     -2.907036   -1.222083   -2.306624
  H     -1.836048    0.078147   -2.890969

 Total Charge           Charge          ....    0
 Multiplicity           Mult            ....    1
 Number of Electrons    NEL             ....   60
 Basis Dimension        Dim             ....  290

ORBITAL ENERGIES
----------------

  NO   OCC          E(Eh)            E(eV)
   0   2.0000     -20.581084      -560.0398
   1   2.0000     -20.558104      -559.4145
   2   2.0000     -15.579765      -423.9470
   3   2.0000     -11.360785      -309.1427
   4   2.0000     -11.311393      -307.7987
   5   2.0000     -11.283326      -307.0349
   6   2.0000     -11.281173      -306.9763
   7   2.0000     -11.247432      -306.0582
   8   2.0000      -1.419458       -38.6254
   9   2.0000      -1.384433       -37.6723
  10   2.0000      -1.292918       -35.1821
  11   2.0000      -1.043246       -28.3882
  12   2.0000      -0.997327       -27.1386
  13   2.0000      -0.876763       -23.8579
  14   2.0000      -0.829788       -22.5797
  15   2.0000      -0.745674       -20.2908
  16   2.0000      -0.710005       -19.3202
  17   2.0000      -0.700688       -19.0667
  18   2.0000      -0.683435       -18.5972
  19   2.0000      -0.640656       -17.4331
  20   2.0000      -0.608510       -16.5584
  21   2.0000      -0.588029       -16.0011
  22   2.0000      -0.565671       -15.3927
  23   2.0000      -0.551751       -15.0139
  24   2.0000      -0.525966       -14.3123
  25   2.0000      -0.513504       -13.9731
  26   2.0000      -0.489519       -13.3205
  27   2.0000      -0.454402       -12.3649
  28   2.0000      -0.430354       -11.7105
  29   2.0000      -0.390690       -10.6312
  30   0.0000       0.122531         3.3342
  31   0.0000       0.149034         4.0554
  32   0.0000       0.155012         4.2181
  33   0.0000       0.162924         4.4334
  34   0.0000       0.169288         4.6065

MULLIKEN ATOMIC CHARGES
-----------------------
   0 O :   -0.479678
   1 C :    0.021255
   2 C :    0.036266
   3 C :   -0.292034
   4 C :   -0.157128
   5 N :   -0.124703
   6 C :    0.138478
   7 O :   -0.284169
   8 H :    0.340638
   9 H :    0.121696
  10 H :    0.126029
  11 H :    0.131492
  12 H :    0.150193
  13 H :    0.134126
  14 H :    0.137539
Sum of atomic charges:    0.0000000

LOEWDIN ATOMIC CHARGES
----------------------
   0 O :   -0.003293
   1 C :   -0.284285
   2 C :   -0.176716
   3 C :   -0.219255
   4 C :   -0.220265
   5 N :    0.170939
   6 C :   -0.404468
   7 O :    0.140529
   8 H :    0.190005
   9 H :    0.141587
  10 H :    0.134156
  11 H :    0.131533
  12 H :    0.140907
  13 H :    0.129057
  14 H :    0.129568

  Mayer bond orders larger than 0.1
B(  0-O ,  1-C ) :   0.9823 B(  0-O ,  8-H ) :   0.8235 B(  1-C ,  2-C ) :   0.8841
B(  1-C ,  6-C ) :   0.9117 B(  1-C ,  9-H ) :   0.9134 B(  2-C ,  3-C ) :   0.9141
B(  2-C ,  5-N ) :   0.8973 B(  2-C , 10-H ) :   0.9029 B(  3-C ,  4-C ) :   0.9513
B(  3-C , 11-H ) :   0.9274 B(  3-C , 12-H ) :   0.9180 B(  4-C ,  5-N ) :   0.8583
B(  4-C , 13-H ) :   0.9237 B(  4-C , 14-H ) :   0.9307 B(  5-N ,  6-C ) :   1.0594
B(  6-C ,  7-O ) :   2.0145

MP2 TOTAL ENERGY:     -399.127093407 Eh
FINAL SINGLE POINT ENERGY      -399.127093407258

DIPOLE MOMENT
-------------
                                X             Y             Z
Electronic contribution:      4.75629      -0.76193      -0.74415
Nuclear contribution   :     -5.59704       0.79026       1.14861
                        -----------------------------------------
Total Dipole Moment    :     -0.84075       0.02833       0.40446
                        -----------------------------------------
Magnitude (a.u.)       :      0.93341
Magnitude (Debye)      :      2.37254

                             ****ORCA TERMINATED NORMALLY****
TOTAL RUN TIME: 0 days 0 hours 12 minutes 32 seconds 435 msec
