                         Program Version 3.0.3 - RELEASE   -
|  1> ! RI-MP2 RIJK def2-TZVP def2-TZVP/C def2-TZVP/JK TIGHTSCF
|  2> % maxcore 2000
|  3> % mp2 density relaxed end
|  4> *xyz 0 1
|  5>  C       -0.0073414091     1.5054629202    -0.0027393522
|  6>  C        0.0110758379     0.0130800169     0.0162899400
|  7>  C        0.2323902434    -0.9894693166    -1.1099924891
|  8>  C        0.8339424853    -2.0071437594    -0.0989197841
|  9>  C        0.6164389595    -1.0089004107     1.0337743555
| 10>  C       -0.4731084248    -2.0155479404     0.6847612690
| 11>  C       -1.1015729250    -3.0872531053     1.5120363734
| 12>  C       -1.0794087032    -0.9929583051    -0.3315495033
| 13>  H        1.0074164818     1.9211094684    -0.0202091662
| 14>  H       -0.5315643943     1.8731763052    -0.8921232180
| 15>  H       -0.5203519984     1.9135603057     0.8766000539
| 16>  H        0.4054454986    -0.8122699759    -2.1637646156
| 17>  H        1.5820152971    -2.7834800221    -0.1962299652
| 18>  H        1.1665616971    -0.8832069106     1.9581584785
| 19>  H       -1.8484896344    -2.6774084355     2.2027617607
| 20>  H       -1.6005595595    -3.8383186878     0.8877641779
| 21>  H       -0.3445765635    -3.6048232862     2.1121238649
| 22>  H       -2.0897400785    -0.8192985407    -0.6808197900
| 23> *
| 24>
| 25>                          ****END OF INPUT****

CARTESIAN COORDINATES (ANGSTROEM)
---------------------------------
  C     -0.007341    1.505463   -0.002739
  C      0.011076    0.013080    0.016290
  C      0.232390   -0.989469   -1.109992
  C      0.833942   -2.007144   -0.098920
  C      0.616439   -1.008900    1.033774
  C     -0.473108   -2.015548    0.684761
  C     -1.101573   -3.087253    1.512036
  C     -1.079409   -0.992958   -0.331550
  H      1.007416    1.921109   -0.020209
  H     -0.531564    1.873176   -0.892123
  H     -0.520352    1.913560    0.876600
  H      0.405445   -0.812270   -2.163765
  H      1.582015   -2.783480   -0.196230
  H      1.166562   -0.883207    1.958158
  H     -1.848490   -2.677408    2.202762
  H     -1.600560   -3.838319    0.887764
  H     -0.344577   -3.604823    2.112124
  H     -2.089740   -0.819299   -0.680820

 Total Charge           Charge          ....    0
 Multiplicity           Mult            ....    1
 Number of Electrons    NEL             ....   58
 Basis Dimension        Dim             ....  308

ORBITAL ENERGIES
----------------

  NO   OCC          E(Eh)            E(eV)
   0   2.0000     -11.234275      -305.7002
   1   2.0000     -11.234253      -305.6996
   2   2.0000     -11.226055      -305.4765
   3   2.0000     -11.225564      -305.4631
   4   2.0000     -11.223549      -305.4083
   5   2.0000     -11.223527      -305.4077
   6   2.0000     -11.217850      -305.2532
   7   2.0000     -11.217849      -305.2532
   8   2.0000      -1.259479       -34.2722
   9   2.0000      -1.033377       -28.1196
  10   2.0000      -0.973461       -26.4892
  11   2.0000      -0.947159       -25.7735
  12   2.0000      -0.856785       -23.3143
  13   2.0000      -0.821063       -22.3423
  14   2.0000      -0.708648       -19.2833
  15   2.0000      -0.694830       -18.9073
  16   2.0000      -0.644185       -17.5292
  17   2.0000      -0.609186       -16.5768
  18   2.0000      -0.574887       -15.6435
  19   2.0000      -0.572481       -15.5780
  20   2.0000      -0.566226       -15.4078
  21   2.0000      -0.552196       -15.0260
  22   2.0000      -0.521244       -14.1838
  23   2.0000      -0.520006       -14.1501
  24   2.0000      -0.513096       -13.9621
  25   2.0000      -0.396621       -10.7926
  26   2.0000      -0.395672       -10.7668
  27   2.0000      -0.333055        -9.0629
  28   2.0000      -0.328333        -8.9344
  29   0.0000       0.146414         3.9841
  30   0.0000       0.149767         4.0754
  31   0.0000       0.178778         4.8648
  32   0.0000       0.190509         5.1840
  33   0.0000       0.193578         5.2675

MULLIKEN ATOMIC CHARGES
-----------------------
   0 C :   -0.399117
   1 C :    0.068240
   2 C :   -0.148457
   3 C :   -0.148410
   4 C :   -0.181717
   5 C :    0.068249
   6 C :   -0.399118
   7 C :   -0.181675
   8 H :    0.133906
   9 H :    0.130961
  10 H :    0.132754
  11 H :    0.133458
  12 H :    0.133462
  13 H :    0.129920
  14 H :    0.132756
  15 H :    0.133904
  16 H :    0.130962
  17 H :    0.129921
Sum of atomic charges:    0.0000000

LOEWDIN ATOMIC CHARGES
----------------------
   0 C :   -0.279363
   1 C :   -0.169802
   2 C :   -0.111869
   3 C :   -0.111869
   4 C :   -0.093488
   5 C :   -0.169801
   6 C :   -0.279363
   7 C :   -0.093488
   8 H :    0.128422
   9 H :    0.132374
  10 H :    0.128218
  11 H :    0.132072
  12 H :    0.132074
  13 H :    0.133434
  14 H :    0.128233
  15 H :    0.128409
  16 H :    0.132372
  17 H :    0.133435

  Mayer bond orders larger than 0.1
B(  0-C ,  1-C ) :   0.8612 B(  0-C ,  8-H ) :   0.9408 B(  0-C ,  9-H ) :   0.9447
B(  0-C , 10-H ) :   0.9396 B(  1-C ,  2-C ) :   0.8602 B(  1-C ,  4-C ) :   0.9181
B(  1-C ,  7-C ) :   0.8642 B(  2-C ,  3-C ) :   0.9383 B(  2-C ,  7-C ) :   0.8888
B(  2-C , 11-H ) :   0.9359 B(  3-C ,  4-C ) :   0.8888 B(  3-C ,  5-C ) :   0.8602
B(  3-C , 12-H ) :   0.9359 B(  4-C ,  5-C ) :   0.8643 B(  4-C , 13-H ) :   0.9392
B(  5-C ,  6-C ) :   0.8612 B(  5-C ,  7-C ) :   0.9181 B(  6-C , 14-H ) :   0.9395
B(  6-C , 15-H ) :   0.9408 B(  6-C , 16-H ) :   0.9447 B(  7-C , 17-H ) :   0.9393

MP2 TOTAL ENERGY:     -309.979599052 Eh
FINAL SINGLE POINT ENERGY      -309.979599052351

DIPOLE MOMENT
-------------
                                X             Y             Z
Electronic contribution:      1.28541      -0.83600      -1.60610
Nuclear contribution   :     -1.32830       0.86392       1.65973
                        -----------------------------------------
Total Dipole Moment    :     -0.04289       0.02792       0.05363
                        -----------------------------------------
Magnitude (a.u.)       :      0.07413
Magnitude (Debye)      :      0.18843

                             ****ORCA TERMINATED NORMALLY****
TOTAL RUN TIME: 0 days 0 hours 12 minutes 55 seconds 633 msec
