                         Program Version 3.0.3 - RELEASE   -
|  1> ! RI-MP2 RIJK def2-TZVP def2-TZVP/C def2-TZVP/JK TIGHTSCF
|  2> % maxcore 2000
|  3> % mp2 density relaxed end
|  4> *xyz 0 1
|  5>  C       -0.2094058804     1.5532839955     0.0153157261
|  6>  C        0.0385105300     0.0402059230    -0.0051393171
|  7>  C        0.8093754045    -0.4027987492    -1.2607430849
|  8>  O        2.1928018175    -0.1162127197    -1.1663351111
|  9>  C        2.8645264225    -0.9558996322    -0.2386147156
| 10>  C        4.3125714834    -0.4906573552    -0.1741624086
| 11>  C        2.1874180900    -0.9365968445     1.1228013664
| 12>  N        1.9284331544     0.3927660711     1.6873950710
| 13>  C        0.7904534306    -0.4357612696     1.2398553411
| 14>  H        0.7417444310     2.0886696285    -0.0169358256
| 15>  H       -0.8172605962     1.8579412095    -0.8432688509
| 16>  H       -0.7351285697     1.8562086513     0.9266553400
| 17>  H       -0.9296224022    -0.4770595594    -0.0219590874
| 18>  H        0.6626504384    -1.4833362589    -1.4292604881
| 19>  H        0.4456490127     0.1275428958    -2.1467898342
| 20>  H        2.8230296453    -1.9975162374    -0.6088573937
| 21>  H        4.3544677910     0.5213552442     0.2362541416
| 22>  H        4.9028778266    -1.1557528325     0.4641225927
| 23>  H        4.7530207387    -0.4856359509    -1.1746396950
| 24>  H        2.5055974196    -1.7307632460     1.7964837725
| 25>  H        2.0025602043     0.3685189323     2.7002945418
| 26>  H        0.1728608983    -0.8738985156     2.0209106188
| 27> *
| 28>
| 29>                          ****END OF INPUT****

CARTESIAN COORDINATES (ANGSTROEM)
---------------------------------
  C     -0.209406    1.553284    0.015316
  C      0.038511    0.040206   -0.005139
  C      0.809375   -0.402799   -1.260743
  O      2.192802   -0.116213   -1.166335
  C      2.864526   -0.955900   -0.238615
  C      4.312571   -0.490657   -0.174162
  C      2.187418   -0.936597    1.122801
  N      1.928433    0.392766    1.687395
  C      0.790453   -0.435761    1.239855
  H      0.741744    2.088670   -0.016936
  H     -0.817261    1.857941   -0.843269
  H     -0.735129    1.856209    0.926655
  H     -0.929622   -0.477060   -0.021959
  H      0.662650   -1.483336   -1.429260
  H      0.445649    0.127543   -2.146790
  H      2.823030   -1.997516   -0.608857
  H      4.354468    0.521355    0.236254
  H      4.902878   -1.155753    0.464123
  H      4.753021   -0.485636   -1.174640
  H      2.505597   -1.730763    1.796484
  H      2.002560    0.368519    2.700295
  H      0.172861   -0.873899    2.020911

 Total Charge           Charge          ....    0
 Multiplicity           Mult            ....    1
 Number of Electrons    NEL             ....   70
 Basis Dimension        Dim             ....  357

ORBITAL ENERGIES
----------------

  NO   OCC          E(Eh)            E(eV)
   0   2.0000     -20.545726      -559.0776
   1   2.0000     -15.553500      -423.2322
   2   2.0000     -11.277221      -306.8688
   3   2.0000     -11.267257      -306.5977
   4   2.0000     -11.258991      -306.3727
   5   2.0000     -11.256720      -306.3109
   6   2.0000     -11.227548      -305.5171
   7   2.0000     -11.206135      -304.9344
   8   2.0000     -11.202790      -304.8434
   9   2.0000      -1.372399       -37.3449
  10   2.0000      -1.259337       -34.2683
  11   2.0000      -1.067786       -29.0559
  12   2.0000      -1.015606       -27.6360
  13   2.0000      -0.919804       -25.0291
  14   2.0000      -0.900297       -24.4983
  15   2.0000      -0.865113       -23.5409
  16   2.0000      -0.797557       -21.7026
  17   2.0000      -0.735728       -20.0202
  18   2.0000      -0.715445       -19.4682
  19   2.0000      -0.660692       -17.9783
  20   2.0000      -0.631457       -17.1828
  21   2.0000      -0.621322       -16.9070
  22   2.0000      -0.603553       -16.4235
  23   2.0000      -0.574838       -15.6421
  24   2.0000      -0.535080       -14.5603
  25   2.0000      -0.530478       -14.4350
  26   2.0000      -0.521503       -14.1908
  27   2.0000      -0.509504       -13.8643
  28   2.0000      -0.498554       -13.5664
  29   2.0000      -0.491125       -13.3642
  30   2.0000      -0.470573       -12.8050
  31   2.0000      -0.452495       -12.3130
  32   2.0000      -0.440869       -11.9966
  33   2.0000      -0.404072       -10.9954
  34   2.0000      -0.379543       -10.3279
  35   0.0000       0.127717         3.4753
  36   0.0000       0.152827         4.1586
  37   0.0000       0.158958         4.3255
  38   0.0000       0.168226         4.5777
  39   0.0000       0.189741         5.1631

MULLIKEN ATOMIC CHARGES
-----------------------
   0 C :   -0.442049
   1 C :    0.028525
   2 C :   -0.094462
   3 O :   -0.304502
   4 C :    0.101376
   5 C :   -0.402878
   6 C :   -0.051982
   7 N :   -0.415954
   8 C :   -0.059948
   9 H :    0.161421
  10 H :    0.122478
  11 H :    0.120749
  12 H :    0.081739
  13 H :    0.098893
  14 H :    0.119416
  15 H :    0.063603
  16 H :    0.147492
  17 H :    0.117442
  18 H :    0.137577
  19 H :    0.127834
  20 H :    0.214721
  21 H :    0.128509
Sum of atomic charges:    0.0000000

LOEWDIN ATOMIC CHARGES
----------------------
   0 C :   -0.292624
   1 C :   -0.271375
   2 C :   -0.289269
   3 O :    0.187213
   4 C :   -0.337532
   5 C :   -0.287098
   6 C :   -0.244277
   7 N :    0.014882
   8 C :   -0.223390
   9 H :    0.132835
  10 H :    0.119769
  11 H :    0.122451
  12 H :    0.154255
  13 H :    0.121359
  14 H :    0.131685
  15 H :    0.137489
  16 H :    0.131287
  17 H :    0.124481
  18 H :    0.126415
  19 H :    0.139002
  20 H :    0.166175
  21 H :    0.136266

  Mayer bond orders larger than 0.1
B(  0-C ,  1-C ) :   0.8810 B(  0-C ,  9-H ) :   0.9355 B(  0-C , 10-H ) :   0.9357
B(  0-C , 11-H ) :   0.9403 B(  1-C ,  2-C ) :   0.9247 B(  1-C ,  8-C ) :   0.9069
B(  1-C , 12-H ) :   0.9243 B(  2-C ,  3-O ) :   0.9329 B(  2-C , 13-H ) :   0.9348
B(  2-C , 14-H ) :   0.9290 B(  3-O ,  4-C ) :   0.9662 B(  4-C ,  5-C ) :   0.8994
B(  4-C ,  6-C ) :   0.9143 B(  4-C , 15-H ) :   0.9458 B(  5-C , 16-H ) :   0.9422
B(  5-C , 17-H ) :   0.9314 B(  5-C , 18-H ) :   0.9377 B(  6-C ,  7-N ) :   0.9018
B(  6-C ,  8-C ) :   0.9307 B(  6-C , 19-H ) :   0.9141 B(  7-N ,  8-C ) :   0.8963
B(  7-N , 20-H ) :   0.8635 B(  8-C , 21-H ) :   0.9219

MP2 TOTAL ENERGY:     -403.649573778 Eh
FINAL SINGLE POINT ENERGY      -403.649573777578

DIPOLE MOMENT
-------------
                                X             Y             Z
Electronic contribution:      0.42906      -1.13954       0.29776
Nuclear contribution   :     -0.80388       0.36485       0.30849
                        -----------------------------------------
Total Dipole Moment    :     -0.37483      -0.77469       0.60625
                        -----------------------------------------
Magnitude (a.u.)       :      1.05270
Magnitude (Debye)      :      2.67576

                             ****ORCA TERMINATED NORMALLY****
TOTAL RUN TIME: 0 days 0 hours 20 minutes 20 seconds 173 msec
