                         Program Version 3.0.3 - RELEASE   -
|  1> ! RI-MP2 RIJK def2-TZVP def2-TZVP/C def2-TZVP/JK TIGHTSCF
|  2> % maxcore 2000
|  3> % mp2 density relaxed end
|  4> *xyz 0 1
|  5>  O       -0.0343604951     0.9775395708     0.0076015923
|  6>  H        0.0647664923     0.0205721989     0.0015346341
|  7>  H        0.8717903737     1.3007924048     0.0006931336
|  8> *
|  9>
| 10>                          ****END OF INPUT****

CARTESIAN COORDINATES (ANGSTROEM)
---------------------------------
  O     -0.034360    0.977540    0.007602
  H      0.064766    0.020572    0.001535
  H      0.871790    1.300792    0.000693

 Total Charge           Charge          ....    0
 Multiplicity           Mult            ....    1
 Number of Electrons    NEL             ....   10
 Basis Dimension        Dim             ....   43

ORBITAL ENERGIES
----------------

  NO   OCC          E(Eh)            E(eV)
   0   2.0000     -20.560970      -559.4924
   1   2.0000      -1.347844       -36.6767
   2   2.0000      -0.710604       -19.3365
   3   2.0000      -0.581934       -15.8352
   4   2.0000      -0.507894       -13.8205
   5   0.0000       0.127046         3.4571
   6   0.0000       0.197235         5.3670
   7   0.0000       0.521312        14.1856
   8   0.0000       0.566594        15.4178
   9   0.0000       0.597327        16.2541

MULLIKEN ATOMIC CHARGES
-----------------------
   0 O :   -0.669841
   1 H :    0.334920
   2 H :    0.334920
Sum of atomic charges:    0.0000000

LOEWDIN ATOMIC CHARGES
----------------------
   0 O :   -0.319039
   1 H :    0.159519
   2 H :    0.159519

  Mayer bond orders larger than 0.1
B(  0-O ,  1-H ) :   0.8567 B(  0-O ,  2-H ) :   0.8567

MP2 TOTAL ENERGY:      -76.312960660 Eh
FINAL SINGLE POINT ENERGY       -76.312960659621

DIPOLE MOMENT
-------------
                                X             Y             Z
Electronic contribution:     -0.12957       0.08168       0.00167
Nuclear contribution   :      0.83675      -0.52748      -0.01080
                        -----------------------------------------
Total Dipole Moment    :      0.70719      -0.44580      -0.00913
                        -----------------------------------------
Magnitude (a.u.)       :      0.83602
Magnitude (Debye)      :      2.12500

                             ****ORCA TERMINATED NORMALLY****
TOTAL RUN TIME: 0 days 0 hours 8 minutes 41 seconds 659 msec
