                         Program Version 3.0.3 - RELEASE   -
|  1> ! RI-MP2 RIJK def2-TZVP def2-TZVP/C def2-TZVP/JK TIGHTSCF
|  2> % maxcore 2000
|  3> % mp2 density relaxed end
|  4> *xyz 0 1
|  5>  C       -0.1956827787     1.5478522335    -0.0232342220
|  6>  C       -0.0458489464     0.0293486180    -0.0269366380
|  7>  C       -1.3546706876    -0.6701928731    -0.3745544478
|  8>  C        1.2158211818    -0.4587206908    -0.7823559981
|  9>  O        1.8974883874    -0.7821361280     0.4470824829
| 10>  C        0.6999847595    -0.5539072210     1.2274870858
| 11>  C        0.9091148159     0.2860603358     2.3926811611
| 12>  C        1.0647678060     0.9764839843     3.3647131020
| 13>  H        0.7460391470     2.0407563937     0.2330158150
| 14>  H       -0.5085575594     1.8986107470    -1.0130496372
| 15>  H       -0.9483495234     1.8689376202     0.7037957817
| 16>  H       -1.7095486061    -0.3626246225    -1.3645275558
| 17>  H       -1.2388470575    -1.7588453380    -0.3829543942
| 18>  H       -2.1377142140    -0.4190581334     0.3496062382
| 19>  H        1.0607993569    -1.3478323257    -1.4084315481
| 20>  H        1.7579958948     0.2978998129    -1.3612998751
| 21>  H        0.2643780883    -1.5118616292     1.5483163991
| 22>  H        1.2103564754     1.5840350863     4.2236973606
| 23> *
| 24>
| 25>                          ****END OF INPUT****

CARTESIAN COORDINATES (ANGSTROEM)
---------------------------------
  C     -0.195683    1.547852   -0.023234
  C     -0.045849    0.029349   -0.026937
  C     -1.354671   -0.670193   -0.374554
  C      1.215821   -0.458721   -0.782356
  O      1.897488   -0.782136    0.447082
  C      0.699985   -0.553907    1.227487
  C      0.909115    0.286060    2.392681
  C      1.064768    0.976484    3.364713
  H      0.746039    2.040756    0.233016
  H     -0.508558    1.898611   -1.013050
  H     -0.948350    1.868938    0.703796
  H     -1.709549   -0.362625   -1.364528
  H     -1.238847   -1.758845   -0.382954
  H     -2.137714   -0.419058    0.349606
  H      1.060799   -1.347832   -1.408432
  H      1.757996    0.297900   -1.361300
  H      0.264378   -1.511862    1.548316
  H      1.210356    1.584035    4.223697

 Total Charge           Charge          ....    0
 Multiplicity           Mult            ....    1
 Number of Electrons    NEL             ....   60
 Basis Dimension        Dim             ....  308

ORBITAL ENERGIES
----------------

  NO   OCC          E(Eh)            E(eV)
   0   2.0000     -20.555311      -559.3385
   1   2.0000     -11.307207      -307.6847
   2   2.0000     -11.278883      -306.9140
   3   2.0000     -11.252800      -306.2043
   4   2.0000     -11.234891      -305.7169
   5   2.0000     -11.229256      -305.5636
   6   2.0000     -11.226929      -305.5003
   7   2.0000     -11.220494      -305.3252
   8   2.0000      -1.385124       -37.6911
   9   2.0000      -1.091367       -29.6976
  10   2.0000      -1.045370       -28.4460
  11   2.0000      -0.947811       -25.7913
  12   2.0000      -0.942937       -25.6586
  13   2.0000      -0.906579       -24.6693
  14   2.0000      -0.771815       -21.0021
  15   2.0000      -0.717748       -19.5309
  16   2.0000      -0.685257       -18.6468
  17   2.0000      -0.653655       -17.7869
  18   2.0000      -0.639791       -17.4096
  19   2.0000      -0.596878       -16.2419
  20   2.0000      -0.578847       -15.7512
  21   2.0000      -0.573500       -15.6057
  22   2.0000      -0.551105       -14.9963
  23   2.0000      -0.538137       -14.6435
  24   2.0000      -0.493513       -13.4292
  25   2.0000      -0.468745       -12.7552
  26   2.0000      -0.450655       -12.2629
  27   2.0000      -0.431235       -11.7345
  28   2.0000      -0.396586       -10.7917
  29   2.0000      -0.382731       -10.4146
  30   0.0000       0.127766         3.4767
  31   0.0000       0.149460         4.0670
  32   0.0000       0.162174         4.4130
  33   0.0000       0.168624         4.5885
  34   0.0000       0.182332         4.9615

MULLIKEN ATOMIC CHARGES
-----------------------
   0 C :   -0.430112
   1 C :    0.108724
   2 C :   -0.420702
   3 C :   -0.044638
   4 O :   -0.307276
   5 C :   -0.086989
   6 C :   -0.043701
   7 C :   -0.094172
   8 H :    0.154094
   9 H :    0.134355
  10 H :    0.134643
  11 H :    0.134859
  12 H :    0.136855
  13 H :    0.137609
  14 H :    0.091455
  15 H :    0.101483
  16 H :    0.099920
  17 H :    0.193594
Sum of atomic charges:   -0.0000000

LOEWDIN ATOMIC CHARGES
----------------------
   0 C :   -0.266232
   1 C :   -0.282508
   2 C :   -0.273128
   3 C :   -0.228885
   4 O :    0.147802
   5 C :   -0.235381
   6 C :   -0.082617
   7 C :   -0.079467
   8 H :    0.134948
   9 H :    0.127673
  10 H :    0.130144
  11 H :    0.128772
  12 H :    0.126664
  13 H :    0.129860
  14 H :    0.118818
  15 H :    0.120369
  16 H :    0.154960
  17 H :    0.128207

  Mayer bond orders larger than 0.1
B(  0-C ,  1-C ) :   0.9241 B(  0-C ,  8-H ) :   0.9322 B(  0-C ,  9-H ) :   0.9331
B(  0-C , 10-H ) :   0.9297 B(  1-C ,  2-C ) :   0.9198 B(  1-C ,  3-C ) :   0.9513
B(  1-C ,  5-C ) :   0.9211 B(  2-C , 11-H ) :   0.9325 B(  2-C , 12-H ) :   0.9324
B(  2-C , 13-H ) :   0.9331 B(  3-C ,  4-O ) :   0.9495 B(  3-C , 14-H ) :   0.9051
B(  3-C , 15-H ) :   0.9081 B(  4-O ,  5-C ) :   1.0139 B(  5-C ,  6-C ) :   1.1601
B(  5-C ,  7-C ) :  -0.1208 B(  5-C , 16-H ) :   0.9017 B(  6-C ,  7-C ) :   2.5575
B(  7-C , 17-H ) :   0.8915

MP2 TOTAL ENERGY:     -347.139997391 Eh
FINAL SINGLE POINT ENERGY      -347.139997391004

DIPOLE MOMENT
-------------
                                X             Y             Z
Electronic contribution:      5.43726      -1.56465       4.94125
Nuclear contribution   :     -6.19259       1.82204      -5.22098
                        -----------------------------------------
Total Dipole Moment    :     -0.75533       0.25740      -0.27973
                        -----------------------------------------
Magnitude (a.u.)       :      0.84559
Magnitude (Debye)      :      2.14933

                             ****ORCA TERMINATED NORMALLY****
TOTAL RUN TIME: 0 days 0 hours 14 minutes 15 seconds 631 msec
