                         Program Version 3.0.3 - RELEASE   -
|  1> ! RI-MP2 RIJK def2-TZVP def2-TZVP/C def2-TZVP/JK TIGHTSCF
|  2> % maxcore 2000
|  3> % mp2 density relaxed end
|  4> *xyz 0 1
|  5>  C       -0.0237096417     1.5392310311    -0.0161404257
|  6>  C        1.4051070509     2.0864972987     0.0370301646
|  7>  O        2.0843810361     1.7349489547     1.2430947128
|  8>  C        1.9463647423     0.4181724165     1.5720591335
|  9>  C        2.6934089987    -0.2659949303     2.5024236375
| 10>  N        2.1835713236    -1.5474705779     2.5420552960
| 11>  C        1.1456422049    -1.6758066739     1.6588495448
| 12>  C        0.9649622167    -0.4616562892     1.0309219425
| 13>  C       -0.0152276261    -0.0016989083    -0.0095855490
| 14>  H       -0.5736225343     1.9159542997     0.8541638076
| 15>  H       -0.5220129869     1.9245977554    -0.9120308370
| 16>  H        1.9800141425     1.7156711394    -0.8265117743
| 17>  H        1.4129252547     3.1791255432     0.0068910009
| 18>  H        3.5108976674     0.0464062463     3.1288924990
| 19>  H        2.5311735543    -2.2809925452     3.1321372090
| 20>  H        0.6201112839    -2.6111110052     1.5485614623
| 21>  H       -1.0222218767    -0.3886965036     0.1826719360
| 22>  H        0.2686277597    -0.3655521513    -1.0071033106
| 23> *
| 24>
| 25>                          ****END OF INPUT****

CARTESIAN COORDINATES (ANGSTROEM)
---------------------------------
  C     -0.023710    1.539231   -0.016140
  C      1.405107    2.086497    0.037030
  O      2.084381    1.734949    1.243095
  C      1.946365    0.418172    1.572059
  C      2.693409   -0.265995    2.502424
  N      2.183571   -1.547471    2.542055
  C      1.145642   -1.675807    1.658850
  C      0.964962   -0.461656    1.030922
  C     -0.015228   -0.001699   -0.009586
  H     -0.573623    1.915954    0.854164
  H     -0.522013    1.924598   -0.912031
  H      1.980014    1.715671   -0.826512
  H      1.412925    3.179126    0.006891
  H      3.510898    0.046406    3.128892
  H      2.531174   -2.280993    3.132137
  H      0.620111   -2.611111    1.548561
  H     -1.022222   -0.388697    0.182672
  H      0.268628   -0.365552   -1.007103

 Total Charge           Charge          ....    0
 Multiplicity           Mult            ....    1
 Number of Electrons    NEL             ....   66
 Basis Dimension        Dim             ....  333

ORBITAL ENERGIES
----------------

  NO   OCC          E(Eh)            E(eV)
   0   2.0000     -20.561583      -559.5091
   1   2.0000     -15.596754      -424.4093
   2   2.0000     -11.274770      -306.8021
   3   2.0000     -11.260090      -306.4026
   4   2.0000     -11.248742      -306.0938
   5   2.0000     -11.234676      -305.7111
   6   2.0000     -11.226279      -305.4826
   7   2.0000     -11.223342      -305.4027
   8   2.0000     -11.207984      -304.9848
   9   2.0000      -1.388285       -37.7771
  10   2.0000      -1.280663       -34.8486
  11   2.0000      -1.078935       -29.3593
  12   2.0000      -1.035232       -28.1701
  13   2.0000      -0.966212       -26.2920
  14   2.0000      -0.913718       -24.8635
  15   2.0000      -0.830644       -22.6030
  16   2.0000      -0.785360       -21.3707
  17   2.0000      -0.728452       -19.8222
  18   2.0000      -0.714883       -19.4530
  19   2.0000      -0.651517       -17.7287
  20   2.0000      -0.639409       -17.3992
  21   2.0000      -0.611244       -16.6328
  22   2.0000      -0.590817       -16.0769
  23   2.0000      -0.578784       -15.7495
  24   2.0000      -0.568389       -15.4666
  25   2.0000      -0.559947       -15.2369
  26   2.0000      -0.536827       -14.6078
  27   2.0000      -0.510365       -13.8877
  28   2.0000      -0.486259       -13.2318
  29   2.0000      -0.462868       -12.5953
  30   2.0000      -0.441087       -12.0026
  31   2.0000      -0.317264        -8.6332
  32   2.0000      -0.282174        -7.6784
  33   0.0000       0.137714         3.7474
  34   0.0000       0.142934         3.8894
  35   0.0000       0.161155         4.3852
  36   0.0000       0.173662         4.7256
  37   0.0000       0.184947         5.0327

MULLIKEN ATOMIC CHARGES
-----------------------
   0 C :   -0.217238
   1 C :   -0.033409
   2 O :   -0.293299
   3 C :    0.133358
   4 C :   -0.161235
   5 N :   -0.235283
   6 C :   -0.148225
   7 C :   -0.040679
   8 C :   -0.229277
   9 H :    0.113507
  10 H :    0.122367
  11 H :    0.089684
  12 H :    0.129067
  13 H :    0.143439
  14 H :    0.242801
  15 H :    0.141952
  16 H :    0.125949
  17 H :    0.116521
Sum of atomic charges:   -0.0000000

LOEWDIN ATOMIC CHARGES
----------------------
   0 C :   -0.259594
   1 C :   -0.289057
   2 O :    0.227145
   3 C :   -0.272176
   4 C :   -0.224075
   5 N :    0.176085
   6 C :   -0.224307
   7 C :   -0.180595
   8 C :   -0.228307
   9 H :    0.142569
  10 H :    0.139028
  11 H :    0.125085
  12 H :    0.129220
  13 H :    0.132958
  14 H :    0.189439
  15 H :    0.132000
  16 H :    0.142517
  17 H :    0.142064

  Mayer bond orders larger than 0.1
B(  0-C ,  1-C ) :   0.9281 B(  0-C ,  8-C ) :   0.9513 B(  0-C ,  9-H ) :   0.9236
B(  0-C , 10-H ) :   0.9262 B(  1-C ,  2-O ) :   0.8928 B(  1-C , 11-H ) :   0.9284
B(  1-C , 12-H ) :   0.9321 B(  2-O ,  3-C ) :   1.0665 B(  3-C ,  4-C ) :   1.4970
B(  3-C ,  7-C ) :   1.2306 B(  4-C ,  5-N ) :   1.0972 B(  4-C ,  6-C ) :   0.1093
B(  4-C , 13-H ) :   0.9053 B(  5-N ,  6-C ) :   1.1784 B(  5-N , 14-H ) :   0.8786
B(  6-C ,  7-C ) :   1.3993 B(  6-C , 15-H ) :   0.9075 B(  7-C ,  8-C ) :   0.9187
B(  8-C , 16-H ) :   0.9293 B(  8-C , 17-H ) :   0.9192

MP2 TOTAL ENERGY:     -401.294403388 Eh
FINAL SINGLE POINT ENERGY      -401.294403388332

DIPOLE MOMENT
-------------
                                X             Y             Z
Electronic contribution:      3.74429      -1.59640       4.04546
Nuclear contribution   :     -3.92078       0.97078      -4.06752
                        -----------------------------------------
Total Dipole Moment    :     -0.17649      -0.62562      -0.02207
                        -----------------------------------------
Magnitude (a.u.)       :      0.65041
Magnitude (Debye)      :      1.65322

                             ****ORCA TERMINATED NORMALLY****
TOTAL RUN TIME: 0 days 0 hours 18 minutes 24 seconds 262 msec
