                         Program Version 3.0.3 - RELEASE   -
|  1> ! RI-MP2 RIJK def2-TZVP def2-TZVP/C def2-TZVP/JK TIGHTSCF
|  2> % maxcore 2000
|  3> % mp2 density relaxed end
|  4> *xyz 0 1
|  5>  C       -0.1142691457     1.5521249703    -0.0389845069
|  6>  C        0.0246263955     0.0498012477     0.0459720622
|  7>  C        1.3511943561    -0.6540569437    -0.2019876087
|  8>  C        2.5447439126     0.1083772018    -0.4269466386
|  9>  N        3.5057130225     0.7288027740    -0.6048376606
| 10>  C        0.7063012974    -0.6559556160     1.2062802927
| 11>  C        1.3600436751     0.1301218314     2.3333308855
| 12>  C        0.1424366513    -1.9179351433     1.6109299129
| 13>  C       -0.3283051921    -2.9667477144     1.9643714739
| 14>  H        0.7902689984     2.0748180395     0.2772521928
| 15>  H       -0.3206388451     1.8508838595    -1.0716220880
| 16>  H       -0.9462211324     1.8974246302     0.5829744910
| 17>  H       -0.8206072667    -0.4982762233    -0.3587918273
| 18>  H        1.3193001818    -1.5947223477    -0.7395893690
| 19>  H        1.8643283734     1.0257971654     1.9682672768
| 20>  H        0.6078428047     0.4270759112     3.0698528860
| 21>  H        2.1039485464    -0.4903304912     2.8401794184
| 22>  H       -0.7439671330    -3.8926653714     2.2769923669
| 23> *
| 24>
| 25>                          ****END OF INPUT****

CARTESIAN COORDINATES (ANGSTROEM)
---------------------------------
  C     -0.114269    1.552125   -0.038985
  C      0.024626    0.049801    0.045972
  C      1.351194   -0.654057   -0.201988
  C      2.544744    0.108377   -0.426947
  N      3.505713    0.728803   -0.604838
  C      0.706301   -0.655956    1.206280
  C      1.360044    0.130122    2.333331
  C      0.142437   -1.917935    1.610930
  C     -0.328305   -2.966748    1.964371
  H      0.790269    2.074818    0.277252
  H     -0.320639    1.850884   -1.071622
  H     -0.946221    1.897425    0.582974
  H     -0.820607   -0.498276   -0.358792
  H      1.319300   -1.594722   -0.739589
  H      1.864328    1.025797    1.968267
  H      0.607843    0.427076    3.069853
  H      2.103949   -0.490330    2.840179
  H     -0.743967   -3.892665    2.276992

 Total Charge           Charge          ....    0
 Multiplicity           Mult            ....    1
 Number of Electrons    NEL             ....   64
 Basis Dimension        Dim             ....  333

ORBITAL ENERGIES
----------------

  NO   OCC          E(Eh)            E(eV)
   0   2.0000     -15.570538      -423.6959
   1   2.0000     -11.295744      -307.3728
   2   2.0000     -11.289671      -307.2076
   3   2.0000     -11.276920      -306.8606
   4   2.0000     -11.275366      -306.8183
   5   2.0000     -11.248601      -306.0900
   6   2.0000     -11.239786      -305.8501
   7   2.0000     -11.239434      -305.8406
   8   2.0000     -11.237838      -305.7971
   9   2.0000      -1.230047       -33.4713
  10   2.0000      -1.194978       -32.5170
  11   2.0000      -1.051244       -28.6058
  12   2.0000      -1.001770       -27.2596
  13   2.0000      -0.988615       -26.9016
  14   2.0000      -0.905043       -24.6275
  15   2.0000      -0.819046       -22.2874
  16   2.0000      -0.740067       -20.1382
  17   2.0000      -0.710455       -19.3325
  18   2.0000      -0.690074       -18.7779
  19   2.0000      -0.613337       -16.6898
  20   2.0000      -0.604252       -16.4425
  21   2.0000      -0.589583       -16.0434
  22   2.0000      -0.568908       -15.4808
  23   2.0000      -0.562885       -15.3169
  24   2.0000      -0.554928       -15.1004
  25   2.0000      -0.528362       -14.3775
  26   2.0000      -0.508995       -13.8505
  27   2.0000      -0.489530       -13.3208
  28   2.0000      -0.455162       -12.3856
  29   2.0000      -0.437162       -11.8958
  30   2.0000      -0.395199       -10.7539
  31   2.0000      -0.375667       -10.2224
  32   0.0000       0.123629         3.3641
  33   0.0000       0.142091         3.8665
  34   0.0000       0.148151         4.0314
  35   0.0000       0.158228         4.3056
  36   0.0000       0.166382         4.5275

MULLIKEN ATOMIC CHARGES
-----------------------
   0 C :   -0.405225
   1 C :   -0.079583
   2 C :   -0.028856
   3 C :   -0.219271
   4 N :   -0.052423
   5 C :   -0.126879
   6 C :   -0.395616
   7 C :    0.013754
   8 C :   -0.109999
   9 H :    0.146365
  10 H :    0.148030
  11 H :    0.145143
  12 H :    0.147691
  13 H :    0.171706
  14 H :    0.149411
  15 H :    0.146834
  16 H :    0.152527
  17 H :    0.196391
Sum of atomic charges:   -0.0000000

LOEWDIN ATOMIC CHARGES
----------------------
   0 C :   -0.276186
   1 C :   -0.155932
   2 C :   -0.142624
   3 C :   -0.178276
   4 N :    0.063258
   5 C :   -0.201935
   6 C :   -0.233871
   7 C :   -0.067117
   8 C :   -0.083329
   9 H :    0.132733
  10 H :    0.134474
  11 H :    0.132360
  12 H :    0.162305
  13 H :    0.176272
  14 H :    0.134436
  15 H :    0.135750
  16 H :    0.138662
  17 H :    0.129018

  Mayer bond orders larger than 0.1
B(  0-C ,  1-C ) :   0.9034 B(  0-C ,  9-H ) :   0.9341 B(  0-C , 10-H ) :   0.9314
B(  0-C , 11-H ) :   0.9369 B(  1-C ,  2-C ) :   0.8587 B(  1-C ,  5-C ) :   0.8342
B(  1-C , 12-H ) :   0.9270 B(  2-C ,  3-C ) :   0.9599 B(  2-C ,  5-C ) :   0.7833
B(  2-C , 13-H ) :   0.9117 B(  3-C ,  4-N ) :   2.8349 B(  5-C ,  6-C ) :   0.9925
B(  5-C ,  7-C ) :   1.1850 B(  5-C ,  8-C ) :  -0.1565 B(  6-C , 14-H ) :   0.9188
B(  6-C , 15-H ) :   0.9328 B(  6-C , 16-H ) :   0.9308 B(  7-C ,  8-C ) :   2.5511
B(  8-C , 17-H ) :   0.8869

MP2 TOTAL ENERGY:     -364.118628707 Eh
FINAL SINGLE POINT ENERGY      -364.118628707352

DIPOLE MOMENT
-------------
                                X             Y             Z
Electronic contribution:      3.61781      -4.10356      -2.39461
Nuclear contribution   :     -4.96459       3.68168       2.73444
                        -----------------------------------------
Total Dipole Moment    :     -1.34678      -0.42188       0.33983
                        -----------------------------------------
Magnitude (a.u.)       :      1.45165
Magnitude (Debye)      :      3.68980

                             ****ORCA TERMINATED NORMALLY****
TOTAL RUN TIME: 0 days 0 hours 19 minutes 21 seconds 133 msec
