                         Program Version 3.0.3 - RELEASE   -
|  1> ! RI-MP2 RIJK def2-TZVP def2-TZVP/C def2-TZVP/JK TIGHTSCF
|  2> % maxcore 2000
|  3> % mp2 density relaxed end
|  4> *xyz 0 1
|  5>  C        0.0122398149     1.4846907135     0.0157114631
|  6>  C        1.3117919425     0.7600149775     0.0522296598
|  7>  C        2.2003645420     0.7181072532     1.2787130265
|  8>  C        2.8822514016    -0.6508023267     1.4178032375
|  9>  C        1.9671722689    -1.8338506281     1.6735140087
| 10>  O        1.1620579716    -1.8341057146     2.8544862486
| 11>  C        0.4937839861    -1.8496404756     1.5834215747
| 12>  C       -0.3598300110    -0.6296815843     1.2633074559
| 13>  N        0.0441617451     0.0202381532     0.0167914951
| 14>  H       -0.3067153536     1.9827475684     0.9307350587
| 15>  H       -0.3382157484     1.9537243450    -0.8997452264
| 16>  H        1.8643001103     0.6778390886    -0.8844941015
| 17>  H        2.9696649791     1.4937347153     1.1886294053
| 18>  H        1.6383951844     0.9478860001     2.1878106891
| 19>  H        3.4412954455    -0.8679482702     0.4976566349
| 20>  H        3.6253841887    -0.6214152808     2.2249576623
| 21>  H        2.4612712667    -2.7932496019     1.4993707406
| 22>  H        0.0357154647    -2.8110361436     1.3481768912
| 23>  H       -1.4049091608    -0.9373058571     1.1470233942
| 24>  H       -0.3230823186     0.0377066984     2.1365177118
| 25> *
| 26>
| 27>                          ****END OF INPUT****

CARTESIAN COORDINATES (ANGSTROEM)
---------------------------------
  C      0.012240    1.484691    0.015711
  C      1.311792    0.760015    0.052230
  C      2.200365    0.718107    1.278713
  C      2.882251   -0.650802    1.417803
  C      1.967172   -1.833851    1.673514
  O      1.162058   -1.834106    2.854486
  C      0.493784   -1.849640    1.583422
  C     -0.359830   -0.629682    1.263307
  N      0.044162    0.020238    0.016791
  H     -0.306715    1.982748    0.930735
  H     -0.338216    1.953724   -0.899745
  H      1.864300    0.677839   -0.884494
  H      2.969665    1.493735    1.188629
  H      1.638395    0.947886    2.187811
  H      3.441295   -0.867948    0.497657
  H      3.625384   -0.621415    2.224958
  H      2.461271   -2.793250    1.499371
  H      0.035715   -2.811036    1.348177
  H     -1.404909   -0.937306    1.147023
  H     -0.323082    0.037707    2.136518

 Total Charge           Charge          ....    0
 Multiplicity           Mult            ....    1
 Number of Electrons    NEL             ....   68
 Basis Dimension        Dim             ....  345

ORBITAL ENERGIES
----------------

  NO   OCC          E(Eh)            E(eV)
   0   2.0000     -20.560688      -559.4848
   1   2.0000     -15.558448      -423.3669
   2   2.0000     -11.285061      -307.0821
   3   2.0000     -11.282740      -307.0190
   4   2.0000     -11.259123      -306.3763
   5   2.0000     -11.256079      -306.2935
   6   2.0000     -11.254241      -306.2435
   7   2.0000     -11.234168      -305.6973
   8   2.0000     -11.232020      -305.6388
   9   2.0000      -1.406069       -38.2611
  10   2.0000      -1.274629       -34.6844
  11   2.0000      -1.066272       -29.0147
  12   2.0000      -1.024625       -27.8815
  13   2.0000      -0.937053       -25.4985
  14   2.0000      -0.887616       -24.1533
  15   2.0000      -0.840906       -22.8822
  16   2.0000      -0.780615       -21.2416
  17   2.0000      -0.760643       -20.6981
  18   2.0000      -0.708256       -19.2726
  19   2.0000      -0.668693       -18.1961
  20   2.0000      -0.649353       -17.6698
  21   2.0000      -0.629217       -17.1219
  22   2.0000      -0.592761       -16.1299
  23   2.0000      -0.578566       -15.7436
  24   2.0000      -0.562693       -15.3117
  25   2.0000      -0.535306       -14.5664
  26   2.0000      -0.523434       -14.2434
  27   2.0000      -0.502456       -13.6725
  28   2.0000      -0.492784       -13.4093
  29   2.0000      -0.469204       -12.7677
  30   2.0000      -0.448487       -12.2040
  31   2.0000      -0.432864       -11.7788
  32   2.0000      -0.413585       -11.2542
  33   2.0000      -0.369175       -10.0458
  34   0.0000       0.139308         3.7908
  35   0.0000       0.156971         4.2714
  36   0.0000       0.164685         4.4813
  37   0.0000       0.173179         4.7124
  38   0.0000       0.187220         5.0945

MULLIKEN ATOMIC CHARGES
-----------------------
   0 C :   -0.176612
   1 C :   -0.077749
   2 C :   -0.227524
   3 C :   -0.168942
   4 C :    0.001113
   5 O :   -0.338629
   6 C :    0.022463
   7 C :   -0.164595
   8 N :   -0.225564
   9 H :    0.119030
  10 H :    0.127400
  11 H :    0.114533
  12 H :    0.134470
  13 H :    0.130261
  14 H :    0.109738
  15 H :    0.129408
  16 H :    0.114763
  17 H :    0.111944
  18 H :    0.130818
  19 H :    0.133677
Sum of atomic charges:    0.0000000

LOEWDIN ATOMIC CHARGES
----------------------
   0 C :   -0.244918
   1 C :   -0.255697
   2 C :   -0.249853
   3 C :   -0.246169
   4 C :   -0.268233
   5 O :    0.156834
   6 C :   -0.250385
   7 C :   -0.275192
   8 N :    0.108295
   9 H :    0.124566
  10 H :    0.124630
  11 H :    0.142889
  12 H :    0.146223
  13 H :    0.144785
  14 H :    0.148433
  15 H :    0.146867
  16 H :    0.138818
  17 H :    0.136881
  18 H :    0.138603
  19 H :    0.132625

  Mayer bond orders larger than 0.1
B(  0-C ,  1-C ) :   0.9429 B(  0-C ,  8-N ) :   0.8900 B(  0-C ,  9-H ) :   0.9173
B(  0-C , 10-H ) :   0.9238 B(  1-C ,  2-C ) :   0.9310 B(  1-C ,  8-N ) :   0.9088
B(  1-C , 11-H ) :   0.9174 B(  2-C ,  3-C ) :   0.9154 B(  2-C , 12-H ) :   0.9289
B(  2-C , 13-H ) :   0.9281 B(  3-C ,  4-C ) :   0.9395 B(  3-C , 14-H ) :   0.9170
B(  3-C , 15-H ) :   0.9182 B(  4-C ,  5-O ) :   0.8636 B(  4-C ,  6-C ) :   0.9883
B(  4-C , 16-H ) :   0.9182 B(  5-O ,  6-C ) :   0.9404 B(  6-C ,  7-C ) :   0.8621
B(  6-C , 17-H ) :   0.9208 B(  7-C ,  8-N ) :   0.8788 B(  7-C , 18-H ) :   0.9250
B(  7-C , 19-H ) :   0.9430

MP2 TOTAL ENERGY:     -402.415632628 Eh
FINAL SINGLE POINT ENERGY      -402.415632628070

DIPOLE MOMENT
-------------
                                X             Y             Z
Electronic contribution:     -1.37385      -3.18582       0.98058
Nuclear contribution   :      1.66962       3.55790      -1.25181
                        -----------------------------------------
Total Dipole Moment    :      0.29577       0.37208      -0.27123
                        -----------------------------------------
Magnitude (a.u.)       :      0.54726
Magnitude (Debye)      :      1.39102

                             ****ORCA TERMINATED NORMALLY****
TOTAL RUN TIME: 0 days 0 hours 20 minutes 15 seconds 427 msec
