                         Program Version 3.0.3 - RELEASE   -
|  1> ! RI-MP2 RIJK def2-TZVP def2-TZVP/C def2-TZVP/JK TIGHTSCF
|  2> % maxcore 2000
|  3> % mp2 density relaxed end
|  4> *xyz 0 1
|  5>  C        0.0204578396     1.2725357655    -0.2556980087
|  6>  O       -0.0737558610     0.0201004471     0.3921228312
|  7>  C       -1.3109456993    -0.5801269343     0.2453662728
|  8>  C       -1.6435088463    -1.3859978825    -1.0715875999
|  9>  N       -0.5689386217    -2.3820983294    -0.6103871912
| 10>  C       -1.3804770119    -2.0743707300     0.6580634439
| 11>  C       -2.6201434056    -2.1663955225    -0.2084820924
| 12>  N       -3.7252076809    -2.7739967754    -0.1857997267
| 13>  O       -4.4341136902    -2.5811239889    -1.3971366286
| 14>  H        1.0037963283     1.6827200961    -0.0173972846
| 15>  H       -0.0699871750     1.1747450081    -1.3468256892
| 16>  H       -0.7538861141     1.9708328670     0.0976558553
| 17>  H       -2.1282347871     0.0566248995     0.6100093327
| 18>  H       -1.7297172464    -1.0510056736    -2.1020040034
| 19>  H       -0.8205157279    -3.3173874942    -0.9443264890
| 20>  H       -1.1577583734    -2.5272905431     1.6215394896
| 21>  H       -5.2395614972    -3.0836920095    -1.2349686118
| 22> *
| 23>
| 24>                          ****END OF INPUT****

CARTESIAN COORDINATES (ANGSTROEM)
---------------------------------
  C      0.020458    1.272536   -0.255698
  O     -0.073756    0.020100    0.392123
  C     -1.310946   -0.580127    0.245366
  C     -1.643509   -1.385998   -1.071588
  N     -0.568939   -2.382098   -0.610387
  C     -1.380477   -2.074371    0.658063
  C     -2.620143   -2.166396   -0.208482
  N     -3.725208   -2.773997   -0.185800
  O     -4.434114   -2.581124   -1.397137
  H      1.003796    1.682720   -0.017397
  H     -0.069987    1.174745   -1.346826
  H     -0.753886    1.970833    0.097656
  H     -2.128235    0.056625    0.610009
  H     -1.729717   -1.051006   -2.102004
  H     -0.820516   -3.317387   -0.944326
  H     -1.157758   -2.527291    1.621539
  H     -5.239561   -3.083692   -1.234969

 Total Charge           Charge          ....    0
 Multiplicity           Mult            ....    1
 Number of Electrons    NEL             ....   68
 Basis Dimension        Dim             ....  327

ORBITAL ENERGIES
----------------

  NO   OCC          E(Eh)            E(eV)
   0   2.0000     -20.593755      -560.3846
   1   2.0000     -20.569072      -559.7129
   2   2.0000     -15.618841      -425.0103
   3   2.0000     -15.576592      -423.8606
   4   2.0000     -11.311130      -307.7915
   5   2.0000     -11.295907      -307.3773
   6   2.0000     -11.295059      -307.3542
   7   2.0000     -11.293960      -307.3243
   8   2.0000     -11.280253      -306.9513
   9   2.0000      -1.416593       -38.5475
  10   2.0000      -1.400413       -38.1072
  11   2.0000      -1.299133       -35.3512
  12   2.0000      -1.144863       -31.1533
  13   2.0000      -1.018674       -27.7195
  14   2.0000      -0.945822       -25.7371
  15   2.0000      -0.900975       -24.5168
  16   2.0000      -0.826864       -22.5001
  17   2.0000      -0.747080       -20.3291
  18   2.0000      -0.716765       -19.5042
  19   2.0000      -0.699359       -19.0305
  20   2.0000      -0.681144       -18.5349
  21   2.0000      -0.645507       -17.5651
  22   2.0000      -0.640901       -17.4398
  23   2.0000      -0.617617       -16.8062
  24   2.0000      -0.590528       -16.0691
  25   2.0000      -0.538228       -14.6459
  26   2.0000      -0.529005       -14.3950
  27   2.0000      -0.522272       -14.2117
  28   2.0000      -0.507052       -13.7976
  29   2.0000      -0.472249       -12.8505
  30   2.0000      -0.442734       -12.0474
  31   2.0000      -0.437244       -11.8980
  32   2.0000      -0.417402       -11.3581
  33   2.0000      -0.377247       -10.2654
  34   0.0000       0.138443         3.7672
  35   0.0000       0.147343         4.0094
  36   0.0000       0.152878         4.1600
  37   0.0000       0.163641         4.4529
  38   0.0000       0.178228         4.8498

MULLIKEN ATOMIC CHARGES
-----------------------
   0 C :   -0.216281
   1 O :   -0.292375
   2 C :    0.077481
   3 C :   -0.097645
   4 N :   -0.289186
   5 C :   -0.044907
   6 C :   -0.044502
   7 N :   -0.089120
   8 O :   -0.360661
   9 H :    0.146476
  10 H :    0.117984
  11 H :    0.113032
  12 H :    0.105260
  13 H :    0.164250
  14 H :    0.213899
  15 H :    0.158308
  16 H :    0.337987
Sum of atomic charges:    0.0000000

LOEWDIN ATOMIC CHARGES
----------------------
   0 C :   -0.342345
   1 O :    0.185575
   2 C :   -0.279508
   3 C :   -0.167892
   4 N :    0.035940
   5 C :   -0.151584
   6 C :   -0.268245
   7 N :    0.016025
   8 O :   -0.087068
   9 H :    0.116384
  10 H :    0.104645
  11 H :    0.103437
  12 H :    0.137774
  13 H :    0.131181
  14 H :    0.163459
  15 H :    0.133564
  16 H :    0.168660

  Mayer bond orders larger than 0.1
B(  0-C ,  1-O ) :   0.9032 B(  0-C ,  9-H ) :   0.9406 B(  0-C , 10-H ) :   0.9342
B(  0-C , 11-H ) :   0.9339 B(  1-O ,  2-C ) :   1.0016 B(  2-C ,  3-C ) :   0.8935
B(  2-C ,  5-C ) :   0.8863 B(  2-C , 12-H ) :   0.9183 B(  3-C ,  4-N ) :   0.9994
B(  3-C ,  6-C ) :   0.9514 B(  3-C , 13-H ) :   0.8647 B(  4-N ,  5-C ) :   0.9779
B(  4-N , 14-H ) :   0.8877 B(  5-C ,  6-C ) :   0.9990 B(  5-C , 15-H ) :   0.8747
B(  6-C ,  7-N ) :   1.9408 B(  7-N ,  8-O ) :   0.7803 B(  8-O , 16-H ) :   0.8430

MP2 TOTAL ENERGY:     -454.256868696 Eh
FINAL SINGLE POINT ENERGY      -454.256868695842

DIPOLE MOMENT
-------------
                                X             Y             Z
Electronic contribution:     -3.43051      -5.25999       0.67436
Nuclear contribution   :      3.02928       5.61343      -0.88264
                        -----------------------------------------
Total Dipole Moment    :     -0.40122       0.35344      -0.20828
                        -----------------------------------------
Magnitude (a.u.)       :      0.57383
Magnitude (Debye)      :      1.45856

                             ****ORCA TERMINATED NORMALLY****
TOTAL RUN TIME: 0 days 0 hours 15 minutes 19 seconds 607 msec
