                         Program Version 3.0.3 - RELEASE   -
|  1> ! RI-MP2 RIJK def2-TZVP def2-TZVP/C def2-TZVP/JK TIGHTSCF
|  2> % maxcore 2000
|  3> % mp2 density relaxed end
|  4> *xyz 0 1
|  5>  C       -0.7326689645     1.7462360562    -0.2055124534
|  6>  C       -0.0836100793     0.3710270738    -0.1249335003
|  7>  C       -1.1220265572    -0.7280951104     0.1673713874
|  8>  O       -1.7145523673    -0.5526151945     1.4358029317
|  9>  C        0.7879173829    -0.0011997876    -1.3503630027
| 10>  C        2.0219425573    -0.6663426503    -0.7481462233
| 11>  C        3.0359600585     0.2413863682    -0.0752970154
| 12>  C        1.9477824300    -0.4129572153     0.7291542765
| 13>  O        0.8259510635     0.3854067511     1.0136675174
| 14>  H        0.0311799791     2.5262191263    -0.2631516779
| 15>  H       -1.3686536336     1.8129503793    -1.0941867586
| 16>  H       -1.3559631060     1.9225686231     0.6740843262
| 17>  H       -1.9260520001    -0.6973730787    -0.5766079872
| 18>  H       -0.6296222706    -1.7119600866     0.0861840280
| 19>  H       -0.9769355254    -0.3706902571     2.0333924555
| 20>  H        0.2508812306    -0.6854671417    -2.0150798388
| 21>  H        1.0432068219     0.8878321365    -1.9363487049
| 22>  H        2.3559097926    -1.6176994767    -1.1439690042
| 23>  H        4.0486422871    -0.1321782282     0.0355675512
| 24>  H        2.9547498032     1.3112412291    -0.2379329428
| 25>  H        2.1731389473    -1.1602264567     1.4829713557
| 26> *
| 27>
| 28>                          ****END OF INPUT****

CARTESIAN COORDINATES (ANGSTROEM)
---------------------------------
  C     -0.732669    1.746236   -0.205512
  C     -0.083610    0.371027   -0.124934
  C     -1.122027   -0.728095    0.167371
  O     -1.714552   -0.552615    1.435803
  C      0.787917   -0.001200   -1.350363
  C      2.021943   -0.666343   -0.748146
  C      3.035960    0.241386   -0.075297
  C      1.947782   -0.412957    0.729154
  O      0.825951    0.385407    1.013668
  H      0.031180    2.526219   -0.263152
  H     -1.368654    1.812950   -1.094187
  H     -1.355963    1.922569    0.674084
  H     -1.926052   -0.697373   -0.576608
  H     -0.629622   -1.711960    0.086184
  H     -0.976936   -0.370690    2.033392
  H      0.250881   -0.685467   -2.015080
  H      1.043207    0.887832   -1.936349
  H      2.355910   -1.617699   -1.143969
  H      4.048642   -0.132178    0.035568
  H      2.954750    1.311241   -0.237933
  H      2.173139   -1.160226    1.482971

 Total Charge           Charge          ....    0
 Multiplicity           Mult            ....    1
 Number of Electrons    NEL             ....   70
 Basis Dimension        Dim             ....  351

ORBITAL ENERGIES
----------------

  NO   OCC          E(Eh)            E(eV)
   0   2.0000     -20.560385      -559.4765
   1   2.0000     -20.545734      -559.0778
   2   2.0000     -11.289717      -307.2088
   3   2.0000     -11.284110      -307.0563
   4   2.0000     -11.270709      -306.6916
   5   2.0000     -11.239412      -305.8399
   6   2.0000     -11.235457      -305.7323
   7   2.0000     -11.231124      -305.6144
   8   2.0000     -11.213633      -305.1385
   9   2.0000      -1.392625       -37.8953
  10   2.0000      -1.349652       -36.7259
  11   2.0000      -1.138358       -30.9763
  12   2.0000      -1.070689       -29.1349
  13   2.0000      -0.953404       -25.9434
  14   2.0000      -0.920720       -25.0541
  15   2.0000      -0.832286       -22.6477
  16   2.0000      -0.796799       -21.6820
  17   2.0000      -0.765656       -20.8345
  18   2.0000      -0.716286       -19.4911
  19   2.0000      -0.674761       -18.3612
  20   2.0000      -0.638703       -17.3800
  21   2.0000      -0.626373       -17.0445
  22   2.0000      -0.619132       -16.8474
  23   2.0000      -0.588517       -16.0144
  24   2.0000      -0.573866       -15.6157
  25   2.0000      -0.564221       -15.3532
  26   2.0000      -0.538622       -14.6566
  27   2.0000      -0.531251       -14.4561
  28   2.0000      -0.515261       -14.0210
  29   2.0000      -0.504536       -13.7291
  30   2.0000      -0.482157       -13.1202
  31   2.0000      -0.461138       -12.5482
  32   2.0000      -0.435780       -11.8582
  33   2.0000      -0.412731       -11.2310
  34   2.0000      -0.384068       -10.4510
  35   0.0000       0.134339         3.6556
  36   0.0000       0.150365         4.0916
  37   0.0000       0.167601         4.5607
  38   0.0000       0.168941         4.5971
  39   0.0000       0.188538         5.1304

MULLIKEN ATOMIC CHARGES
-----------------------
   0 C :   -0.396918
   1 C :    0.161938
   2 C :   -0.043558
   3 O :   -0.476851
   4 C :   -0.259233
   5 C :   -0.127894
   6 C :   -0.306026
   7 C :    0.073379
   8 O :   -0.353046
   9 H :    0.129967
  10 H :    0.125817
  11 H :    0.149418
  12 H :    0.108501
  13 H :    0.103215
  14 H :    0.326509
  15 H :    0.134596
  16 H :    0.130091
  17 H :    0.133522
  18 H :    0.129496
  19 H :    0.134995
  20 H :    0.122081
Sum of atomic charges:   -0.0000000

LOEWDIN ATOMIC CHARGES
----------------------
   0 C :   -0.270162
   1 C :   -0.350404
   2 C :   -0.317299
   3 O :   -0.041418
   4 C :   -0.192545
   5 C :   -0.204904
   6 C :   -0.204523
   7 C :   -0.282884
   8 O :    0.202032
   9 H :    0.126343
  10 H :    0.129627
  11 H :    0.132758
  12 H :    0.131747
  13 H :    0.123162
  14 H :    0.177962
  15 H :    0.147512
  16 H :    0.143316
  17 H :    0.143556
  18 H :    0.134875
  19 H :    0.137636
  20 H :    0.133614

  Mayer bond orders larger than 0.1
B(  0-C ,  1-C ) :   0.9039 B(  0-C ,  9-H ) :   0.9367 B(  0-C , 10-H ) :   0.9312
B(  0-C , 11-H ) :   0.9313 B(  1-C ,  2-C ) :   0.9530 B(  1-C ,  4-C ) :   0.9069
B(  1-C ,  8-O ) :   0.8505 B(  2-C ,  3-O ) :   0.9367 B(  2-C , 12-H ) :   0.9283
B(  2-C , 13-H ) :   0.9039 B(  3-O , 14-H ) :   0.8227 B(  4-C ,  5-C ) :   0.9264
B(  4-C , 15-H ) :   0.9232 B(  4-C , 16-H ) :   0.9205 B(  5-C ,  6-C ) :   0.8908
B(  5-C ,  7-C ) :   0.8707 B(  5-C , 17-H ) :   0.9206 B(  6-C ,  7-C ) :   0.8842
B(  6-C , 18-H ) :   0.9226 B(  6-C , 19-H ) :   0.9162 B(  7-C ,  8-O ) :   0.9464
B(  7-C , 20-H ) :   0.9366

MP2 TOTAL ENERGY:     -423.517199254 Eh
FINAL SINGLE POINT ENERGY      -423.517199254189

DIPOLE MOMENT
-------------
                                X             Y             Z
Electronic contribution:      0.09151      -1.60375       3.53082
Nuclear contribution   :      0.65176       1.42248      -4.22449
                        -----------------------------------------
Total Dipole Moment    :      0.74327      -0.18128      -0.69368
                        -----------------------------------------
Magnitude (a.u.)       :      1.03271
Magnitude (Debye)      :      2.62495

                             ****ORCA TERMINATED NORMALLY****
TOTAL RUN TIME: 0 days 0 hours 18 minutes 50 seconds 335 msec
