                         Program Version 3.0.3 - RELEASE   -
|  1> ! RI-MP2 RIJK def2-TZVP def2-TZVP/C def2-TZVP/JK TIGHTSCF
|  2> % maxcore 2000
|  3> % mp2 density relaxed end
|  4> *xyz 0 1
|  5>  C        0.6713338344     1.0285792829     0.0043952310
|  6>  C        0.1803971321    -0.3968683093    -0.2666320501
|  7>  N        0.7211017466    -1.3781004078     0.6592439625
|  8>  C        0.1382302347    -1.5933897851     1.8559712786
|  9>  O       -0.8714968360    -1.0487897950     2.2705926818
| 10>  N        0.7760383250    -2.5547816307     2.6828316905
| 11>  C        1.9158680612    -3.3061252328     2.4911528418
| 12>  C        2.2300868476    -4.2153182811     3.6601263417
| 13>  N        2.6059903368    -3.2087915024     1.4156249683
| 14>  H        1.7623832022     1.0899925608    -0.0612841814
| 15>  H        0.2445860739     1.7258618408    -0.7241974287
| 16>  H        0.3654645454     1.3461882246     1.0046472810
| 17>  H       -0.9100211078    -0.4316124182    -0.1925338839
| 18>  H        0.4566230347    -0.7104860804    -1.2785461657
| 19>  H        1.5822522675    -1.8864486977     0.4693656934
| 20>  H        0.2761396722    -2.6632729516     3.5511465133
| 21>  H        1.4036608173    -4.9106664189     3.8421665301
| 22>  H        3.1345985633    -4.7936134748     3.4662166532
| 23>  H        2.3788769627    -3.6316248294     4.5749465627
| 24>  H        3.4088524362    -3.8301278237     1.4408965299
| 25> *
| 26>
| 27>                          ****END OF INPUT****

CARTESIAN COORDINATES (ANGSTROEM)
---------------------------------
  C      0.671334    1.028579    0.004395
  C      0.180397   -0.396868   -0.266632
  N      0.721102   -1.378100    0.659244
  C      0.138230   -1.593390    1.855971
  O     -0.871497   -1.048790    2.270593
  N      0.776038   -2.554782    2.682832
  C      1.915868   -3.306125    2.491153
  C      2.230087   -4.215318    3.660126
  N      2.605990   -3.208792    1.415625
  H      1.762383    1.089993   -0.061284
  H      0.244586    1.725862   -0.724197
  H      0.365465    1.346188    1.004647
  H     -0.910021   -0.431612   -0.192534
  H      0.456623   -0.710486   -1.278546
  H      1.582252   -1.886449    0.469366
  H      0.276140   -2.663273    3.551147
  H      1.403661   -4.910666    3.842167
  H      3.134599   -4.793613    3.466217
  H      2.378877   -3.631625    4.574947
  H      3.408852   -3.830128    1.440897

 Total Charge           Charge          ....    0
 Multiplicity           Mult            ....    1
 Number of Electrons    NEL             ....   70
 Basis Dimension        Dim             ....  345

ORBITAL ENERGIES
----------------

  NO   OCC          E(Eh)            E(eV)
   0   2.0000     -20.503678      -557.9335
   1   2.0000     -15.599030      -424.4712
   2   2.0000     -15.562139      -423.4673
   3   2.0000     -15.543744      -422.9668
   4   2.0000     -11.372794      -309.4695
   5   2.0000     -11.344528      -308.7003
   6   2.0000     -11.259043      -306.3741
   7   2.0000     -11.253601      -306.2261
   8   2.0000     -11.207032      -304.9588
   9   2.0000      -1.389776       -37.8177
  10   2.0000      -1.285629       -34.9838
  11   2.0000      -1.218190       -33.1486
  12   2.0000      -1.171800       -31.8863
  13   2.0000      -1.022733       -27.8300
  14   2.0000      -0.999048       -27.1855
  15   2.0000      -0.875012       -23.8103
  16   2.0000      -0.838298       -22.8113
  17   2.0000      -0.776115       -21.1192
  18   2.0000      -0.740613       -20.1531
  19   2.0000      -0.670060       -18.2333
  20   2.0000      -0.641969       -17.4689
  21   2.0000      -0.635061       -17.2809
  22   2.0000      -0.622948       -16.9513
  23   2.0000      -0.616142       -16.7661
  24   2.0000      -0.594451       -16.1758
  25   2.0000      -0.584079       -15.8936
  26   2.0000      -0.578565       -15.7435
  27   2.0000      -0.541350       -14.7309
  28   2.0000      -0.515611       -14.0305
  29   2.0000      -0.493036       -13.4162
  30   2.0000      -0.483665       -13.1612
  31   2.0000      -0.443857       -12.0780
  32   2.0000      -0.433067       -11.7843
  33   2.0000      -0.385549       -10.4913
  34   2.0000      -0.380785       -10.3617
  35   0.0000       0.116677         3.1750
  36   0.0000       0.148572         4.0428
  37   0.0000       0.155546         4.2326
  38   0.0000       0.166286         4.5249
  39   0.0000       0.183923         5.0048

MULLIKEN ATOMIC CHARGES
-----------------------
   0 C :   -0.381785
   1 C :   -0.107420
   2 N :   -0.320100
   3 C :    0.352783
   4 O :   -0.413133
   5 N :   -0.309418
   6 C :    0.261932
   7 C :   -0.418747
   8 N :   -0.483155
   9 H :    0.114918
  10 H :    0.122337
  11 H :    0.147972
  12 H :    0.134202
  13 H :    0.123009
  14 H :    0.269509
  15 H :    0.253643
  16 H :    0.156223
  17 H :    0.131813
  18 H :    0.156095
  19 H :    0.209320
Sum of atomic charges:   -0.0000000

LOEWDIN ATOMIC CHARGES
----------------------
   0 C :   -0.319045
   1 C :   -0.301347
   2 N :    0.114438
   3 C :   -0.527096
   4 O :    0.045052
   5 N :    0.146019
   6 C :   -0.381820
   7 C :   -0.276049
   8 N :   -0.093666
   9 H :    0.117925
  10 H :    0.121595
  11 H :    0.127174
  12 H :    0.140893
  13 H :    0.131333
  14 H :    0.184864
  15 H :    0.203370
  16 H :    0.136856
  17 H :    0.130790
  18 H :    0.136834
  19 H :    0.161880

  Mayer bond orders larger than 0.1
B(  0-C ,  1-C ) :   0.9185 B(  0-C ,  9-H ) :   0.9341 B(  0-C , 10-H ) :   0.9343
B(  0-C , 11-H ) :   0.9387 B(  1-C ,  2-N ) :   0.8695 B(  1-C , 12-H ) :   0.9276
B(  1-C , 13-H ) :   0.9364 B(  2-N ,  3-C ) :   1.2355 B(  2-N , 14-H ) :   0.8087
B(  3-C ,  4-O ) :   1.8968 B(  3-C ,  5-N ) :   0.9843 B(  5-N ,  6-C ) :   1.0791
B(  5-N , 15-H ) :   0.8639 B(  6-C ,  7-C ) :   0.9129 B(  6-C ,  8-N ) :   1.7861
B(  7-C , 16-H ) :   0.9223 B(  7-C , 17-H ) :   0.9359 B(  7-C , 18-H ) :   0.9218
B(  8-N , 19-H ) :   0.8622

MP2 TOTAL ENERGY:     -435.808650917 Eh
FINAL SINGLE POINT ENERGY      -435.808650916823

DIPOLE MOMENT
-------------
                                X             Y             Z
Electronic contribution:     -2.57085      -2.42111       2.16187
Nuclear contribution   :      3.66970       1.44262      -1.84945
                        -----------------------------------------
Total Dipole Moment    :      1.09885      -0.97849       0.31242
                        -----------------------------------------
Magnitude (a.u.)       :      1.50417
Magnitude (Debye)      :      3.82329

                             ****ORCA TERMINATED NORMALLY****
TOTAL RUN TIME: 0 days 0 hours 15 minutes 34 seconds 42 msec
