                         Program Version 3.0.3 - RELEASE   -
|  1> ! RI-MP2 RIJK def2-TZVP def2-TZVP/C def2-TZVP/JK TIGHTSCF
|  2> % maxcore 2000
|  3> % mp2 density relaxed end
|  4> *xyz 0 1
|  5>  C       -0.0922705359     1.5352910671     0.0043709712
|  6>  C        0.0089529790     0.0087965188    -0.0353529508
|  7>  N        0.7529557144    -0.4813681024    -1.1813718498
|  8>  N        0.1230323571    -0.7523710566    -2.3521865397
|  9>  N        1.0267583881    -1.1708449879    -3.1891119446
| 10>  C        2.2531023571    -1.1585472168    -2.5934849983
| 11>  C        3.4977649649    -1.5900666950    -3.2966929297
| 12>  C        2.0861685728    -0.7079325640    -1.2970135577
| 13>  N        2.9621549842    -0.5632969374    -0.2167692270
| 14>  H        0.8945306732     2.0037575248     0.0820406244
| 15>  H       -0.5750396778     1.9070638848    -0.9029585712
| 16>  H       -0.6838480174     1.8504852559     0.8691005186
| 17>  H        0.4996075390    -0.3788320206     0.8629681325
| 18>  H       -0.9857117230    -0.4376580582    -0.1012227979
| 19>  H        4.3517869088    -0.9538789299    -3.0355017540
| 20>  H        3.7752828678    -2.6253714861    -3.0628583307
| 21>  H        3.3468686435    -1.5264118205    -4.3767932724
| 22>  H        3.8963650074    -0.8689575228    -0.4569939569
| 23>  H        3.0105083568     0.3837055367     0.1431567041
| 24> *
| 25>
| 26>                          ****END OF INPUT****

CARTESIAN COORDINATES (ANGSTROEM)
---------------------------------
  C     -0.092271    1.535291    0.004371
  C      0.008953    0.008797   -0.035353
  N      0.752956   -0.481368   -1.181372
  N      0.123032   -0.752371   -2.352187
  N      1.026758   -1.170845   -3.189112
  C      2.253102   -1.158547   -2.593485
  C      3.497765   -1.590067   -3.296693
  C      2.086169   -0.707933   -1.297014
  N      2.962155   -0.563297   -0.216769
  H      0.894531    2.003758    0.082041
  H     -0.575040    1.907064   -0.902959
  H     -0.683848    1.850485    0.869101
  H      0.499608   -0.378832    0.862968
  H     -0.985712   -0.437658   -0.101223
  H      4.351787   -0.953879   -3.035502
  H      3.775283   -2.625371   -3.062858
  H      3.346869   -1.526412   -4.376793
  H      3.896365   -0.868958   -0.456994
  H      3.010508    0.383706    0.143157

 Total Charge           Charge          ....    0
 Multiplicity           Mult            ....    1
 Number of Electrons    NEL             ....   68
 Basis Dimension        Dim             ....  339

ORBITAL ENERGIES
----------------

  NO   OCC          E(Eh)            E(eV)
   0   2.0000     -15.638001      -425.5316
   1   2.0000     -15.615145      -424.9097
   2   2.0000     -15.589168      -424.2028
   3   2.0000     -15.580479      -423.9664
   4   2.0000     -11.306287      -307.6597
   5   2.0000     -11.281865      -306.9951
   6   2.0000     -11.240140      -305.8598
   7   2.0000     -11.234249      -305.6995
   8   2.0000     -11.226563      -305.4903
   9   2.0000      -1.420286       -38.6480
  10   2.0000      -1.243721       -33.8434
  11   2.0000      -1.194930       -32.5157
  12   2.0000      -1.064339       -28.9621
  13   2.0000      -1.037644       -28.2357
  14   2.0000      -0.954647       -25.9773
  15   2.0000      -0.897100       -24.4113
  16   2.0000      -0.808259       -21.9938
  17   2.0000      -0.790514       -21.5110
  18   2.0000      -0.707305       -19.2468
  19   2.0000      -0.684307       -18.6209
  20   2.0000      -0.665148       -18.0996
  21   2.0000      -0.634860       -17.2754
  22   2.0000      -0.618500       -16.8302
  23   2.0000      -0.582114       -15.8401
  24   2.0000      -0.570992       -15.5375
  25   2.0000      -0.553550       -15.0629
  26   2.0000      -0.540689       -14.7129
  27   2.0000      -0.529463       -14.4074
  28   2.0000      -0.518262       -14.1026
  29   2.0000      -0.493913       -13.4401
  30   2.0000      -0.489721       -13.3260
  31   2.0000      -0.418092       -11.3769
  32   2.0000      -0.381123       -10.3709
  33   2.0000      -0.314305        -8.5527
  34   0.0000       0.108741         2.9590
  35   0.0000       0.138214         3.7610
  36   0.0000       0.157197         4.2776
  37   0.0000       0.169928         4.6240
  38   0.0000       0.177967         4.8427

MULLIKEN ATOMIC CHARGES
-----------------------
   0 C :   -0.380439
   1 C :   -0.195645
   2 N :    0.130793
   3 N :   -0.201840
   4 N :   -0.152145
   5 C :    0.018767
   6 C :   -0.480031
   7 C :    0.138662
   8 N :   -0.550189
   9 H :    0.113340
  10 H :    0.155840
  11 H :    0.137035
  12 H :    0.156719
  13 H :    0.154656
  14 H :    0.126015
  15 H :    0.147582
  16 H :    0.165272
  17 H :    0.256041
  18 H :    0.259566
Sum of atomic charges:    0.0000000

LOEWDIN ATOMIC CHARGES
----------------------
   0 C :   -0.309867
   1 C :   -0.273925
   2 N :    0.193912
   3 N :   -0.040442
   4 N :    0.014174
   5 C :   -0.303162
   6 C :   -0.282722
   7 C :   -0.316349
   8 N :   -0.088333
   9 H :    0.117641
  10 H :    0.130829
  11 H :    0.127553
  12 H :    0.142548
  13 H :    0.147115
  14 H :    0.125660
  15 H :    0.130269
  16 H :    0.141143
  17 H :    0.174753
  18 H :    0.169205

  Mayer bond orders larger than 0.1
B(  0-C ,  1-C ) :   0.9231 B(  0-C ,  9-H ) :   0.9317 B(  0-C , 10-H ) :   0.9342
B(  0-C , 11-H ) :   0.9335 B(  1-C ,  2-N ) :   0.8404 B(  1-C , 12-H ) :   0.9272
B(  1-C , 13-H ) :   0.9245 B(  2-N ,  3-N ) :   0.9860 B(  2-N ,  7-C ) :   1.1997
B(  3-N ,  4-N ) :   1.2471 B(  4-N ,  5-C ) :   1.4323 B(  5-C ,  6-C ) :   0.8696
B(  5-C ,  7-C ) :   1.4180 B(  6-C , 14-H ) :   0.9471 B(  6-C , 15-H ) :   0.9295
B(  6-C , 16-H ) :   0.9463 B(  7-C ,  8-N ) :   0.9803 B(  8-N , 17-H ) :   0.8831
B(  8-N , 18-H ) :   0.8636

MP2 TOTAL ENERGY:     -414.694196506 Eh
FINAL SINGLE POINT ENERGY      -414.694196506302

DIPOLE MOMENT
-------------
                                X             Y             Z
Electronic contribution:     -2.00459      -3.45136      -3.51648
Nuclear contribution   :      3.13549       4.23678       5.05661
                        -----------------------------------------
Total Dipole Moment    :      1.13090       0.78541       1.54013
                        -----------------------------------------
Magnitude (a.u.)       :      2.06587
Magnitude (Debye)      :      5.25102

                             ****ORCA TERMINATED NORMALLY****
TOTAL RUN TIME: 0 days 0 hours 18 minutes 44 seconds 961 msec
