                         Program Version 3.0.3 - RELEASE   -
|  1> ! RI-MP2 RIJK def2-TZVP def2-TZVP/C def2-TZVP/JK TIGHTSCF
|  2> % maxcore 2000
|  3> % mp2 density relaxed end
|  4> *xyz 0 1
|  5>  C       -0.2929903096     1.5188323013     0.0478461475
|  6>  C        0.2114991377     0.0797167255    -0.0105283467
|  7>  C        1.3343608391    -0.1836746894    -1.0202042214
|  8>  O        1.8617721732    -1.4466352487    -0.6344375045
|  9>  C        1.8674697137    -1.5068091118     0.7758412016
| 10>  C        3.2645541846    -1.2813418511     1.3594583999
| 11>  O        4.2205578378    -0.9572038472     0.7107612137
| 12>  C        0.8540208296    -0.4436548299     1.2994987170
| 13>  O        1.5956904156     0.5483758921     1.9996622556
| 14>  H        0.5183827633     2.2089160272     0.2960836766
| 15>  H       -0.7066771800     1.8235775452    -0.9182981506
| 16>  H       -1.0888036665     1.6384629975     0.7921611991
| 17>  H       -0.6191614235    -0.5933134212    -0.2559006852
| 18>  H        0.9896159552    -0.2675249196    -2.0538908998
| 19>  H        2.1054591331     0.5989203036    -0.9648890038
| 20>  H        1.5583655544    -2.5189668898     1.0740116373
| 21>  H        3.3309018290    -1.4814425330     2.4519181529
| 22>  H        0.1069108077    -0.8951993841     1.9640620668
| 23>  H        0.9792994954     1.1781938236     2.3853669538
| 24> *
| 25>
| 26>                          ****END OF INPUT****

CARTESIAN COORDINATES (ANGSTROEM)
---------------------------------
  C     -0.292990    1.518832    0.047846
  C      0.211499    0.079717   -0.010528
  C      1.334361   -0.183675   -1.020204
  O      1.861772   -1.446635   -0.634438
  C      1.867470   -1.506809    0.775841
  C      3.264554   -1.281342    1.359458
  O      4.220558   -0.957204    0.710761
  C      0.854021   -0.443655    1.299499
  O      1.595690    0.548376    1.999662
  H      0.518383    2.208916    0.296084
  H     -0.706677    1.823578   -0.918298
  H     -1.088804    1.638463    0.792161
  H     -0.619161   -0.593313   -0.255901
  H      0.989616   -0.267525   -2.053891
  H      2.105459    0.598920   -0.964889
  H      1.558366   -2.518967    1.074012
  H      3.330902   -1.481443    2.451918
  H      0.106911   -0.895199    1.964062
  H      0.979299    1.178194    2.385367

 Total Charge           Charge          ....    0
 Multiplicity           Mult            ....    1
 Number of Electrons    NEL             ....   70
 Basis Dimension        Dim             ....  339

ORBITAL ENERGIES
----------------

  NO   OCC          E(Eh)            E(eV)
   0   2.0000     -20.577910      -559.9534
   1   2.0000     -20.559763      -559.4596
   2   2.0000     -20.547141      -559.1161
   3   2.0000     -11.323137      -308.1182
   4   2.0000     -11.305544      -307.6395
   5   2.0000     -11.296026      -307.3805
   6   2.0000     -11.275947      -306.8341
   7   2.0000     -11.244001      -305.9648
   8   2.0000     -11.234374      -305.7029
   9   2.0000      -1.406502       -38.2729
  10   2.0000      -1.383024       -37.6340
  11   2.0000      -1.373345       -37.3706
  12   2.0000      -1.084118       -29.5003
  13   2.0000      -1.030301       -28.0359
  14   2.0000      -0.943589       -25.6764
  15   2.0000      -0.881037       -23.9742
  16   2.0000      -0.801002       -21.7964
  17   2.0000      -0.765066       -20.8185
  18   2.0000      -0.732524       -19.9330
  19   2.0000      -0.691897       -18.8275
  20   2.0000      -0.682553       -18.5732
  21   2.0000      -0.651303       -17.7228
  22   2.0000      -0.633589       -17.2408
  23   2.0000      -0.612406       -16.6644
  24   2.0000      -0.587056       -15.9746
  25   2.0000      -0.573233       -15.5985
  26   2.0000      -0.553548       -15.0628
  27   2.0000      -0.545578       -14.8459
  28   2.0000      -0.526854       -14.3364
  29   2.0000      -0.500909       -13.6304
  30   2.0000      -0.498091       -13.5537
  31   2.0000      -0.481802       -13.1105
  32   2.0000      -0.445393       -12.1198
  33   2.0000      -0.443419       -12.0661
  34   2.0000      -0.399315       -10.8659
  35   0.0000       0.110053         2.9947
  36   0.0000       0.143202         3.8967
  37   0.0000       0.152789         4.1576
  38   0.0000       0.158633         4.3166
  39   0.0000       0.180017         4.8985

MULLIKEN ATOMIC CHARGES
-----------------------
   0 C :   -0.497747
   1 C :   -0.010840
   2 C :   -0.049060
   3 O :   -0.304716
   4 C :    0.125791
   5 C :    0.090913
   6 O :   -0.256238
   7 C :   -0.013393
   8 O :   -0.461079
   9 H :    0.152995
  10 H :    0.144935
  11 H :    0.139880
  12 H :    0.095841
  13 H :    0.122565
  14 H :    0.100764
  15 H :    0.121597
  16 H :    0.069161
  17 H :    0.107569
  18 H :    0.321061
Sum of atomic charges:   -0.0000000

LOEWDIN ATOMIC CHARGES
----------------------
   0 C :   -0.302032
   1 C :   -0.268021
   2 C :   -0.276594
   3 O :    0.191717
   4 C :   -0.296209
   5 C :   -0.279655
   6 O :    0.147637
   7 C :   -0.289209
   8 O :    0.000781
   9 H :    0.126945
  10 H :    0.130328
  11 H :    0.124273
  12 H :    0.157109
  13 H :    0.128916
  14 H :    0.129683
  15 H :    0.152182
  16 H :    0.111596
  17 H :    0.133946
  18 H :    0.176607

  Mayer bond orders larger than 0.1
B(  0-C ,  1-C ) :   0.8509 B(  0-C ,  9-H ) :   0.9373 B(  0-C , 10-H ) :   0.9364
B(  0-C , 11-H ) :   0.9393 B(  1-C ,  2-C ) :   0.9672 B(  1-C ,  7-C ) :   0.9001
B(  1-C , 12-H ) :   0.9119 B(  2-C ,  3-O ) :   0.9194 B(  2-C , 13-H ) :   0.9268
B(  2-C , 14-H ) :   0.9010 B(  3-O ,  4-C ) :   0.9689 B(  4-C ,  5-C ) :   0.8318
B(  4-C ,  7-C ) :   0.8999 B(  4-C , 15-H ) :   0.8994 B(  5-C ,  6-O ) :   2.0281
B(  5-C , 16-H ) :   0.9259 B(  7-C ,  8-O ) :   1.0036 B(  7-C , 17-H ) :   0.9440
B(  8-O , 18-H ) :   0.8407

MP2 TOTAL ENERGY:     -459.436598404 Eh
FINAL SINGLE POINT ENERGY      -459.436598403731

DIPOLE MOMENT
-------------
                                X             Y             Z
Electronic contribution:      7.09173      -4.77799       1.01432
Nuclear contribution   :     -8.87417       5.16682      -0.38057
                        -----------------------------------------
Total Dipole Moment    :     -1.78244       0.38884       0.63375
                        -----------------------------------------
Magnitude (a.u.)       :      1.93130
Magnitude (Debye)      :      4.90897

                             ****ORCA TERMINATED NORMALLY****
TOTAL RUN TIME: 0 days 0 hours 18 minutes 45 seconds 411 msec
