                         Program Version 3.0.3 - RELEASE   -
|  1> ! RI-MP2 RIJK def2-TZVP def2-TZVP/C def2-TZVP/JK TIGHTSCF
|  2> % maxcore 2000
|  3> % mp2 density relaxed end
|  4> *xyz 0 1
|  5>  C       -0.0381202483     1.4654447222     0.0052710774
|  6>  N       -0.0076108854     0.0160216210     0.0061193806
|  7>  C        0.0086139790    -0.7775599342    -1.1279165018
|  8>  C        0.0363295675    -2.0960270110    -0.7501683406
|  9>  C        0.0608484610    -3.2807373069    -1.6692854840
| 10>  C        0.0367323906    -2.1034171428     0.6879038782
| 11>  C        0.0607907294    -3.2499801653     1.5811477620
| 12>  O        0.0597564992    -3.1904347621     2.7955886389
| 13>  C        0.0094434495    -0.7788654374     1.1032066569
| 14>  H        0.8422886737     1.8723171889    -0.5019531842
| 15>  H       -0.9362488394     1.8349951848    -0.4994667302
| 16>  H       -0.0441638139     1.8226346397     1.0359731104
| 17>  H       -0.0010634024    -0.3282844195    -2.1090905852
| 18>  H        0.9543601247    -3.8967647551    -1.5179645251
| 19>  H       -0.8067719845    -3.9328402184    -1.5184258644
| 20>  H        0.0545595403    -2.9605588099    -2.7150563075
| 21>  H        0.0811198592    -4.2376747286     1.0672790723
| 22>  H        0.0013257000    -0.3721894154     2.1016506362
| 23> *
| 24>
| 25>                          ****END OF INPUT****

CARTESIAN COORDINATES (ANGSTROEM)
---------------------------------
  C     -0.038120    1.465445    0.005271
  N     -0.007611    0.016022    0.006119
  C      0.008614   -0.777560   -1.127917
  C      0.036330   -2.096027   -0.750168
  C      0.060848   -3.280737   -1.669285
  C      0.036732   -2.103417    0.687904
  C      0.060791   -3.249980    1.581148
  O      0.059756   -3.190435    2.795589
  C      0.009443   -0.778865    1.103207
  H      0.842289    1.872317   -0.501953
  H     -0.936249    1.834995   -0.499467
  H     -0.044164    1.822635    1.035973
  H     -0.001063   -0.328284   -2.109091
  H      0.954360   -3.896765   -1.517965
  H     -0.806772   -3.932840   -1.518426
  H      0.054560   -2.960559   -2.715056
  H      0.081120   -4.237675    1.067279
  H      0.001326   -0.372189    2.101651

 Total Charge           Charge          ....    0
 Multiplicity           Mult            ....    1
 Number of Electrons    NEL             ....   66
 Basis Dimension        Dim             ....  333

ORBITAL ENERGIES
----------------

  NO   OCC          E(Eh)            E(eV)
   0   2.0000     -20.526949      -558.5667
   1   2.0000     -15.625916      -425.2028
   2   2.0000     -11.315748      -307.9172
   3   2.0000     -11.286196      -307.1130
   4   2.0000     -11.276347      -306.8450
   5   2.0000     -11.254768      -306.2578
   6   2.0000     -11.236560      -305.7623
   7   2.0000     -11.230136      -305.5875
   8   2.0000     -11.216151      -305.2070
   9   2.0000      -1.364910       -37.1411
  10   2.0000      -1.319338       -35.9010
  11   2.0000      -1.106234       -30.1021
  12   2.0000      -1.018979       -27.7278
  13   2.0000      -0.983333       -26.7579
  14   2.0000      -0.929664       -25.2974
  15   2.0000      -0.851943       -23.1826
  16   2.0000      -0.769458       -20.9380
  17   2.0000      -0.746610       -20.3163
  18   2.0000      -0.698908       -19.0183
  19   2.0000      -0.650173       -17.6921
  20   2.0000      -0.640009       -17.4155
  21   2.0000      -0.618529       -16.8310
  22   2.0000      -0.595617       -16.2076
  23   2.0000      -0.584200       -15.8969
  24   2.0000      -0.581207       -15.8154
  25   2.0000      -0.576241       -15.6803
  26   2.0000      -0.537978       -14.6391
  27   2.0000      -0.535461       -14.5706
  28   2.0000      -0.510510       -13.8917
  29   2.0000      -0.506641       -13.7864
  30   2.0000      -0.409083       -11.1317
  31   2.0000      -0.343624        -9.3505
  32   2.0000      -0.309893        -8.4326
  33   0.0000       0.104070         2.8319
  34   0.0000       0.127756         3.4764
  35   0.0000       0.142058         3.8656
  36   0.0000       0.155686         4.2364
  37   0.0000       0.172057         4.6819

MULLIKEN ATOMIC CHARGES
-----------------------
   0 C :   -0.327418
   1 N :    0.011157
   2 C :   -0.154516
   3 C :    0.029100
   4 C :   -0.449436
   5 C :    0.000300
   6 C :    0.054669
   7 O :   -0.309670
   8 C :   -0.136526
   9 H :    0.155873
  10 H :    0.155890
  11 H :    0.155908
  12 H :    0.141253
  13 H :    0.148724
  14 H :    0.148724
  15 H :    0.136997
  16 H :    0.073520
  17 H :    0.165450
Sum of atomic charges:    0.0000000

LOEWDIN ATOMIC CHARGES
----------------------
   0 C :   -0.264751
   1 N :    0.240891
   2 C :   -0.185009
   3 C :   -0.173796
   4 C :   -0.272834
   5 C :   -0.182156
   6 C :   -0.281122
   7 O :    0.100750
   8 C :   -0.154888
   9 H :    0.125539
  10 H :    0.125533
  11 H :    0.130547
  12 H :    0.137737
  13 H :    0.131323
  14 H :    0.131326
  15 H :    0.131294
  16 H :    0.114900
  17 H :    0.144716

  Mayer bond orders larger than 0.1
B(  0-C ,  1-N ) :   0.8608 B(  0-C ,  9-H ) :   0.9286 B(  0-C , 10-H ) :   0.9286
B(  0-C , 11-H ) :   0.9335 B(  1-N ,  2-C ) :   1.1077 B(  1-N ,  8-C ) :   1.2095
B(  2-C ,  3-C ) :   1.4836 B(  2-C , 12-H ) :   0.9159 B(  3-C ,  4-C ) :   0.8344
B(  3-C ,  5-C ) :   1.2407 B(  4-C , 13-H ) :   0.9426 B(  4-C , 14-H ) :   0.9425
B(  4-C , 15-H ) :   0.9481 B(  5-C ,  6-C ) :   0.8569 B(  5-C ,  7-O ) :  -0.1466
B(  5-C ,  8-C ) :   1.3940 B(  5-C , 16-H ) :  -0.1167 B(  6-C ,  7-O ) :   1.9977
B(  6-C , 16-H ) :   0.9996 B(  8-C , 17-H ) :   0.8852

MP2 TOTAL ENERGY:     -401.302123249 Eh
FINAL SINGLE POINT ENERGY      -401.302123249451

DIPOLE MOMENT
-------------
                                X             Y             Z
Electronic contribution:      0.04607      -2.12846       5.57476
Nuclear contribution   :     -0.07535       3.51655      -6.94469
                        -----------------------------------------
Total Dipole Moment    :     -0.02928       1.38809      -1.36994
                        -----------------------------------------
Magnitude (a.u.)       :      1.95048
Magnitude (Debye)      :      4.95772

                             ****ORCA TERMINATED NORMALLY****
TOTAL RUN TIME: 0 days 0 hours 18 minutes 1 seconds 441 msec
