                         Program Version 3.0.3 - RELEASE   -
|  1> ! RI-MP2 RIJK def2-TZVP def2-TZVP/C def2-TZVP/JK TIGHTSCF
|  2> % maxcore 2000
|  3> % mp2 density relaxed end
|  4> *xyz 0 1
|  5>  N        0.0445741477     1.4000292516     0.1601896796
|  6>  C       -0.0474316118     0.0225554776     0.0499107382
|  7>  C       -1.2281171845    -0.6800685871     0.0253628178
|  8>  C       -1.1612834399    -2.0934927321    -0.0117465733
|  9>  C        0.0219079476    -2.7764488974    -0.0381009631
| 10>  C        1.2825764483    -2.0765327572    -0.0165840622
| 11>  O        2.4098375117    -2.5440893674    -0.0261858879
| 12>  N        1.1287856116    -0.6635770821     0.0275512895
| 13>  H        0.8226108276     1.8271489492    -0.3235457368
| 14>  H       -0.8207153172     1.8853177758    -0.0255237111
| 15>  H       -2.1737104635    -0.1550614179     0.0301295663
| 16>  H       -2.0942734330    -2.6497812375    -0.0278458080
| 17>  H        0.0670870971    -3.8569367361    -0.0691483871
| 18>  H        2.0071569483    -0.1673205494     0.0985740880
| 19> *
| 20>
| 21>                          ****END OF INPUT****

CARTESIAN COORDINATES (ANGSTROEM)
---------------------------------
  N      0.044574    1.400029    0.160190
  C     -0.047432    0.022555    0.049911
  C     -1.228117   -0.680069    0.025363
  C     -1.161283   -2.093493   -0.011747
  C      0.021908   -2.776449   -0.038101
  C      1.282576   -2.076533   -0.016584
  O      2.409838   -2.544089   -0.026186
  N      1.128786   -0.663577    0.027551
  H      0.822611    1.827149   -0.323546
  H     -0.820715    1.885318   -0.025524
  H     -2.173710   -0.155061    0.030130
  H     -2.094273   -2.649781   -0.027846
  H      0.067087   -3.856937   -0.069148
  H      2.007157   -0.167321    0.098574

 Total Charge           Charge          ....    0
 Multiplicity           Mult            ....    1
 Number of Electrons    NEL             ....   58
 Basis Dimension        Dim             ....  284

ORBITAL ENERGIES
----------------

  NO   OCC          E(Eh)            E(eV)
   0   2.0000     -20.504014      -557.9426
   1   2.0000     -15.617527      -424.9745
   2   2.0000     -15.604526      -424.6207
   3   2.0000     -11.354003      -308.9581
   4   2.0000     -11.347478      -308.7806
   5   2.0000     -11.266233      -306.5698
   6   2.0000     -11.222564      -305.3815
   7   2.0000     -11.218391      -305.2679
   8   2.0000      -1.375724       -37.4353
   9   2.0000      -1.306140       -35.5419
  10   2.0000      -1.209841       -32.9214
  11   2.0000      -1.099885       -29.9294
  12   2.0000      -1.004736       -27.3403
  13   2.0000      -0.877790       -23.8859
  14   2.0000      -0.860153       -23.4059
  15   2.0000      -0.757293       -20.6070
  16   2.0000      -0.721242       -19.6260
  17   2.0000      -0.700263       -19.0551
  18   2.0000      -0.662783       -18.0352
  19   2.0000      -0.636911       -17.3312
  20   2.0000      -0.615601       -16.7513
  21   2.0000      -0.612346       -16.6628
  22   2.0000      -0.553040       -15.0490
  23   2.0000      -0.542758       -14.7692
  24   2.0000      -0.527043       -14.3416
  25   2.0000      -0.441459       -12.0127
  26   2.0000      -0.423118       -11.5136
  27   2.0000      -0.420328       -11.4377
  28   2.0000      -0.294168        -8.0047
  29   0.0000       0.100443         2.7332
  30   0.0000       0.112146         3.0517
  31   0.0000       0.148102         4.0301
  32   0.0000       0.160110         4.3568
  33   0.0000       0.169954         4.6247

MULLIKEN ATOMIC CHARGES
-----------------------
   0 N :   -0.507098
   1 C :    0.313961
   2 C :   -0.245116
   3 C :   -0.105903
   4 C :   -0.201256
   5 C :    0.221901
   6 O :   -0.375236
   7 N :   -0.251801
   8 H :    0.254190
   9 H :    0.259736
  10 H :    0.130349
  11 H :    0.130149
  12 H :    0.137384
  13 H :    0.238740
Sum of atomic charges:   -0.0000000

LOEWDIN ATOMIC CHARGES
----------------------
   0 N :   -0.053702
   1 C :   -0.305574
   2 C :   -0.190710
   3 C :   -0.141034
   4 C :   -0.143756
   5 C :   -0.431000
   6 O :    0.058090
   7 N :    0.208034
   8 H :    0.170724
   9 H :    0.177420
  10 H :    0.146706
  11 H :    0.150967
  12 H :    0.152988
  13 H :    0.200849

  Mayer bond orders larger than 0.1
B(  0-N ,  1-C ) :   1.0623 B(  0-N ,  8-H ) :   0.8663 B(  0-N ,  9-H ) :   0.8753
B(  1-C ,  2-C ) :   1.4462 B(  1-C ,  7-N ) :   1.1739 B(  2-C ,  3-C ) :   1.2181
B(  2-C , 10-H ) :   0.9149 B(  3-C ,  4-C ) :   1.4832 B(  3-C , 11-H ) :   0.9244
B(  4-C ,  5-C ) :   1.1001 B(  4-C , 12-H ) :   0.9352 B(  5-C ,  6-O ) :   1.9494
B(  5-C ,  7-N ) :   1.0087 B(  7-N , 13-H ) :   0.8568

MP2 TOTAL ENERGY:     -378.151398380 Eh
FINAL SINGLE POINT ENERGY      -378.151398379582

DIPOLE MOMENT
-------------
                                X             Y             Z
Electronic contribution:      2.88813      -1.69799       0.07940
Nuclear contribution   :     -4.02628       3.45452      -0.39965
                        -----------------------------------------
Total Dipole Moment    :     -1.13816       1.75653      -0.32025
                        -----------------------------------------
Magnitude (a.u.)       :      2.11740
Magnitude (Debye)      :      5.38199

                             ****ORCA TERMINATED NORMALLY****
TOTAL RUN TIME: 0 days 0 hours 11 minutes 22 seconds 902 msec
