                         Program Version 3.0.3 - RELEASE   -
|  1> ! RI-MP2 RIJK def2-TZVP def2-TZVP/C def2-TZVP/JK TIGHTSCF
|  2> % maxcore 2000
|  3> % mp2 density relaxed end
|  4> *xyz 0 1
|  5>  C        0.1540360274     1.5412370342    -0.1440324683
|  6>  C        0.0307447970     0.0210304486    -0.0035755567
|  7>  C       -1.4209727390    -0.4937658708     0.0632215567
|  8>  C       -1.4602308361    -2.0181096519    -0.0959098718
|  9>  O       -2.7560629303    -2.5359795002     0.1401544042
| 10>  C       -3.1728884930    -2.3530763858     1.4765915857
| 11>  C       -2.8974440278    -0.9723584347     2.0236447599
| 12>  C       -3.5466244659    -0.6462802232     3.3390521923
| 13>  C       -2.1156746623    -0.1254791125     1.3517586210
| 14>  H        1.2035776979     1.8443504679    -0.2096116330
| 15>  H       -0.3522830512     1.8954903759    -1.0487466021
| 16>  H       -0.2854467525     2.0688094463     0.7084165396
| 17>  H        0.5283384050    -0.4549379154    -0.8591966463
| 18>  H        0.5711416426    -0.3148788683     0.8909568592
| 19>  H       -1.9709868510    -0.0501718653    -0.7816091903
| 20>  H       -1.1931295642    -2.3143947190    -1.1149088217
| 21>  H       -0.7305411224    -2.4780577982     0.5934908972
| 22>  H       -4.2513795273    -2.5558407307     1.4896927995
| 23>  H       -2.7035069629    -3.1080908553     2.1368394389
| 24>  H       -3.2520626591    -1.3626491300     4.1173114494
| 25>  H       -3.2730933546     0.3549865095     3.6818902857
| 26>  H       -4.6409607582    -0.6966454912     3.2685466684
| 27>  H       -1.9485907421     0.8737750301     1.7486680121
| 28> *
| 29>
| 30>                          ****END OF INPUT****

CARTESIAN COORDINATES (ANGSTROEM)
---------------------------------
  C      0.154036    1.541237   -0.144032
  C      0.030745    0.021030   -0.003576
  C     -1.420973   -0.493766    0.063222
  C     -1.460231   -2.018110   -0.095910
  O     -2.756063   -2.535980    0.140154
  C     -3.172888   -2.353076    1.476592
  C     -2.897444   -0.972358    2.023645
  C     -3.546624   -0.646280    3.339052
  C     -2.115675   -0.125479    1.351759
  H      1.203578    1.844350   -0.209612
  H     -0.352283    1.895490   -1.048747
  H     -0.285447    2.068809    0.708417
  H      0.528338   -0.454938   -0.859197
  H      0.571142   -0.314879    0.890957
  H     -1.970987   -0.050172   -0.781609
  H     -1.193130   -2.314395   -1.114909
  H     -0.730541   -2.478058    0.593491
  H     -4.251380   -2.555841    1.489693
  H     -2.703507   -3.108091    2.136839
  H     -3.252063   -1.362649    4.117311
  H     -3.273093    0.354987    3.681890
  H     -4.640961   -0.696645    3.268547
  H     -1.948591    0.873775    1.748668

 Total Charge           Charge          ....    0
 Multiplicity           Mult            ....    1
 Number of Electrons    NEL             ....   70
 Basis Dimension        Dim             ....  363

ORBITAL ENERGIES
----------------

  NO   OCC          E(Eh)            E(eV)
   0   2.0000     -20.549678      -559.1852
   1   2.0000     -11.274667      -306.7993
   2   2.0000     -11.268188      -306.6230
   3   2.0000     -11.231759      -305.6317
   4   2.0000     -11.226634      -305.4922
   5   2.0000     -11.224386      -305.4311
   6   2.0000     -11.223632      -305.4105
   7   2.0000     -11.217481      -305.2432
   8   2.0000     -11.215654      -305.1934
   9   2.0000      -1.373660       -37.3792
  10   2.0000      -1.105547       -30.0835
  11   2.0000      -1.067533       -29.0490
  12   2.0000      -0.992304       -27.0020
  13   2.0000      -0.942034       -25.6340
  14   2.0000      -0.892407       -24.2836
  15   2.0000      -0.850974       -23.1562
  16   2.0000      -0.796036       -21.6612
  17   2.0000      -0.713673       -19.4200
  18   2.0000      -0.675833       -18.3904
  19   2.0000      -0.650478       -17.7004
  20   2.0000      -0.630545       -17.1580
  21   2.0000      -0.603297       -16.4165
  22   2.0000      -0.583377       -15.8745
  23   2.0000      -0.568053       -15.4575
  24   2.0000      -0.562716       -15.3123
  25   2.0000      -0.557645       -15.1743
  26   2.0000      -0.546118       -14.8606
  27   2.0000      -0.532392       -14.4871
  28   2.0000      -0.507274       -13.8036
  29   2.0000      -0.494657       -13.4603
  30   2.0000      -0.482431       -13.1276
  31   2.0000      -0.466491       -12.6939
  32   2.0000      -0.448101       -12.1934
  33   2.0000      -0.402692       -10.9578
  34   2.0000      -0.339205        -9.2302
  35   0.0000       0.132159         3.5962
  36   0.0000       0.146704         3.9920
  37   0.0000       0.155705         4.2370
  38   0.0000       0.173164         4.7120
  39   0.0000       0.175832         4.7846

MULLIKEN ATOMIC CHARGES
-----------------------
   0 C :   -0.402153
   1 C :   -0.231292
   2 C :    0.072753
   3 C :   -0.072179
   4 O :   -0.310697
   5 C :   -0.042319
   6 C :    0.053256
   7 C :   -0.410327
   8 C :   -0.321079
   9 H :    0.135146
  10 H :    0.126502
  11 H :    0.124766
  12 H :    0.112902
  13 H :    0.114934
  14 H :    0.092198
  15 H :    0.124176
  16 H :    0.092690
  17 H :    0.124331
  18 H :    0.099910
  19 H :    0.135254
  20 H :    0.133964
  21 H :    0.138295
  22 H :    0.108970
Sum of atomic charges:    0.0000000

LOEWDIN ATOMIC CHARGES
----------------------
   0 C :   -0.317944
   1 C :   -0.267183
   2 C :   -0.253250
   3 C :   -0.289001
   4 O :    0.162098
   5 C :   -0.283738
   6 C :   -0.202960
   7 C :   -0.271658
   8 C :   -0.131066
   9 H :    0.121750
  10 H :    0.121655
  11 H :    0.118621
  12 H :    0.139153
  13 H :    0.138322
  14 H :    0.159174
  15 H :    0.130417
  16 H :    0.125178
  17 H :    0.138172
  18 H :    0.127922
  19 H :    0.130266
  20 H :    0.129841
  21 H :    0.129910
  22 H :    0.144319

  Mayer bond orders larger than 0.1
B(  0-C ,  1-C ) :   0.9199 B(  0-C ,  9-H ) :   0.9408 B(  0-C , 10-H ) :   0.9384
B(  0-C , 11-H ) :   0.9402 B(  1-C ,  2-C ) :   0.8881 B(  1-C , 12-H ) :   0.9361
B(  1-C , 13-H ) :   0.9235 B(  2-C ,  3-C ) :   0.9333 B(  2-C ,  8-C ) :   0.9013
B(  2-C , 14-H ) :   0.9093 B(  3-C ,  4-O ) :   0.9241 B(  3-C , 15-H ) :   0.9242
B(  3-C , 16-H ) :   0.9391 B(  4-O ,  5-C ) :   0.9630 B(  5-C ,  6-C ) :   0.9177
B(  5-C , 17-H ) :   0.9148 B(  5-C , 18-H ) :   0.9421 B(  6-C ,  7-C ) :   0.8948
B(  6-C ,  8-C ) :   1.7785 B(  7-C , 19-H ) :   0.9287 B(  7-C , 20-H ) :   0.9433
B(  7-C , 21-H ) :   0.9308 B(  8-C , 22-H ) :   0.9255

MP2 TOTAL ENERGY:     -387.623755812 Eh
FINAL SINGLE POINT ENERGY      -387.623755812070

DIPOLE MOMENT
-------------
                                X             Y             Z
Electronic contribution:     -3.76339      -4.97586      -1.55398
Nuclear contribution   :      4.03301       5.25860       1.92520
                        -----------------------------------------
Total Dipole Moment    :      0.26963       0.28274       0.37122
                        -----------------------------------------
Magnitude (a.u.)       :      0.53893
Magnitude (Debye)      :      1.36985

                             ****ORCA TERMINATED NORMALLY****
TOTAL RUN TIME: 0 days 0 hours 19 minutes 4 seconds 19 msec
