                         Program Version 3.0.3 - RELEASE   -
|  1> ! RI-MP2 RIJK def2-TZVP def2-TZVP/C def2-TZVP/JK TIGHTSCF
|  2> % maxcore 2000
|  3> % mp2 density relaxed end
|  4> *xyz 0 1
|  5>  N       -0.0608728746    -1.1818853642    -0.0784524899
|  6>  C       -0.0287771782    -0.0277965808    -0.0279906069
|  7>  C       -0.0313793958     1.4239792025    -0.0042281439
|  8>  C        0.1107855654     2.1259446285     1.3858477934
|  9>  O        1.5032562587     1.6312411460     1.4598401416
| 10>  C        1.3511851795     2.1494413599     0.0823332659
| 11>  C        0.6289920778     3.3733357723     0.6593087714
| 12>  C        0.0073153252     4.6012720801     0.0898915095
| 13>  C        1.1118396693     4.6870874699     1.1424634737
| 14>  H       -0.7657064048     1.8432860244    -0.6954308560
| 15>  H       -0.5209502129     2.0194414420     2.2665800535
| 16>  H        2.2011701021     2.0710043531    -0.5940505961
| 17>  H        0.2540421780     4.8840572529    -0.9283796582
| 18>  H       -1.0023437458     4.8602277394     0.3919659148
| 19>  H        0.8354021158     5.0028745308     2.1428345666
| 20>  H        2.0913576403     5.0266761933     0.8229221103
| 21> *
| 22>
| 23>                          ****END OF INPUT****

CARTESIAN COORDINATES (ANGSTROEM)
---------------------------------
  N     -0.060873   -1.181885   -0.078452
  C     -0.028777   -0.027797   -0.027991
  C     -0.031379    1.423979   -0.004228
  C      0.110786    2.125945    1.385848
  O      1.503256    1.631241    1.459840
  C      1.351185    2.149441    0.082333
  C      0.628992    3.373336    0.659309
  C      0.007315    4.601272    0.089892
  C      1.111840    4.687087    1.142463
  H     -0.765706    1.843286   -0.695431
  H     -0.520950    2.019441    2.266580
  H      2.201170    2.071004   -0.594051
  H      0.254042    4.884057   -0.928380
  H     -1.002344    4.860228    0.391966
  H      0.835402    5.002875    2.142835
  H      2.091358    5.026676    0.822922

 Total Charge           Charge          ....    0
 Multiplicity           Mult            ....    1
 Number of Electrons    NEL             ....   64
 Basis Dimension        Dim             ....  321

ORBITAL ENERGIES
----------------

  NO   OCC          E(Eh)            E(eV)
   0   2.0000     -20.575077      -559.8763
   1   2.0000     -15.569033      -423.6549
   2   2.0000     -11.335287      -308.4488
   3   2.0000     -11.335214      -308.4469
   4   2.0000     -11.299706      -307.4806
   5   2.0000     -11.276515      -306.8496
   6   2.0000     -11.272270      -306.7340
   7   2.0000     -11.254088      -306.2393
   8   2.0000     -11.250006      -306.1282
   9   2.0000      -1.426763       -38.8242
  10   2.0000      -1.216086       -33.0914
  11   2.0000      -1.172023       -31.8924
  12   2.0000      -1.087246       -29.5855
  13   2.0000      -0.941604       -25.6223
  14   2.0000      -0.918409       -24.9912
  15   2.0000      -0.852106       -23.1870
  16   2.0000      -0.755658       -20.5625
  17   2.0000      -0.735385       -20.0109
  18   2.0000      -0.694822       -18.9071
  19   2.0000      -0.673133       -18.3169
  20   2.0000      -0.671682       -18.2774
  21   2.0000      -0.579802       -15.7772
  22   2.0000      -0.567630       -15.4460
  23   2.0000      -0.549256       -14.9460
  24   2.0000      -0.542021       -14.7491
  25   2.0000      -0.534606       -14.5474
  26   2.0000      -0.482036       -13.1169
  27   2.0000      -0.481511       -13.1026
  28   2.0000      -0.467018       -12.7082
  29   2.0000      -0.440559       -11.9882
  30   2.0000      -0.437471       -11.9042
  31   2.0000      -0.422620       -11.5001
  32   0.0000       0.128850         3.5062
  33   0.0000       0.143167         3.8958
  34   0.0000       0.145623         3.9626
  35   0.0000       0.157812         4.2943
  36   0.0000       0.162665         4.4263

MULLIKEN ATOMIC CHARGES
-----------------------
   0 N :   -0.038280
   1 C :   -0.260380
   2 C :    0.117086
   3 C :   -0.025653
   4 O :   -0.292831
   5 C :   -0.025627
   6 C :    0.041220
   7 C :   -0.272676
   8 C :   -0.273991
   9 H :    0.156775
  10 H :    0.159445
  11 H :    0.159441
  12 H :    0.138420
  13 H :    0.138420
  14 H :    0.139317
  15 H :    0.139315
Sum of atomic charges:    0.0000000

LOEWDIN ATOMIC CHARGES
----------------------
   0 N :    0.069932
   1 C :   -0.170669
   2 C :   -0.166333
   3 C :   -0.146747
   4 O :    0.157155
   5 C :   -0.146762
   6 C :   -0.204768
   7 C :   -0.198858
   8 C :   -0.188669
   9 H :    0.169883
  10 H :    0.135236
  11 H :    0.135234
  12 H :    0.137786
  13 H :    0.137787
  14 H :    0.139896
  15 H :    0.139896

  Mayer bond orders larger than 0.1
B(  0-N ,  1-C ) :   2.8862 B(  1-C ,  2-C ) :   0.9154 B(  2-C ,  3-C ) :   0.8804
B(  2-C ,  5-C ) :   0.8804 B(  2-C ,  9-H ) :   0.8970 B(  3-C ,  4-O ) :   0.9301
B(  3-C ,  5-C ) :   0.1156 B(  3-C ,  6-C ) :   0.9067 B(  3-C , 10-H ) :   0.8769
B(  4-O ,  5-C ) :   0.9301 B(  5-C ,  6-C ) :   0.9067 B(  5-C , 11-H ) :   0.8770
B(  6-C ,  7-C ) :   0.8717 B(  6-C ,  8-C ) :   0.9003 B(  7-C ,  8-C ) :   0.9414
B(  7-C , 12-H ) :   0.9130 B(  7-C , 13-H ) :   0.9130 B(  8-C , 14-H ) :   0.9193
B(  8-C , 15-H ) :   0.9193

MP2 TOTAL ENERGY:     -399.966795730 Eh
FINAL SINGLE POINT ENERGY      -399.966795730395

DIPOLE MOMENT
-------------
                                X             Y             Z
Electronic contribution:      0.21256      -8.16708       0.05510
Nuclear contribution   :     -0.56481      10.23321      -0.35353
                        -----------------------------------------
Total Dipole Moment    :     -0.35226       2.06613      -0.29842
                        -----------------------------------------
Magnitude (a.u.)       :      2.11708
Magnitude (Debye)      :      5.38119

                             ****ORCA TERMINATED NORMALLY****
TOTAL RUN TIME: 0 days 0 hours 15 minutes 24 seconds 191 msec
