                         Program Version 3.0.3 - RELEASE   -
|  1> ! RI-MP2 RIJK def2-TZVP def2-TZVP/C def2-TZVP/JK TIGHTSCF
|  2> % maxcore 2000
|  3> % mp2 density relaxed end
|  4> *xyz 0 1
|  5>  C       -0.1647350162     0.8565558139     1.2707774409
|  6>  C       -0.1985808489    -0.0232159276     0.0331998022
|  7>  O       -1.4202263859    -0.7384841481     0.0205708801
|  8>  C       -1.5637521909    -1.5927990258    -1.0885178673
|  9>  C       -2.9133601220    -2.3066910767    -0.9862489426
| 10>  O       -3.1472408429    -3.0915815230    -2.1468184599
| 11>  C       -3.0329181496    -3.1337143542     0.2983615735
| 12>  C       -4.3910327835    -3.7861995733     0.4179539378
| 13>  O       -4.5752684611    -4.9548713072     0.6382507388
| 14>  H        0.7703516794     1.4229733225     1.3091683920
| 15>  H       -0.9989918448     1.5636356703     1.2623274998
| 16>  H       -0.2394141185     0.2484484675     2.1767982612
| 17>  H       -0.1104213496     0.5873163890    -0.8806573160
| 18>  H        0.6502161134    -0.7274893315     0.0334095330
| 19>  H       -1.5289134631    -1.0318552029    -2.0356953408
| 20>  H       -0.7495673907    -2.3405915872    -1.1181251567
| 21>  H       -3.7008404920    -1.5435093845    -0.9945625167
| 22>  H       -2.5630720013    -3.8578410722    -2.1153308433
| 23>  H       -2.2608527477    -3.9112641140     0.3436536919
| 24>  H       -2.8852642696    -2.4603532303     1.1524478106
| 25>  H       -5.2476981344    -3.0838906247     0.2900881814
| 26> *
| 27>
| 28>                          ****END OF INPUT****

CARTESIAN COORDINATES (ANGSTROEM)
---------------------------------
  C     -0.164735    0.856556    1.270777
  C     -0.198581   -0.023216    0.033200
  O     -1.420226   -0.738484    0.020571
  C     -1.563752   -1.592799   -1.088518
  C     -2.913360   -2.306691   -0.986249
  O     -3.147241   -3.091582   -2.146818
  C     -3.032918   -3.133714    0.298362
  C     -4.391033   -3.786200    0.417954
  O     -4.575268   -4.954871    0.638251
  H      0.770352    1.422973    1.309168
  H     -0.998992    1.563636    1.262327
  H     -0.239414    0.248448    2.176798
  H     -0.110421    0.587316   -0.880657
  H      0.650216   -0.727489    0.033410
  H     -1.528913   -1.031855   -2.035695
  H     -0.749567   -2.340592   -1.118125
  H     -3.700840   -1.543509   -0.994563
  H     -2.563072   -3.857841   -2.115331
  H     -2.260853   -3.911264    0.343654
  H     -2.885264   -2.460353    1.152448
  H     -5.247698   -3.083891    0.290088

 Total Charge           Charge          ....    0
 Multiplicity           Mult            ....    1
 Number of Electrons    NEL             ....   72
 Basis Dimension        Dim             ....  351

ORBITAL ENERGIES
----------------

  NO   OCC          E(Eh)            E(eV)
   0   2.0000     -20.571383      -559.7758
   1   2.0000     -20.569532      -559.7254
   2   2.0000     -20.554371      -559.3129
   3   2.0000     -11.330814      -308.3271
   4   2.0000     -11.299468      -307.4742
   5   2.0000     -11.288610      -307.1787
   6   2.0000     -11.287337      -307.1440
   7   2.0000     -11.241604      -305.8996
   8   2.0000     -11.224477      -305.4335
   9   2.0000      -1.396045       -37.9883
  10   2.0000      -1.393145       -37.9094
  11   2.0000      -1.376292       -37.4508
  12   2.0000      -1.075069       -29.2541
  13   2.0000      -1.029202       -28.0060
  14   2.0000      -0.959026       -26.0964
  15   2.0000      -0.848654       -23.0931
  16   2.0000      -0.839283       -22.8380
  17   2.0000      -0.802043       -21.8247
  18   2.0000      -0.702552       -19.1174
  19   2.0000      -0.692060       -18.8319
  20   2.0000      -0.677212       -18.4279
  21   2.0000      -0.658540       -17.9198
  22   2.0000      -0.651157       -17.7189
  23   2.0000      -0.626217       -17.0402
  24   2.0000      -0.604767       -16.4566
  25   2.0000      -0.589725       -16.0472
  26   2.0000      -0.567339       -15.4381
  27   2.0000      -0.547590       -14.9007
  28   2.0000      -0.542415       -14.7599
  29   2.0000      -0.519303       -14.1309
  30   2.0000      -0.512803       -13.9541
  31   2.0000      -0.493052       -13.4166
  32   2.0000      -0.485535       -13.2121
  33   2.0000      -0.458686       -12.4815
  34   2.0000      -0.436479       -11.8772
  35   2.0000      -0.416623       -11.3369
  36   0.0000       0.125748         3.4218
  37   0.0000       0.138283         3.7629
  38   0.0000       0.141321         3.8455
  39   0.0000       0.154875         4.2144
  40   0.0000       0.162053         4.4097

MULLIKEN ATOMIC CHARGES
-----------------------
   0 C :   -0.364347
   1 C :   -0.053436
   2 O :   -0.303918
   3 C :   -0.073360
   4 C :    0.073496
   5 O :   -0.468351
   6 C :   -0.199453
   7 C :    0.106920
   8 O :   -0.265284
   9 H :    0.125763
  10 H :    0.131444
  11 H :    0.130000
  12 H :    0.096587
  13 H :    0.094324
  14 H :    0.121448
  15 H :    0.086157
  16 H :    0.105616
  17 H :    0.319975
  18 H :    0.115538
  19 H :    0.150008
  20 H :    0.070871
Sum of atomic charges:   -0.0000000

LOEWDIN ATOMIC CHARGES
----------------------
   0 C :   -0.316143
   1 C :   -0.349962
   2 O :    0.159782
   3 C :   -0.319967
   4 C :   -0.351338
   5 O :   -0.008345
   6 C :   -0.255113
   7 C :   -0.293410
   8 O :    0.130183
   9 H :    0.125852
  10 H :    0.124628
  11 H :    0.124054
  12 H :    0.118164
  13 H :    0.117041
  14 H :    0.126396
  15 H :    0.118750
  16 H :    0.150139
  17 H :    0.179623
  18 H :    0.145400
  19 H :    0.162615
  20 H :    0.111652

  Mayer bond orders larger than 0.1
B(  0-C ,  1-C ) :   0.9523 B(  0-C ,  9-H ) :   0.9322 B(  0-C , 10-H ) :   0.9358
B(  0-C , 11-H ) :   0.9362 B(  1-C ,  2-O ) :   0.9169 B(  1-C , 12-H ) :   0.9254
B(  1-C , 13-H ) :   0.9260 B(  2-O ,  3-C ) :   0.9354 B(  3-C ,  4-C ) :   0.9751
B(  3-C , 14-H ) :   0.9275 B(  3-C , 15-H ) :   0.9099 B(  4-C ,  5-O ) :   0.8832
B(  4-C ,  6-C ) :   0.9339 B(  4-C , 16-H ) :   0.9106 B(  5-O , 17-H ) :   0.8381
B(  6-C ,  7-C ) :   0.8770 B(  6-C , 18-H ) :   0.8907 B(  6-C , 19-H ) :   0.8984
B(  7-C ,  8-O ) :   1.9963 B(  7-C , 20-H ) :   0.9351

MP2 TOTAL ENERGY:     -460.625816533 Eh
FINAL SINGLE POINT ENERGY      -460.625816532525

DIPOLE MOMENT
-------------
                                X             Y             Z
Electronic contribution:     -7.72865      -8.30443      -1.60356
Nuclear contribution   :      8.90051       9.25383       1.57878
                        -----------------------------------------
Total Dipole Moment    :      1.17186       0.94940      -0.02478
                        -----------------------------------------
Magnitude (a.u.)       :      1.50838
Magnitude (Debye)      :      3.83401

                             ****ORCA TERMINATED NORMALLY****
TOTAL RUN TIME: 0 days 0 hours 15 minutes 25 seconds 380 msec
