                         Program Version 3.0.3 - RELEASE   -
|  1> ! RI-MP2 RIJK def2-TZVP def2-TZVP/C def2-TZVP/JK TIGHTSCF
|  2> % maxcore 2000
|  3> % mp2 density relaxed end
|  4> *xyz 0 1
|  5>  O        0.2220379085     1.1601577726    -0.3607324602
|  6>  C        0.1079342347    -0.1400592621     0.1584331275
|  7>  C       -0.0807132793    -0.3092152766     1.6832259769
|  8>  O       -1.3287323603    -1.0085073424     1.4692515444
|  9>  C       -1.3112538927    -0.7333967897     0.0690818184
| 10>  C       -2.4950087359     0.0560365927    -0.5605144727
| 11>  N       -2.7585133198    -1.1397358117    -1.3850548453
| 12>  C       -1.6474278756    -1.8426731509    -0.9341959297
| 13>  N       -1.0496928771    -2.9220663058    -1.2117570972
| 14>  H        1.1529247177     1.3595903032    -0.4943847295
| 15>  H        0.8525334675    -0.8230409942    -0.2637055954
| 16>  H        0.6478942187    -0.9281540587     2.2170258943
| 17>  H       -0.2258733689     0.6430526486     2.2079755659
| 18>  H       -3.2978594829     0.2965828854     0.1414575513
| 19>  H       -2.1859185938     0.9456198758    -1.1164274328
| 20>  H       -3.1471904847    -1.1588054071    -2.3166285504
| 21>  H       -1.4991381462    -3.4234769991    -1.9802110955
| 22> *
| 23>
| 24>                          ****END OF INPUT****

CARTESIAN COORDINATES (ANGSTROEM)
---------------------------------
  O      0.222038    1.160158   -0.360732
  C      0.107934   -0.140059    0.158433
  C     -0.080713   -0.309215    1.683226
  O     -1.328732   -1.008507    1.469252
  C     -1.311254   -0.733397    0.069082
  C     -2.495009    0.056037   -0.560514
  N     -2.758513   -1.139736   -1.385055
  C     -1.647428   -1.842673   -0.934196
  N     -1.049693   -2.922066   -1.211757
  H      1.152925    1.359590   -0.494385
  H      0.852533   -0.823041   -0.263706
  H      0.647894   -0.928154    2.217026
  H     -0.225873    0.643053    2.207976
  H     -3.297859    0.296583    0.141458
  H     -2.185919    0.945620   -1.116427
  H     -3.147190   -1.158805   -2.316629
  H     -1.499138   -3.423477   -1.980211

 Total Charge           Charge          ....    0
 Multiplicity           Mult            ....    1
 Number of Electrons    NEL             ....   68
 Basis Dimension        Dim             ....  327

ORBITAL ENERGIES
----------------

  NO   OCC          E(Eh)            E(eV)
   0   2.0000     -20.579509      -559.9969
   1   2.0000     -20.561385      -559.5037
   2   2.0000     -15.576963      -423.8707
   3   2.0000     -15.525873      -422.4805
   4   2.0000     -11.310869      -307.7844
   5   2.0000     -11.300126      -307.4921
   6   2.0000     -11.298604      -307.4507
   7   2.0000     -11.283680      -307.0445
   8   2.0000     -11.267588      -306.6067
   9   2.0000      -1.407177       -38.2912
  10   2.0000      -1.375472       -37.4285
  11   2.0000      -1.284770       -34.9604
  12   2.0000      -1.164714       -31.6935
  13   2.0000      -1.010246       -27.4902
  14   2.0000      -0.976722       -26.5780
  15   2.0000      -0.892238       -24.2790
  16   2.0000      -0.840839       -22.8804
  17   2.0000      -0.735850       -20.0235
  18   2.0000      -0.729809       -19.8591
  19   2.0000      -0.702371       -19.1125
  20   2.0000      -0.670187       -18.2367
  21   2.0000      -0.652186       -17.7469
  22   2.0000      -0.631325       -17.1792
  23   2.0000      -0.616031       -16.7631
  24   2.0000      -0.593845       -16.1594
  25   2.0000      -0.550170       -14.9709
  26   2.0000      -0.539494       -14.6804
  27   2.0000      -0.530901       -14.4466
  28   2.0000      -0.490794       -13.3552
  29   2.0000      -0.474681       -12.9167
  30   2.0000      -0.446261       -12.1434
  31   2.0000      -0.431876       -11.7519
  32   2.0000      -0.404799       -11.0152
  33   2.0000      -0.361511        -9.8372
  34   0.0000       0.123857         3.3703
  35   0.0000       0.135439         3.6855
  36   0.0000       0.161824         4.4035
  37   0.0000       0.171306         4.6615
  38   0.0000       0.175309         4.7704

MULLIKEN ATOMIC CHARGES
-----------------------
   0 O :   -0.465241
   1 C :   -0.019671
   2 C :   -0.028206
   3 O :   -0.322580
   4 C :    0.344556
   5 C :   -0.143737
   6 N :   -0.329534
   7 C :   -0.012403
   8 N :   -0.374118
   9 H :    0.329157
  10 H :    0.119504
  11 H :    0.107686
  12 H :    0.091706
  13 H :    0.117216
  14 H :    0.145169
  15 H :    0.230760
  16 H :    0.209738
Sum of atomic charges:    0.0000000

LOEWDIN ATOMIC CHARGES
----------------------
   0 O :   -0.005947
   1 C :   -0.293644
   2 C :   -0.246009
   3 O :    0.177934
   4 C :   -0.244526
   5 C :   -0.199684
   6 N :    0.090820
   7 C :   -0.349842
   8 N :   -0.074786
   9 H :    0.180437
  10 H :    0.141133
  11 H :    0.118615
  12 H :    0.120500
  13 H :    0.127438
  14 H :    0.129239
  15 H :    0.165791
  16 H :    0.162531

  Mayer bond orders larger than 0.1
B(  0-O ,  1-C ) :   1.0679 B(  0-O ,  9-H ) :   0.8396 B(  1-C ,  2-C ) :   0.9795
B(  1-C ,  4-C ) :   0.8873 B(  1-C , 10-H ) :   0.9216 B(  2-C ,  3-O ) :   0.9456
B(  2-C , 11-H ) :   0.9115 B(  2-C , 12-H ) :   0.8973 B(  3-O ,  4-C ) :   0.9743
B(  4-C ,  5-C ) :   0.8982 B(  4-C ,  7-C ) :   0.8096 B(  5-C ,  6-N ) :   0.9252
B(  5-C , 13-H ) :   0.9163 B(  5-C , 14-H ) :   0.9162 B(  6-N ,  7-C ) :   1.1342
B(  6-N , 15-H ) :   0.8629 B(  7-C ,  8-N ) :   2.0844 B(  8-N , 16-H ) :   0.8533

MP2 TOTAL ENERGY:     -454.367024815 Eh
FINAL SINGLE POINT ENERGY      -454.367024815431

DIPOLE MOMENT
-------------
                                X             Y             Z
Electronic contribution:     -0.88167      -1.60331      -0.13950
Nuclear contribution   :      1.21617       2.57367      -0.60493
                        -----------------------------------------
Total Dipole Moment    :      0.33450       0.97036      -0.74443
                        -----------------------------------------
Magnitude (a.u.)       :      1.26793
Magnitude (Debye)      :      3.22282

                             ****ORCA TERMINATED NORMALLY****
TOTAL RUN TIME: 0 days 0 hours 16 minutes 24 seconds 279 msec
