                         Program Version 3.0.3 - RELEASE   -
|  1> ! RI-MP2 RIJK def2-TZVP def2-TZVP/C def2-TZVP/JK TIGHTSCF
|  2> % maxcore 2000
|  3> % mp2 density relaxed end
|  4> *xyz 0 1
|  5>  C       -0.0117479371     0.9465872001    -0.3106081884
|  6>  O       -0.4261868106    -0.2442688682     0.3428588086
|  7>  C        0.4722232657    -0.6499064814     1.3307623505
|  8>  C        0.3637109302    -2.0747852448     1.7851598623
|  9>  C        1.5596754994    -1.6205762161     0.9483504153
| 10>  N        1.6826647338    -1.9789851412    -0.4374210071
| 11>  C        2.0635365426    -3.3625172788    -0.6785808302
| 12>  C        2.4488213277    -3.5679696833    -2.1333258523
| 13>  O        2.3104514497    -4.5999658392    -2.7359002067
| 14>  H        0.9572318497     0.8169496607    -0.8101720496
| 15>  H       -0.7759770817     1.1846715928    -1.0537605461
| 16>  H        0.0668872342     1.7822611886     0.3999913760
| 17>  H        0.7004791059     0.1199334863     2.0686945676
| 18>  H        0.4932340534    -2.2951345485     2.8391636748
| 19>  H       -0.3825542529    -2.6780927573     1.2785911916
| 20>  H        2.5161397510    -1.5290925398     1.4578118259
| 21>  H        0.8069042030    -1.7631942951    -0.9040327028
| 22>  H        2.9682314629    -3.5761791392    -0.0889234073
| 23>  H        1.3157743021    -4.1192817204    -0.3934904487
| 24>  H        2.8945246411    -2.6625320553    -2.6045312736
| 25> *
| 26>
| 27>                          ****END OF INPUT****

CARTESIAN COORDINATES (ANGSTROEM)
---------------------------------
  C     -0.011748    0.946587   -0.310608
  O     -0.426187   -0.244269    0.342859
  C      0.472223   -0.649906    1.330762
  C      0.363711   -2.074785    1.785160
  C      1.559675   -1.620576    0.948350
  N      1.682665   -1.978985   -0.437421
  C      2.063537   -3.362517   -0.678581
  C      2.448821   -3.567970   -2.133326
  O      2.310451   -4.599966   -2.735900
  H      0.957232    0.816950   -0.810172
  H     -0.775977    1.184672   -1.053761
  H      0.066887    1.782261    0.399991
  H      0.700479    0.119933    2.068695
  H      0.493234   -2.295135    2.839164
  H     -0.382554   -2.678093    1.278591
  H      2.516140   -1.529093    1.457812
  H      0.806904   -1.763194   -0.904033
  H      2.968231   -3.576179   -0.088923
  H      1.315774   -4.119282   -0.393490
  H      2.894525   -2.662532   -2.604531

 Total Charge           Charge          ....    0
 Multiplicity           Mult            ....    1
 Number of Electrons    NEL             ....   70
 Basis Dimension        Dim             ....  345

ORBITAL ENERGIES
----------------

  NO   OCC          E(Eh)            E(eV)
   0   2.0000     -20.573823      -559.8422
   1   2.0000     -20.556965      -559.3835
   2   2.0000     -15.562770      -423.4845
   3   2.0000     -11.329415      -308.2891
   4   2.0000     -11.291747      -307.2641
   5   2.0000     -11.280176      -306.9492
   6   2.0000     -11.269444      -306.6572
   7   2.0000     -11.268736      -306.6379
   8   2.0000     -11.231175      -305.6158
   9   2.0000      -1.396208       -37.9928
  10   2.0000      -1.395309       -37.9683
  11   2.0000      -1.236401       -33.6442
  12   2.0000      -1.117895       -30.4195
  13   2.0000      -0.973124       -26.4800
  14   2.0000      -0.938170       -25.5289
  15   2.0000      -0.831500       -22.6263
  16   2.0000      -0.807795       -21.9812
  17   2.0000      -0.796483       -21.6734
  18   2.0000      -0.721392       -19.6301
  19   2.0000      -0.688415       -18.7327
  20   2.0000      -0.668546       -18.1921
  21   2.0000      -0.644521       -17.5383
  22   2.0000      -0.630286       -17.1509
  23   2.0000      -0.618070       -16.8185
  24   2.0000      -0.608287       -16.5523
  25   2.0000      -0.594560       -16.1788
  26   2.0000      -0.573216       -15.5980
  27   2.0000      -0.538744       -14.6600
  28   2.0000      -0.516086       -14.0434
  29   2.0000      -0.513259       -13.9665
  30   2.0000      -0.483995       -13.1702
  31   2.0000      -0.466132       -12.6841
  32   2.0000      -0.424451       -11.5499
  33   2.0000      -0.404363       -11.0033
  34   2.0000      -0.365360        -9.9420
  35   0.0000       0.124994         3.4013
  36   0.0000       0.142064         3.8657
  37   0.0000       0.149078         4.0566
  38   0.0000       0.159346         4.3360
  39   0.0000       0.170033         4.6268

MULLIKEN ATOMIC CHARGES
-----------------------
   0 C :   -0.228802
   1 O :   -0.315911
   2 C :    0.045334
   3 C :   -0.246357
   4 C :   -0.089776
   5 N :   -0.346366
   6 C :   -0.078414
   7 C :    0.085970
   8 O :   -0.262939
   9 H :    0.137166
  10 H :    0.143109
  11 H :    0.118714
  12 H :    0.105761
  13 H :    0.134077
  14 H :    0.138580
  15 H :    0.118384
  16 H :    0.217833
  17 H :    0.127902
  18 H :    0.113877
  19 H :    0.081859
Sum of atomic charges:    0.0000000

LOEWDIN ATOMIC CHARGES
----------------------
   0 C :   -0.345053
   1 O :    0.158484
   2 C :   -0.305881
   3 C :   -0.215651
   4 C :   -0.276808
   5 N :    0.007612
   6 C :   -0.304383
   7 C :   -0.297239
   8 O :    0.131803
   9 H :    0.107282
  10 H :    0.114391
  11 H :    0.104751
  12 H :    0.134021
  13 H :    0.132976
  14 H :    0.141825
  15 H :    0.141625
  16 H :    0.179580
  17 H :    0.150593
  18 H :    0.129384
  19 H :    0.110685

  Mayer bond orders larger than 0.1
B(  0-C ,  1-O ) :   0.8766 B(  0-C ,  9-H ) :   0.9340 B(  0-C , 10-H ) :   0.9384
B(  0-C , 11-H ) :   0.9349 B(  1-O ,  2-C ) :   0.9803 B(  2-C ,  3-C ) :   0.8745
B(  2-C ,  4-C ) :   0.8990 B(  2-C , 12-H ) :   0.9351 B(  3-C ,  4-C ) :   0.8648
B(  3-C , 13-H ) :   0.9158 B(  3-C , 14-H ) :   0.9179 B(  4-C ,  5-N ) :   0.9877
B(  4-C , 15-H ) :   0.9297 B(  5-N ,  6-C ) :   0.9210 B(  5-N , 16-H ) :   0.8665
B(  6-C ,  7-C ) :   0.8853 B(  6-C , 17-H ) :   0.9054 B(  6-C , 18-H ) :   0.8919
B(  7-C ,  8-O ) :   2.0045 B(  7-C , 19-H ) :   0.9317

MP2 TOTAL ENERGY:     -439.516722341 Eh
FINAL SINGLE POINT ENERGY      -439.516722341377

DIPOLE MOMENT
-------------
                                X             Y             Z
Electronic contribution:      1.08821      -4.70339      -3.63394
Nuclear contribution   :     -0.99826       5.67984       4.49312
                        -----------------------------------------
Total Dipole Moment    :      0.08995       0.97645       0.85918
                        -----------------------------------------
Magnitude (a.u.)       :      1.30374
Magnitude (Debye)      :      3.31385

                             ****ORCA TERMINATED NORMALLY****
TOTAL RUN TIME: 0 days 0 hours 24 minutes 48 seconds 231 msec
