                         Program Version 3.0.3 - RELEASE   -
|  1> ! RI-MP2 RIJK def2-TZVP def2-TZVP/C def2-TZVP/JK TIGHTSCF
|  2> % maxcore 2000
|  3> % mp2 density relaxed end
|  4> *xyz 0 1
|  5>  C       -0.1151725288     1.5194534017    -0.0053065817
|  6>  C       -0.0338943015    -0.0076267598    -0.0444370777
|  7>  C       -1.3947716235    -0.6178509371    -0.3535119894
|  8>  C        1.1730299407    -0.4938009552    -0.8968752963
|  9>  N        1.9942107716    -0.5508278290     0.3352175220
| 10>  C        0.7819904679    -0.5983010324     1.1921034230
| 11>  C        0.8813610619     0.1851707223     2.5003349509
| 12>  C        0.3771967539    -1.9847702160     1.4905437653
| 13>  N        0.1042809586    -3.0851559120     1.7225482697
| 14>  H        0.8665949791     1.9729645370     0.1518047471
| 15>  H       -0.5056752344     1.8872044909    -0.9603309151
| 16>  H       -0.7897749052     1.8680576551     0.7835811654
| 17>  H       -1.7515097517    -0.2620480569    -1.3264420018
| 18>  H       -1.3607705634    -1.7093951765    -0.3831374788
| 19>  H       -2.1384484643    -0.3242270549     0.3959517349
| 20>  H        0.9848768821    -1.4704284545    -1.3619407314
| 21>  H        1.5559570681     0.1971837130    -1.6549859359
| 22>  H        2.6162278109    -1.3482322778     0.4202806915
| 23>  H        1.2266813789     1.2007209937     2.3044534915
| 24>  H       -0.0870303034     0.2228999729     3.0087966838
| 25>  H        1.5963893725    -0.2964290046     3.1741991130
| 26> *
| 27>
| 28>                          ****END OF INPUT****

CARTESIAN COORDINATES (ANGSTROEM)
---------------------------------
  C     -0.115173    1.519453   -0.005307
  C     -0.033894   -0.007627   -0.044437
  C     -1.394772   -0.617851   -0.353512
  C      1.173030   -0.493801   -0.896875
  N      1.994211   -0.550828    0.335218
  C      0.781990   -0.598301    1.192103
  C      0.881361    0.185171    2.500335
  C      0.377197   -1.984770    1.490544
  N      0.104281   -3.085156    1.722548
  H      0.866595    1.972965    0.151805
  H     -0.505675    1.887204   -0.960331
  H     -0.789775    1.868058    0.783581
  H     -1.751510   -0.262048   -1.326442
  H     -1.360771   -1.709395   -0.383137
  H     -2.138448   -0.324227    0.395952
  H      0.984877   -1.470428   -1.361941
  H      1.555957    0.197184   -1.654986
  H      2.616228   -1.348232    0.420281
  H      1.226681    1.200721    2.304453
  H     -0.087030    0.222900    3.008797
  H      1.596389   -0.296429    3.174199

 Total Charge           Charge          ....    0
 Multiplicity           Mult            ....    1
 Number of Electrons    NEL             ....   68
 Basis Dimension        Dim             ....  351

ORBITAL ENERGIES
----------------

  NO   OCC          E(Eh)            E(eV)
   0   2.0000     -15.569422      -423.6655
   1   2.0000     -15.565018      -423.5457
   2   2.0000     -11.312330      -307.8242
   3   2.0000     -11.268657      -306.6358
   4   2.0000     -11.263874      -306.5056
   5   2.0000     -11.263218      -306.4878
   6   2.0000     -11.235036      -305.7209
   7   2.0000     -11.228282      -305.5371
   8   2.0000     -11.225258      -305.4548
   9   2.0000      -1.269232       -34.5376
  10   2.0000      -1.210887       -32.9499
  11   2.0000      -1.072306       -29.1789
  12   2.0000      -1.035135       -28.1675
  13   2.0000      -0.950258       -25.8578
  14   2.0000      -0.906417       -24.6649
  15   2.0000      -0.891273       -24.2528
  16   2.0000      -0.782643       -21.2968
  17   2.0000      -0.696033       -18.9400
  18   2.0000      -0.652090       -17.7443
  19   2.0000      -0.641192       -17.4477
  20   2.0000      -0.620922       -16.8962
  21   2.0000      -0.596572       -16.2335
  22   2.0000      -0.578205       -15.7338
  23   2.0000      -0.568100       -15.4588
  24   2.0000      -0.552182       -15.0256
  25   2.0000      -0.548722       -14.9315
  26   2.0000      -0.540162       -14.6986
  27   2.0000      -0.525298       -14.2941
  28   2.0000      -0.495943       -13.4953
  29   2.0000      -0.483940       -13.1687
  30   2.0000      -0.472229       -12.8500
  31   2.0000      -0.455950       -12.4070
  32   2.0000      -0.433814       -11.8047
  33   2.0000      -0.398861       -10.8536
  34   0.0000       0.121703         3.3117
  35   0.0000       0.143266         3.8985
  36   0.0000       0.157255         4.2791
  37   0.0000       0.167655         4.5621
  38   0.0000       0.183088         4.9821

MULLIKEN ATOMIC CHARGES
-----------------------
   0 C :   -0.476039
   1 C :    0.125989
   2 C :   -0.407361
   3 C :   -0.195814
   4 N :   -0.344117
   5 C :    0.264684
   6 C :   -0.394946
   7 C :   -0.288282
   8 N :   -0.044551
   9 H :    0.160384
  10 H :    0.141607
  11 H :    0.139900
  12 H :    0.137243
  13 H :    0.156177
  14 H :    0.135674
  15 H :    0.125363
  16 H :    0.114741
  17 H :    0.215925
  18 H :    0.147169
  19 H :    0.140020
  20 H :    0.146235
Sum of atomic charges:   -0.0000000

LOEWDIN ATOMIC CHARGES
----------------------
   0 C :   -0.265863
   1 C :   -0.254784
   2 C :   -0.267337
   3 C :   -0.225252
   4 N :    0.042496
   5 C :   -0.282695
   6 C :   -0.248870
   7 C :   -0.160139
   8 N :    0.061769
   9 H :    0.133041
  10 H :    0.130938
  11 H :    0.128269
  12 H :    0.130806
  13 H :    0.133321
  14 H :    0.131100
  15 H :    0.126308
  16 H :    0.123275
  17 H :    0.162766
  18 H :    0.131994
  19 H :    0.133758
  20 H :    0.135100

  Mayer bond orders larger than 0.1
B(  0-C ,  1-C ) :   0.8747 B(  0-C ,  9-H ) :   0.9385 B(  0-C , 10-H ) :   0.9317
B(  0-C , 11-H ) :   0.9348 B(  1-C ,  2-C ) :   0.9234 B(  1-C ,  3-C ) :   0.8938
B(  1-C ,  5-C ) :   0.8388 B(  2-C , 12-H ) :   0.9349 B(  2-C , 13-H ) :   0.9237
B(  2-C , 14-H ) :   0.9313 B(  3-C ,  4-N ) :   0.9559 B(  3-C , 15-H ) :   0.9161
B(  3-C , 16-H ) :   0.9181 B(  4-N ,  5-C ) :   1.0070 B(  4-N , 17-H ) :   0.8808
B(  5-C ,  6-C ) :   0.8692 B(  5-C ,  7-C ) :   0.9116 B(  6-C , 18-H ) :   0.9373
B(  6-C , 19-H ) :   0.9329 B(  6-C , 20-H ) :   0.9263 B(  7-C ,  8-N ) :   2.8741

MP2 TOTAL ENERGY:     -382.603538378 Eh
FINAL SINGLE POINT ENERGY      -382.603538377796

DIPOLE MOMENT
-------------
                                X             Y             Z
Electronic contribution:      2.64716      -7.34134       2.49070
Nuclear contribution   :     -2.60139       8.41996      -2.98175
                        -----------------------------------------
Total Dipole Moment    :      0.04577       1.07862      -0.49105
                        -----------------------------------------
Magnitude (a.u.)       :      1.18602
Magnitude (Debye)      :      3.01463

                             ****ORCA TERMINATED NORMALLY****
TOTAL RUN TIME: 0 days 0 hours 22 minutes 32 seconds 783 msec
