                         Program Version 3.0.3 - RELEASE   -
|  1> ! RI-MP2 RIJK def2-TZVP def2-TZVP/C def2-TZVP/JK TIGHTSCF
|  2> % maxcore 2000
|  3> % mp2 density relaxed end
|  4> *xyz 0 1
|  5>  C       -0.0518998990     1.5447933063     0.0833466046
|  6>  C       -0.0113932948     0.0527122962     0.0364398394
|  7>  C        0.0005033908    -0.7496179723    -1.0778307384
|  8>  O        0.0236102594    -2.0668897169    -0.7188245756
|  9>  C        0.0365904661    -2.1037562581     0.6428685426
| 10>  C        0.0125304756    -0.8397195536     1.1596716227
| 11>  N       -0.0688548062    -0.4380431886     2.4996934334
| 12>  C       -0.0119385336    -0.4319812069    -2.4466149985
| 13>  C       -0.0225196943    -0.1355477240    -3.6151031250
| 14>  H        0.8476657973     1.9626022846     0.5541120411
| 15>  H       -0.1205803302     1.9610288598    -0.9243620686
| 16>  H       -0.9124630889     1.9001481445     0.6620619604
| 17>  H        0.0514563000    -3.0842020288     1.0890108848
| 18>  H        0.2013197647    -1.1646498822     3.1496672092
| 19>  H        0.4706824372     0.3969786212     2.6903002907
| 20>  H       -0.0328501041     0.1202711487    -4.6454226927
| 21> *
| 22>
| 23>                          ****END OF INPUT****

CARTESIAN COORDINATES (ANGSTROEM)
---------------------------------
  C     -0.051900    1.544793    0.083347
  C     -0.011393    0.052712    0.036440
  C      0.000503   -0.749618   -1.077831
  O      0.023610   -2.066890   -0.718825
  C      0.036590   -2.103756    0.642869
  C      0.012530   -0.839720    1.159672
  N     -0.068855   -0.438043    2.499693
  C     -0.011939   -0.431981   -2.446615
  C     -0.022520   -0.135548   -3.615103
  H      0.847666    1.962602    0.554112
  H     -0.120580    1.961029   -0.924362
  H     -0.912463    1.900148    0.662062
  H      0.051456   -3.084202    1.089011
  H      0.201320   -1.164650    3.149667
  H      0.470682    0.396979    2.690300
  H     -0.032850    0.120271   -4.645423

 Total Charge           Charge          ....    0
 Multiplicity           Mult            ....    1
 Number of Electrons    NEL             ....   64
 Basis Dimension        Dim             ....  321

ORBITAL ENERGIES
----------------

  NO   OCC          E(Eh)            E(eV)
   0   2.0000     -20.615740      -560.9828
   1   2.0000     -15.570283      -423.6890
   2   2.0000     -11.302786      -307.5644
   3   2.0000     -11.275806      -306.8303
   4   2.0000     -11.269477      -306.6581
   5   2.0000     -11.244636      -305.9821
   6   2.0000     -11.243035      -305.9385
   7   2.0000     -11.235620      -305.7368
   8   2.0000     -11.233672      -305.6838
   9   2.0000      -1.453221       -39.5441
  10   2.0000      -1.219754       -33.1912
  11   2.0000      -1.096505       -29.8374
  12   2.0000      -1.052331       -28.6354
  13   2.0000      -0.991813       -26.9886
  14   2.0000      -0.952806       -25.9272
  15   2.0000      -0.827474       -22.5167
  16   2.0000      -0.787441       -21.4274
  17   2.0000      -0.740720       -20.1560
  18   2.0000      -0.706372       -19.2214
  19   2.0000      -0.673413       -18.3245
  20   2.0000      -0.644132       -17.5277
  21   2.0000      -0.630867       -17.1668
  22   2.0000      -0.617217       -16.7953
  23   2.0000      -0.576273       -15.6812
  24   2.0000      -0.572540       -15.5796
  25   2.0000      -0.546865       -14.8810
  26   2.0000      -0.514438       -13.9986
  27   2.0000      -0.497889       -13.5482
  28   2.0000      -0.440325       -11.9819
  29   2.0000      -0.405922       -11.0457
  30   2.0000      -0.347957        -9.4684
  31   2.0000      -0.289736        -7.8841
  32   0.0000       0.106161         2.8888
  33   0.0000       0.121663         3.3106
  34   0.0000       0.152625         4.1531
  35   0.0000       0.161249         4.3878
  36   0.0000       0.171207         4.6588

MULLIKEN ATOMIC CHARGES
-----------------------
   0 C :   -0.473304
   1 C :   -0.093950
   2 C :    0.052998
   3 O :   -0.216889
   4 C :   -0.107152
   5 C :    0.150436
   6 N :   -0.520970
   7 C :    0.067542
   8 C :   -0.142177
   9 H :    0.139872
  10 H :    0.155375
  11 H :    0.160778
  12 H :    0.138573
  13 H :    0.242613
  14 H :    0.252302
  15 H :    0.193954
Sum of atomic charges:    0.0000000

LOEWDIN ATOMIC CHARGES
----------------------
   0 C :   -0.264888
   1 C :   -0.144004
   2 C :   -0.228888
   3 O :    0.364517
   4 C :   -0.238997
   5 C :   -0.258931
   6 N :   -0.085488
   7 C :   -0.076295
   8 C :   -0.069538
   9 H :    0.130072
  10 H :    0.139278
  11 H :    0.135940
  12 H :    0.131340
  13 H :    0.168213
  14 H :    0.169148
  15 H :    0.128521

  Mayer bond orders larger than 0.1
B(  0-C ,  1-C ) :   0.8421 B(  0-C ,  9-H ) :   0.9372 B(  0-C , 10-H ) :   0.9419
B(  0-C , 11-H ) :   0.9437 B(  1-C ,  2-C ) :   1.4501 B(  1-C ,  5-C ) :   1.2217
B(  2-C ,  3-O ) :   1.0503 B(  2-C ,  7-C ) :   1.1988 B(  2-C ,  8-C ) :  -0.1424
B(  3-O ,  4-C ) :   1.0230 B(  4-C ,  5-C ) :   1.4839 B(  4-C , 12-H ) :   0.9505
B(  5-C ,  6-N ) :   0.9786 B(  6-N , 13-H ) :   0.8828 B(  6-N , 14-H ) :   0.8735
B(  7-C ,  8-C ) :   2.6021 B(  8-C , 15-H ) :   0.8774

MP2 TOTAL ENERGY:     -400.038794744 Eh
FINAL SINGLE POINT ENERGY      -400.038794743646

DIPOLE MOMENT
-------------
                                X             Y             Z
Electronic contribution:     -0.08316      -5.31915      -3.74726
Nuclear contribution   :      0.50961       5.68651       4.40716
                        -----------------------------------------
Total Dipole Moment    :      0.42645       0.36736       0.65990
                        -----------------------------------------
Magnitude (a.u.)       :      0.86734
Magnitude (Debye)      :      2.20459

                             ****ORCA TERMINATED NORMALLY****
TOTAL RUN TIME: 0 days 0 hours 15 minutes 51 seconds 630 msec
