                         Program Version 3.0.3 - RELEASE   -
|  1> ! RI-MP2 RIJK def2-TZVP def2-TZVP/C def2-TZVP/JK TIGHTSCF
|  2> % maxcore 2000
|  3> % mp2 density relaxed end
|  4> *xyz 0 1
|  5>  C       -0.0808373513     1.4030817354     0.0110243267
|  6>  O        0.0091635464    -0.0032550307     0.0030003034
|  7>  C       -1.2454913357    -0.6319155559     0.0102797656
|  8>  C       -1.0707480750    -2.1115167015     0.0019260493
|  9>  C        0.0567523306    -2.8254125127    -0.0090756032
| 10>  C       -0.2772303657    -4.2525435571    -0.0136353477
| 11>  N        0.5259272102    -5.2309825383    -0.0237095217
| 12>  O       -1.6533401686    -4.3657387493    -0.0048711093
| 13>  C       -2.2375005437    -3.0649106326     0.0051868717
| 14>  H        0.9394530053     1.7920075321     0.0044936173
| 15>  H       -0.6133852416     1.7826837926    -0.8749876325
| 16>  H       -0.5984611930     1.7734547562     0.9096960048
| 17>  H       -1.8331211879    -0.3310705785     0.8988470943
| 18>  H       -1.8476222050    -0.3227090896    -0.8656069104
| 19>  H        1.0700713345    -2.4570171220    -0.0142254429
| 20>  H        0.0124015212    -6.1137626567    -0.0244499632
| 21>  H       -2.8712880616    -2.9580718661     0.8968394628
| 22>  H       -2.8830190691    -2.9495993951    -0.8769448049
| 23> *
| 24>
| 25>                          ****END OF INPUT****

CARTESIAN COORDINATES (ANGSTROEM)
---------------------------------
  C     -0.080837    1.403082    0.011024
  O      0.009164   -0.003255    0.003000
  C     -1.245491   -0.631916    0.010280
  C     -1.070748   -2.111517    0.001926
  C      0.056752   -2.825413   -0.009076
  C     -0.277230   -4.252544   -0.013635
  N      0.525927   -5.230983   -0.023710
  O     -1.653340   -4.365739   -0.004871
  C     -2.237501   -3.064911    0.005187
  H      0.939453    1.792008    0.004494
  H     -0.613385    1.782684   -0.874988
  H     -0.598461    1.773455    0.909696
  H     -1.833121   -0.331071    0.898847
  H     -1.847622   -0.322709   -0.865607
  H      1.070071   -2.457017   -0.014225
  H      0.012402   -6.113763   -0.024450
  H     -2.871288   -2.958072    0.896839
  H     -2.883019   -2.949599   -0.876945

 Total Charge           Charge          ....    0
 Multiplicity           Mult            ....    1
 Number of Electrons    NEL             ....   68
 Basis Dimension        Dim             ....  333

ORBITAL ENERGIES
----------------

  NO   OCC          E(Eh)            E(eV)
   0   2.0000     -20.591270      -560.3169
   1   2.0000     -20.577087      -559.9310
   2   2.0000     -15.523790      -422.4238
   3   2.0000     -11.331952      -308.3581
   4   2.0000     -11.308947      -307.7321
   5   2.0000     -11.306530      -307.6663
   6   2.0000     -11.286858      -307.1310
   7   2.0000     -11.266018      -306.5639
   8   2.0000     -11.238548      -305.8164
   9   2.0000      -1.428507       -38.8717
  10   2.0000      -1.400324       -38.1047
  11   2.0000      -1.186848       -32.2958
  12   2.0000      -1.116045       -30.3691
  13   2.0000      -0.995339       -27.0846
  14   2.0000      -0.965925       -26.2841
  15   2.0000      -0.902601       -24.5610
  16   2.0000      -0.792486       -21.5646
  17   2.0000      -0.768892       -20.9226
  18   2.0000      -0.702247       -19.1091
  19   2.0000      -0.693973       -18.8840
  20   2.0000      -0.671288       -18.2667
  21   2.0000      -0.669332       -18.2134
  22   2.0000      -0.654143       -17.8001
  23   2.0000      -0.625917       -17.0321
  24   2.0000      -0.578877       -15.7520
  25   2.0000      -0.567669       -15.4471
  26   2.0000      -0.538245       -14.6464
  27   2.0000      -0.530996       -14.4491
  28   2.0000      -0.518549       -14.1104
  29   2.0000      -0.504881       -13.7385
  30   2.0000      -0.450681       -12.2637
  31   2.0000      -0.432022       -11.7559
  32   2.0000      -0.427291       -11.6272
  33   2.0000      -0.351524        -9.5655
  34   0.0000       0.111342         3.0298
  35   0.0000       0.123012         3.3473
  36   0.0000       0.148038         4.0283
  37   0.0000       0.168842         4.5944
  38   0.0000       0.186445         5.0734

MULLIKEN ATOMIC CHARGES
-----------------------
   0 C :   -0.225300
   1 O :   -0.288281
   2 C :   -0.075817
   3 C :    0.042112
   4 C :   -0.175234
   5 C :    0.164486
   6 N :   -0.375097
   7 O :   -0.272636
   8 C :   -0.023666
   9 H :    0.147033
  10 H :    0.115529
  11 H :    0.115539
  12 H :    0.110640
  13 H :    0.110600
  14 H :    0.159512
  15 H :    0.223046
  16 H :    0.123759
  17 H :    0.123774
Sum of atomic charges:    0.0000000

LOEWDIN ATOMIC CHARGES
----------------------
   0 C :   -0.352775
   1 O :    0.150611
   2 C :   -0.294041
   3 C :   -0.150823
   4 C :   -0.083405
   5 C :   -0.391260
   6 N :   -0.060957
   7 O :    0.231269
   8 C :   -0.234768
   9 H :    0.116653
  10 H :    0.103266
  11 H :    0.103265
  12 H :    0.133286
  13 H :    0.133266
  14 H :    0.157434
  15 H :    0.167669
  16 H :    0.135652
  17 H :    0.135657

  Mayer bond orders larger than 0.1
B(  0-C ,  1-O ) :   0.9080 B(  0-C ,  9-H ) :   0.9391 B(  0-C , 10-H ) :   0.9361
B(  0-C , 11-H ) :   0.9361 B(  1-O ,  2-C ) :   0.9985 B(  2-C ,  3-C ) :   0.9262
B(  2-C , 12-H ) :   0.9166 B(  2-C , 13-H ) :   0.9166 B(  3-C ,  4-C ) :   1.6879
B(  3-C ,  8-C ) :   0.9632 B(  4-C ,  5-C ) :   0.9957 B(  4-C , 14-H ) :   0.9290
B(  5-C ,  6-N ) :   2.0287 B(  5-C ,  7-O ) :   1.0525 B(  6-N , 15-H ) :   0.8562
B(  7-O ,  8-C ) :   0.9221 B(  8-C , 16-H ) :   0.9075 B(  8-C , 17-H ) :   0.9075

MP2 TOTAL ENERGY:     -438.362168296 Eh
FINAL SINGLE POINT ENERGY      -438.362168296425

DIPOLE MOMENT
-------------
                                X             Y             Z
Electronic contribution:      1.17325      -8.60427      -0.04998
Nuclear contribution   :     -2.38172      10.13019       0.06615
                        -----------------------------------------
Total Dipole Moment    :     -1.20847       1.52591       0.01617
                        -----------------------------------------
Magnitude (a.u.)       :      1.94655
Magnitude (Debye)      :      4.94775

                             ****ORCA TERMINATED NORMALLY****
TOTAL RUN TIME: 0 days 0 hours 14 minutes 44 seconds 346 msec
