                         Program Version 3.0.3 - RELEASE   -
|  1> ! RI-MP2 RIJK def2-TZVP def2-TZVP/C def2-TZVP/JK TIGHTSCF
|  2> % maxcore 2000
|  3> % mp2 density relaxed end
|  4> *xyz 0 1
|  5>  C        0.9374937782     1.3334992876    -0.0416115356
|  6>  O        1.0306067468    -0.0691561968    -0.1263015178
|  7>  C        0.1645281968    -0.6151568475    -1.1012614088
|  8>  C        0.3284194344    -2.1243179428    -1.1277857843
|  9>  C       -0.3773713136    -2.8867732018    -0.0887151509
| 10>  O       -0.9030287888    -2.8096330823    -1.4168637358
| 11>  C        1.5478847830    -2.7379371076    -1.8089131671
| 12>  C        1.5606768275    -2.4346607279    -3.3151256196
| 13>  C        2.8674796228    -2.3358329065    -1.1345953078
| 14>  H        1.2038749326     1.8205090277    -0.9930421300
| 15>  H       -0.0782762862     1.6576834133     0.2350006992
| 16>  H        1.6363808351     1.6615241439     0.7314858722
| 17>  H       -0.8868866978    -0.3890218031    -0.8649790365
| 18>  H        0.3783037515    -0.1789643838    -2.0905120157
| 19>  H        0.0011382062    -3.8644231529     0.2063220100
| 20>  H       -0.9505064738    -2.3614642155     0.6738739493
| 21>  H        1.4231099739    -3.8225771080    -1.6983028125
| 22>  H        2.3502670573    -3.0064965859    -3.8127303641
| 23>  H        0.6050503106    -2.7031889647    -3.7751086669
| 24>  H        1.7529332458    -1.3748753302    -3.5153389701
| 25>  H        2.8630401646    -2.5850678359    -0.0691721199
| 26>  H        3.7055134780    -2.8608642479    -1.6047594433
| 27>  H        3.0468788251    -1.2609112813    -1.2162319540
| 28> *
| 29>
| 30>                          ****END OF INPUT****

CARTESIAN COORDINATES (ANGSTROEM)
---------------------------------
  C      0.937494    1.333499   -0.041612
  O      1.030607   -0.069156   -0.126302
  C      0.164528   -0.615157   -1.101261
  C      0.328419   -2.124318   -1.127786
  C     -0.377371   -2.886773   -0.088715
  O     -0.903029   -2.809633   -1.416864
  C      1.547885   -2.737937   -1.808913
  C      1.560677   -2.434661   -3.315126
  C      2.867480   -2.335833   -1.134595
  H      1.203875    1.820509   -0.993042
  H     -0.078276    1.657683    0.235001
  H      1.636381    1.661524    0.731486
  H     -0.886887   -0.389022   -0.864979
  H      0.378304   -0.178964   -2.090512
  H      0.001138   -3.864423    0.206322
  H     -0.950506   -2.361464    0.673874
  H      1.423110   -3.822577   -1.698303
  H      2.350267   -3.006497   -3.812730
  H      0.605050   -2.703189   -3.775109
  H      1.752933   -1.374875   -3.515339
  H      2.863040   -2.585068   -0.069172
  H      3.705513   -2.860864   -1.604759
  H      3.046879   -1.260911   -1.216232

 Total Charge           Charge          ....    0
 Multiplicity           Mult            ....    1
 Number of Electrons    NEL             ....   72
 Basis Dimension        Dim             ....  363

ORBITAL ENERGIES
----------------

  NO   OCC          E(Eh)            E(eV)
   0   2.0000     -20.562048      -559.5218
   1   2.0000     -20.561573      -559.5088
   2   2.0000     -11.285377      -307.0907
   3   2.0000     -11.280536      -306.9590
   4   2.0000     -11.276481      -306.8487
   5   2.0000     -11.276123      -306.8389
   6   2.0000     -11.231260      -305.6181
   7   2.0000     -11.211434      -305.0786
   8   2.0000     -11.208922      -305.0103
   9   2.0000      -1.408117       -38.3168
  10   2.0000      -1.380428       -37.5633
  11   2.0000      -1.078822       -29.3562
  12   2.0000      -0.997783       -27.1511
  13   2.0000      -0.930515       -25.3206
  14   2.0000      -0.914957       -24.8972
  15   2.0000      -0.892409       -24.2837
  16   2.0000      -0.844616       -22.9832
  17   2.0000      -0.753968       -20.5165
  18   2.0000      -0.687768       -18.7151
  19   2.0000      -0.675849       -18.3908
  20   2.0000      -0.656259       -17.8577
  21   2.0000      -0.640851       -17.4384
  22   2.0000      -0.612708       -16.6726
  23   2.0000      -0.598488       -16.2857
  24   2.0000      -0.570911       -15.5353
  25   2.0000      -0.558125       -15.1873
  26   2.0000      -0.551130       -14.9970
  27   2.0000      -0.532786       -14.4978
  28   2.0000      -0.519253       -14.1296
  29   2.0000      -0.502845       -13.6831
  30   2.0000      -0.485029       -13.1983
  31   2.0000      -0.483006       -13.1433
  32   2.0000      -0.466056       -12.6820
  33   2.0000      -0.433405       -11.7936
  34   2.0000      -0.429413       -11.6849
  35   2.0000      -0.420718       -11.4483
  36   0.0000       0.130827         3.5600
  37   0.0000       0.154524         4.2048
  38   0.0000       0.164942         4.4883
  39   0.0000       0.176430         4.8009
  40   0.0000       0.185865         5.0577

MULLIKEN ATOMIC CHARGES
-----------------------
   0 C :   -0.219732
   1 O :   -0.306542
   2 C :   -0.127194
   3 C :    0.245466
   4 C :   -0.097271
   5 O :   -0.341344
   6 C :   -0.021161
   7 C :   -0.445647
   8 C :   -0.395226
   9 H :    0.113175
  10 H :    0.114450
  11 H :    0.140889
  12 H :    0.116873
  13 H :    0.110909
  14 H :    0.114019
  15 H :    0.116889
  16 H :    0.088182
  17 H :    0.134119
  18 H :    0.151772
  19 H :    0.121001
  20 H :    0.128021
  21 H :    0.127676
  22 H :    0.130675
Sum of atomic charges:   -0.0000000

LOEWDIN ATOMIC CHARGES
----------------------
   0 C :   -0.361867
   1 O :    0.141696
   2 C :   -0.281643
   3 C :   -0.303821
   4 C :   -0.241133
   5 O :    0.163110
   6 C :   -0.270389
   7 C :   -0.288446
   8 C :   -0.286512
   9 H :    0.101752
  10 H :    0.103104
  11 H :    0.114071
  12 H :    0.132599
  13 H :    0.126296
  14 H :    0.122080
  15 H :    0.122831
  16 H :    0.160242
  17 H :    0.124423
  18 H :    0.129335
  19 H :    0.120047
  20 H :    0.125408
  21 H :    0.122056
  22 H :    0.124761

  Mayer bond orders larger than 0.1
B(  0-C ,  1-O ) :   0.9138 B(  0-C ,  9-H ) :   0.9381 B(  0-C , 10-H ) :   0.9353
B(  0-C , 11-H ) :   0.9393 B(  1-O ,  2-C ) :   0.9463 B(  2-C ,  3-C ) :   0.9057
B(  2-C , 12-H ) :   0.9188 B(  2-C , 13-H ) :   0.9295 B(  3-C ,  4-C ) :   0.9691
B(  3-C ,  5-O ) :   0.8564 B(  3-C ,  6-C ) :   0.9004 B(  4-C ,  5-O ) :   0.9088
B(  4-C , 14-H ) :   0.9031 B(  4-C , 15-H ) :   0.9119 B(  6-C ,  7-C ) :   0.9138
B(  6-C ,  8-C ) :   0.9321 B(  6-C , 16-H ) :   0.9309 B(  7-C , 17-H ) :   0.9389
B(  7-C , 18-H ) :   0.9389 B(  7-C , 19-H ) :   0.9322 B(  8-C , 20-H ) :   0.9371
B(  8-C , 21-H ) :   0.9324 B(  8-C , 22-H ) :   0.9245

MP2 TOTAL ENERGY:     -424.691756189 Eh
FINAL SINGLE POINT ENERGY      -424.691756189474

DIPOLE MOMENT
-------------
                                X             Y             Z
Electronic contribution:     -5.22365      -2.34980       2.15630
Nuclear contribution   :      5.51734       2.83427      -1.93952
                        -----------------------------------------
Total Dipole Moment    :      0.29369       0.48447       0.21678
                        -----------------------------------------
Magnitude (a.u.)       :      0.60660
Magnitude (Debye)      :      1.54185

                             ****ORCA TERMINATED NORMALLY****
TOTAL RUN TIME: 0 days 0 hours 19 minutes 11 seconds 58 msec
