                         Program Version 3.0.3 - RELEASE   -
|  1> ! RI-MP2 RIJK def2-TZVP def2-TZVP/C def2-TZVP/JK TIGHTSCF
|  2> % maxcore 2000
|  3> % mp2 density relaxed end
|  4> *xyz 0 1
|  5>  O       -0.0404692845     0.0872982697    -0.5132585180
|  6>  C        0.1291292943     1.0471673853     0.1993730552
|  7>  C        1.2443172384     2.0093949095     0.0469172582
|  8>  C        2.1001814247     2.0078428329    -1.1719860607
|  9>  N        2.6961256621     1.4991143226     0.0565184192
| 10>  C        3.0148875114     2.6376268937     1.0116010389
| 11>  C        2.6599350131     4.0403437637     0.5995098166
| 12>  C        1.5841763130     3.1048705239     1.0764085951
| 13>  H       -0.5697429555     1.2772301555     1.0350160184
| 14>  H        1.8760016740     1.2076694104    -1.8706451280
| 15>  H        2.4357914169     2.9344750911    -1.6227702954
| 16>  H        3.7188706331     2.4101852731     1.8006619403
| 17>  H        2.9561030218     4.7756040861     1.3418756513
| 18>  H        2.7150358032     4.4143539204    -0.4162287551
| 19>  H        0.9659057540     3.2943783019     1.9442166142
| 20> *
| 21>
| 22>                          ****END OF INPUT****

CARTESIAN COORDINATES (ANGSTROEM)
---------------------------------
  O     -0.040469    0.087298   -0.513259
  C      0.129129    1.047167    0.199373
  C      1.244317    2.009395    0.046917
  C      2.100181    2.007843   -1.171986
  N      2.696126    1.499114    0.056518
  C      3.014888    2.637627    1.011601
  C      2.659935    4.040344    0.599510
  C      1.584176    3.104871    1.076409
  H     -0.569743    1.277230    1.035016
  H      1.876002    1.207669   -1.870645
  H      2.435791    2.934475   -1.622770
  H      3.718871    2.410185    1.800662
  H      2.956103    4.775604    1.341876
  H      2.715036    4.414354   -0.416229
  H      0.965906    3.294378    1.944217

 Total Charge           Charge          ....    0
 Multiplicity           Mult            ....    1
 Number of Electrons    NEL             ....   58
 Basis Dimension        Dim             ....  290

ORBITAL ENERGIES
----------------

  NO   OCC          E(Eh)            E(eV)
   0   2.0000     -20.557646      -559.4020
   1   2.0000     -15.587549      -424.1588
   2   2.0000     -11.337608      -308.5120
   3   2.0000     -11.285252      -307.0873
   4   2.0000     -11.280707      -306.9637
   5   2.0000     -11.276497      -306.8491
   6   2.0000     -11.259889      -306.3972
   7   2.0000     -11.254407      -306.2480
   8   2.0000      -1.396895       -38.0115
   9   2.0000      -1.317712       -35.8568
  10   2.0000      -1.129401       -30.7326
  11   2.0000      -0.975836       -26.5538
  12   2.0000      -0.921223       -25.0678
  13   2.0000      -0.840397       -22.8684
  14   2.0000      -0.786039       -21.3892
  15   2.0000      -0.743117       -20.2212
  16   2.0000      -0.729860       -19.8605
  17   2.0000      -0.682582       -18.5740
  18   2.0000      -0.646936       -17.6040
  19   2.0000      -0.627172       -17.0662
  20   2.0000      -0.579431       -15.7671
  21   2.0000      -0.565463       -15.3870
  22   2.0000      -0.546979       -14.8841
  23   2.0000      -0.497018       -13.5245
  24   2.0000      -0.490796       -13.3552
  25   2.0000      -0.475556       -12.9405
  26   2.0000      -0.447466       -12.1762
  27   2.0000      -0.393539       -10.7087
  28   2.0000      -0.353977        -9.6322
  29   0.0000       0.099349         2.7034
  30   0.0000       0.146341         3.9821
  31   0.0000       0.154298         4.1987
  32   0.0000       0.166483         4.5302
  33   0.0000       0.187119         5.0918

MULLIKEN ATOMIC CHARGES
-----------------------
   0 O :   -0.269792
   1 C :    0.029988
   2 C :    0.128151
   3 C :   -0.121838
   4 N :   -0.237834
   5 C :   -0.050323
   6 C :   -0.257690
   7 C :   -0.158499
   8 H :    0.083019
   9 H :    0.155595
  10 H :    0.126504
  11 H :    0.144712
  12 H :    0.140266
  13 H :    0.136231
  14 H :    0.151511
Sum of atomic charges:    0.0000000

LOEWDIN ATOMIC CHARGES
----------------------
   0 O :    0.141923
   1 C :   -0.266467
   2 C :   -0.215890
   3 C :   -0.208790
   4 N :    0.162116
   5 C :   -0.195850
   6 C :   -0.206761
   7 C :   -0.161384
   8 H :    0.116464
   9 H :    0.147202
  10 H :    0.128050
  11 H :    0.136676
  12 H :    0.149620
  13 H :    0.129735
  14 H :    0.143356

  Mayer bond orders larger than 0.1
B(  0-O ,  1-C ) :   1.9908 B(  1-C ,  2-C ) :   0.8596 B(  1-C ,  8-H ) :   0.9681
B(  2-C ,  3-C ) :   0.9118 B(  2-C ,  4-N ) :   0.7622 B(  2-C ,  7-C ) :   0.8673
B(  3-C ,  4-N ) :   0.9270 B(  3-C ,  9-H ) :   0.9065 B(  3-C , 10-H ) :   0.8965
B(  4-N ,  5-C ) :   0.8888 B(  5-C ,  6-C ) :   0.8957 B(  5-C ,  7-C ) :   0.8933
B(  5-C , 11-H ) :   0.9283 B(  6-C ,  7-C ) :   0.8878 B(  6-C , 12-H ) :   0.9224
B(  6-C , 13-H ) :   0.9100 B(  7-C , 14-H ) :   0.9176

MP2 TOTAL ENERGY:     -361.949042653 Eh
FINAL SINGLE POINT ENERGY      -361.949042652605

DIPOLE MOMENT
-------------
                                X             Y             Z
Electronic contribution:     -2.14256      -4.27867      -0.63610
Nuclear contribution   :      2.36056       5.71470       1.10399
                        -----------------------------------------
Total Dipole Moment    :      0.21799       1.43603       0.46789
                        -----------------------------------------
Magnitude (a.u.)       :      1.52598
Magnitude (Debye)      :      3.87873

                             ****ORCA TERMINATED NORMALLY****
TOTAL RUN TIME: 0 days 0 hours 12 minutes 1 seconds 1 msec
