                         Program Version 3.0.3 - RELEASE   -
|  1> ! RI-MP2 RIJK def2-TZVP def2-TZVP/C def2-TZVP/JK TIGHTSCF
|  2> % maxcore 2000
|  3> % mp2 density relaxed end
|  4> *xyz 0 1
|  5>  O        0.0771538146     1.3239296787     0.1812879778
|  6>  C        0.0672246464    -0.0188749784    -0.0048622579
|  7>  C        0.0822452110    -0.7956984157    -1.1490079284
|  8>  C        0.0592967550    -2.1252950197    -0.6449857939
|  9>  C        0.0320964636    -2.1211549444     0.7314718361
| 10>  N        0.0368630216    -0.7958459027     1.1299978937
| 11>  C        0.0100979908    -3.4811338405     1.1583346301
| 12>  C        0.0261723844    -4.2018292002    -0.0028570037
| 13>  O        0.0561094898    -3.3951805278    -1.1197188249
| 14>  H        0.0955289319     1.7507112864    -0.6805049734
| 15>  H        0.1058710443    -0.4420698524    -2.1663834134
| 16>  H        0.0232161117    -0.4229926028     2.0622859635
| 17>  H       -0.0137321968    -3.8905041745     2.1556317842
| 18>  H        0.0198453018    -5.2598571457    -0.2021739700
| 19> *
| 20>
| 21>                          ****END OF INPUT****

CARTESIAN COORDINATES (ANGSTROEM)
---------------------------------
  O      0.077154    1.323930    0.181288
  C      0.067225   -0.018875   -0.004862
  C      0.082245   -0.795698   -1.149008
  C      0.059297   -2.125295   -0.644986
  C      0.032096   -2.121155    0.731472
  N      0.036863   -0.795846    1.129998
  C      0.010098   -3.481134    1.158335
  C      0.026172   -4.201829   -0.002857
  O      0.056109   -3.395181   -1.119719
  H      0.095529    1.750711   -0.680505
  H      0.105871   -0.442070   -2.166383
  H      0.023216   -0.422993    2.062286
  H     -0.013732   -3.890504    2.155632
  H      0.019845   -5.259857   -0.202174

 Total Charge           Charge          ....    0
 Multiplicity           Mult            ....    1
 Number of Electrons    NEL             ....   64
 Basis Dimension        Dim             ....  309

ORBITAL ENERGIES
----------------

  NO   OCC          E(Eh)            E(eV)
   0   2.0000     -20.610282      -560.8343
   1   2.0000     -20.607567      -560.7604
   2   2.0000     -15.607151      -424.6922
   3   2.0000     -11.337297      -308.5035
   4   2.0000     -11.278932      -306.9153
   5   2.0000     -11.267169      -306.5953
   6   2.0000     -11.242839      -305.9332
   7   2.0000     -11.235033      -305.7208
   8   2.0000     -11.218327      -305.2662
   9   2.0000      -1.442614       -39.2555
  10   2.0000      -1.429578       -38.9008
  11   2.0000      -1.284445       -34.9515
  12   2.0000      -1.065780       -29.0013
  13   2.0000      -1.053860       -28.6770
  14   2.0000      -0.955683       -26.0055
  15   2.0000      -0.840497       -22.8711
  16   2.0000      -0.814394       -22.1608
  17   2.0000      -0.764343       -20.7988
  18   2.0000      -0.730790       -19.8858
  19   2.0000      -0.707585       -19.2544
  20   2.0000      -0.655661       -17.8414
  21   2.0000      -0.646155       -17.5828
  22   2.0000      -0.625063       -17.0088
  23   2.0000      -0.609937       -16.5972
  24   2.0000      -0.582105       -15.8399
  25   2.0000      -0.567228       -15.4351
  26   2.0000      -0.557931       -15.1821
  27   2.0000      -0.523826       -14.2540
  28   2.0000      -0.506847       -13.7920
  29   2.0000      -0.388128       -10.5615
  30   2.0000      -0.345768        -9.4088
  31   2.0000      -0.257482        -7.0064
  32   0.0000       0.127402         3.4668
  33   0.0000       0.146035         3.9738
  34   0.0000       0.152106         4.1390
  35   0.0000       0.180568         4.9135
  36   0.0000       0.191680         5.2159

MULLIKEN ATOMIC CHARGES
-----------------------
   0 O :   -0.435096
   1 C :    0.289311
   2 C :   -0.341042
   3 C :    0.146739
   4 C :    0.126905
   5 N :   -0.300912
   6 C :   -0.298570
   7 C :    0.029029
   8 O :   -0.239294
   9 H :    0.345579
  10 H :    0.143941
  11 H :    0.252272
  12 H :    0.136812
  13 H :    0.144327
Sum of atomic charges:    0.0000000

LOEWDIN ATOMIC CHARGES
----------------------
   0 O :    0.063731
   1 C :   -0.352342
   2 C :   -0.186035
   3 C :   -0.245646
   4 C :   -0.213921
   5 N :    0.202262
   6 C :   -0.178952
   7 C :   -0.237038
   8 O :    0.337881
   9 H :    0.201677
  10 H :    0.140358
  11 H :    0.194792
  12 H :    0.142934
  13 H :    0.130300

  Mayer bond orders larger than 0.1
B(  0-O ,  1-C ) :   1.0978 B(  0-O ,  9-H ) :   0.8287 B(  1-C ,  2-C ) :   1.4835
B(  1-C ,  5-N ) :   1.1291 B(  2-C ,  3-C ) :   1.2350 B(  2-C , 10-H ) :   0.8960
B(  3-C ,  4-C ) :   1.3253 B(  3-C ,  8-O ) :   1.0582 B(  4-C ,  5-N ) :   1.0351
B(  4-C ,  6-C ) :   1.1835 B(  5-N , 11-H ) :   0.8627 B(  6-C ,  7-C ) :   1.5584
B(  6-C , 12-H ) :   0.9137 B(  7-C ,  8-O ) :   1.0081 B(  7-C , 13-H ) :   0.9381

MP2 TOTAL ENERGY:     -435.988907216 Eh
FINAL SINGLE POINT ENERGY      -435.988907216303

DIPOLE MOMENT
-------------
                                X             Y             Z
Electronic contribution:      0.01692       0.44631      -0.61463
Nuclear contribution   :     -0.01974       0.10700       0.97184
                        -----------------------------------------
Total Dipole Moment    :     -0.00281       0.55331       0.35721
                        -----------------------------------------
Magnitude (a.u.)       :      0.65861
Magnitude (Debye)      :      1.67405

                             ****ORCA TERMINATED NORMALLY****
TOTAL RUN TIME: 0 days 0 hours 14 minutes 19 seconds 445 msec
