                         Program Version 3.0.3 - RELEASE   -
|  1> ! RI-MP2 RIJK def2-TZVP def2-TZVP/C def2-TZVP/JK TIGHTSCF
|  2> % maxcore 2000
|  3> % mp2 density relaxed end
|  4> *xyz 0 1
|  5>  O        0.1101617775     1.3509507540     0.1316993717
|  6>  C        0.0877411211    -0.0567708434    -0.0047246924
|  7>  C        0.1923586643    -0.4383910053    -1.5246902775
|  8>  C       -1.4059534022    -0.4175406835    -1.5226781220
|  9>  C       -1.2912598606    -0.7551854794    -0.0082267707
| 10>  C       -1.4241491577    -0.2605032363     1.4918885956
| 11>  C        0.1442244459    -0.6478277862     1.4691723032
| 12>  C        0.0553230467    -2.1394141887     1.1959577814
| 13>  C       -0.8730859383    -2.2095043751     0.2381808935
| 14>  H        0.0119723019     1.7557046492    -0.7348666715
| 15>  H        0.7236783323     0.2684869537    -2.1717583959
| 16>  H        0.5684345408    -1.4438948691    -1.7104765709
| 17>  H       -1.7988662353     0.5807973228    -1.7301673863
| 18>  H       -1.9159575097    -1.1381793015    -2.1678605346
| 19>  H       -1.6059362483     0.8068534568     1.6072027212
| 20>  H       -2.0501722766    -0.8577175028     2.1589582426
| 21>  H        0.8354935988    -0.2705402672     2.2239230439
| 22>  H        0.6227588602    -2.9195279896     1.6827082782
| 23>  H       -1.2607693707    -3.0654670084    -0.2991738593
| 24> *
| 25>
| 26>                          ****END OF INPUT****

CARTESIAN COORDINATES (ANGSTROEM)
---------------------------------
  O      0.110162    1.350951    0.131699
  C      0.087741   -0.056771   -0.004725
  C      0.192359   -0.438391   -1.524690
  C     -1.405953   -0.417541   -1.522678
  C     -1.291260   -0.755185   -0.008227
  C     -1.424149   -0.260503    1.491889
  C      0.144224   -0.647828    1.469172
  C      0.055323   -2.139414    1.195958
  C     -0.873086   -2.209504    0.238181
  H      0.011972    1.755705   -0.734867
  H      0.723678    0.268487   -2.171758
  H      0.568435   -1.443895   -1.710477
  H     -1.798866    0.580797   -1.730167
  H     -1.915958   -1.138179   -2.167861
  H     -1.605936    0.806853    1.607203
  H     -2.050172   -0.857718    2.158958
  H      0.835494   -0.270540    2.223923
  H      0.622759   -2.919528    1.682708
  H     -1.260769   -3.065467   -0.299174

 Total Charge           Charge          ....    0
 Multiplicity           Mult            ....    1
 Number of Electrons    NEL             ....   66
 Basis Dimension        Dim             ....  339

ORBITAL ENERGIES
----------------

  NO   OCC          E(Eh)            E(eV)
   0   2.0000     -20.556489      -559.3705
   1   2.0000     -11.284249      -307.0600
   2   2.0000     -11.245149      -305.9961
   3   2.0000     -11.242261      -305.9175
   4   2.0000     -11.239907      -305.8534
   5   2.0000     -11.232743      -305.6585
   6   2.0000     -11.229526      -305.5709
   7   2.0000     -11.222131      -305.3697
   8   2.0000     -11.219934      -305.3099
   9   2.0000      -1.371390       -37.3174
  10   2.0000      -1.195665       -32.5357
  11   2.0000      -1.063958       -28.9518
  12   2.0000      -0.973499       -26.4903
  13   2.0000      -0.909620       -24.7520
  14   2.0000      -0.854304       -23.2468
  15   2.0000      -0.836149       -22.7528
  16   2.0000      -0.741121       -20.1669
  17   2.0000      -0.733279       -19.9535
  18   2.0000      -0.669786       -18.2258
  19   2.0000      -0.649984       -17.6870
  20   2.0000      -0.623255       -16.9596
  21   2.0000      -0.613264       -16.6878
  22   2.0000      -0.577522       -15.7152
  23   2.0000      -0.545476       -14.8432
  24   2.0000      -0.537765       -14.6333
  25   2.0000      -0.516814       -14.0632
  26   2.0000      -0.506135       -13.7726
  27   2.0000      -0.479738       -13.0543
  28   2.0000      -0.458078       -12.4649
  29   2.0000      -0.446730       -12.1561
  30   2.0000      -0.432923       -11.7804
  31   2.0000      -0.356283        -9.6950
  32   2.0000      -0.319339        -8.6897
  33   0.0000       0.130222         3.5435
  34   0.0000       0.148023         4.0279
  35   0.0000       0.158579         4.3152
  36   0.0000       0.167850         4.5674
  37   0.0000       0.179342         4.8802

MULLIKEN ATOMIC CHARGES
-----------------------
   0 O :   -0.447486
   1 C :    0.085697
   2 C :   -0.252436
   3 C :   -0.334444
   4 C :    0.168673
   5 C :   -0.195881
   6 C :   -0.026608
   7 C :   -0.216307
   8 C :   -0.259638
   9 H :    0.315460
  10 H :    0.127394
  11 H :    0.137469
  12 H :    0.134079
  13 H :    0.128636
  14 H :    0.130165
  15 H :    0.115378
  16 H :    0.128647
  17 H :    0.133166
  18 H :    0.128037
Sum of atomic charges:    0.0000000

LOEWDIN ATOMIC CHARGES
----------------------
   0 O :    0.032287
   1 C :   -0.262244
   2 C :   -0.204044
   3 C :   -0.202886
   4 C :   -0.175383
   5 C :   -0.151193
   6 C :   -0.143504
   7 C :   -0.134794
   8 C :   -0.117653
   9 H :    0.174979
  10 H :    0.120164
  11 H :    0.143434
  12 H :    0.132189
  13 H :    0.126608
  14 H :    0.134021
  15 H :    0.125851
  16 H :    0.133173
  17 H :    0.133850
  18 H :    0.135145

  Mayer bond orders larger than 0.1
B(  0-O ,  1-C ) :   1.0548 B(  0-O ,  9-H ) :   0.8367 B(  1-C ,  2-C ) :   0.9410
B(  1-C ,  4-C ) :   0.7723 B(  1-C ,  6-C ) :   0.8844 B(  2-C ,  3-C ) :   0.9196
B(  2-C , 10-H ) :   0.9290 B(  2-C , 11-H ) :   0.9089 B(  3-C ,  4-C ) :   0.8432
B(  3-C , 12-H ) :   0.9303 B(  3-C , 13-H ) :   0.9237 B(  4-C ,  5-C ) :   0.9031
B(  4-C ,  8-C ) :   0.9159 B(  5-C ,  6-C ) :   0.9227 B(  5-C , 14-H ) :   0.9090
B(  5-C , 15-H ) :   0.9148 B(  6-C ,  7-C ) :   0.9391 B(  6-C , 16-H ) :   0.8989
B(  7-C ,  8-C ) :   1.7196 B(  7-C , 17-H ) :   0.9315 B(  8-C , 18-H ) :   0.9348

MP2 TOTAL ENERGY:     -385.107331224 Eh
FINAL SINGLE POINT ENERGY      -385.107331223781

DIPOLE MOMENT
-------------
                                X             Y             Z
Electronic contribution:      0.96490       0.56582       1.79920
Nuclear contribution   :     -1.01445      -0.65264      -2.37576
                        -----------------------------------------
Total Dipole Moment    :     -0.04954      -0.08683      -0.57656
                        -----------------------------------------
Magnitude (a.u.)       :      0.58516
Magnitude (Debye)      :      1.48736

                             ****ORCA TERMINATED NORMALLY****
TOTAL RUN TIME: 0 days 0 hours 20 minutes 55 seconds 880 msec
