                         Program Version 3.0.3 - RELEASE   -
|  1> ! RI-MP2 RIJK def2-TZVP def2-TZVP/C def2-TZVP/JK TIGHTSCF
|  2> % maxcore 2000
|  3> % mp2 density relaxed end
|  4> *xyz 0 1
|  5>  C        0.1906844173     1.5110742897     0.2757405939
|  6>  C       -0.0105039179     0.0337760798    -0.1076599632
|  7>  C       -1.4407262657    -0.4167538849    -0.0665909400
|  8>  C       -2.3149174484    -0.5178712417    -1.1157323730
|  9>  N       -2.2143732630    -0.1991076843    -2.4603671111
| 10>  C       -2.8408332542    -1.0930439727    -3.4330437610
| 11>  O       -3.5313600850    -0.9525547880    -0.6999238475
| 12>  C       -3.4467154913    -1.1338553059     0.6589281738
| 13>  C       -2.2052290959    -0.8128879515     1.0897200053
| 14>  H        1.2495791835     1.7886480176     0.2398427196
| 15>  H       -0.3598581177     2.1701969522    -0.4029527812
| 16>  H       -0.1759849234     1.7036195797     1.2888996876
| 17>  H        0.4028975220    -0.1357028108    -1.1115815723
| 18>  H        0.5882815074    -0.5940347669     0.5642221203
| 19>  H       -1.2637059403     0.0414726754    -2.7036822474
| 20>  H       -2.7079325742    -0.6707515867    -4.4318783527
| 21>  H       -2.4307823102    -2.1145434392    -3.4218440604
| 22>  H       -3.9113413751    -1.1536730706    -3.2288458356
| 23>  H       -4.3404109699    -1.5009814931     1.1330837168
| 24>  H       -1.8494426080    -0.8626510281     2.1081296182
| 25> *
| 26>
| 27>                          ****END OF INPUT****

CARTESIAN COORDINATES (ANGSTROEM)
---------------------------------
  C      0.190684    1.511074    0.275741
  C     -0.010504    0.033776   -0.107660
  C     -1.440726   -0.416754   -0.066591
  C     -2.314917   -0.517871   -1.115732
  N     -2.214373   -0.199108   -2.460367
  C     -2.840833   -1.093044   -3.433044
  O     -3.531360   -0.952555   -0.699924
  C     -3.446715   -1.133855    0.658928
  C     -2.205229   -0.812888    1.089720
  H      1.249579    1.788648    0.239843
  H     -0.359858    2.170197   -0.402953
  H     -0.175985    1.703620    1.288900
  H      0.402898   -0.135703   -1.111582
  H      0.588282   -0.594035    0.564222
  H     -1.263706    0.041473   -2.703682
  H     -2.707933   -0.670752   -4.431878
  H     -2.430782   -2.114543   -3.421844
  H     -3.911341   -1.153673   -3.228846
  H     -4.340411   -1.500981    1.133084
  H     -1.849443   -0.862651    2.108130

 Total Charge           Charge          ....    0
 Multiplicity           Mult            ....    1
 Number of Electrons    NEL             ....   68
 Basis Dimension        Dim             ....  345

ORBITAL ENERGIES
----------------

  NO   OCC          E(Eh)            E(eV)
   0   2.0000     -20.608142      -560.7761
   1   2.0000     -15.569889      -423.6782
   2   2.0000     -11.313338      -307.8516
   3   2.0000     -11.268057      -306.6194
   4   2.0000     -11.255451      -306.2764
   5   2.0000     -11.230071      -305.5858
   6   2.0000     -11.219704      -305.3037
   7   2.0000     -11.213022      -305.1218
   8   2.0000     -11.209059      -305.0140
   9   2.0000      -1.450629       -39.4736
  10   2.0000      -1.228133       -33.4192
  11   2.0000      -1.093572       -29.7576
  12   2.0000      -1.018096       -27.7038
  13   2.0000      -0.980614       -26.6839
  14   2.0000      -0.910796       -24.7840
  15   2.0000      -0.858997       -23.3745
  16   2.0000      -0.792915       -21.5763
  17   2.0000      -0.750358       -20.4183
  18   2.0000      -0.705712       -19.2034
  19   2.0000      -0.646317       -17.5872
  20   2.0000      -0.644007       -17.5243
  21   2.0000      -0.619279       -16.8514
  22   2.0000      -0.604646       -16.4533
  23   2.0000      -0.588893       -16.0246
  24   2.0000      -0.576909       -15.6985
  25   2.0000      -0.559781       -15.2324
  26   2.0000      -0.536353       -14.5949
  27   2.0000      -0.532689       -14.4952
  28   2.0000      -0.521387       -14.1877
  29   2.0000      -0.492998       -13.4152
  30   2.0000      -0.478349       -13.0165
  31   2.0000      -0.436855       -11.8874
  32   2.0000      -0.378123       -10.2892
  33   2.0000      -0.272500        -7.4151
  34   0.0000       0.128092         3.4856
  35   0.0000       0.152535         4.1507
  36   0.0000       0.161178         4.3859
  37   0.0000       0.174288         4.7426
  38   0.0000       0.185405         5.0451

MULLIKEN ATOMIC CHARGES
-----------------------
   0 C :   -0.365587
   1 C :   -0.265661
   2 C :   -0.007285
   3 C :    0.223803
   4 N :   -0.322814
   5 C :   -0.277973
   6 O :   -0.236048
   7 C :   -0.026743
   8 C :   -0.234369
   9 H :    0.125769
  10 H :    0.126701
  11 H :    0.128434
  12 H :    0.098301
  13 H :    0.126466
  14 H :    0.223577
  15 H :    0.136908
  16 H :    0.119842
  17 H :    0.152437
  18 H :    0.143928
  19 H :    0.130313
Sum of atomic charges:    0.0000000

LOEWDIN ATOMIC CHARGES
----------------------
   0 C :   -0.310735
   1 C :   -0.260322
   2 C :   -0.185163
   3 C :   -0.312703
   4 N :    0.031852
   5 C :   -0.325292
   6 O :    0.343288
   7 C :   -0.250973
   8 C :   -0.172889
   9 H :    0.117869
  10 H :    0.121796
  11 H :    0.122185
  12 H :    0.135665
  13 H :    0.144317
  14 H :    0.183776
  15 H :    0.116744
  16 H :    0.105249
  17 H :    0.122419
  18 H :    0.129512
  19 H :    0.143405

  Mayer bond orders larger than 0.1
B(  0-C ,  1-C ) :   0.9294 B(  0-C ,  9-H ) :   0.9373 B(  0-C , 10-H ) :   0.9360
B(  0-C , 11-H ) :   0.9392 B(  1-C ,  2-C ) :   0.8683 B(  1-C , 12-H ) :   0.9413
B(  1-C , 13-H ) :   0.9417 B(  2-C ,  3-C ) :   1.4675 B(  2-C ,  8-C ) :   1.1432
B(  3-C ,  4-N ) :   1.1415 B(  3-C ,  6-O ) :   1.0565 B(  4-N ,  5-C ) :   0.8950
B(  4-N , 14-H ) :   0.8789 B(  5-C , 15-H ) :   0.9371 B(  5-C , 16-H ) :   0.9257
B(  5-C , 17-H ) :   0.9381 B(  6-O ,  7-C ) :   1.0022 B(  7-C ,  8-C ) :   1.5891
B(  7-C , 18-H ) :   0.9377 B(  8-C , 19-H ) :   0.9258

MP2 TOTAL ENERGY:     -402.472729688 Eh
FINAL SINGLE POINT ENERGY      -402.472729688344

DIPOLE MOMENT
-------------
                                X             Y             Z
Electronic contribution:     -6.04020      -2.91455       1.75967
Nuclear contribution   :      6.48788       2.74915      -2.09483
                        -----------------------------------------
Total Dipole Moment    :      0.44768      -0.16540      -0.33516
                        -----------------------------------------
Magnitude (a.u.)       :      0.58318
Magnitude (Debye)      :      1.48234

                             ****ORCA TERMINATED NORMALLY****
TOTAL RUN TIME: 0 days 0 hours 18 minutes 10 seconds 111 msec
