                         Program Version 3.0.3 - RELEASE   -
|  1> ! RI-MP2 RIJK def2-TZVP def2-TZVP/C def2-TZVP/JK TIGHTSCF
|  2> % maxcore 2000
|  3> % mp2 density relaxed end
|  4> *xyz 0 1
|  5>  C        0.0047071617     1.4934059224    -0.1265730614
|  6>  C        0.0198628902     0.0115013878     0.1125509877
|  7>  C       -1.2739588023    -0.7879883127     0.4263324359
|  8>  N       -0.4633798409    -1.7806151669     1.2381915106
|  9>  C        0.7050430806    -0.8088564018     1.2364824511
| 10>  C        1.3748955116    -1.6139223714     0.1053210563
| 11>  O        0.8120540217    -0.7009998434    -0.8865827504
| 12>  C        0.2639339477    -2.6603458617     0.3327248720
| 13>  O       -0.0283423906    -3.7320689515    -0.0951511696
| 14>  H        1.0220036452     1.8928865531    -0.1541631860
| 15>  H       -0.4725705582     1.7121816724    -1.0879700762
| 16>  H       -0.5562881966     2.0071090427     0.6598929084
| 17>  H       -1.9663443568    -0.2473737118     1.0789068410
| 18>  H       -1.8150899458    -1.2257734657    -0.4160796700
| 19>  H        1.1293125280    -0.4772564286     2.1799782008
| 20>  H        2.4238056546    -1.8480982828    -0.0781302000
| 21> *
| 22>
| 23>                          ****END OF INPUT****

CARTESIAN COORDINATES (ANGSTROEM)
---------------------------------
  C      0.004707    1.493406   -0.126573
  C      0.019863    0.011501    0.112551
  C     -1.273959   -0.787988    0.426332
  N     -0.463380   -1.780615    1.238192
  C      0.705043   -0.808856    1.236482
  C      1.374896   -1.613922    0.105321
  O      0.812054   -0.701000   -0.886583
  C      0.263934   -2.660346    0.332725
  O     -0.028342   -3.732069   -0.095151
  H      1.022004    1.892887   -0.154163
  H     -0.472571    1.712182   -1.087970
  H     -0.556288    2.007109    0.659893
  H     -1.966344   -0.247374    1.078907
  H     -1.815090   -1.225773   -0.416080
  H      1.129313   -0.477256    2.179978
  H      2.423806   -1.848098   -0.078130

 Total Charge           Charge          ....    0
 Multiplicity           Mult            ....    1
 Number of Electrons    NEL             ....   66
 Basis Dimension        Dim             ....  321

ORBITAL ENERGIES
----------------

  NO   OCC          E(Eh)            E(eV)
   0   2.0000     -20.582148      -560.0687
   1   2.0000     -20.560749      -559.4864
   2   2.0000     -15.582998      -424.0349
   3   2.0000     -11.362671      -309.1940
   4   2.0000     -11.318513      -307.9924
   5   2.0000     -11.317878      -307.9751
   6   2.0000     -11.289220      -307.1953
   7   2.0000     -11.284633      -307.0705
   8   2.0000     -11.240919      -305.8809
   9   2.0000      -1.435015       -39.0487
  10   2.0000      -1.401188       -38.1283
  11   2.0000      -1.265951       -34.4483
  12   2.0000      -1.070133       -29.1198
  13   2.0000      -0.996859       -27.1259
  14   2.0000      -0.940857       -25.6020
  15   2.0000      -0.888777       -24.1849
  16   2.0000      -0.802744       -21.8438
  17   2.0000      -0.721268       -19.6267
  18   2.0000      -0.698807       -19.0155
  19   2.0000      -0.690871       -18.7995
  20   2.0000      -0.676703       -18.4140
  21   2.0000      -0.631188       -17.1755
  22   2.0000      -0.625895       -17.0315
  23   2.0000      -0.599727       -16.3194
  24   2.0000      -0.568583       -15.4719
  25   2.0000      -0.555248       -15.1091
  26   2.0000      -0.538630       -14.6569
  27   2.0000      -0.533844       -14.5266
  28   2.0000      -0.503312       -13.6958
  29   2.0000      -0.476379       -12.9629
  30   2.0000      -0.447445       -12.1756
  31   2.0000      -0.433377       -11.7928
  32   2.0000      -0.383268       -10.4292
  33   0.0000       0.112571         3.0632
  34   0.0000       0.138622         3.7721
  35   0.0000       0.163531         4.4499
  36   0.0000       0.166869         4.5407
  37   0.0000       0.176475         4.8021

MULLIKEN ATOMIC CHARGES
-----------------------
   0 C :   -0.392385
   1 C :    0.098434
   2 C :   -0.141783
   3 N :   -0.154814
   4 C :   -0.019957
   5 C :   -0.002343
   6 O :   -0.298518
   7 C :    0.162284
   8 O :   -0.237762
   9 H :    0.142635
  10 H :    0.150089
  11 H :    0.135958
  12 H :    0.130519
  13 H :    0.136310
  14 H :    0.153426
  15 H :    0.137909
Sum of atomic charges:    0.0000000

LOEWDIN ATOMIC CHARGES
----------------------
   0 C :   -0.270383
   1 C :   -0.306536
   2 C :   -0.183025
   3 N :    0.150090
   4 C :   -0.136967
   5 C :   -0.195713
   6 O :    0.189656
   7 C :   -0.367786
   8 O :    0.177377
   9 H :    0.133902
  10 H :    0.138790
  11 H :    0.133902
  12 H :    0.136368
  13 H :    0.134752
  14 H :    0.133935
  15 H :    0.131638

  Mayer bond orders larger than 0.1
B(  0-C ,  1-C ) :   0.8860 B(  0-C ,  9-H ) :   0.9326 B(  0-C , 10-H ) :   0.9319
B(  0-C , 11-H ) :   0.9305 B(  1-C ,  2-C ) :   0.9570 B(  1-C ,  4-C ) :   0.9341
B(  1-C ,  6-O ) :   0.9692 B(  2-C ,  3-N ) :   0.8919 B(  2-C , 12-H ) :   0.9043
B(  2-C , 13-H ) :   0.9157 B(  3-N ,  4-C ) :   0.9739 B(  3-N ,  7-C ) :   0.9774
B(  4-C ,  5-C ) :   0.9393 B(  4-C , 14-H ) :   0.8845 B(  5-C ,  6-O ) :   0.9110
B(  5-C ,  7-C ) :   0.8907 B(  5-C , 15-H ) :   0.8981 B(  7-C ,  8-O ) :   2.0440

MP2 TOTAL ENERGY:     -437.113437626 Eh
FINAL SINGLE POINT ENERGY      -437.113437625635

DIPOLE MOMENT
-------------
                                X             Y             Z
Electronic contribution:      1.47137      -7.79794      -0.05185
Nuclear contribution   :     -1.21185       9.35519       0.51482
                        -----------------------------------------
Total Dipole Moment    :      0.25952       1.55725       0.46297
                        -----------------------------------------
Magnitude (a.u.)       :      1.64521
Magnitude (Debye)      :      4.18180

                             ****ORCA TERMINATED NORMALLY****
TOTAL RUN TIME: 0 days 0 hours 19 minutes 7 seconds 407 msec
