                         Program Version 3.0.3 - RELEASE   -
|  1> ! RI-MP2 RIJK def2-TZVP def2-TZVP/C def2-TZVP/JK TIGHTSCF
|  2> % maxcore 2000
|  3> % mp2 density relaxed end
|  4> *xyz 0 1
|  5>  O        0.2831396292     1.3531246309     0.3477307062
|  6>  C        0.0820150160    -0.0275492872     0.0642992689
|  7>  C       -1.4100479161    -0.3975195333     0.0673156796
|  8>  C       -1.6308728711    -1.8656861748    -0.3040096785
|  9>  C       -2.8654766130    -2.1594696215    -1.1843597194
| 10>  O       -2.0505486147    -2.2811963987    -2.3693383513
| 11>  C       -0.8405151534    -2.3045222250    -1.5597573942
| 12>  C        0.2539330693    -1.4017697839    -2.0240256822
| 13>  C        0.7085998200    -0.4109060404    -1.2573100019
| 14>  H       -0.1320449059     1.8570609184    -0.3615207037
| 15>  H        0.5932552197    -0.5447585230     0.8874322260
| 16>  H       -1.8505415047    -0.1625170611     1.0409365720
| 17>  H       -1.9030443111     0.2428853744    -0.6760739315
| 18>  H       -1.5041235192    -2.5151113316     0.5652299927
| 19>  H       -3.3778131830    -3.1015438407    -0.9460496013
| 20>  H       -3.6091407334    -1.3591762029    -1.2754390487
| 21>  H       -0.4672577044    -3.3380471066    -1.4891528278
| 22>  H        0.7040340283    -1.6187848228    -2.9896470595
| 23>  H        1.5548642775     0.1986407500    -1.5655535855
| 24> *
| 25>
| 26>                          ****END OF INPUT****

CARTESIAN COORDINATES (ANGSTROEM)
---------------------------------
  O      0.283140    1.353125    0.347731
  C      0.082015   -0.027549    0.064299
  C     -1.410048   -0.397520    0.067316
  C     -1.630873   -1.865686   -0.304010
  C     -2.865477   -2.159470   -1.184360
  O     -2.050549   -2.281196   -2.369338
  C     -0.840515   -2.304522   -1.559757
  C      0.253933   -1.401770   -2.024026
  C      0.708600   -0.410906   -1.257310
  H     -0.132045    1.857061   -0.361521
  H      0.593255   -0.544759    0.887432
  H     -1.850542   -0.162517    1.040937
  H     -1.903044    0.242885   -0.676074
  H     -1.504124   -2.515111    0.565230
  H     -3.377813   -3.101544   -0.946050
  H     -3.609141   -1.359176   -1.275439
  H     -0.467258   -3.338047   -1.489153
  H      0.704034   -1.618785   -2.989647
  H      1.554864    0.198641   -1.565554

 Total Charge           Charge          ....    0
 Multiplicity           Mult            ....    1
 Number of Electrons    NEL             ....   68
 Basis Dimension        Dim             ....  339

ORBITAL ENERGIES
----------------

  NO   OCC          E(Eh)            E(eV)
   0   2.0000     -20.560253      -559.4729
   1   2.0000     -20.549703      -559.1858
   2   2.0000     -11.289996      -307.2164
   3   2.0000     -11.289696      -307.2082
   4   2.0000     -11.281481      -306.9847
   5   2.0000     -11.241195      -305.8885
   6   2.0000     -11.236825      -305.7695
   7   2.0000     -11.234901      -305.7172
   8   2.0000     -11.231757      -305.6316
   9   2.0000      -1.379129       -37.5280
  10   2.0000      -1.366815       -37.1929
  11   2.0000      -1.113747       -30.3066
  12   2.0000      -1.039471       -28.2855
  13   2.0000      -0.979388       -26.6505
  14   2.0000      -0.926904       -25.2223
  15   2.0000      -0.853011       -23.2116
  16   2.0000      -0.795406       -21.6441
  17   2.0000      -0.728993       -19.8369
  18   2.0000      -0.699871       -19.0445
  19   2.0000      -0.681591       -18.5470
  20   2.0000      -0.656549       -17.8656
  21   2.0000      -0.630040       -17.1442
  22   2.0000      -0.611476       -16.6391
  23   2.0000      -0.594559       -16.1788
  24   2.0000      -0.577344       -15.7103
  25   2.0000      -0.557223       -15.1628
  26   2.0000      -0.542953       -14.7745
  27   2.0000      -0.512113       -13.9353
  28   2.0000      -0.498416       -13.5626
  29   2.0000      -0.480544       -13.0763
  30   2.0000      -0.450858       -12.2685
  31   2.0000      -0.429464       -11.6863
  32   2.0000      -0.413807       -11.2603
  33   2.0000      -0.368860       -10.0372
  34   0.0000       0.125147         3.4054
  35   0.0000       0.138823         3.7776
  36   0.0000       0.155648         4.2354
  37   0.0000       0.164814         4.4848
  38   0.0000       0.178233         4.8500

MULLIKEN ATOMIC CHARGES
-----------------------
   0 O :   -0.465324
   1 C :    0.165509
   2 C :   -0.293841
   3 C :   -0.073116
   4 C :   -0.036387
   5 O :   -0.332544
   6 C :    0.122189
   7 C :   -0.192254
   8 C :   -0.237361
   9 H :    0.312090
  10 H :    0.108876
  11 H :    0.133761
  12 H :    0.112056
  13 H :    0.124400
  14 H :    0.095003
  15 H :    0.102516
  16 H :    0.088943
  17 H :    0.131166
  18 H :    0.134318
Sum of atomic charges:    0.0000000

LOEWDIN ATOMIC CHARGES
----------------------
   0 O :   -0.019289
   1 C :   -0.328356
   2 C :   -0.223696
   3 C :   -0.204090
   4 C :   -0.253612
   5 O :    0.128126
   6 C :   -0.244348
   7 C :   -0.141415
   8 C :   -0.147304
   9 H :    0.174781
  10 H :    0.151928
  11 H :    0.141937
  12 H :    0.146183
  13 H :    0.145112
  14 H :    0.117650
  15 H :    0.117999
  16 H :    0.143204
  17 H :    0.147512
  18 H :    0.147676

  Mayer bond orders larger than 0.1
B(  0-O ,  1-C ) :   0.9006 B(  0-O ,  9-H ) :   0.8412 B(  1-C ,  2-C ) :   0.9287
B(  1-C ,  8-C ) :   0.9528 B(  1-C , 10-H ) :   0.9066 B(  2-C ,  3-C ) :   0.8899
B(  2-C , 11-H ) :   0.9324 B(  2-C , 12-H ) :   0.9125 B(  3-C ,  4-C ) :   0.9586
B(  3-C ,  6-C ) :   0.9503 B(  3-C , 13-H ) :   0.9206 B(  4-C ,  5-O ) :   0.9482
B(  4-C , 14-H ) :   0.9190 B(  4-C , 15-H ) :   0.9062 B(  5-O ,  6-C ) :   0.9445
B(  6-C ,  7-C ) :   0.9375 B(  6-C , 16-H ) :   0.9220 B(  7-C ,  8-C ) :   1.7562
B(  7-C , 17-H ) :   0.9228 B(  8-C , 18-H ) :   0.9287

MP2 TOTAL ENERGY:     -422.306859403 Eh
FINAL SINGLE POINT ENERGY      -422.306859403011

DIPOLE MOMENT
-------------
                                X             Y             Z
Electronic contribution:      1.27238      -0.01628      -1.80581
Nuclear contribution   :     -1.42983      -0.15365       2.05975
                        -----------------------------------------
Total Dipole Moment    :     -0.15745      -0.16993       0.25394
                        -----------------------------------------
Magnitude (a.u.)       :      0.34374
Magnitude (Debye)      :      0.87371

                             ****ORCA TERMINATED NORMALLY****
TOTAL RUN TIME: 0 days 0 hours 17 minutes 59 seconds 617 msec
