                         Program Version 3.0.3 - RELEASE   -
|  1> ! RI-MP2 RIJK def2-TZVP def2-TZVP/C def2-TZVP/JK TIGHTSCF
|  2> % maxcore 2000
|  3> % mp2 density relaxed end
|  4> *xyz 0 1
|  5>  N       -0.0539213002     1.3454665943     0.0093168238
|  6>  C        0.0666693759    -0.0107932844     0.0003187891
|  7>  O        1.1416922302    -0.5780577245    -0.0143878054
|  8>  C       -1.2622950771    -0.7683670620     0.0101769092
|  9>  C       -1.0192846574    -2.2852063034    -0.0011133592
| 10>  C       -2.2700256379    -3.0388964974     0.0079488147
| 11>  N       -3.2685928798    -3.6204310378     0.0153003266
| 12>  H        0.7853568242     1.9013233912     0.0036577371
| 13>  H       -0.9442562209     1.8108813193     0.0216262866
| 14>  H       -1.8407726222    -0.4812295077     0.8954323974
| 15>  H       -1.8595285558    -0.4711705601    -0.8591597663
| 16>  H       -0.4335557458    -2.5621369176    -0.8823486714
| 17>  H       -0.4148702430    -2.5721422900     0.8641578078
| 18> *
| 19>
| 20>                          ****END OF INPUT****

CARTESIAN COORDINATES (ANGSTROEM)
---------------------------------
  N     -0.053921    1.345467    0.009317
  C      0.066669   -0.010793    0.000319
  O      1.141692   -0.578058   -0.014388
  C     -1.262295   -0.768367    0.010177
  C     -1.019285   -2.285206   -0.001113
  C     -2.270026   -3.038896    0.007949
  N     -3.268593   -3.620431    0.015300
  H      0.785357    1.901323    0.003658
  H     -0.944256    1.810881    0.021626
  H     -1.840773   -0.481230    0.895432
  H     -1.859529   -0.471171   -0.859160
  H     -0.433556   -2.562137   -0.882349
  H     -0.414870   -2.572142    0.864158

 Total Charge           Charge          ....    0
 Multiplicity           Mult            ....    1
 Number of Electrons    NEL             ....   52
 Basis Dimension        Dim             ....  253

ORBITAL ENERGIES
----------------

  NO   OCC          E(Eh)            E(eV)
   0   2.0000     -20.538584      -558.8833
   1   2.0000     -15.601372      -424.5349
   2   2.0000     -15.571134      -423.7121
   3   2.0000     -11.373686      -309.4937
   4   2.0000     -11.286500      -307.1213
   5   2.0000     -11.276071      -306.8375
   6   2.0000     -11.275601      -306.8247
   7   2.0000      -1.403703       -38.1967
   8   2.0000      -1.231190       -33.5024
   9   2.0000      -1.221336       -33.2342
  10   2.0000      -1.099677       -29.9237
  11   2.0000      -0.956977       -26.0407
  12   2.0000      -0.812324       -22.1045
  13   2.0000      -0.745562       -20.2878
  14   2.0000      -0.722272       -19.6540
  15   2.0000      -0.679867       -18.5001
  16   2.0000      -0.663116       -18.0443
  17   2.0000      -0.606593       -16.5062
  18   2.0000      -0.595053       -16.1922
  19   2.0000      -0.577659       -15.7189
  20   2.0000      -0.553487       -15.0611
  21   2.0000      -0.538189       -14.6449
  22   2.0000      -0.466662       -12.6985
  23   2.0000      -0.460482       -12.5304
  24   2.0000      -0.443795       -12.0763
  25   2.0000      -0.434745       -11.8300
  26   0.0000       0.105322         2.8660
  27   0.0000       0.131315         3.5733
  28   0.0000       0.153115         4.1665
  29   0.0000       0.161722         4.4007
  30   0.0000       0.180491         4.9114

MULLIKEN ATOMIC CHARGES
-----------------------
   0 N :   -0.484529
   1 C :    0.291446
   2 O :   -0.350081
   3 C :   -0.261301
   4 C :   -0.153908
   5 C :   -0.158660
   6 N :   -0.061863
   7 H :    0.266374
   8 H :    0.263428
   9 H :    0.153501
  10 H :    0.153506
  11 H :    0.171043
  12 H :    0.171044
Sum of atomic charges:   -0.0000000

LOEWDIN ATOMIC CHARGES
----------------------
   0 N :   -0.015862
   1 C :   -0.476898
   2 O :    0.090823
   3 C :   -0.221417
   4 C :   -0.237029
   5 C :   -0.193997
   6 N :    0.053958
   7 H :    0.176554
   8 H :    0.172918
   9 H :    0.154697
  10 H :    0.154698
  11 H :    0.170777
  12 H :    0.170778

  Mayer bond orders larger than 0.1
B(  0-N ,  1-C ) :   1.1871 B(  0-N ,  7-H ) :   0.8565 B(  0-N ,  8-H ) :   0.8713
B(  1-C ,  2-O ) :   1.9454 B(  1-C ,  3-C ) :   0.9009 B(  3-C ,  4-C ) :   0.9418
B(  3-C ,  9-H ) :   0.9028 B(  3-C , 10-H ) :   0.9029 B(  4-C ,  5-C ) :   0.9086
B(  4-C , 11-H ) :   0.9149 B(  4-C , 12-H ) :   0.9149 B(  5-C ,  6-N ) :   2.8787

MP2 TOTAL ENERGY:     -340.128037798 Eh
FINAL SINGLE POINT ENERGY      -340.128037798378

DIPOLE MOMENT
-------------
                                X             Y             Z
Electronic contribution:     -0.32968      -2.59807      -0.01135
Nuclear contribution   :      0.59021       4.48449       0.01948
                        -----------------------------------------
Total Dipole Moment    :      0.26053       1.88642       0.00813
                        -----------------------------------------
Magnitude (a.u.)       :      1.90434
Magnitude (Debye)      :      4.84045

                             ****ORCA TERMINATED NORMALLY****
TOTAL RUN TIME: 0 days 0 hours 6 minutes 9 seconds 564 msec
