                         Program Version 3.0.3 - RELEASE   -
|  1> ! RI-MP2 RIJK def2-TZVP def2-TZVP/C def2-TZVP/JK TIGHTSCF
|  2> % maxcore 2000
|  3> % mp2 density relaxed end
|  4> *xyz 0 1
|  5>  O       -0.0290257804     0.0453487069    -0.0299518214
|  6>  C       -0.0788368924     1.2370467828     0.0170597193
|  7>  C       -1.2523556595     2.1984913911     0.0471512705
|  8>  C       -0.7176348195     3.2663197221    -0.9516276626
|  9>  N        0.3531295678     3.5628095914     0.0853680168
| 10>  C       -0.7204227554     3.2115663227     1.1054523596
| 11>  C        1.1135577860     2.2768995267     0.0353062708
| 12>  C        2.0162991130     2.1020133332     1.1639032495
| 13>  N        2.7154326517     1.9459587609     2.0706186109
| 14>  H       -2.2490651006     1.7634076341     0.0334715261
| 15>  H       -0.3488355294     2.9496967670    -1.9309590067
| 16>  H       -1.3771331417     4.1293561656    -1.0543929475
| 17>  H       -1.3821784734     4.0664914037     1.2517800234
| 18>  H       -0.3506161050     2.8452783710     2.0655666248
| 19>  H        1.6838410591     2.2121587608    -0.8967234535
| 20> *
| 21>
| 22>                          ****END OF INPUT****

CARTESIAN COORDINATES (ANGSTROEM)
---------------------------------
  O     -0.029026    0.045349   -0.029952
  C     -0.078837    1.237047    0.017060
  C     -1.252356    2.198491    0.047151
  C     -0.717635    3.266320   -0.951628
  N      0.353130    3.562810    0.085368
  C     -0.720423    3.211566    1.105452
  C      1.113558    2.276900    0.035306
  C      2.016299    2.102013    1.163903
  N      2.715433    1.945959    2.070619
  H     -2.249065    1.763408    0.033472
  H     -0.348836    2.949697   -1.930959
  H     -1.377133    4.129356   -1.054393
  H     -1.382178    4.066491    1.251780
  H     -0.350616    2.845278    2.065567
  H      1.683841    2.212159   -0.896723

 Total Charge           Charge          ....    0
 Multiplicity           Mult            ....    1
 Number of Electrons    NEL             ....   64
 Basis Dimension        Dim             ....  315

ORBITAL ENERGIES
----------------

  NO   OCC          E(Eh)            E(eV)
   0   2.0000     -20.583180      -560.0968
   1   2.0000     -15.609054      -424.7439
   2   2.0000     -15.584686      -424.0809
   3   2.0000     -11.368208      -309.3447
   4   2.0000     -11.331855      -308.3555
   5   2.0000     -11.304165      -307.6020
   6   2.0000     -11.300595      -307.5048
   7   2.0000     -11.285473      -307.0933
   8   2.0000     -11.282393      -307.0095
   9   2.0000      -1.430478       -38.9253
  10   2.0000      -1.325482       -36.0682
  11   2.0000      -1.228830       -33.4382
  12   2.0000      -1.066165       -29.0118
  13   2.0000      -1.016982       -27.6735
  14   2.0000      -0.961850       -26.1733
  15   2.0000      -0.857663       -23.3382
  16   2.0000      -0.783012       -21.3068
  17   2.0000      -0.721765       -19.6402
  18   2.0000      -0.716694       -19.5022
  19   2.0000      -0.705015       -19.1844
  20   2.0000      -0.637225       -17.3398
  21   2.0000      -0.604200       -16.4411
  22   2.0000      -0.599608       -16.3162
  23   2.0000      -0.584826       -15.9139
  24   2.0000      -0.568297       -15.4641
  25   2.0000      -0.558943       -15.2096
  26   2.0000      -0.527320       -14.3491
  27   2.0000      -0.501769       -13.6538
  28   2.0000      -0.494808       -13.4644
  29   2.0000      -0.473762       -12.8917
  30   2.0000      -0.460951       -12.5431
  31   2.0000      -0.393133       -10.6977
  32   0.0000       0.114859         3.1255
  33   0.0000       0.123599         3.3633
  34   0.0000       0.137994         3.7550
  35   0.0000       0.151409         4.1201
  36   0.0000       0.158898         4.3238

MULLIKEN ATOMIC CHARGES
-----------------------
   0 O :   -0.224415
   1 C :    0.065537
   2 C :    0.002673
   3 C :   -0.217126
   4 N :   -0.170636
   5 C :   -0.235282
   6 C :    0.089746
   7 C :   -0.187865
   8 N :   -0.037482
   9 H :    0.156354
  10 H :    0.141022
  11 H :    0.147713
  12 H :    0.146457
  13 H :    0.160953
  14 H :    0.162353
Sum of atomic charges:   -0.0000000

LOEWDIN ATOMIC CHARGES
----------------------
   0 O :    0.191652
   1 C :   -0.277324
   2 C :   -0.184815
   3 C :   -0.205431
   4 N :    0.117722
   5 C :   -0.198089
   6 C :   -0.234953
   7 C :   -0.164387
   8 N :    0.082081
   9 H :    0.144986
  10 H :    0.131230
  11 H :    0.141357
  12 H :    0.140734
  13 H :    0.137117
  14 H :    0.178121

  Mayer bond orders larger than 0.1
B(  0-O ,  1-C ) :   2.0569 B(  1-C ,  2-C ) :   0.8588 B(  1-C ,  6-C ) :   0.8131
B(  2-C ,  3-C ) :   0.8967 B(  2-C ,  5-C ) :   0.8876 B(  2-C ,  6-C ) :  -0.1055
B(  2-C ,  9-H ) :   0.8996 B(  3-C ,  4-N ) :   0.8964 B(  3-C , 10-H ) :   0.9204
B(  3-C , 11-H ) :   0.9187 B(  4-N ,  5-C ) :   0.8916 B(  4-N ,  6-C ) :   0.9321
B(  5-C , 12-H ) :   0.9211 B(  5-C , 13-H ) :   0.9189 B(  6-C ,  7-C ) :   0.9724
B(  6-C , 14-H ) :   0.8745 B(  7-C ,  8-N ) :   2.8465

MP2 TOTAL ENERGY:     -416.086587199 Eh
FINAL SINGLE POINT ENERGY      -416.086587198867

DIPOLE MOMENT
-------------
                                X             Y             Z
Electronic contribution:      4.18573      -3.69277       1.58003
Nuclear contribution   :     -5.74015       4.49305      -2.62650
                        -----------------------------------------
Total Dipole Moment    :     -1.55442       0.80028      -1.04647
                        -----------------------------------------
Magnitude (a.u.)       :      2.03758
Magnitude (Debye)      :      5.17913

                             ****ORCA TERMINATED NORMALLY****
TOTAL RUN TIME: 0 days 0 hours 16 minutes 7 seconds 206 msec
