                         Program Version 3.0.3 - RELEASE   -
|  1> ! RI-MP2 RIJK def2-TZVP def2-TZVP/C def2-TZVP/JK TIGHTSCF
|  2> % maxcore 2000
|  3> % mp2 density relaxed end
|  4> *xyz 0 1
|  5>  C       -0.0861658472     1.5729007430     0.0667850024
|  6>  C        0.0939792837     0.0692864652     0.0611268658
|  7>  C        1.3618894842    -0.6811957317    -0.2251242899
|  8>  C        2.6079890687    -0.0408842667     0.3781811019
|  9>  O        2.9989039236     1.1645004943    -0.2383483878
| 10>  C        1.9288146701    -0.0023554830     1.7919518782
| 11>  C        0.7145847936    -0.7306508715     1.1902705439
| 12>  C        0.0427296776    -1.8236802712     1.8105318284
| 13>  N       -0.4972313219    -2.7100479367     2.3247467205
| 14>  H        0.8119311600     2.0982501269     0.3893235799
| 15>  H       -0.3146686765     1.9179023525    -0.9467858614
| 16>  H       -0.9220763039     1.8571984158     0.7145929284
| 17>  H       -0.7614234682    -0.4610359281    -0.3531865648
| 18>  H        1.3855783396    -1.4769321268    -0.9596254648
| 19>  H        3.4340358602    -0.7628659630     0.3839595483
| 20>  H        3.8442490028     1.4366387044     0.1331106431
| 21>  H        2.4607196481    -0.5965025405     2.5363564344
| 22>  H        1.7232572353     0.9898973970     2.2001294235
| 23> *
| 24>
| 25>                          ****END OF INPUT****

CARTESIAN COORDINATES (ANGSTROEM)
---------------------------------
  C     -0.086166    1.572901    0.066785
  C      0.093979    0.069286    0.061127
  C      1.361889   -0.681196   -0.225124
  C      2.607989   -0.040884    0.378181
  O      2.998904    1.164500   -0.238348
  C      1.928815   -0.002355    1.791952
  C      0.714585   -0.730651    1.190271
  C      0.042730   -1.823680    1.810532
  N     -0.497231   -2.710048    2.324747
  H      0.811931    2.098250    0.389324
  H     -0.314669    1.917902   -0.946786
  H     -0.922076    1.857198    0.714593
  H     -0.761423   -0.461036   -0.353187
  H      1.385578   -1.476932   -0.959625
  H      3.434036   -0.762866    0.383960
  H      3.844249    1.436639    0.133111
  H      2.460720   -0.596503    2.536356
  H      1.723257    0.989897    2.200129

 Total Charge           Charge          ....    0
 Multiplicity           Mult            ....    1
 Number of Electrons    NEL             ....   66
 Basis Dimension        Dim             ....  333

ORBITAL ENERGIES
----------------

  NO   OCC          E(Eh)            E(eV)
   0   2.0000     -20.576257      -559.9084
   1   2.0000     -15.563424      -423.5023
   2   2.0000     -11.309785      -307.7549
   3   2.0000     -11.285227      -307.0866
   4   2.0000     -11.270019      -306.6728
   5   2.0000     -11.266978      -306.5901
   6   2.0000     -11.263865      -306.5054
   7   2.0000     -11.253760      -306.2304
   8   2.0000     -11.226128      -305.4785
   9   2.0000      -1.385475       -37.7007
  10   2.0000      -1.231299       -33.5053
  11   2.0000      -1.198482       -32.6124
  12   2.0000      -1.031568       -28.0704
  13   2.0000      -0.963704       -26.2237
  14   2.0000      -0.943512       -25.6743
  15   2.0000      -0.832653       -22.6576
  16   2.0000      -0.772667       -21.0253
  17   2.0000      -0.743361       -20.2279
  18   2.0000      -0.714866       -19.4525
  19   2.0000      -0.634863       -17.2755
  20   2.0000      -0.613858       -16.7039
  21   2.0000      -0.600911       -16.3516
  22   2.0000      -0.590437       -16.0666
  23   2.0000      -0.570935       -15.5359
  24   2.0000      -0.555726       -15.1221
  25   2.0000      -0.552218       -15.0266
  26   2.0000      -0.519633       -14.1399
  27   2.0000      -0.503387       -13.6979
  28   2.0000      -0.493502       -13.4289
  29   2.0000      -0.476147       -12.9566
  30   2.0000      -0.450439       -12.2571
  31   2.0000      -0.417667       -11.3653
  32   2.0000      -0.385869       -10.5000
  33   0.0000       0.115628         3.1464
  34   0.0000       0.137771         3.7489
  35   0.0000       0.145413         3.9569
  36   0.0000       0.157342         4.2815
  37   0.0000       0.171880         4.6771

MULLIKEN ATOMIC CHARGES
-----------------------
   0 C :   -0.380094
   1 C :   -0.150554
   2 C :   -0.079675
   3 C :    0.013788
   4 O :   -0.457299
   5 C :   -0.265057
   6 C :    0.203166
   7 C :   -0.249837
   8 N :   -0.053581
   9 H :    0.148283
  10 H :    0.137332
  11 H :    0.136233
  12 H :    0.140799
  13 H :    0.153520
  14 H :    0.105460
  15 H :    0.319318
  16 H :    0.142337
  17 H :    0.135861
Sum of atomic charges:   -0.0000000

LOEWDIN ATOMIC CHARGES
----------------------
   0 C :   -0.281167
   1 C :   -0.168803
   2 C :   -0.098931
   3 C :   -0.304658
   4 O :   -0.010151
   5 C :   -0.158749
   6 C :   -0.173228
   7 C :   -0.164183
   8 N :    0.060523
   9 H :    0.129160
  10 H :    0.132263
  11 H :    0.128158
  12 H :    0.168620
  13 H :    0.144871
  14 H :    0.139479
  15 H :    0.178243
  16 H :    0.141977
  17 H :    0.136577

  Mayer bond orders larger than 0.1
B(  0-C ,  1-C ) :   0.9020 B(  0-C ,  9-H ) :   0.9317 B(  0-C , 10-H ) :   0.9338
B(  0-C , 11-H ) :   0.9316 B(  1-C ,  2-C ) :   0.9136 B(  1-C ,  6-C ) :   0.8554
B(  1-C , 12-H ) :   0.9334 B(  2-C ,  3-C ) :   0.9263 B(  2-C ,  6-C ) :   0.7405
B(  2-C , 13-H ) :   0.9108 B(  3-C ,  4-O ) :   1.0693 B(  3-C ,  5-C ) :   0.9475
B(  3-C , 14-H ) :   0.9374 B(  4-O , 15-H ) :   0.8418 B(  5-C ,  6-C ) :   0.8974
B(  5-C , 16-H ) :   0.9191 B(  5-C , 17-H ) :   0.9113 B(  6-C ,  7-C ) :   0.9068
B(  7-C ,  8-N ) :   2.8805

MP2 TOTAL ENERGY:     -401.246090910 Eh
FINAL SINGLE POINT ENERGY      -401.246090910452

DIPOLE MOMENT
-------------
                                X             Y             Z
Electronic contribution:     -0.67971      -5.95952       2.13465
Nuclear contribution   :      1.85491       7.02833      -2.59405
                        -----------------------------------------
Total Dipole Moment    :      1.17520       1.06881      -0.45940
                        -----------------------------------------
Magnitude (a.u.)       :      1.65363
Magnitude (Debye)      :      4.20320

                             ****ORCA TERMINATED NORMALLY****
TOTAL RUN TIME: 0 days 0 hours 18 minutes 14 seconds 987 msec
