                         Program Version 3.0.3 - RELEASE   -
|  1> ! RI-MP2 RIJK def2-TZVP def2-TZVP/C def2-TZVP/JK TIGHTSCF
|  2> % maxcore 2000
|  3> % mp2 density relaxed end
|  4> *xyz 0 1
|  5>  C       -0.6097640715     1.5158393100    -0.4100369487
|  6>  C        0.0007931774     0.2029135713     0.0974578699
|  7>  C        0.7510565211    -0.5361554161    -1.0164564911
|  8>  C        2.1019232485    -1.2459105209    -1.0218591361
|  9>  C        2.3669301800    -2.2696123134     0.1177268999
| 10>  C        1.2604119173    -2.4371911790     1.1252188812
| 11>  C        1.0986576849    -3.0221937650    -0.2511047968
| 12>  C        0.8414867011    -1.9928431770    -1.3962264135
| 13>  O        0.5016324853    -2.4516412686    -2.6597223109
| 14>  H        0.1655154289     2.1877365224    -0.7939640012
| 15>  H       -1.3216693034     1.3331121696    -1.2226140248
| 16>  H       -1.1423130184     2.0410326965     0.3889471280
| 17>  H        0.6777378710     0.4262878630     0.9289084355
| 18>  H       -0.7995667223    -0.4255703207     0.5042298164
| 19>  H        0.6919655795     0.0138168024    -1.9575921802
| 20>  H        2.8994723058    -0.9075408042    -1.6715270073
| 21>  H        3.3531440574    -2.6829679851     0.2848148580
| 22>  H        1.4786067414    -3.1812487469     1.8877163052
| 23>  H        0.6646830526    -1.6142220936     1.4910743304
| 24>  H        0.9855691319    -4.0833226702    -0.4323937813
| 25>  H       -0.4595874084    -2.5130466245    -2.7069785728
| 26> *
| 27>
| 28>                          ****END OF INPUT****

CARTESIAN COORDINATES (ANGSTROEM)
---------------------------------
  C     -0.609764    1.515839   -0.410037
  C      0.000793    0.202914    0.097458
  C      0.751057   -0.536155   -1.016456
  C      2.101923   -1.245911   -1.021859
  C      2.366930   -2.269612    0.117727
  C      1.260412   -2.437191    1.125219
  C      1.098658   -3.022194   -0.251105
  C      0.841487   -1.992843   -1.396226
  O      0.501632   -2.451641   -2.659722
  H      0.165515    2.187737   -0.793964
  H     -1.321669    1.333112   -1.222614
  H     -1.142313    2.041033    0.388947
  H      0.677738    0.426288    0.928908
  H     -0.799567   -0.425570    0.504230
  H      0.691966    0.013817   -1.957592
  H      2.899472   -0.907541   -1.671527
  H      3.353144   -2.682968    0.284815
  H      1.478607   -3.181249    1.887716
  H      0.664683   -1.614222    1.491074
  H      0.985569   -4.083323   -0.432394
  H     -0.459587   -2.513047   -2.706979

 Total Charge           Charge          ....    0
 Multiplicity           Mult            ....    1
 Number of Electrons    NEL             ....   68
 Basis Dimension        Dim             ....  351

ORBITAL ENERGIES
----------------

  NO   OCC          E(Eh)            E(eV)
   0   2.0000     -20.563509      -559.5615
   1   2.0000     -11.285306      -307.0888
   2   2.0000     -11.234356      -305.7024
   3   2.0000     -11.232293      -305.6462
   4   2.0000     -11.229890      -305.5808
   5   2.0000     -11.229231      -305.5629
   6   2.0000     -11.227248      -305.5089
   7   2.0000     -11.224180      -305.4255
   8   2.0000     -11.215367      -305.1857
   9   2.0000      -1.374091       -37.3909
  10   2.0000      -1.203995       -32.7624
  11   2.0000      -1.081797       -29.4372
  12   2.0000      -1.022632       -27.8272
  13   2.0000      -0.887021       -24.1371
  14   2.0000      -0.856439       -23.3049
  15   2.0000      -0.824316       -22.4308
  16   2.0000      -0.756736       -20.5918
  17   2.0000      -0.731911       -19.9163
  18   2.0000      -0.711807       -19.3693
  19   2.0000      -0.643487       -17.5102
  20   2.0000      -0.632140       -17.2014
  21   2.0000      -0.610489       -16.6123
  22   2.0000      -0.597597       -16.2615
  23   2.0000      -0.565613       -15.3911
  24   2.0000      -0.543900       -14.8003
  25   2.0000      -0.541144       -14.7253
  26   2.0000      -0.508655       -13.8412
  27   2.0000      -0.505608       -13.7583
  28   2.0000      -0.486626       -13.2418
  29   2.0000      -0.476911       -12.9774
  30   2.0000      -0.430306       -11.7092
  31   2.0000      -0.421481       -11.4691
  32   2.0000      -0.388409       -10.5692
  33   2.0000      -0.319976        -8.7070
  34   0.0000       0.132198         3.5973
  35   0.0000       0.153739         4.1834
  36   0.0000       0.160284         4.3615
  37   0.0000       0.167778         4.5655
  38   0.0000       0.180179         4.9029

MULLIKEN ATOMIC CHARGES
-----------------------
   0 C :   -0.402541
   1 C :   -0.189751
   2 C :   -0.207317
   3 C :   -0.134330
   4 C :   -0.161434
   5 C :   -0.220654
   6 C :   -0.209825
   7 C :    0.229314
   8 O :   -0.455200
   9 H :    0.131144
  10 H :    0.125723
  11 H :    0.133825
  12 H :    0.125842
  13 H :    0.122768
  14 H :    0.112129
  15 H :    0.143182
  16 H :    0.133255
  17 H :    0.124002
  18 H :    0.141170
  19 H :    0.134977
  20 H :    0.323721
Sum of atomic charges:   -0.0000000

LOEWDIN ATOMIC CHARGES
----------------------
   0 C :   -0.319573
   1 C :   -0.285348
   2 C :   -0.171921
   3 C :   -0.127378
   4 C :   -0.160606
   5 C :   -0.201579
   6 C :   -0.150388
   7 C :   -0.298673
   8 O :    0.027861
   9 H :    0.122060
  10 H :    0.120283
  11 H :    0.120315
  12 H :    0.139075
  13 H :    0.137475
  14 H :    0.171596
  15 H :    0.142153
  16 H :    0.137963
  17 H :    0.141887
  18 H :    0.130263
  19 H :    0.139949
  20 H :    0.184585

  Mayer bond orders larger than 0.1
B(  0-C ,  1-C ) :   0.9040 B(  0-C ,  9-H ) :   0.9416 B(  0-C , 10-H ) :   0.9416
B(  0-C , 11-H ) :   0.9419 B(  1-C ,  2-C ) :   0.8104 B(  1-C , 12-H ) :   0.9360
B(  1-C , 13-H ) :   0.9383 B(  2-C ,  3-C ) :   0.8764 B(  2-C ,  7-C ) :   0.9148
B(  2-C , 14-H ) :   0.9344 B(  3-C ,  4-C ) :   0.9019 B(  3-C ,  7-C ) :   0.8768
B(  3-C , 15-H ) :   0.9019 B(  4-C ,  5-C ) :   0.9025 B(  4-C ,  6-C ) :   0.9042
B(  4-C , 16-H ) :   0.9247 B(  5-C ,  6-C ) :   0.8759 B(  5-C , 17-H ) :   0.9262
B(  5-C , 18-H ) :   0.9025 B(  6-C ,  7-C ) :   0.9121 B(  6-C , 19-H ) :   0.9207
B(  7-C ,  8-O ) :   1.0269 B(  8-O , 20-H ) :   0.8377

MP2 TOTAL ENERGY:     -386.325360815 Eh
FINAL SINGLE POINT ENERGY      -386.325360814545

DIPOLE MOMENT
-------------
                                X             Y             Z
Electronic contribution:      2.75139      -6.14060      -3.70196
Nuclear contribution   :     -3.14753       6.22951       4.03410
                        -----------------------------------------
Total Dipole Moment    :     -0.39614       0.08891       0.33215
                        -----------------------------------------
Magnitude (a.u.)       :      0.52455
Magnitude (Debye)      :      1.33330

                             ****ORCA TERMINATED NORMALLY****
TOTAL RUN TIME: 0 days 0 hours 19 minutes 9 seconds 343 msec
