                         Program Version 3.0.3 - RELEASE   -
|  1> ! RI-MP2 RIJK def2-TZVP def2-TZVP/C def2-TZVP/JK TIGHTSCF
|  2> % maxcore 2000
|  3> % mp2 density relaxed end
|  4> *xyz 0 1
|  5>  C       -0.0686240976     1.3980943838     0.0412364321
|  6>  N       -0.0123300746    -0.0520955818    -0.0043179411
|  7>  C        0.5867362936    -0.6518491165     0.9339448949
|  8>  O        1.2147643197    -0.0747246084     2.0225691329
|  9>  C        1.7451198355    -1.0921342538     2.7970699941
| 10>  C        1.4685608266    -2.2724911317     2.2337693736
| 11>  N        0.7424115022    -2.0208191052     1.0732405840
| 12>  C        0.2392856788    -2.9836791281     0.1211782236
| 13>  H        0.9298304823     1.8591994596     0.0404425895
| 14>  H       -0.6057282756     1.7610113587    -0.8390972696
| 15>  H       -0.5932528033     1.7715464597     0.9328392806
| 16>  H        2.2703655116    -0.8018021957     3.6888287326
| 17>  H        1.7150814444    -3.2727144477     2.5468963470
| 18>  H       -0.4054504048    -3.7207141843     0.6118698246
| 19>  H       -0.3422557097    -2.4296395903    -0.6167305348
| 20>  H        1.0554692911    -3.5092985982    -0.3880582741
| 21> *
| 22>
| 23>                          ****END OF INPUT****

CARTESIAN COORDINATES (ANGSTROEM)
---------------------------------
  C     -0.068624    1.398094    0.041236
  N     -0.012330   -0.052096   -0.004318
  C      0.586736   -0.651849    0.933945
  O      1.214764   -0.074725    2.022569
  C      1.745120   -1.092134    2.797070
  C      1.468561   -2.272491    2.233769
  N      0.742412   -2.020819    1.073241
  C      0.239286   -2.983679    0.121178
  H      0.929830    1.859199    0.040443
  H     -0.605728    1.761011   -0.839097
  H     -0.593253    1.771546    0.932839
  H      2.270366   -0.801802    3.688829
  H      1.715081   -3.272714    2.546896
  H     -0.405450   -3.720714    0.611870
  H     -0.342256   -2.429640   -0.616731
  H      1.055469   -3.509299   -0.388058

 Total Charge           Charge          ....    0
 Multiplicity           Mult            ....    1
 Number of Electrons    NEL             ....   60
 Basis Dimension        Dim             ....  296

ORBITAL ENERGIES
----------------

  NO   OCC          E(Eh)            E(eV)
   0   2.0000     -20.615578      -560.9784
   1   2.0000     -15.601327      -424.5337
   2   2.0000     -15.511777      -422.0969
   3   2.0000     -11.362364      -309.1856
   4   2.0000     -11.291922      -307.2688
   5   2.0000     -11.281240      -306.9782
   6   2.0000     -11.267530      -306.6051
   7   2.0000     -11.229362      -305.5665
   8   2.0000      -1.466722       -39.9115
   9   2.0000      -1.273856       -34.6634
  10   2.0000      -1.200534       -32.6682
  11   2.0000      -1.036662       -28.2090
  12   2.0000      -0.971181       -26.4272
  13   2.0000      -0.906876       -24.6773
  14   2.0000      -0.839615       -22.8471
  15   2.0000      -0.785127       -21.3644
  16   2.0000      -0.711636       -19.3646
  17   2.0000      -0.676071       -18.3968
  18   2.0000      -0.648751       -17.6534
  19   2.0000      -0.621299       -16.9064
  20   2.0000      -0.609233       -16.5781
  21   2.0000      -0.603003       -16.4085
  22   2.0000      -0.581030       -15.8106
  23   2.0000      -0.560502       -15.2520
  24   2.0000      -0.547696       -14.9036
  25   2.0000      -0.531382       -14.4596
  26   2.0000      -0.473098       -12.8737
  27   2.0000      -0.416090       -11.3224
  28   2.0000      -0.401756       -10.9323
  29   2.0000      -0.291806        -7.9404
  30   0.0000       0.140933         3.8350
  31   0.0000       0.152423         4.1476
  32   0.0000       0.166917         4.5420
  33   0.0000       0.170822         4.6483
  34   0.0000       0.186420         5.0727

MULLIKEN ATOMIC CHARGES
-----------------------
   0 C :   -0.282954
   1 N :   -0.344846
   2 C :    0.277480
   3 O :   -0.245883
   4 C :   -0.048721
   5 C :   -0.128733
   6 N :   -0.059602
   7 C :   -0.325498
   8 H :    0.119692
   9 H :    0.134588
  10 H :    0.119810
  11 H :    0.158989
  12 H :    0.158969
  13 H :    0.140501
  14 H :    0.185534
  15 H :    0.140674
Sum of atomic charges:    0.0000000

LOEWDIN ATOMIC CHARGES
----------------------
   0 C :   -0.344268
   1 N :    0.015094
   2 C :   -0.407457
   3 O :    0.296028
   4 C :   -0.253619
   5 C :   -0.220735
   6 N :    0.202297
   7 C :   -0.278116
   8 H :    0.109218
   9 H :    0.112368
  10 H :    0.109286
  11 H :    0.135575
  12 H :    0.144732
  13 H :    0.120381
  14 H :    0.139448
  15 H :    0.119769

  Mayer bond orders larger than 0.1
B(  0-C ,  1-N ) :   0.8989 B(  0-C ,  8-H ) :   0.9331 B(  0-C ,  9-H ) :   0.9462
B(  0-C , 10-H ) :   0.9333 B(  1-N ,  2-C ) :   1.8329 B(  2-C ,  3-O ) :   1.0120
B(  2-C ,  6-N ) :   1.0860 B(  3-O ,  4-C ) :   0.9793 B(  4-C ,  5-C ) :   1.6991
B(  4-C , 11-H ) :   0.9325 B(  5-C ,  6-N ) :   1.0368 B(  5-C , 12-H ) :   0.9158
B(  6-N ,  7-C ) :   0.8597 B(  7-C , 13-H ) :   0.9322 B(  7-C , 14-H ) :   0.9202
B(  7-C , 15-H ) :   0.9320

MP2 TOTAL ENERGY:     -379.286076919 Eh
FINAL SINGLE POINT ENERGY      -379.286076919301

DIPOLE MOMENT
-------------
                                X             Y             Z
Electronic contribution:      2.06134      -0.21544       3.43894
Nuclear contribution   :     -1.67082      -0.72476      -2.88318
                        -----------------------------------------
Total Dipole Moment    :      0.39052      -0.94020       0.55575
                        -----------------------------------------
Magnitude (a.u.)       :      1.15989
Magnitude (Debye)      :      2.94820

                             ****ORCA TERMINATED NORMALLY****
TOTAL RUN TIME: 0 days 0 hours 11 minutes 42 seconds 117 msec
