                         Program Version 3.0.3 - RELEASE   -
|  1> ! RI-MP2 RIJK def2-TZVP def2-TZVP/C def2-TZVP/JK TIGHTSCF
|  2> % maxcore 2000
|  3> % mp2 density relaxed end
|  4> *xyz 0 1
|  5>  C        0.4434919278     1.5507468361     0.2376987242
|  6>  N        1.3011895878     0.4118450216    -0.1299549867
|  7>  C       -0.1454090171     0.2033717137     0.0257428456
|  8>  C       -0.5592310073    -0.6702782182     1.1574413152
|  9>  C        0.3357171280    -1.0061196923     2.3345624975
| 10>  C       -0.1516726512    -2.0900332431     1.3897322381
| 11>  O       -1.3161193627    -2.8041428548     1.7241934818
| 12>  C       -2.2971187750    -1.8352276999     2.0460390865
| 13>  O       -1.9530345611    -0.6277850074     1.3914835689
| 14>  H        0.5878965773     1.9155225449     1.2502701277
| 15>  H        0.2449000328     2.3189379847    -0.5043114428
| 16>  H        1.5414006769     0.4529767229    -1.1160190203
| 17>  H       -0.7450519199     0.0637910499    -0.8717863917
| 18>  H        1.3758919790    -0.7216478827     2.2204810754
| 19>  H       -0.0590284206    -0.9512029729     3.3429323805
| 20>  H        0.5258799748    -2.6576473112     0.7655097793
| 21>  H       -3.2755362606    -2.1758964746     1.6918534935
| 22>  H       -2.3308838189    -1.6773372168     3.1365713274
| 23> *
| 24>
| 25>                          ****END OF INPUT****

CARTESIAN COORDINATES (ANGSTROEM)
---------------------------------
  C      0.443492    1.550747    0.237699
  N      1.301190    0.411845   -0.129955
  C     -0.145409    0.203372    0.025743
  C     -0.559231   -0.670278    1.157441
  C      0.335717   -1.006120    2.334562
  C     -0.151673   -2.090033    1.389732
  O     -1.316119   -2.804143    1.724193
  C     -2.297119   -1.835228    2.046039
  O     -1.953035   -0.627785    1.391484
  H      0.587897    1.915523    1.250270
  H      0.244900    2.318938   -0.504311
  H      1.541401    0.452977   -1.116019
  H     -0.745052    0.063791   -0.871786
  H      1.375892   -0.721648    2.220481
  H     -0.059028   -0.951203    3.342932
  H      0.525880   -2.657647    0.765510
  H     -3.275536   -2.175896    1.691853
  H     -2.330884   -1.677337    3.136571

 Total Charge           Charge          ....    0
 Multiplicity           Mult            ....    1
 Number of Electrons    NEL             ....   68
 Basis Dimension        Dim             ....  333

ORBITAL ENERGIES
----------------

  NO   OCC          E(Eh)            E(eV)
   0   2.0000     -20.571091      -559.7678
   1   2.0000     -20.569538      -559.7256
   2   2.0000     -15.567512      -423.6136
   3   2.0000     -11.331947      -308.3579
   4   2.0000     -11.291672      -307.2620
   5   2.0000     -11.284367      -307.0632
   6   2.0000     -11.270395      -306.6831
   7   2.0000     -11.261264      -306.4346
   8   2.0000     -11.227914      -305.5271
   9   2.0000      -1.447651       -39.3926
  10   2.0000      -1.340530       -36.4777
  11   2.0000      -1.270513       -34.5724
  12   2.0000      -1.127540       -30.6819
  13   2.0000      -0.941837       -25.6287
  14   2.0000      -0.910162       -24.7668
  15   2.0000      -0.872126       -23.7318
  16   2.0000      -0.812172       -22.1003
  17   2.0000      -0.776175       -21.1208
  18   2.0000      -0.721729       -19.6393
  19   2.0000      -0.707682       -19.2570
  20   2.0000      -0.688789       -18.7429
  21   2.0000      -0.631184       -17.1754
  22   2.0000      -0.616514       -16.7762
  23   2.0000      -0.603381       -16.4188
  24   2.0000      -0.582264       -15.8442
  25   2.0000      -0.551824       -15.0159
  26   2.0000      -0.530623       -14.4390
  27   2.0000      -0.519133       -14.1263
  28   2.0000      -0.504194       -13.7198
  29   2.0000      -0.488658       -13.2971
  30   2.0000      -0.468331       -12.7439
  31   2.0000      -0.414460       -11.2780
  32   2.0000      -0.402368       -10.9490
  33   2.0000      -0.364297        -9.9130
  34   0.0000       0.136255         3.7077
  35   0.0000       0.159509         4.3404
  36   0.0000       0.169480         4.6118
  37   0.0000       0.178312         4.8521
  38   0.0000       0.190074         5.1722

MULLIKEN ATOMIC CHARGES
-----------------------
   0 C :   -0.186078
   1 N :   -0.395267
   2 C :   -0.072898
   3 C :    0.215479
   4 C :   -0.299108
   5 C :    0.010943
   6 O :   -0.319763
   7 C :    0.113378
   8 O :   -0.321187
   9 H :    0.130428
  10 H :    0.130882
  11 H :    0.223231
  12 H :    0.127968
  13 H :    0.157497
  14 H :    0.136695
  15 H :    0.140769
  16 H :    0.122034
  17 H :    0.084998
Sum of atomic charges:   -0.0000000

LOEWDIN ATOMIC CHARGES
----------------------
   0 C :   -0.250773
   1 N :   -0.012011
   2 C :   -0.243320
   3 C :   -0.307581
   4 C :   -0.185240
   5 C :   -0.256185
   6 O :    0.180415
   7 C :   -0.349332
   8 O :    0.204718
   9 H :    0.129290
  10 H :    0.121845
  11 H :    0.167231
  12 H :    0.146499
  13 H :    0.149475
  14 H :    0.137968
  15 H :    0.142635
  16 H :    0.118492
  17 H :    0.105874

  Mayer bond orders larger than 0.1
B(  0-C ,  1-N ) :   0.9377 B(  0-C ,  2-C ) :   0.9110 B(  0-C ,  9-H ) :   0.9167
B(  0-C , 10-H ) :   0.9246 B(  1-N ,  2-C ) :   0.8933 B(  1-N , 11-H ) :   0.8686
B(  2-C ,  3-C ) :   0.9155 B(  2-C , 12-H ) :   0.9316 B(  3-C ,  4-C ) :   0.8471
B(  3-C ,  5-C ) :   0.9128 B(  3-C ,  8-O ) :   0.9722 B(  4-C ,  5-C ) :   0.8586
B(  4-C , 13-H ) :   0.8994 B(  4-C , 14-H ) :   0.8865 B(  5-C ,  6-O ) :   0.9562
B(  5-C , 15-H ) :   0.9167 B(  6-O ,  7-C ) :   0.9619 B(  7-C ,  8-O ) :   0.9617
B(  7-C , 16-H ) :   0.9220 B(  7-C , 17-H ) :   0.9254

MP2 TOTAL ENERGY:     -438.305204632 Eh
FINAL SINGLE POINT ENERGY      -438.305204632303

DIPOLE MOMENT
-------------
                                X             Y             Z
Electronic contribution:     -2.21479      -2.84781      -0.10145
Nuclear contribution   :      2.27390       3.32057      -0.28135
                        -----------------------------------------
Total Dipole Moment    :      0.05911       0.47276      -0.38280
                        -----------------------------------------
Magnitude (a.u.)       :      0.61117
Magnitude (Debye)      :      1.55347

                             ****ORCA TERMINATED NORMALLY****
TOTAL RUN TIME: 0 days 0 hours 15 minutes 15 seconds 427 msec
