                         Program Version 3.0.3 - RELEASE   -
|  1> ! RI-MP2 RIJK def2-TZVP def2-TZVP/C def2-TZVP/JK TIGHTSCF
|  2> % maxcore 2000
|  3> % mp2 density relaxed end
|  4> *xyz 0 1
|  5>  C       -0.0877118870     1.4985774931     0.0415824847
|  6>  C       -0.0177841687     0.0014573614     0.0331272000
|  7>  C        0.0073965263    -0.7969788150    -1.0886092974
|  8>  N       -0.0195219104    -0.5417913991    -2.4785228847
|  9>  N        0.0735645215    -2.1162913010    -0.6668110174
| 10>  C        0.0911319067    -2.1811809843     0.6836154571
| 11>  C        0.0356174646    -0.8809940300     1.1681176445
| 12>  C        0.0343289709    -0.5276541202     2.5791508790
| 13>  O        0.0813987116    -1.3213066271     3.4984383371
| 14>  H        0.7769652248     1.9481845018     0.5426706381
| 15>  H       -0.1137076948     1.8868990213    -0.9813095113
| 16>  H       -0.9828500877     1.8659673220     0.5560952838
| 17>  H        0.7711851548     0.0162389613    -2.7822905302
| 18>  H       -0.8639948418    -0.0579260705    -2.7641832941
| 19>  H        0.1027722271    -2.8910122082    -1.3090736345
| 20>  H        0.1404898464    -3.1130270924     1.2222426354
| 21>  H       -0.0144273443     0.5661919470     2.7835907797
| 22> *
| 23>
| 24>                          ****END OF INPUT****

CARTESIAN COORDINATES (ANGSTROEM)
---------------------------------
  C     -0.087712    1.498577    0.041582
  C     -0.017784    0.001457    0.033127
  C      0.007397   -0.796979   -1.088609
  N     -0.019522   -0.541791   -2.478523
  N      0.073565   -2.116291   -0.666811
  C      0.091132   -2.181181    0.683615
  C      0.035617   -0.880994    1.168118
  C      0.034329   -0.527654    2.579151
  O      0.081399   -1.321307    3.498438
  H      0.776965    1.948185    0.542671
  H     -0.113708    1.886899   -0.981310
  H     -0.982850    1.865967    0.556095
  H      0.771185    0.016239   -2.782291
  H     -0.863995   -0.057926   -2.764183
  H      0.102772   -2.891012   -1.309074
  H      0.140490   -3.113027    1.222243
  H     -0.014427    0.566192    2.783591

 Total Charge           Charge          ....    0
 Multiplicity           Mult            ....    1
 Number of Electrons    NEL             ....   66
 Basis Dimension        Dim             ....  327

ORBITAL ENERGIES
----------------

  NO   OCC          E(Eh)            E(eV)
   0   2.0000     -20.528238      -558.6017
   1   2.0000     -15.618318      -424.9960
   2   2.0000     -15.572309      -423.7441
   3   2.0000     -11.316790      -307.9455
   4   2.0000     -11.290371      -307.2266
   5   2.0000     -11.276649      -306.8532
   6   2.0000     -11.233632      -305.6827
   7   2.0000     -11.232898      -305.6627
   8   2.0000     -11.218301      -305.2655
   9   2.0000      -1.366259       -37.1778
  10   2.0000      -1.316998       -35.8373
  11   2.0000      -1.195784       -32.5389
  12   2.0000      -1.085802       -29.5462
  13   2.0000      -1.000779       -27.2326
  14   2.0000      -0.936775       -25.4909
  15   2.0000      -0.884372       -24.0650
  16   2.0000      -0.766086       -20.8463
  17   2.0000      -0.742393       -20.2015
  18   2.0000      -0.735976       -20.0269
  19   2.0000      -0.684401       -18.6235
  20   2.0000      -0.650461       -17.6999
  21   2.0000      -0.618172       -16.8213
  22   2.0000      -0.607949       -16.5431
  23   2.0000      -0.598463       -16.2850
  24   2.0000      -0.593526       -16.1507
  25   2.0000      -0.558429       -15.1956
  26   2.0000      -0.549821       -14.9614
  27   2.0000      -0.518236       -14.1019
  28   2.0000      -0.515411       -14.0250
  29   2.0000      -0.440720       -11.9926
  30   2.0000      -0.408831       -11.1248
  31   2.0000      -0.353283        -9.6133
  32   2.0000      -0.304800        -8.2940
  33   0.0000       0.103698         2.8218
  34   0.0000       0.115238         3.1358
  35   0.0000       0.139738         3.8025
  36   0.0000       0.158540         4.3141
  37   0.0000       0.170582         4.6418

MULLIKEN ATOMIC CHARGES
-----------------------
   0 C :   -0.455644
   1 C :   -0.032914
   2 C :    0.145610
   3 N :   -0.557919
   4 N :   -0.213012
   5 C :   -0.082635
   6 C :    0.021123
   7 C :    0.062536
   8 O :   -0.307217
   9 H :    0.152491
  10 H :    0.119141
  11 H :    0.152528
  12 H :    0.253274
  13 H :    0.253297
  14 H :    0.250069
  15 H :    0.166665
  16 H :    0.072607
Sum of atomic charges:    0.0000000

LOEWDIN ATOMIC CHARGES
----------------------
   0 C :   -0.276276
   1 C :   -0.165769
   2 C :   -0.305685
   3 N :   -0.118669
   4 N :    0.217620
   5 C :   -0.169398
   6 C :   -0.184374
   7 C :   -0.280388
   8 O :    0.103171
   9 H :    0.132069
  10 H :    0.126030
  11 H :    0.132071
  12 H :    0.167233
  13 H :    0.167240
  14 H :    0.196899
  15 H :    0.143581
  16 H :    0.114646

  Mayer bond orders larger than 0.1
B(  0-C ,  1-C ) :   0.8411 B(  0-C ,  9-H ) :   0.9421 B(  0-C , 10-H ) :   0.9489
B(  0-C , 11-H ) :   0.9420 B(  1-C ,  2-C ) :   1.5019 B(  1-C ,  6-C ) :   1.2129
B(  2-C ,  3-N ) :   1.0503 B(  2-C ,  4-N ) :   1.0983 B(  3-N , 12-H ) :   0.8895
B(  3-N , 13-H ) :   0.8895 B(  4-N ,  5-C ) :   1.2012 B(  4-N , 14-H ) :   0.8634
B(  5-C ,  6-C ) :   1.4056 B(  5-C , 15-H ) :   0.9000 B(  6-C ,  7-C ) :   0.8497
B(  6-C ,  8-O ) :  -0.1385 B(  6-C , 16-H ) :  -0.1163 B(  7-C ,  8-O ) :   1.9978
B(  7-C , 16-H ) :   0.9981

MP2 TOTAL ENERGY:     -417.348943968 Eh
FINAL SINGLE POINT ENERGY      -417.348943967921

DIPOLE MOMENT
-------------
                                X             Y             Z
Electronic contribution:      0.29210      -5.39364       3.75529
Nuclear contribution   :     -0.33031       5.80469      -5.57446
                        -----------------------------------------
Total Dipole Moment    :     -0.03821       0.41106      -1.81917
                        -----------------------------------------
Magnitude (a.u.)       :      1.86543
Magnitude (Debye)      :      4.74154

                             ****ORCA TERMINATED NORMALLY****
TOTAL RUN TIME: 0 days 0 hours 16 minutes 26 seconds 762 msec
