                         Program Version 3.0.3 - RELEASE   -
|  1> ! RI-MP2 RIJK def2-TZVP def2-TZVP/C def2-TZVP/JK TIGHTSCF
|  2> % maxcore 2000
|  3> % mp2 density relaxed end
|  4> *xyz 0 1
|  5>  C       -0.0274790467     1.5760311224     0.0623781025
|  6>  C        1.5157722099     1.5892940964    -0.1253575085
|  7>  C        1.4259891104     0.1021337550    -0.6038200801
|  8>  C        2.4200735045    -0.9125191237    -0.1394104448
|  9>  C        2.1031447512    -1.8874755907     0.7145155413
| 10>  C        0.7362007263    -2.0148427996     1.3436989458
| 11>  C        0.0189875922    -0.6560211949     1.3937509261
| 12>  C        0.0001666501     0.0211990134     0.0200760572
| 13>  H       -0.4274387239     2.0392125918     0.9688016095
| 14>  H       -0.5471138166     2.0016674939    -0.8006167818
| 15>  H        1.9311055216     2.3168933377    -0.8266712849
| 16>  H        2.0511289538     1.6776855119     0.8234532194
| 17>  H        1.3634930548     0.0841578890    -1.6989427807
| 18>  H        3.4287933066    -0.8482892634    -0.5436559004
| 19>  H        2.8506842305    -2.6265665378     0.9929639782
| 20>  H        0.1303729184    -2.7453624457     0.7866615075
| 21>  H        0.8315312763    -2.4251778825     2.3561928340
| 22>  H       -1.0021388767    -0.7677014282     1.7761019822
| 23>  H        0.5525072470    -0.0167920327     2.1086486182
| 24>  H       -0.7546699797    -0.4524861525    -0.6156386806
| 25> *
| 26>
| 27>                          ****END OF INPUT****

CARTESIAN COORDINATES (ANGSTROEM)
---------------------------------
  C     -0.027479    1.576031    0.062378
  C      1.515772    1.589294   -0.125358
  C      1.425989    0.102134   -0.603820
  C      2.420074   -0.912519   -0.139410
  C      2.103145   -1.887476    0.714516
  C      0.736201   -2.014843    1.343699
  C      0.018988   -0.656021    1.393751
  C      0.000167    0.021199    0.020076
  H     -0.427439    2.039213    0.968802
  H     -0.547114    2.001667   -0.800617
  H      1.931106    2.316893   -0.826671
  H      2.051129    1.677686    0.823453
  H      1.363493    0.084158   -1.698943
  H      3.428793   -0.848289   -0.543656
  H      2.850684   -2.626567    0.992964
  H      0.130373   -2.745362    0.786662
  H      0.831531   -2.425178    2.356193
  H     -1.002139   -0.767701    1.776102
  H      0.552507   -0.016792    2.108649
  H     -0.754670   -0.452486   -0.615639

 Total Charge           Charge          ....    0
 Multiplicity           Mult            ....    1
 Number of Electrons    NEL             ....   60
 Basis Dimension        Dim             ....  320

ORBITAL ENERGIES
----------------

  NO   OCC          E(Eh)            E(eV)
   0   2.0000     -11.222321      -305.3749
   1   2.0000     -11.220610      -305.3283
   2   2.0000     -11.219326      -305.2934
   3   2.0000     -11.218918      -305.2823
   4   2.0000     -11.216403      -305.2139
   5   2.0000     -11.215905      -305.2003
   6   2.0000     -11.215852      -305.1988
   7   2.0000     -11.215487      -305.1889
   8   2.0000      -1.146386       -31.1948
   9   2.0000      -1.061909       -28.8960
  10   2.0000      -1.005361       -27.3573
  11   2.0000      -0.913115       -24.8471
  12   2.0000      -0.876487       -23.8504
  13   2.0000      -0.820468       -22.3261
  14   2.0000      -0.760178       -20.6855
  15   2.0000      -0.684091       -18.6151
  16   2.0000      -0.667551       -18.1650
  17   2.0000      -0.637888       -17.3578
  18   2.0000      -0.610240       -16.6055
  19   2.0000      -0.582256       -15.8440
  20   2.0000      -0.550141       -14.9701
  21   2.0000      -0.531907       -14.4739
  22   2.0000      -0.519473       -14.1356
  23   2.0000      -0.499738       -13.5986
  24   2.0000      -0.492994       -13.4151
  25   2.0000      -0.474940       -12.9238
  26   2.0000      -0.437272       -11.8988
  27   2.0000      -0.421949       -11.4818
  28   2.0000      -0.409375       -11.1396
  29   2.0000      -0.337587        -9.1862
  30   0.0000       0.137881         3.7519
  31   0.0000       0.151278         4.1165
  32   0.0000       0.160125         4.3572
  33   0.0000       0.162106         4.4111
  34   0.0000       0.181712         4.9446

MULLIKEN ATOMIC CHARGES
-----------------------
   0 C :   -0.222160
   1 C :   -0.284814
   2 C :    0.035615
   3 C :   -0.241239
   4 C :   -0.174535
   5 C :   -0.157325
   6 C :   -0.283391
   7 C :   -0.043526
   8 H :    0.112051
   9 H :    0.114209
  10 H :    0.115944
  11 H :    0.120789
  12 H :    0.102332
  13 H :    0.114148
  14 H :    0.118109
  15 H :    0.114906
  16 H :    0.123343
  17 H :    0.120251
  18 H :    0.113559
  19 H :    0.101734
Sum of atomic charges:    0.0000000

LOEWDIN ATOMIC CHARGES
----------------------
   0 C :   -0.223099
   1 C :   -0.214146
   2 C :   -0.198030
   3 C :   -0.160031
   4 C :   -0.170028
   5 C :   -0.252008
   6 C :   -0.236356
   7 C :   -0.200147
   8 H :    0.124422
   9 H :    0.132523
  10 H :    0.121886
  11 H :    0.133164
  12 H :    0.156398
  13 H :    0.142008
  14 H :    0.139284
  15 H :    0.143923
  16 H :    0.140744
  17 H :    0.136488
  18 H :    0.144028
  19 H :    0.138978

  Mayer bond orders larger than 0.1
B(  0-C ,  1-C ) :   0.9421 B(  0-C ,  7-C ) :   0.9047 B(  0-C ,  8-H ) :   0.9239
B(  0-C ,  9-H ) :   0.9248 B(  1-C ,  2-C ) :   0.9091 B(  1-C , 10-H ) :   0.9260
B(  1-C , 11-H ) :   0.9256 B(  2-C ,  3-C ) :   0.9134 B(  2-C ,  7-C ) :   0.9293
B(  2-C , 12-H ) :   0.9160 B(  3-C ,  4-C ) :   1.8124 B(  3-C , 13-H ) :   0.9296
B(  4-C ,  5-C ) :   0.9340 B(  4-C , 14-H ) :   0.9298 B(  5-C ,  6-C ) :   0.9268
B(  5-C , 15-H ) :   0.9121 B(  5-C , 16-H ) :   0.9321 B(  6-C ,  7-C ) :   0.9296
B(  6-C , 17-H ) :   0.9355 B(  6-C , 18-H ) :   0.9254 B(  7-C , 19-H ) :   0.9229

MP2 TOTAL ENERGY:     -311.294569778 Eh
FINAL SINGLE POINT ENERGY      -311.294569778432

DIPOLE MOMENT
-------------
                                X             Y             Z
Electronic contribution:      1.45447      -1.25279      -1.10728
Nuclear contribution   :     -1.56742       1.25870       1.10705
                        -----------------------------------------
Total Dipole Moment    :     -0.11295       0.00592      -0.00023
                        -----------------------------------------
Magnitude (a.u.)       :      0.11311
Magnitude (Debye)      :      0.28750

                             ****ORCA TERMINATED NORMALLY****
TOTAL RUN TIME: 0 days 0 hours 14 minutes 24 seconds 490 msec
