                         Program Version 3.0.3 - RELEASE   -
|  1> ! RI-MP2 RIJK def2-TZVP def2-TZVP/C def2-TZVP/JK TIGHTSCF
|  2> % maxcore 2000
|  3> % mp2 density relaxed end
|  4> *xyz 0 1
|  5>  C        0.2523034484     2.4827495568    -0.4354610995
|  6>  C       -0.0857448003     1.0276390696    -0.6915078079
|  7>  C        0.2892697778     0.1830073339    -1.8326772881
|  8>  C        1.7828551158     0.1651103709    -2.1939714431
|  9>  O        2.5646634031     1.3633609469    -1.9355894204
| 10>  C        3.1135357142     0.7647918514    -0.7119074815
| 11>  C        3.2884995573     1.6801187893     0.4812159116
| 12>  C        2.0784410572    -0.3659219351    -0.8005347416
| 13>  N        0.6150974950    -0.2541797208    -0.3796450718
| 14>  H        1.1908907074     2.7966066267    -0.8791850473
| 15>  H       -0.5511230504     3.0837282330    -0.8777382204
| 16>  H        0.2536472433     2.6959587294     0.6390200413
| 17>  H       -1.1203300794     0.8343211231    -0.4018477274
| 18>  H       -0.4426140598    -0.3631033965    -2.4233441318
| 19>  H        2.0597840716    -0.3278121358    -3.1282805845
| 20>  H        4.0954954297     0.3340677863    -0.9656926805
| 21>  H        2.3459568794     1.9653367744     0.9458047701
| 22>  H        3.8987280272     1.1682490354     1.2329704935
| 23>  H        3.8214964464     2.5885600480     0.1817926427
| 24>  H        2.4094243861    -1.3814276168    -0.5872554234
| 25> *
| 26>
| 27>                          ****END OF INPUT****

CARTESIAN COORDINATES (ANGSTROEM)
---------------------------------
  C      0.252303    2.482750   -0.435461
  C     -0.085745    1.027639   -0.691508
  C      0.289270    0.183007   -1.832677
  C      1.782855    0.165110   -2.193971
  O      2.564663    1.363361   -1.935589
  C      3.113536    0.764792   -0.711907
  C      3.288500    1.680119    0.481216
  C      2.078441   -0.365922   -0.800535
  N      0.615097   -0.254180   -0.379645
  H      1.190891    2.796607   -0.879185
  H     -0.551123    3.083728   -0.877738
  H      0.253647    2.695959    0.639020
  H     -1.120330    0.834321   -0.401848
  H     -0.442614   -0.363103   -2.423344
  H      2.059784   -0.327812   -3.128281
  H      4.095495    0.334068   -0.965693
  H      2.345957    1.965337    0.945805
  H      3.898728    1.168249    1.232970
  H      3.821496    2.588560    0.181793
  H      2.409424   -1.381428   -0.587255

 Total Charge           Charge          ....    0
 Multiplicity           Mult            ....    1
 Number of Electrons    NEL             ....   68
 Basis Dimension        Dim             ....  345

ORBITAL ENERGIES
----------------

  NO   OCC          E(Eh)            E(eV)
   0   2.0000     -20.551203      -559.2267
   1   2.0000     -15.561597      -423.4526
   2   2.0000     -11.289409      -307.2004
   3   2.0000     -11.288363      -307.1720
   4   2.0000     -11.269748      -306.6654
   5   2.0000     -11.263347      -306.4913
   6   2.0000     -11.262336      -306.4637
   7   2.0000     -11.220588      -305.3277
   8   2.0000     -11.215324      -305.1845
   9   2.0000      -1.384252       -37.6674
  10   2.0000      -1.262042       -34.3419
  11   2.0000      -1.038868       -28.2690
  12   2.0000      -1.019893       -27.7527
  13   2.0000      -0.956009       -26.0143
  14   2.0000      -0.920588       -25.0505
  15   2.0000      -0.845673       -23.0119
  16   2.0000      -0.766364       -20.8538
  17   2.0000      -0.719008       -19.5652
  18   2.0000      -0.711470       -19.3601
  19   2.0000      -0.642852       -17.4929
  20   2.0000      -0.630557       -17.1583
  21   2.0000      -0.621068       -16.9001
  22   2.0000      -0.600939       -16.3524
  23   2.0000      -0.567923       -15.4540
  24   2.0000      -0.555412       -15.1135
  25   2.0000      -0.548101       -14.9146
  26   2.0000      -0.528836       -14.3904
  27   2.0000      -0.511465       -13.9177
  28   2.0000      -0.488360       -13.2889
  29   2.0000      -0.481986       -13.1155
  30   2.0000      -0.452289       -12.3074
  31   2.0000      -0.417533       -11.3617
  32   2.0000      -0.390007       -10.6126
  33   2.0000      -0.359056        -9.7704
  34   0.0000       0.140429         3.8213
  35   0.0000       0.150198         4.0871
  36   0.0000       0.159274         4.3341
  37   0.0000       0.175481         4.7751
  38   0.0000       0.187841         5.1114

MULLIKEN ATOMIC CHARGES
-----------------------
   0 C :   -0.405416
   1 C :   -0.003322
   2 C :   -0.125070
   3 C :    0.096525
   4 O :   -0.356449
   5 C :    0.079341
   6 C :   -0.390612
   7 C :   -0.075631
   8 N :   -0.261063
   9 H :    0.177090
  10 H :    0.135599
  11 H :    0.129780
  12 H :    0.111856
  13 H :    0.135384
  14 H :    0.118238
  15 H :    0.084150
  16 H :    0.142914
  17 H :    0.135040
  18 H :    0.145072
  19 H :    0.126575
Sum of atomic charges:    0.0000000

LOEWDIN ATOMIC CHARGES
----------------------
   0 C :   -0.301768
   1 C :   -0.265616
   2 C :   -0.168117
   3 C :   -0.231535
   4 O :    0.139871
   5 C :   -0.284598
   6 C :   -0.293753
   7 C :   -0.206201
   8 N :    0.122832
   9 H :    0.130305
  10 H :    0.132142
  11 H :    0.123698
  12 H :    0.159271
  13 H :    0.133812
  14 H :    0.132490
  15 H :    0.145293
  16 H :    0.126725
  17 H :    0.132073
  18 H :    0.133277
  19 H :    0.139800

  Mayer bond orders larger than 0.1
B(  0-C ,  1-C ) :   0.8693 B(  0-C ,  9-H ) :   0.9285 B(  0-C , 10-H ) :   0.9219
B(  0-C , 11-H ) :   0.9354 B(  1-C ,  2-C ) :   0.9455 B(  1-C ,  8-N ) :   0.8821
B(  1-C , 12-H ) :   0.9365 B(  2-C ,  3-C ) :   0.9142 B(  2-C ,  8-N ) :   0.8546
B(  2-C , 13-H ) :   0.8887 B(  3-C ,  4-O ) :   0.9236 B(  3-C ,  7-C ) :   0.9719
B(  3-C , 14-H ) :   0.9286 B(  4-O ,  5-C ) :   0.8824 B(  5-C ,  6-C ) :   0.9100
B(  5-C ,  7-C ) :   0.9622 B(  5-C , 15-H ) :   0.9092 B(  6-C , 16-H ) :   0.9317
B(  6-C , 17-H ) :   0.9271 B(  6-C , 18-H ) :   0.9325 B(  7-C ,  8-N ) :   0.9376
B(  7-C , 19-H ) :   0.9183

MP2 TOTAL ENERGY:     -402.362002948 Eh
FINAL SINGLE POINT ENERGY      -402.362002948276

DIPOLE MOMENT
-------------
                                X             Y             Z
Electronic contribution:     -0.50191      -4.12118      -3.77481
Nuclear contribution   :      0.65954       4.07074       3.74853
                        -----------------------------------------
Total Dipole Moment    :      0.15763      -0.05044      -0.02628
                        -----------------------------------------
Magnitude (a.u.)       :      0.16757
Magnitude (Debye)      :      0.42594

                             ****ORCA TERMINATED NORMALLY****
TOTAL RUN TIME: 0 days 0 hours 20 minutes 39 seconds 317 msec
