                         Program Version 3.0.3 - RELEASE   -
|  1> ! RI-MP2 RIJK def2-TZVP def2-TZVP/C def2-TZVP/JK TIGHTSCF
|  2> % maxcore 2000
|  3> % mp2 density relaxed end
|  4> *xyz 0 1
|  5>  C        0.1249483305    -1.2366612355     0.0114459863
|  6>  C        0.0101453123    -0.0405531054     0.0481577620
|  7>  C       -0.0726029294     1.4161361764     0.0963685175
|  8>  C        1.3008848408     2.0563469164    -0.0617814747
|  9>  C        2.3242289448     1.8693764290     1.0840961539
| 10>  O        2.5924099338     3.2920680913     1.1371288546
| 11>  C        1.6630281658     3.5625717500     0.0760278813
| 12>  C        2.3109887264     3.4660710751    -1.3222494961
| 13>  N        1.8430706679     2.0549277647    -1.4335059046
| 14>  H        0.2062815022    -2.2947612062    -0.0235823004
| 15>  H       -0.7269411693     1.7800204940    -0.7036038695
| 16>  H       -0.5154198885     1.7304321755     1.0502790360
| 17>  H        1.9051204452     1.5077989080     2.0317036016
| 18>  H        3.2147605823     1.2783058466     0.8368785536
| 19>  H        0.9798007901     4.3831709117     0.3051808692
| 20>  H        1.8828352882     4.1074996090    -2.1010851312
| 21>  H        3.3949607159     3.6191465149    -1.2840770720
| 22>  H        2.5549678807     1.3578199945    -1.6244740875
| 23> *
| 24>
| 25>                          ****END OF INPUT****

CARTESIAN COORDINATES (ANGSTROEM)
---------------------------------
  C      0.124948   -1.236661    0.011446
  C      0.010145   -0.040553    0.048158
  C     -0.072603    1.416136    0.096369
  C      1.300885    2.056347   -0.061781
  C      2.324229    1.869376    1.084096
  O      2.592410    3.292068    1.137129
  C      1.663028    3.562572    0.076028
  C      2.310989    3.466071   -1.322249
  N      1.843071    2.054928   -1.433506
  H      0.206282   -2.294761   -0.023582
  H     -0.726941    1.780020   -0.703604
  H     -0.515420    1.730432    1.050279
  H      1.905120    1.507799    2.031704
  H      3.214761    1.278306    0.836879
  H      0.979801    4.383171    0.305181
  H      1.882835    4.107500   -2.101085
  H      3.394961    3.619147   -1.284077
  H      2.554968    1.357820   -1.624474

 Total Charge           Charge          ....    0
 Multiplicity           Mult            ....    1
 Number of Electrons    NEL             ....   66
 Basis Dimension        Dim             ....  333

ORBITAL ENERGIES
----------------

  NO   OCC          E(Eh)            E(eV)
   0   2.0000     -20.555156      -559.3342
   1   2.0000     -15.550313      -423.1455
   2   2.0000     -11.289054      -307.1908
   3   2.0000     -11.283027      -307.0268
   4   2.0000     -11.277344      -306.8721
   5   2.0000     -11.257947      -306.3443
   6   2.0000     -11.256888      -306.3155
   7   2.0000     -11.238740      -305.8217
   8   2.0000     -11.225039      -305.4488
   9   2.0000      -1.391761       -37.8717
  10   2.0000      -1.228379       -33.4259
  11   2.0000      -1.079384       -29.3715
  12   2.0000      -0.999282       -27.1919
  13   2.0000      -0.965411       -26.2702
  14   2.0000      -0.928955       -25.2782
  15   2.0000      -0.866258       -23.5721
  16   2.0000      -0.737315       -20.0634
  17   2.0000      -0.725700       -19.7473
  18   2.0000      -0.692037       -18.8313
  19   2.0000      -0.681245       -18.5376
  20   2.0000      -0.664540       -18.0831
  21   2.0000      -0.629822       -17.1383
  22   2.0000      -0.604171       -16.4403
  23   2.0000      -0.585424       -15.9302
  24   2.0000      -0.563432       -15.3318
  25   2.0000      -0.524809       -14.2808
  26   2.0000      -0.521133       -14.1808
  27   2.0000      -0.491542       -13.3755
  28   2.0000      -0.442445       -12.0396
  29   2.0000      -0.428651       -11.6642
  30   2.0000      -0.390986       -10.6393
  31   2.0000      -0.387676       -10.5492
  32   2.0000      -0.372327       -10.1315
  33   0.0000       0.129224         3.5164
  34   0.0000       0.152449         4.1484
  35   0.0000       0.163357         4.4452
  36   0.0000       0.167082         4.5465
  37   0.0000       0.168064         4.5733

MULLIKEN ATOMIC CHARGES
-----------------------
   0 C :   -0.167046
   1 C :   -0.053584
   2 C :   -0.288808
   3 C :    0.036270
   4 C :   -0.005679
   5 O :   -0.323509
   6 C :    0.063792
   7 C :   -0.159155
   8 N :   -0.326737
   9 H :    0.189944
  10 H :    0.136830
  11 H :    0.150722
  12 H :    0.101713
  13 H :    0.091665
  14 H :    0.114558
  15 H :    0.107789
  16 H :    0.121923
  17 H :    0.209312
Sum of atomic charges:   -0.0000000

LOEWDIN ATOMIC CHARGES
----------------------
   0 C :   -0.104052
   1 C :   -0.103967
   2 C :   -0.213554
   3 C :   -0.276268
   4 C :   -0.222779
   5 O :    0.135782
   6 C :   -0.226434
   7 C :   -0.245658
   8 N :    0.026845
   9 H :    0.126727
  10 H :    0.163703
  11 H :    0.162684
  12 H :    0.124117
  13 H :    0.119359
  14 H :    0.127649
  15 H :    0.121788
  16 H :    0.125188
  17 H :    0.158870

  Mayer bond orders larger than 0.1
B(  0-C ,  1-C ) :   2.6043 B(  0-C ,  9-H ) :   0.9054 B(  1-C ,  2-C ) :   1.0859
B(  2-C ,  3-C ) :   0.8916 B(  2-C , 10-H ) :   0.9076 B(  2-C , 11-H ) :   0.9344
B(  3-C ,  4-C ) :   0.9905 B(  3-C ,  6-C ) :   0.9118 B(  3-C ,  8-N ) :   1.0458
B(  4-C ,  5-O ) :   0.9448 B(  4-C , 12-H ) :   0.9045 B(  4-C , 13-H ) :   0.8951
B(  5-O ,  6-C ) :   0.9895 B(  6-C ,  7-C ) :   0.8710 B(  6-C , 14-H ) :   0.9188
B(  7-C ,  8-N ) :   0.9668 B(  7-C , 15-H ) :   0.9132 B(  7-C , 16-H ) :   0.9146
B(  8-N , 17-H ) :   0.8723

MP2 TOTAL ENERGY:     -401.162757131 Eh
FINAL SINGLE POINT ENERGY      -401.162757131484

DIPOLE MOMENT
-------------
                                X             Y             Z
Electronic contribution:     -0.34083      -0.62949       1.01673
Nuclear contribution   :      0.30512       0.48423      -1.11983
                        -----------------------------------------
Total Dipole Moment    :     -0.03571      -0.14527      -0.10310
                        -----------------------------------------
Magnitude (a.u.)       :      0.18168
Magnitude (Debye)      :      0.46179

                             ****ORCA TERMINATED NORMALLY****
TOTAL RUN TIME: 0 days 0 hours 17 minutes 54 seconds 724 msec
