                         Program Version 3.0.3 - RELEASE   -
|  1> ! RI-MP2 RIJK def2-TZVP def2-TZVP/C def2-TZVP/JK TIGHTSCF
|  2> % maxcore 2000
|  3> % mp2 density relaxed end
|  4> *xyz 0 1
|  5>  N        0.0316101878     1.2399914273     0.7004678395
|  6>  C       -0.0449338331     0.3579175863    -0.3431105349
|  7>  O        0.8583120753     0.2468173330    -1.1544235920
|  8>  C       -1.3397326789    -0.4072261155    -0.3807331004
|  9>  C       -1.9999286719    -0.9255469861    -1.6060405133
| 10>  C       -1.0320489249    -1.4039331344    -2.6865513412
| 11>  C       -0.4293524556    -2.3210146225    -1.5950356584
| 12>  N       -1.4560325306    -1.8806090094    -0.5695664031
| 13>  H        0.9040224215     1.7265841841     0.8303287771
| 14>  H       -0.6233408114     1.2254795337     1.4624030249
| 15>  H       -2.0446528298    -0.1002769012     0.3893626801
| 16>  H       -3.0688264167    -0.7805767202    -1.7387927476
| 17>  H       -1.5441183529    -1.9593227249    -3.4747788915
| 18>  H       -0.3765924006    -0.6519769546    -3.1235327730
| 19>  H       -0.5775919379    -3.3866235036    -1.7792447100
| 20>  H        0.6042770996    -2.1305404121    -1.3093093863
| 21> *
| 22>
| 23>                          ****END OF INPUT****

CARTESIAN COORDINATES (ANGSTROEM)
---------------------------------
  N      0.031610    1.239991    0.700468
  C     -0.044934    0.357918   -0.343111
  O      0.858312    0.246817   -1.154424
  C     -1.339733   -0.407226   -0.380733
  C     -1.999929   -0.925547   -1.606041
  C     -1.032049   -1.403933   -2.686551
  C     -0.429352   -2.321015   -1.595036
  N     -1.456033   -1.880609   -0.569566
  H      0.904022    1.726584    0.830329
  H     -0.623341    1.225480    1.462403
  H     -2.044653   -0.100277    0.389363
  H     -3.068826   -0.780577   -1.738793
  H     -1.544118   -1.959323   -3.474779
  H     -0.376592   -0.651977   -3.123533
  H     -0.577592   -3.386624   -1.779245
  H      0.604277   -2.130540   -1.309309

 Total Charge           Charge          ....    0
 Multiplicity           Mult            ....    1
 Number of Electrons    NEL             ....   60
 Basis Dimension        Dim             ....  296

ORBITAL ENERGIES
----------------

  NO   OCC          E(Eh)            E(eV)
   0   2.0000     -20.521918      -558.4298
   1   2.0000     -15.588957      -424.1971
   2   2.0000     -15.570632      -423.6984
   3   2.0000     -11.360526      -309.1356
   4   2.0000     -11.275391      -306.8190
   5   2.0000     -11.273240      -306.7605
   6   2.0000     -11.248675      -306.0920
   7   2.0000     -11.225173      -305.4525
   8   2.0000      -1.388677       -37.7878
   9   2.0000      -1.290880       -35.1266
  10   2.0000      -1.216281       -33.0967
  11   2.0000      -1.017669       -27.6922
  12   2.0000      -0.941589       -25.6219
  13   2.0000      -0.898677       -24.4542
  14   2.0000      -0.783561       -21.3218
  15   2.0000      -0.750857       -20.4319
  16   2.0000      -0.717081       -19.5128
  17   2.0000      -0.706008       -19.2114
  18   2.0000      -0.650165       -17.6919
  19   2.0000      -0.619905       -16.8685
  20   2.0000      -0.611079       -16.6283
  21   2.0000      -0.586315       -15.9545
  22   2.0000      -0.558314       -15.1925
  23   2.0000      -0.522215       -14.2102
  24   2.0000      -0.508766       -13.8442
  25   2.0000      -0.459520       -12.5042
  26   2.0000      -0.445234       -12.1154
  27   2.0000      -0.420629       -11.4459
  28   2.0000      -0.411090       -11.1863
  29   2.0000      -0.374850       -10.2002
  30   0.0000       0.126955         3.4546
  31   0.0000       0.154788         4.2120
  32   0.0000       0.159955         4.3526
  33   0.0000       0.173776         4.7287
  34   0.0000       0.181028         4.9260

MULLIKEN ATOMIC CHARGES
-----------------------
   0 N :   -0.471354
   1 C :    0.294998
   2 O :   -0.368815
   3 C :   -0.045434
   4 C :   -0.077675
   5 C :   -0.215549
   6 C :   -0.148733
   7 N :   -0.242301
   8 H :    0.260172
   9 H :    0.260313
  10 H :    0.108495
  11 H :    0.126853
  12 H :    0.121685
  13 H :    0.137342
  14 H :    0.124154
  15 H :    0.135850
Sum of atomic charges:   -0.0000000

LOEWDIN ATOMIC CHARGES
----------------------
   0 N :   -0.015450
   1 C :   -0.459470
   2 O :    0.087441
   3 C :   -0.223425
   4 C :   -0.192860
   5 C :   -0.232783
   6 C :   -0.235596
   7 N :    0.118386
   8 H :    0.174061
   9 H :    0.170260
  10 H :    0.152874
  11 H :    0.133007
  12 H :    0.134644
  13 H :    0.136016
  14 H :    0.126331
  15 H :    0.126565

  Mayer bond orders larger than 0.1
B(  0-N ,  1-C ) :   1.1621 B(  0-N ,  8-H ) :   0.8561 B(  0-N ,  9-H ) :   0.8706
B(  1-C ,  2-O ) :   1.9226 B(  1-C ,  3-C ) :   0.8874 B(  3-C ,  4-C ) :   0.9415
B(  3-C ,  7-N ) :   0.9022 B(  3-C , 10-H ) :   0.9073 B(  4-C ,  5-C ) :   0.9689
B(  4-C ,  7-N ) :   0.8604 B(  4-C , 11-H ) :   0.8997 B(  5-C ,  6-C ) :   0.9805
B(  5-C , 12-H ) :   0.9301 B(  5-C , 13-H ) :   0.9006 B(  6-C ,  7-N ) :   0.9097
B(  6-C , 14-H ) :   0.9191 B(  6-C , 15-H ) :   0.9266

MP2 TOTAL ENERGY:     -379.267435877 Eh
FINAL SINGLE POINT ENERGY      -379.267435876735

DIPOLE MOMENT
-------------
                                X             Y             Z
Electronic contribution:      1.06155       1.71300       1.73790
Nuclear contribution   :     -1.52365      -1.14376      -1.17656
                        -----------------------------------------
Total Dipole Moment    :     -0.46210       0.56924       0.56134
                        -----------------------------------------
Magnitude (a.u.)       :      0.92340
Magnitude (Debye)      :      2.34711

                             ****ORCA TERMINATED NORMALLY****
TOTAL RUN TIME: 0 days 0 hours 11 minutes 40 seconds 652 msec
