                         Program Version 3.0.3 - RELEASE   -
|  1> ! RI-MP2 RIJK def2-TZVP def2-TZVP/C def2-TZVP/JK TIGHTSCF
|  2> % maxcore 2000
|  3> % mp2 density relaxed end
|  4> *xyz 0 1
|  5>  C        0.1291848580     1.4526080399    -0.0420595938
|  6>  C       -0.0844829894    -0.0153503022    -0.0218041636
|  7>  C       -1.1837032567    -0.8162635484    -0.1390746137
|  8>  C       -0.7186039341    -2.1698551577    -0.0094994217
|  9>  C        0.6103671426    -2.0524111091     0.1620947725
| 10>  O        1.3704852469    -3.1524157785     0.2774140817
| 11>  C        0.3762075151    -4.2336082450     0.3058534392
| 12>  C       -1.0349827281    -3.6383579854    -0.0585606988
| 13>  O        1.0624288283    -0.7984582061     0.1683097789
| 14>  H        0.8142994163     1.7566378644    -0.8427153919
| 15>  H       -0.8273130021     1.9548516486    -0.2064899941
| 16>  H        0.5477043586     1.8214688723     0.9024199138
| 17>  H       -2.1917411933    -0.4607137326    -0.2901907032
| 18>  H        0.7169990555    -4.9974908308    -0.3948632802
| 19>  H        0.3854009273    -4.6469789963     1.3182996204
| 20>  H       -1.7870150761    -3.9712415767     0.6648180841
| 21>  H       -1.3688408586    -3.9769639765    -1.0475165497
| 22> *
| 23>
| 24>                          ****END OF INPUT****

CARTESIAN COORDINATES (ANGSTROEM)
---------------------------------
  C      0.129185    1.452608   -0.042060
  C     -0.084483   -0.015350   -0.021804
  C     -1.183703   -0.816264   -0.139075
  C     -0.718604   -2.169855   -0.009499
  C      0.610367   -2.052411    0.162095
  O      1.370485   -3.152416    0.277414
  C      0.376208   -4.233608    0.305853
  C     -1.034983   -3.638358   -0.058561
  O      1.062429   -0.798458    0.168310
  H      0.814299    1.756638   -0.842715
  H     -0.827313    1.954852   -0.206490
  H      0.547704    1.821469    0.902420
  H     -2.191741   -0.460714   -0.290191
  H      0.716999   -4.997491   -0.394863
  H      0.385401   -4.646979    1.318300
  H     -1.787015   -3.971242    0.664818
  H     -1.368841   -3.976964   -1.047517

 Total Charge           Charge          ....    0
 Multiplicity           Mult            ....    1
 Number of Electrons    NEL             ....   66
 Basis Dimension        Dim             ....  327

ORBITAL ENERGIES
----------------

  NO   OCC          E(Eh)            E(eV)
   0   2.0000     -20.619489      -561.0848
   1   2.0000     -20.590826      -560.3049
   2   2.0000     -11.330418      -308.3163
   3   2.0000     -11.297596      -307.4232
   4   2.0000     -11.283767      -307.0469
   5   2.0000     -11.247258      -306.0534
   6   2.0000     -11.231025      -305.6117
   7   2.0000     -11.230315      -305.5924
   8   2.0000     -11.206657      -304.9486
   9   2.0000      -1.472199       -40.0606
  10   2.0000      -1.403185       -38.1826
  11   2.0000      -1.105708       -30.0879
  12   2.0000      -1.043993       -28.4085
  13   2.0000      -1.010014       -27.4839
  14   2.0000      -0.933136       -25.3919
  15   2.0000      -0.839746       -22.8506
  16   2.0000      -0.803222       -21.8568
  17   2.0000      -0.744953       -20.2712
  18   2.0000      -0.703528       -19.1440
  19   2.0000      -0.688761       -18.7421
  20   2.0000      -0.634388       -17.2626
  21   2.0000      -0.627951       -17.0874
  22   2.0000      -0.601543       -16.3688
  23   2.0000      -0.570030       -15.5113
  24   2.0000      -0.568156       -15.4603
  25   2.0000      -0.556476       -15.1425
  26   2.0000      -0.545746       -14.8505
  27   2.0000      -0.534883       -14.5549
  28   2.0000      -0.513026       -13.9601
  29   2.0000      -0.498602       -13.5676
  30   2.0000      -0.490730       -13.3535
  31   2.0000      -0.387768       -10.5517
  32   2.0000      -0.276865        -7.5339
  33   0.0000       0.140727         3.8294
  34   0.0000       0.148236         4.0337
  35   0.0000       0.164343         4.4720
  36   0.0000       0.173129         4.7111
  37   0.0000       0.186187         5.0664

MULLIKEN ATOMIC CHARGES
-----------------------
   0 C :   -0.434653
   1 C :    0.229327
   2 C :   -0.335115
   3 C :   -0.018058
   4 C :    0.255688
   5 O :   -0.280274
   6 C :   -0.011791
   7 C :   -0.233301
   8 O :   -0.230858
   9 H :    0.146762
  10 H :    0.144224
  11 H :    0.145713
  12 H :    0.133914
  13 H :    0.124414
  14 H :    0.114406
  15 H :    0.129700
  16 H :    0.119902
Sum of atomic charges:   -0.0000000

LOEWDIN ATOMIC CHARGES
----------------------
   0 C :   -0.280525
   1 C :   -0.248658
   2 C :   -0.150423
   3 C :   -0.186623
   4 C :   -0.378007
   5 O :    0.228535
   6 C :   -0.207079
   7 C :   -0.216514
   8 O :    0.365902
   9 H :    0.133121
  10 H :    0.138768
  11 H :    0.132798
  12 H :    0.143396
  13 H :    0.125178
  14 H :    0.125797
  15 H :    0.137863
  16 H :    0.136471

  Mayer bond orders larger than 0.1
B(  0-C ,  1-C ) :   0.8792 B(  0-C ,  9-H ) :   0.9329 B(  0-C , 10-H ) :   0.9499
B(  0-C , 11-H ) :   0.9289 B(  1-C ,  2-C ) :   1.5840 B(  1-C ,  8-O ) :   0.9398
B(  2-C ,  3-C ) :   1.1131 B(  2-C , 12-H ) :   0.9151 B(  3-C ,  4-C ) :   1.5036
B(  3-C ,  7-C ) :   0.9024 B(  4-C ,  5-O ) :   1.0986 B(  4-C ,  8-O ) :   1.1144
B(  5-O ,  6-C ) :   0.8346 B(  6-C ,  7-C ) :   0.9702 B(  6-C , 13-H ) :   0.9349
B(  6-C , 14-H ) :   0.9280 B(  7-C , 15-H ) :   0.9241 B(  7-C , 16-H ) :   0.9006

MP2 TOTAL ENERGY:     -421.132201697 Eh
FINAL SINGLE POINT ENERGY      -421.132201697050

DIPOLE MOMENT
-------------
                                X             Y             Z
Electronic contribution:      3.49592      -1.40521       0.42148
Nuclear contribution   :     -4.19116       1.16246      -0.47884
                        -----------------------------------------
Total Dipole Moment    :     -0.69524      -0.24276      -0.05736
                        -----------------------------------------
Magnitude (a.u.)       :      0.73863
Magnitude (Debye)      :      1.87745

                             ****ORCA TERMINATED NORMALLY****
TOTAL RUN TIME: 0 days 0 hours 16 minutes 47 seconds 63 msec
