                         Program Version 3.0.3 - RELEASE   -
|  1> ! RI-MP2 RIJK def2-TZVP def2-TZVP/C def2-TZVP/JK TIGHTSCF
|  2> % maxcore 2000
|  3> % mp2 density relaxed end
|  4> *xyz 0 1
|  5>  N        0.0579811796     1.2760693908    -0.0914929087
|  6>  C        0.0572648710    -0.0765167572    -0.0304273132
|  7>  O        1.0765685912    -0.7459787414     0.0187862267
|  8>  C       -1.3144317130    -0.7726847929    -0.0085697180
|  9>  O       -1.1073115586    -2.1513006746    -0.1624976363
| 10>  C       -2.0693509632    -0.4690637186     1.2989371129
| 11>  C       -3.4044222417    -1.2357375243     1.3650850428
| 12>  C       -4.1385667353    -0.9799179996     2.5972959506
| 13>  C       -4.7233838053    -0.7490712952     3.6219313924
| 14>  H        0.9404449275     1.7604583059    -0.1141806020
| 15>  H       -0.7895378861     1.8077893397    -0.1833052500
| 16>  H       -1.9102922676    -0.3992430162    -0.8583167409
| 17>  H       -0.1425017129    -2.2621708960    -0.0922253780
| 18>  H       -1.4408772131    -0.7596033035     2.1476413801
| 19>  H       -2.2582581150     0.6068392413     1.3891269336
| 20>  H       -4.0273209200    -0.9614784290     0.5028293876
| 21>  H       -3.1940756965    -2.3054616475     1.2628224025
| 22>  H       -5.2503005210    -0.5594329616     4.5237882681
| 23> *
| 24>
| 25>                          ****END OF INPUT****

CARTESIAN COORDINATES (ANGSTROEM)
---------------------------------
  N      0.057981    1.276069   -0.091493
  C      0.057265   -0.076517   -0.030427
  O      1.076569   -0.745979    0.018786
  C     -1.314432   -0.772685   -0.008570
  O     -1.107312   -2.151301   -0.162498
  C     -2.069351   -0.469064    1.298937
  C     -3.404422   -1.235738    1.365085
  C     -4.138567   -0.979918    2.597296
  C     -4.723384   -0.749071    3.621931
  H      0.940445    1.760458   -0.114181
  H     -0.789538    1.807789   -0.183305
  H     -1.910292   -0.399243   -0.858317
  H     -0.142502   -2.262171   -0.092225
  H     -1.440877   -0.759603    2.147641
  H     -2.258258    0.606839    1.389127
  H     -4.027321   -0.961478    0.502829
  H     -3.194076   -2.305462    1.262822
  H     -5.250301   -0.559433    4.523788

 Total Charge           Charge          ....    0
 Multiplicity           Mult            ....    1
 Number of Electrons    NEL             ....   68
 Basis Dimension        Dim             ....  333

ORBITAL ENERGIES
----------------

  NO   OCC          E(Eh)            E(eV)
   0   2.0000     -20.555763      -559.3507
   1   2.0000     -20.541258      -558.9561
   2   2.0000     -15.604060      -424.6081
   3   2.0000     -11.368723      -309.3587
   4   2.0000     -11.305725      -307.6444
   5   2.0000     -11.255386      -306.2746
   6   2.0000     -11.247326      -306.0553
   7   2.0000     -11.234991      -305.7196
   8   2.0000     -11.221118      -305.3422
   9   2.0000      -1.414698       -38.4959
  10   2.0000      -1.361460       -37.0472
  11   2.0000      -1.234787       -33.6003
  12   2.0000      -1.096977       -29.8502
  13   2.0000      -1.026128       -27.9224
  14   2.0000      -0.960620       -26.1398
  15   2.0000      -0.863390       -23.4940
  16   2.0000      -0.805407       -21.9162
  17   2.0000      -0.767239       -20.8776
  18   2.0000      -0.721655       -19.6372
  19   2.0000      -0.709807       -19.3148
  20   2.0000      -0.678499       -18.4629
  21   2.0000      -0.649418       -17.6716
  22   2.0000      -0.639708       -17.4073
  23   2.0000      -0.614597       -16.7240
  24   2.0000      -0.589890       -16.0517
  25   2.0000      -0.560230       -15.2446
  26   2.0000      -0.551001       -14.9935
  27   2.0000      -0.526771       -14.3342
  28   2.0000      -0.517113       -14.0714
  29   2.0000      -0.453455       -12.3391
  30   2.0000      -0.448616       -12.2075
  31   2.0000      -0.435794       -11.8586
  32   2.0000      -0.386968       -10.5299
  33   2.0000      -0.385401       -10.4873
  34   0.0000       0.110169         2.9979
  35   0.0000       0.146344         3.9822
  36   0.0000       0.161826         4.4035
  37   0.0000       0.166612         4.5337
  38   0.0000       0.171455         4.6655

MULLIKEN ATOMIC CHARGES
-----------------------
   0 N :   -0.478724
   1 C :    0.309563
   2 O :   -0.377620
   3 C :    0.005829
   4 O :   -0.487150
   5 C :   -0.152517
   6 C :   -0.417096
   7 C :    0.009711
   8 C :   -0.122724
   9 H :    0.267503
  10 H :    0.266238
  11 H :    0.108205
  12 H :    0.340907
  13 H :    0.122596
  14 H :    0.104591
  15 H :    0.134551
  16 H :    0.176506
  17 H :    0.189631
Sum of atomic charges:   -0.0000000

LOEWDIN ATOMIC CHARGES
----------------------
   0 N :    0.000691
   1 C :   -0.460094
   2 O :    0.076043
   3 C :   -0.335964
   4 O :   -0.004697
   5 C :   -0.229979
   6 C :   -0.245502
   7 C :   -0.112646
   8 C :   -0.110018
   9 H :    0.179333
  10 H :    0.175280
  11 H :    0.145697
  12 H :    0.186925
  13 H :    0.149392
  14 H :    0.138558
  15 H :    0.156242
  16 H :    0.165052
  17 H :    0.125691

  Mayer bond orders larger than 0.1
B(  0-N ,  1-C ) :   1.1797 B(  0-N ,  9-H ) :   0.8528 B(  0-N , 10-H ) :   0.8679
B(  1-C ,  2-O ) :   1.8783 B(  1-C ,  3-C ) :   0.9173 B(  3-C ,  4-O ) :   1.1037
B(  3-C ,  5-C ) :   0.8426 B(  3-C , 11-H ) :   0.9423 B(  4-O ,  5-C ) :  -0.1108
B(  4-O , 12-H ) :   0.7918 B(  5-C ,  6-C ) :   0.9106 B(  5-C , 13-H ) :   0.9059
B(  5-C , 14-H ) :   0.9195 B(  6-C ,  7-C ) :   1.0862 B(  6-C ,  8-C ) :  -0.1210
B(  6-C , 15-H ) :   0.9293 B(  6-C , 16-H ) :   0.9286 B(  7-C ,  8-C ) :   2.6161
B(  8-C , 17-H ) :   0.8962

MP2 TOTAL ENERGY:     -438.366461910 Eh
FINAL SINGLE POINT ENERGY      -438.366461910366

DIPOLE MOMENT
-------------
                                X             Y             Z
Electronic contribution:      3.03071      -1.07180      -0.80002
Nuclear contribution   :     -3.27266       2.61807       0.62343
                        -----------------------------------------
Total Dipole Moment    :     -0.24196       1.54627      -0.17659
                        -----------------------------------------
Magnitude (a.u.)       :      1.57501
Magnitude (Debye)      :      4.00336

                             ****ORCA TERMINATED NORMALLY****
TOTAL RUN TIME: 0 days 0 hours 16 minutes 3 seconds 858 msec
