                         Program Version 3.0.3 - RELEASE   -
|  1> ! RI-MP2 RIJK def2-TZVP def2-TZVP/C def2-TZVP/JK TIGHTSCF
|  2> % maxcore 2000
|  3> % mp2 density relaxed end
|  4> *xyz 0 1
|  5>  C       -0.0076799153     1.5391656480     0.0179301739
|  6>  C        0.0105873703     0.0190515245    -0.0205573726
|  7>  C        1.2105666991    -0.6008315953    -0.8507267491
|  8>  C        1.9098803010    -0.7189003064     0.4850212260
|  9>  C        2.9071650046    -0.2111499324     1.1991803728
| 10>  C        2.3637186712     0.0875823351     2.5901359357
| 11>  O        0.9278046705     0.0262799885     2.4639418288
| 12>  C        0.6402283787    -0.6650123476     1.2651519643
| 13>  H        0.9797925013     1.9384164064     0.2702994405
| 14>  H       -0.3028827414     1.9507465537    -0.9526580022
| 15>  H       -0.7128185601     1.9006210667     0.7722437340
| 16>  H       -0.9714982517    -0.3780601339    -0.2928783776
| 17>  H        0.9377827711    -1.5595467035    -1.3012090543
| 18>  H        1.6828336661     0.0301043151    -1.6070683503
| 19>  H        3.8914339739     0.0979641937     0.8707372023
| 20>  H        2.7001044584    -0.6240365993     3.3615439232
| 21>  H        2.6446306959     1.0941153835     2.9263042132
| 22>  H        0.1428394563    -1.6214856769     1.4798912612
| 23> *
| 24>
| 25>                          ****END OF INPUT****

CARTESIAN COORDINATES (ANGSTROEM)
---------------------------------
  C     -0.007680    1.539166    0.017930
  C      0.010587    0.019052   -0.020557
  C      1.210567   -0.600832   -0.850727
  C      1.909880   -0.718900    0.485021
  C      2.907165   -0.211150    1.199180
  C      2.363719    0.087582    2.590136
  O      0.927805    0.026280    2.463942
  C      0.640228   -0.665012    1.265152
  H      0.979793    1.938416    0.270299
  H     -0.302883    1.950747   -0.952658
  H     -0.712819    1.900621    0.772244
  H     -0.971498   -0.378060   -0.292878
  H      0.937783   -1.559547   -1.301209
  H      1.682834    0.030104   -1.607068
  H      3.891434    0.097964    0.870737
  H      2.700104   -0.624037    3.361544
  H      2.644631    1.094115    2.926304
  H      0.142839   -1.621486    1.479891

 Total Charge           Charge          ....    0
 Multiplicity           Mult            ....    1
 Number of Electrons    NEL             ....   60
 Basis Dimension        Dim             ....  308

ORBITAL ENERGIES
----------------

  NO   OCC          E(Eh)            E(eV)
   0   2.0000     -20.549563      -559.1820
   1   2.0000     -11.278771      -306.9110
   2   2.0000     -11.272000      -306.7267
   3   2.0000     -11.240749      -305.8763
   4   2.0000     -11.239583      -305.8446
   5   2.0000     -11.232149      -305.6423
   6   2.0000     -11.226881      -305.4990
   7   2.0000     -11.212857      -305.1173
   8   2.0000      -1.373280       -37.3689
   9   2.0000      -1.143680       -31.1211
  10   2.0000      -1.040054       -28.3013
  11   2.0000      -0.967037       -26.3144
  12   2.0000      -0.914496       -24.8847
  13   2.0000      -0.849887       -23.1266
  14   2.0000      -0.769850       -20.9487
  15   2.0000      -0.727865       -19.8062
  16   2.0000      -0.673114       -18.3164
  17   2.0000      -0.660670       -17.9777
  18   2.0000      -0.617762       -16.8101
  19   2.0000      -0.595942       -16.2164
  20   2.0000      -0.579984       -15.7822
  21   2.0000      -0.559890       -15.2354
  22   2.0000      -0.545245       -14.8369
  23   2.0000      -0.504726       -13.7343
  24   2.0000      -0.493190       -13.4204
  25   2.0000      -0.487520       -13.2661
  26   2.0000      -0.467267       -12.7150
  27   2.0000      -0.440671       -11.9913
  28   2.0000      -0.411269       -11.1912
  29   2.0000      -0.337532        -9.1847
  30   0.0000       0.135237         3.6800
  31   0.0000       0.139903         3.8070
  32   0.0000       0.162669         4.4265
  33   0.0000       0.171676         4.6716
  34   0.0000       0.183019         4.9802

MULLIKEN ATOMIC CHARGES
-----------------------
   0 C :   -0.451085
   1 C :   -0.006621
   2 C :   -0.197013
   3 C :   -0.104780
   4 C :   -0.250503
   5 C :    0.006908
   6 O :   -0.344550
   7 C :    0.126408
   8 H :    0.133496
   9 H :    0.132667
  10 H :    0.138674
  11 H :    0.108985
  12 H :    0.132165
  13 H :    0.123260
  14 H :    0.135221
  15 H :    0.105163
  16 H :    0.113987
  17 H :    0.097616
Sum of atomic charges:   -0.0000000

LOEWDIN ATOMIC CHARGES
----------------------
   0 C :   -0.293672
   1 C :   -0.208291
   2 C :   -0.174678
   3 C :   -0.159662
   4 C :   -0.148380
   5 C :   -0.267271
   6 O :    0.164289
   7 C :   -0.235078
   8 H :    0.129358
   9 H :    0.123909
  10 H :    0.129420
  11 H :    0.138801
  12 H :    0.140974
  13 H :    0.134411
  14 H :    0.137790
  15 H :    0.122482
  16 H :    0.125880
  17 H :    0.139717

  Mayer bond orders larger than 0.1
B(  0-C ,  1-C ) :   0.8992 B(  0-C ,  8-H ) :   0.9303 B(  0-C ,  9-H ) :   0.9382
B(  0-C , 10-H ) :   0.9365 B(  1-C ,  2-C ) :   0.8862 B(  1-C ,  7-C ) :   0.8586
B(  1-C , 11-H ) :   0.9173 B(  2-C ,  3-C ) :   0.9203 B(  2-C , 12-H ) :   0.9186
B(  2-C , 13-H ) :   0.9120 B(  3-C ,  4-C ) :   1.7923 B(  3-C ,  7-C ) :   0.9423
B(  4-C ,  5-C ) :   0.9605 B(  4-C , 14-H ) :   0.9160 B(  5-C ,  6-O ) :   0.9241
B(  5-C , 15-H ) :   0.9110 B(  5-C , 16-H ) :   0.9225 B(  6-O ,  7-C ) :   0.9621
B(  7-C , 17-H ) :   0.9270

MP2 TOTAL ENERGY:     -347.163101574 Eh
FINAL SINGLE POINT ENERGY      -347.163101574225

DIPOLE MOMENT
-------------
                                X             Y             Z
Electronic contribution:      1.38548      -2.94328       2.91803
Nuclear contribution   :     -1.14142       2.93884      -3.41724
                        -----------------------------------------
Total Dipole Moment    :      0.24405      -0.00443      -0.49920
                        -----------------------------------------
Magnitude (a.u.)       :      0.55569
Magnitude (Debye)      :      1.41244

                             ****ORCA TERMINATED NORMALLY****
TOTAL RUN TIME: 0 days 0 hours 14 minutes 29 seconds 182 msec
