                         Program Version 3.0.3 - RELEASE   -
|  1> ! RI-MP2 RIJK def2-TZVP def2-TZVP/C def2-TZVP/JK TIGHTSCF
|  2> % maxcore 2000
|  3> % mp2 density relaxed end
|  4> *xyz 0 1
|  5>  N        0.0127719997     1.2584004185     0.0091500429
|  6>  N        1.0544484218     2.0813114506     0.0033948471
|  7>  C        2.2559057197     1.5140884543    -0.0112438555
|  8>  C        2.3933652551     0.1262794380    -0.0199018327
|  9>  N        3.4560373375    -0.6682804272    -0.0343991459
| 10>  C        2.9254521275    -1.9382980259    -0.0359558015
| 11>  C        1.5368942865    -1.9977825593    -0.0228136546
| 12>  C        1.1420702358    -0.6450333042    -0.0118409066
| 13>  N       -0.0451709844    -0.0588635032     0.0027619304
| 14>  H       -0.8847508190     1.7222060493     0.0202951942
| 15>  H        3.0989407473     2.1961388806    -0.0158191993
| 16>  H        3.5983347578    -2.7877348977    -0.0469630107
| 17>  H        0.9062861348    -2.8721528139    -0.0213169578
| 18> *
| 19>
| 20>                          ****END OF INPUT****

CARTESIAN COORDINATES (ANGSTROEM)
---------------------------------
  N      0.012772    1.258400    0.009150
  N      1.054448    2.081311    0.003395
  C      2.255906    1.514088   -0.011244
  C      2.393365    0.126279   -0.019902
  N      3.456037   -0.668280   -0.034399
  C      2.925452   -1.938298   -0.035956
  C      1.536894   -1.997783   -0.022814
  C      1.142070   -0.645033   -0.011841
  N     -0.045171   -0.058864    0.002762
  H     -0.884751    1.722206    0.020295
  H      3.098941    2.196139   -0.015819
  H      3.598335   -2.787735   -0.046963
  H      0.906286   -2.872153   -0.021317

 Total Charge           Charge          ....    0
 Multiplicity           Mult            ....    1
 Number of Electrons    NEL             ....   62
 Basis Dimension        Dim             ....  303

ORBITAL ENERGIES
----------------

  NO   OCC          E(Eh)            E(eV)
   0   2.0000     -15.723775      -427.8657
   1   2.0000     -15.663786      -426.2333
   2   2.0000     -15.655395      -426.0049
   3   2.0000     -15.550684      -423.1556
   4   2.0000     -11.303452      -307.5826
   5   2.0000     -11.291773      -307.2648
   6   2.0000     -11.289652      -307.2070
   7   2.0000     -11.274527      -306.7955
   8   2.0000     -11.223718      -305.4129
   9   2.0000      -1.457828       -39.6695
  10   2.0000      -1.278968       -34.8025
  11   2.0000      -1.260009       -34.2866
  12   2.0000      -1.123790       -30.5799
  13   2.0000      -1.037709       -28.2375
  14   2.0000      -0.940342       -25.5880
  15   2.0000      -0.912114       -24.8199
  16   2.0000      -0.813976       -22.1494
  17   2.0000      -0.777214       -21.1491
  18   2.0000      -0.751041       -20.4369
  19   2.0000      -0.673236       -18.3197
  20   2.0000      -0.656450       -17.8629
  21   2.0000      -0.643187       -17.5020
  22   2.0000      -0.598490       -16.2857
  23   2.0000      -0.569751       -15.5037
  24   2.0000      -0.546130       -14.8610
  25   2.0000      -0.536247       -14.5920
  26   2.0000      -0.485997       -13.2247
  27   2.0000      -0.482867       -13.1395
  28   2.0000      -0.422756       -11.5038
  29   2.0000      -0.346623        -9.4321
  30   2.0000      -0.319753        -8.7009
  31   0.0000       0.047446         1.2911
  32   0.0000       0.091010         2.4765
  33   0.0000       0.123779         3.3682
  34   0.0000       0.166171         4.5217
  35   0.0000       0.177344         4.8258

MULLIKEN ATOMIC CHARGES
-----------------------
   0 N :    0.031761
   1 N :   -0.174661
   2 C :   -0.063457
   3 C :    0.042139
   4 N :   -0.257755
   5 C :   -0.008403
   6 C :   -0.246187
   7 C :    0.092076
   8 N :   -0.123595
   9 H :    0.282157
  10 H :    0.156173
  11 H :    0.129847
  12 H :    0.139905
Sum of atomic charges:    0.0000000

LOEWDIN ATOMIC CHARGES
----------------------
   0 N :    0.089689
   1 N :    0.031454
   2 C :   -0.167746
   3 C :   -0.251534
   4 N :    0.121915
   5 C :   -0.186781
   6 C :   -0.150721
   7 C :   -0.218409
   8 N :    0.099263
   9 H :    0.202377
  10 H :    0.152757
  11 H :    0.133753
  12 H :    0.143983

  Mayer bond orders larger than 0.1
B(  0-N ,  1-N ) :   1.0873 B(  0-N ,  8-N ) :   1.1597 B(  0-N ,  9-H ) :   0.8753
B(  1-N ,  2-C ) :   1.4692 B(  2-C ,  3-C ) :   1.2470 B(  2-C , 10-H ) :   0.9333
B(  3-C ,  4-N ) :   1.4736 B(  3-C ,  7-C ) :   0.9534 B(  4-N ,  5-C ) :   1.2761
B(  5-C ,  6-C ) :   1.3690 B(  5-C , 11-H ) :   0.9401 B(  6-C ,  7-C ) :   1.3166
B(  6-C , 12-H ) :   0.9151 B(  7-C ,  8-N ) :   1.4354

MP2 TOTAL ENERGY:     -411.084678607 Eh
FINAL SINGLE POINT ENERGY      -411.084678606507

DIPOLE MOMENT
-------------
                                X             Y             Z
Electronic contribution:     -1.29464       1.90577       0.02262
Nuclear contribution   :      0.27374      -1.60432      -0.01113
                        -----------------------------------------
Total Dipole Moment    :     -1.02089       0.30145       0.01149
                        -----------------------------------------
Magnitude (a.u.)       :      1.06453
Magnitude (Debye)      :      2.70582

                             ****ORCA TERMINATED NORMALLY****
TOTAL RUN TIME: 0 days 0 hours 16 minutes 27 seconds 326 msec
