                         Program Version 3.0.3 - RELEASE   -
|  1> ! RI-MP2 RIJK def2-TZVP def2-TZVP/C def2-TZVP/JK TIGHTSCF
|  2> % maxcore 2000
|  3> % mp2 density relaxed end
|  4> *xyz 0 1
|  5>  C       -0.9932774988     1.0893889415    -0.6296907375
|  6>  C       -0.2185926085    -0.1016132173    -0.0661233770
|  7>  C       -1.1454510572    -1.1863593426     0.4828168353
|  8>  O        0.5710352615    -0.6661835460    -1.1201374195
|  9>  C        1.9862745780    -0.7149720866    -0.9785337222
| 10>  C        2.6324621277     0.6749421689    -0.8935522043
| 11>  C        2.4318118881    -1.6156680228     0.1904762717
| 12>  C        2.4394814066    -1.4023812455    -2.2735278899
| 13>  O        3.5808399005    -1.4467429559    -2.6496827172
| 14>  H       -0.3105503452     1.8614130892    -0.9945258306
| 15>  H       -1.6209935772     0.7668022857    -1.4664268172
| 16>  H       -1.6389279488     1.5323878166     0.1354694504
| 17>  H        0.4332227353     0.2515749840     0.7426616040
| 18>  H       -1.7783278514    -1.5797927414    -0.3189976037
| 19>  H       -0.5711094970    -2.0172842738     0.9012219389
| 20>  H       -1.7936878031    -0.7848780954     1.2684958203
| 21>  H        2.4281859185     1.1532837108     0.0686386589
| 22>  H        3.7144101503     0.5780775720    -1.0108467557
| 23>  H        2.2550092118     1.3191571977    -1.6924570587
| 24>  H        1.9781047539    -2.6078219225     0.1084287720
| 25>  H        3.5191983090    -1.7271078485     0.1774609365
| 26>  H        2.1425764041    -1.1816569299     1.1521704183
| 27>  H        1.6050269717    -1.8794103684    -2.8317011729
| 28> *
| 29>
| 30>                          ****END OF INPUT****

CARTESIAN COORDINATES (ANGSTROEM)
---------------------------------
  C     -0.993277    1.089389   -0.629691
  C     -0.218593   -0.101613   -0.066123
  C     -1.145451   -1.186359    0.482817
  O      0.571035   -0.666184   -1.120137
  C      1.986275   -0.714972   -0.978534
  C      2.632462    0.674942   -0.893552
  C      2.431812   -1.615668    0.190476
  C      2.439481   -1.402381   -2.273528
  O      3.580840   -1.446743   -2.649683
  H     -0.310550    1.861413   -0.994526
  H     -1.620994    0.766802   -1.466427
  H     -1.638928    1.532388    0.135469
  H      0.433223    0.251575    0.742662
  H     -1.778328   -1.579793   -0.318998
  H     -0.571109   -2.017284    0.901222
  H     -1.793688   -0.784878    1.268496
  H      2.428186    1.153284    0.068639
  H      3.714410    0.578078   -1.010847
  H      2.255009    1.319157   -1.692457
  H      1.978105   -2.607822    0.108429
  H      3.519198   -1.727108    0.177461
  H      2.142576   -1.181657    1.152170
  H      1.605027   -1.879410   -2.831701

 Total Charge           Charge          ....    0
 Multiplicity           Mult            ....    1
 Number of Electrons    NEL             ....   72
 Basis Dimension        Dim             ....  363

ORBITAL ENERGIES
----------------

  NO   OCC          E(Eh)            E(eV)
   0   2.0000     -20.558201      -559.4171
   1   2.0000     -20.556446      -559.3693
   2   2.0000     -11.325847      -308.1920
   3   2.0000     -11.303104      -307.5731
   4   2.0000     -11.289173      -307.1940
   5   2.0000     -11.229834      -305.5793
   6   2.0000     -11.224306      -305.4289
   7   2.0000     -11.219637      -305.3019
   8   2.0000     -11.219052      -305.2859
   9   2.0000      -1.400160       -38.1003
  10   2.0000      -1.378748       -37.5177
  11   2.0000      -1.089206       -29.6388
  12   2.0000      -1.031596       -28.0712
  13   2.0000      -0.953697       -25.9514
  14   2.0000      -0.939284       -25.5592
  15   2.0000      -0.895373       -24.3643
  16   2.0000      -0.797013       -21.6878
  17   2.0000      -0.756786       -20.5932
  18   2.0000      -0.707094       -19.2410
  19   2.0000      -0.654641       -17.8137
  20   2.0000      -0.641330       -17.4515
  21   2.0000      -0.630837       -17.1659
  22   2.0000      -0.608320       -16.5532
  23   2.0000      -0.587354       -15.9827
  24   2.0000      -0.584056       -15.8930
  25   2.0000      -0.554953       -15.1010
  26   2.0000      -0.548721       -14.9314
  27   2.0000      -0.545370       -14.8403
  28   2.0000      -0.528106       -14.3705
  29   2.0000      -0.526870       -14.3369
  30   2.0000      -0.520821       -14.1723
  31   2.0000      -0.515173       -14.0186
  32   2.0000      -0.489099       -13.3091
  33   2.0000      -0.466316       -12.6891
  34   2.0000      -0.420877       -11.4526
  35   2.0000      -0.409459       -11.1419
  36   0.0000       0.126199         3.4341
  37   0.0000       0.129856         3.5336
  38   0.0000       0.156875         4.2688
  39   0.0000       0.168303         4.5798
  40   0.0000       0.174677         4.7532

MULLIKEN ATOMIC CHARGES
-----------------------
   0 C :   -0.378531
   1 C :    0.092126
   2 C :   -0.377796
   3 O :   -0.314547
   4 C :    0.191377
   5 C :   -0.424305
   6 C :   -0.427228
   7 C :    0.097316
   8 O :   -0.266435
   9 H :    0.133440
  10 H :    0.130175
  11 H :    0.123798
  12 H :    0.074407
  13 H :    0.130107
  14 H :    0.132558
  15 H :    0.124635
  16 H :    0.131254
  17 H :    0.158902
  18 H :    0.139774
  19 H :    0.141560
  20 H :    0.155657
  21 H :    0.134276
  22 H :    0.097481
Sum of atomic charges:    0.0000000

LOEWDIN ATOMIC CHARGES
----------------------
   0 C :   -0.295453
   1 C :   -0.362814
   2 C :   -0.296129
   3 O :    0.215256
   4 C :   -0.409951
   5 C :   -0.268922
   6 C :   -0.266854
   7 C :   -0.244970
   8 O :    0.143517
   9 H :    0.122252
  10 H :    0.127096
  11 H :    0.124708
  12 H :    0.136127
  13 H :    0.127071
  14 H :    0.121786
  15 H :    0.124866
  16 H :    0.124663
  17 H :    0.137334
  18 H :    0.130056
  19 H :    0.129710
  20 H :    0.136473
  21 H :    0.126125
  22 H :    0.118053

  Mayer bond orders larger than 0.1
B(  0-C ,  1-C ) :   0.9290 B(  0-C ,  9-H ) :   0.9386 B(  0-C , 10-H ) :   0.9322
B(  0-C , 11-H ) :   0.9345 B(  1-C ,  2-C ) :   0.9270 B(  1-C ,  3-O ) :   0.8335
B(  1-C , 12-H ) :   0.9244 B(  2-C , 13-H ) :   0.9320 B(  2-C , 14-H ) :   0.9383
B(  2-C , 15-H ) :   0.9347 B(  3-O ,  4-C ) :   0.9687 B(  4-C ,  5-C ) :   0.9254
B(  4-C ,  6-C ) :   0.9080 B(  4-C ,  7-C ) :   0.8184 B(  5-C , 16-H ) :   0.9267
B(  5-C , 17-H ) :   0.9178 B(  5-C , 18-H ) :   0.9355 B(  6-C , 19-H ) :   0.9336
B(  6-C , 20-H ) :   0.9223 B(  6-C , 21-H ) :   0.9248 B(  7-C ,  8-O ) :   2.0060
B(  7-C , 22-H ) :   0.9254

MP2 TOTAL ENERGY:     -424.731947986 Eh
FINAL SINGLE POINT ENERGY      -424.731947986048

DIPOLE MOMENT
-------------
                                X             Y             Z
Electronic contribution:      5.99671      -3.41578      -7.06260
Nuclear contribution   :     -6.65274       3.73358       7.96052
                        -----------------------------------------
Total Dipole Moment    :     -0.65603       0.31779       0.89791
                        -----------------------------------------
Magnitude (a.u.)       :      1.15655
Magnitude (Debye)      :      2.93973

                             ****ORCA TERMINATED NORMALLY****
TOTAL RUN TIME: 0 days 0 hours 22 minutes 12 seconds 443 msec
