                         Program Version 3.0.3 - RELEASE   -
|  1> ! RI-MP2 RIJK def2-TZVP def2-TZVP/C def2-TZVP/JK TIGHTSCF
|  2> % maxcore 2000
|  3> % mp2 density relaxed end
|  4> *xyz 0 1
|  5>  C       -0.0995895033     1.5404380076     0.0089069691
|  6>  C       -0.0950211828     0.0148490504    -0.0956491620
|  7>  C        0.8340986717    -0.4858158486    -1.2198576104
|  8>  O        2.1722063311    -0.0650464989    -1.0436053574
|  9>  C        0.7393305459    -1.9800130585    -1.3511446119
| 10>  N        1.7357587069    -2.7647441844    -1.0400184897
| 11>  O        1.2247940181    -4.0509953385    -1.2552123529
| 12>  C       -0.0277228291    -3.8784287260    -1.6774401323
| 13>  N       -0.4017020275    -2.6425541424    -1.7606997422
| 14>  H        0.9152719201     1.9168668485     0.1590938881
| 15>  H       -0.4960767854     1.9968578425    -0.9048465556
| 16>  H       -0.7205807531     1.8730037055     0.8456008418
| 17>  H        0.2412633688    -0.4309126795     0.8496715477
| 18>  H       -1.1050911838    -0.3658003528    -0.2845965315
| 19>  H        0.4974798452    -0.0467771376    -2.1680241270
| 20>  H        2.6102142870    -0.6961257025    -0.4603619294
| 21>  H       -0.5958559498    -4.7680974649    -1.9072722544
| 22> *
| 23>
| 24>                          ****END OF INPUT****

CARTESIAN COORDINATES (ANGSTROEM)
---------------------------------
  C     -0.099590    1.540438    0.008907
  C     -0.095021    0.014849   -0.095649
  C      0.834099   -0.485816   -1.219858
  O      2.172206   -0.065046   -1.043605
  C      0.739331   -1.980013   -1.351145
  N      1.735759   -2.764744   -1.040018
  O      1.224794   -4.050995   -1.255212
  C     -0.027723   -3.878429   -1.677440
  N     -0.401702   -2.642554   -1.760700
  H      0.915272    1.916867    0.159094
  H     -0.496077    1.996858   -0.904847
  H     -0.720581    1.873004    0.845601
  H      0.241263   -0.430913    0.849672
  H     -1.105091   -0.365800   -0.284597
  H      0.497480   -0.046777   -2.168024
  H      2.610214   -0.696126   -0.460362
  H     -0.595856   -4.768097   -1.907272

 Total Charge           Charge          ....    0
 Multiplicity           Mult            ....    1
 Number of Electrons    NEL             ....   68
 Basis Dimension        Dim             ....  327

ORBITAL ENERGIES
----------------

  NO   OCC          E(Eh)            E(eV)
   0   2.0000     -20.671958      -562.5126
   1   2.0000     -20.564015      -559.5753
   2   2.0000     -15.636268      -425.4845
   3   2.0000     -15.589927      -424.2235
   4   2.0000     -11.372911      -309.4726
   5   2.0000     -11.325163      -308.1733
   6   2.0000     -11.305900      -307.6492
   7   2.0000     -11.233956      -305.6915
   8   2.0000     -11.216774      -305.2239
   9   2.0000      -1.534412       -41.7535
  10   2.0000      -1.377022       -37.4707
  11   2.0000      -1.269306       -34.5396
  12   2.0000      -1.174909       -31.9709
  13   2.0000      -1.063516       -28.9397
  14   2.0000      -0.959635       -26.1130
  15   2.0000      -0.882391       -24.0111
  16   2.0000      -0.844453       -22.9787
  17   2.0000      -0.812628       -22.1127
  18   2.0000      -0.760818       -20.7029
  19   2.0000      -0.695303       -18.9201
  20   2.0000      -0.668582       -18.1930
  21   2.0000      -0.658677       -17.9235
  22   2.0000      -0.634145       -17.2560
  23   2.0000      -0.610485       -16.6121
  24   2.0000      -0.577370       -15.7110
  25   2.0000      -0.550341       -14.9755
  26   2.0000      -0.537073       -14.6145
  27   2.0000      -0.529574       -14.4105
  28   2.0000      -0.494684       -13.4610
  29   2.0000      -0.494581       -13.4582
  30   2.0000      -0.485643       -13.2150
  31   2.0000      -0.477048       -12.9811
  32   2.0000      -0.447064       -12.1652
  33   2.0000      -0.415913       -11.3176
  34   0.0000       0.108226         2.9450
  35   0.0000       0.140907         3.8343
  36   0.0000       0.159194         4.3319
  37   0.0000       0.168028         4.5723
  38   0.0000       0.175861         4.7854

MULLIKEN ATOMIC CHARGES
-----------------------
   0 C :   -0.398989
   1 C :   -0.184279
   2 C :    0.064814
   3 O :   -0.465943
   4 C :    0.176484
   5 N :   -0.153933
   6 O :   -0.097760
   7 C :    0.118164
   8 N :   -0.307896
   9 H :    0.146652
  10 H :    0.121231
  11 H :    0.135009
  12 H :    0.100544
  13 H :    0.130897
  14 H :    0.109269
  15 H :    0.329492
  16 H :    0.176242
Sum of atomic charges:    0.0000000

LOEWDIN ATOMIC CHARGES
----------------------
   0 C :   -0.316208
   1 C :   -0.270019
   2 C :   -0.318531
   3 O :    0.003829
   4 C :   -0.335627
   5 N :    0.047294
   6 O :    0.276347
   7 C :   -0.337803
   8 N :    0.117535
   9 H :    0.126572
  10 H :    0.122142
  11 H :    0.122020
  12 H :    0.138183
  13 H :    0.144458
  14 H :    0.159771
  15 H :    0.179820
  16 H :    0.140218

  Mayer bond orders larger than 0.1
B(  0-C ,  1-C ) :   0.9186 B(  0-C ,  9-H ) :   0.9363 B(  0-C , 10-H ) :   0.9373
B(  0-C , 11-H ) :   0.9397 B(  1-C ,  2-C ) :   0.9198 B(  1-C , 12-H ) :   0.9123
B(  1-C , 13-H ) :   0.9252 B(  2-C ,  3-O ) :   0.9817 B(  2-C ,  4-C ) :   0.9263
B(  2-C , 14-H ) :   0.9044 B(  3-O , 15-H ) :   0.8270 B(  4-C ,  5-N ) :   1.6017
B(  4-C ,  8-N ) :   1.1824 B(  5-N ,  6-O ) :   0.8846 B(  6-O ,  7-C ) :   1.1520
B(  7-C ,  8-N ) :   1.6095 B(  7-C , 16-H ) :   0.9155

MP2 TOTAL ENERGY:     -454.410150888 Eh
FINAL SINGLE POINT ENERGY      -454.410150887777

DIPOLE MOMENT
-------------
                                X             Y             Z
Electronic contribution:      3.37423     -11.69074      -3.89014
Nuclear contribution   :     -4.01592      11.17783       4.09183
                        -----------------------------------------
Total Dipole Moment    :     -0.64169      -0.51291       0.20169
                        -----------------------------------------
Magnitude (a.u.)       :      0.84589
Magnitude (Debye)      :      2.15008

                             ****ORCA TERMINATED NORMALLY****
TOTAL RUN TIME: 0 days 0 hours 15 minutes 55 seconds 86 msec
