                         Program Version 3.0.3 - RELEASE   -
|  1> ! RI-MP2 RIJK def2-TZVP def2-TZVP/C def2-TZVP/JK TIGHTSCF
|  2> % maxcore 2000
|  3> % mp2 density relaxed end
|  4> *xyz 0 1
|  5>  C       -0.4144715781     1.4799188757    -0.0120123715
|  6>  C        0.0152724912    -0.0008951236     0.0309239908
|  7>  N        0.7649956678    -0.4195944849    -1.1542762373
|  8>  C        1.9853196884     0.0207418119    -1.6077416100
|  9>  O        2.3159780280    -0.1543708156    -2.7725256288
| 10>  C        2.9327726137     0.6561304295    -0.6593469213
| 11>  C        2.9694722251     0.5772872405     0.6824116907
| 12>  C        2.0169248686    -0.0560488675     1.5818905052
| 13>  C        0.7340251360    -0.3337467211     1.3188167925
| 14>  H        0.4560931458     2.1389388101     0.0250514357
| 15>  H       -0.9698738324     1.6870766294    -0.9319103374
| 16>  H       -1.0582374484     1.7134620463     0.8418522850
| 17>  H       -0.8953785696    -0.6077086369     0.0060506259
| 18>  H        0.2247695922    -0.8329923312    -1.9014149897
| 19>  H        3.7515479435     1.1387277929    -1.1823838482
| 20>  H        3.8361082476     1.0170581486     1.1722815124
| 21>  H        2.3983599839    -0.2925409617     2.5722059898
| 22>  H        0.1310524568    -0.7944401623     2.0965162663
| 23> *
| 24>
| 25>                          ****END OF INPUT****

CARTESIAN COORDINATES (ANGSTROEM)
---------------------------------
  C     -0.414472    1.479919   -0.012012
  C      0.015272   -0.000895    0.030924
  N      0.764996   -0.419594   -1.154276
  C      1.985320    0.020742   -1.607742
  O      2.315978   -0.154371   -2.772526
  C      2.932773    0.656130   -0.659347
  C      2.969472    0.577287    0.682412
  C      2.016925   -0.056049    1.581891
  C      0.734025   -0.333747    1.318817
  H      0.456093    2.138939    0.025051
  H     -0.969874    1.687077   -0.931910
  H     -1.058237    1.713462    0.841852
  H     -0.895379   -0.607709    0.006051
  H      0.224770   -0.832992   -1.901415
  H      3.751548    1.138728   -1.182384
  H      3.836108    1.017058    1.172282
  H      2.398360   -0.292541    2.572206
  H      0.131052   -0.794440    2.096516

 Total Charge           Charge          ....    0
 Multiplicity           Mult            ....    1
 Number of Electrons    NEL             ....   66
 Basis Dimension        Dim             ....  333

ORBITAL ENERGIES
----------------

  NO   OCC          E(Eh)            E(eV)
   0   2.0000     -20.510060      -558.1071
   1   2.0000     -15.578684      -423.9175
   2   2.0000     -11.347349      -308.7771
   3   2.0000     -11.293537      -307.3128
   4   2.0000     -11.263873      -306.5056
   5   2.0000     -11.255816      -306.2863
   6   2.0000     -11.248605      -306.0901
   7   2.0000     -11.244341      -305.9741
   8   2.0000     -11.230318      -305.5925
   9   2.0000      -1.374318       -37.3971
  10   2.0000      -1.233953       -33.5776
  11   2.0000      -1.113153       -30.2904
  12   2.0000      -1.064324       -28.9617
  13   2.0000      -0.995225       -27.0814
  14   2.0000      -0.901901       -24.5420
  15   2.0000      -0.880765       -23.9668
  16   2.0000      -0.765275       -20.8242
  17   2.0000      -0.749654       -20.3991
  18   2.0000      -0.706963       -19.2374
  19   2.0000      -0.656274       -17.8581
  20   2.0000      -0.632787       -17.2190
  21   2.0000      -0.621843       -16.9212
  22   2.0000      -0.605927       -16.4881
  23   2.0000      -0.588674       -16.0186
  24   2.0000      -0.570309       -15.5189
  25   2.0000      -0.547801       -14.9064
  26   2.0000      -0.541116       -14.7245
  27   2.0000      -0.516637       -14.0584
  28   2.0000      -0.494074       -13.4444
  29   2.0000      -0.444273       -12.0893
  30   2.0000      -0.425230       -11.5711
  31   2.0000      -0.388513       -10.5720
  32   2.0000      -0.338423        -9.2090
  33   0.0000       0.068447         1.8625
  34   0.0000       0.122199         3.3252
  35   0.0000       0.152095         4.1387
  36   0.0000       0.156858         4.2683
  37   0.0000       0.171437         4.6650

MULLIKEN ATOMIC CHARGES
-----------------------
   0 C :   -0.383019
   1 C :    0.076117
   2 N :   -0.302207
   3 C :    0.265476
   4 O :   -0.358914
   5 C :   -0.213381
   6 C :   -0.089990
   7 C :   -0.132569
   8 C :   -0.162601
   9 H :    0.148915
  10 H :    0.133051
  11 H :    0.129129
  12 H :    0.107427
  13 H :    0.237992
  14 H :    0.143425
  15 H :    0.134528
  16 H :    0.131517
  17 H :    0.135105
Sum of atomic charges:   -0.0000000

LOEWDIN ATOMIC CHARGES
----------------------
   0 C :   -0.281157
   1 C :   -0.296623
   2 N :    0.139377
   3 C :   -0.447519
   4 O :    0.078611
   5 C :   -0.117346
   6 C :   -0.141836
   7 C :   -0.156559
   8 C :   -0.123159
   9 H :    0.130204
  10 H :    0.124423
  11 H :    0.127051
  12 H :    0.156753
  13 H :    0.192699
  14 H :    0.159815
  15 H :    0.154506
  16 H :    0.153096
  17 H :    0.147664

  Mayer bond orders larger than 0.1
B(  0-C ,  1-C ) :   0.9140 B(  0-C ,  9-H ) :   0.9251 B(  0-C , 10-H ) :   0.9327
B(  0-C , 11-H ) :   0.9282 B(  1-C ,  2-N ) :   0.8868 B(  1-C ,  8-C ) :   0.9124
B(  1-C , 12-H ) :   0.9353 B(  2-N ,  3-C ) :   1.1715 B(  2-N , 13-H ) :   0.8556
B(  3-C ,  4-O ) :   1.9250 B(  3-C ,  5-C ) :   0.9781 B(  5-C ,  6-C ) :   1.6444
B(  5-C , 14-H ) :   0.9288 B(  6-C ,  7-C ) :   0.9948 B(  6-C , 15-H ) :   0.9211
B(  7-C ,  8-C ) :   1.7723 B(  7-C , 16-H ) :   0.9215 B(  8-C , 17-H ) :   0.9201

MP2 TOTAL ENERGY:     -401.286919624 Eh
FINAL SINGLE POINT ENERGY      -401.286919624221

DIPOLE MOMENT
-------------
                                X             Y             Z
Electronic contribution:      4.00621      -2.92501      -3.95219
Nuclear contribution   :     -4.85451       3.12480       5.35486
                        -----------------------------------------
Total Dipole Moment    :     -0.84830       0.19979       1.40266
                        -----------------------------------------
Magnitude (a.u.)       :      1.65136
Magnitude (Debye)      :      4.19742

                             ****ORCA TERMINATED NORMALLY****
TOTAL RUN TIME: 0 days 0 hours 18 minutes 42 seconds 762 msec
