                         Program Version 3.0.3 - RELEASE   -
|  1> ! RI-MP2 RIJK def2-TZVP def2-TZVP/C def2-TZVP/JK TIGHTSCF
|  2> % maxcore 2000
|  3> % mp2 density relaxed end
|  4> *xyz 0 1
|  5>  O       -0.0959239201     1.3763786895     0.0112094119
|  6>  C        0.0039058247     0.0222464982     0.0033041511
|  7>  C        1.1573367140    -0.6710686053    -0.0075294345
|  8>  N        1.1769317168    -2.0614235281    -0.0151279306
|  9>  C        0.0418672703    -2.8400814959    -0.0124720854
| 10>  O        0.0530004353    -4.0538255351    -0.0191401105
| 11>  N       -1.1248491097    -2.0899478927    -0.0013279325
| 12>  C       -1.2789068226    -0.6926115143     0.0073450714
| 13>  N       -2.3917547250    -0.0697542029     0.0176858701
| 14>  H        0.7873902298     1.7601875740     0.0080128816
| 15>  H        2.1283182811    -0.1906834274    -0.0109250068
| 16>  H        2.0474529255    -2.5659953269    -0.0231935178
| 17>  H       -1.9637413116    -2.6522217175     0.0007437132
| 18>  H       -3.1840325785    -0.7142871857     0.0190766590
| 19> *
| 20>
| 21>                          ****END OF INPUT****

CARTESIAN COORDINATES (ANGSTROEM)
---------------------------------
  O     -0.095924    1.376379    0.011209
  C      0.003906    0.022246    0.003304
  C      1.157337   -0.671069   -0.007529
  N      1.176932   -2.061424   -0.015128
  C      0.041867   -2.840081   -0.012472
  O      0.053000   -4.053826   -0.019140
  N     -1.124849   -2.089948   -0.001328
  C     -1.278907   -0.692612    0.007345
  N     -2.391755   -0.069754    0.017686
  H      0.787390    1.760188    0.008013
  H      2.128318   -0.190683   -0.010925
  H      2.047453   -2.565995   -0.023194
  H     -1.963741   -2.652222    0.000744
  H     -3.184033   -0.714287    0.019077

 Total Charge           Charge          ....    0
 Multiplicity           Mult            ....    1
 Number of Electrons    NEL             ....   66
 Basis Dimension        Dim             ....  309

ORBITAL ENERGIES
----------------

  NO   OCC          E(Eh)            E(eV)
   0   2.0000     -20.599755      -560.5478
   1   2.0000     -20.532138      -558.7079
   2   2.0000     -15.623658      -425.1413
   3   2.0000     -15.621516      -425.0831
   4   2.0000     -15.544215      -422.9796
   5   2.0000     -11.405580      -310.3616
   6   2.0000     -11.345536      -308.7277
   7   2.0000     -11.318913      -308.0033
   8   2.0000     -11.307617      -307.6959
   9   2.0000      -1.425298       -38.7843
  10   2.0000      -1.416559       -38.5465
  11   2.0000      -1.308892       -35.6168
  12   2.0000      -1.264208       -34.4008
  13   2.0000      -1.178366       -32.0650
  14   2.0000      -1.056920       -28.7603
  15   2.0000      -0.925172       -25.1752
  16   2.0000      -0.881608       -23.9898
  17   2.0000      -0.808008       -21.9870
  18   2.0000      -0.773487       -21.0476
  19   2.0000      -0.712397       -19.3853
  20   2.0000      -0.691125       -18.8065
  21   2.0000      -0.685121       -18.6431
  22   2.0000      -0.660849       -17.9826
  23   2.0000      -0.641962       -17.4687
  24   2.0000      -0.607054       -16.5188
  25   2.0000      -0.599062       -16.3013
  26   2.0000      -0.561521       -15.2798
  27   2.0000      -0.532100       -14.4792
  28   2.0000      -0.496668       -13.5150
  29   2.0000      -0.476352       -12.9622
  30   2.0000      -0.440389       -11.9836
  31   2.0000      -0.399207       -10.8630
  32   2.0000      -0.326857        -8.8942
  33   0.0000       0.105060         2.8588
  34   0.0000       0.116849         3.1796
  35   0.0000       0.128064         3.4848
  36   0.0000       0.138012         3.7555
  37   0.0000       0.181180         4.9302

MULLIKEN ATOMIC CHARGES
-----------------------
   0 O :   -0.386801
   1 C :    0.185082
   2 C :   -0.066800
   3 N :   -0.282168
   4 C :    0.306724
   5 O :   -0.361909
   6 N :   -0.281723
   7 C :    0.041180
   8 N :   -0.325884
   9 H :    0.323424
  10 H :    0.138665
  11 H :    0.260835
  12 H :    0.248518
  13 H :    0.200859
Sum of atomic charges:   -0.0000000

LOEWDIN ATOMIC CHARGES
----------------------
   0 O :    0.099372
   1 C :   -0.282354
   2 C :   -0.204389
   3 N :    0.150595
   4 C :   -0.523084
   5 O :    0.065617
   6 N :    0.172282
   7 C :   -0.332990
   8 N :   -0.048545
   9 H :    0.192698
  10 H :    0.144713
  11 H :    0.204485
  12 H :    0.203661
  13 H :    0.157939

  Mayer bond orders larger than 0.1
B(  0-O ,  1-C ) :   1.1618 B(  0-O ,  9-H ) :   0.8317 B(  1-C ,  2-C ) :   1.6332
B(  1-C ,  7-C ) :   0.9824 B(  1-C ,  8-N ) :  -0.1258 B(  2-C ,  3-N ) :   1.0004
B(  2-C , 10-H ) :   0.9088 B(  3-N ,  4-C ) :   1.0988 B(  3-N , 11-H ) :   0.8608
B(  4-C ,  5-O ) :   1.9882 B(  4-C ,  6-N ) :   1.0747 B(  6-N ,  7-C ) :   1.0462
B(  6-N , 12-H ) :   0.8563 B(  7-C ,  8-N ) :   2.0984 B(  8-N , 13-H ) :   0.8529

MP2 TOTAL ENERGY:     -469.311303445 Eh
FINAL SINGLE POINT ENERGY      -469.311303445024

DIPOLE MOMENT
-------------
                                X             Y             Z
Electronic contribution:      0.15023      -1.33989      -0.00830
Nuclear contribution   :      1.10111       1.67959       0.00250
                        -----------------------------------------
Total Dipole Moment    :      1.25134       0.33970      -0.00580
                        -----------------------------------------
Magnitude (a.u.)       :      1.29664
Magnitude (Debye)      :      3.29579

                             ****ORCA TERMINATED NORMALLY****
TOTAL RUN TIME: 0 days 0 hours 13 minutes 31 seconds 13 msec
