                         Program Version 3.0.3 - RELEASE   -
|  1> ! RI-MP2 RIJK def2-TZVP def2-TZVP/C def2-TZVP/JK TIGHTSCF
|  2> % maxcore 2000
|  3> % mp2 density relaxed end
|  4> *xyz 0 1
|  5>  N       -0.3166282440    -1.1272698455     0.3514937707
|  6>  C       -0.1864413706     0.0146994686     0.2268897045
|  7>  C       -0.0246094012     1.4354185911     0.0293481291
|  8>  N        0.5911607532     2.1936396042     1.1373961564
|  9>  C        1.3315898918     2.0610678577    -0.1176744919
| 10>  C        2.6025128494     1.2607978804    -0.0810155385
| 11>  C        3.2409803058     0.9362708241    -1.4527815025
| 12>  O        4.3845070400     1.7672161809    -1.1712679749
| 13>  C        3.9009506147     2.0710321224     0.1517923561
| 14>  H       -0.8413770328     1.8936425125    -0.5216733548
| 15>  H        0.1444529140     3.1035846048     1.2140414459
| 16>  H        1.3559554621     2.9262396906    -0.7808915614
| 17>  H        2.4808546751     0.4031686254     0.5813732667
| 18>  H        3.5177351873    -0.1140046648    -1.6011314280
| 19>  H        2.6848300741     1.2838393830    -2.3333176879
| 20>  H        3.7701365614     3.1499167369     0.3070224592
| 21>  H        4.5609457896     1.6784105677     0.9343580512
| 22> *
| 23>
| 24>                          ****END OF INPUT****

CARTESIAN COORDINATES (ANGSTROEM)
---------------------------------
  N     -0.316628   -1.127270    0.351494
  C     -0.186441    0.014699    0.226890
  C     -0.024609    1.435419    0.029348
  N      0.591161    2.193640    1.137396
  C      1.331590    2.061068   -0.117674
  C      2.602513    1.260798   -0.081016
  C      3.240980    0.936271   -1.452782
  O      4.384507    1.767216   -1.171268
  C      3.900951    2.071032    0.151792
  H     -0.841377    1.893643   -0.521673
  H      0.144453    3.103585    1.214041
  H      1.355955    2.926240   -0.780892
  H      2.480855    0.403169    0.581373
  H      3.517735   -0.114005   -1.601131
  H      2.684830    1.283839   -2.333318
  H      3.770137    3.149917    0.307022
  H      4.560946    1.678411    0.934358

 Total Charge           Charge          ....    0
 Multiplicity           Mult            ....    1
 Number of Electrons    NEL             ....   66
 Basis Dimension        Dim             ....  327

ORBITAL ENERGIES
----------------

  NO   OCC          E(Eh)            E(eV)
   0   2.0000     -20.557682      -559.4030
   1   2.0000     -15.603493      -424.5926
   2   2.0000     -15.579652      -423.9439
   3   2.0000     -11.324742      -308.1619
   4   2.0000     -11.306714      -307.6713
   5   2.0000     -11.290866      -307.2401
   6   2.0000     -11.290676      -307.2349
   7   2.0000     -11.282167      -307.0034
   8   2.0000     -11.254237      -306.2433
   9   2.0000      -1.388759       -37.7900
  10   2.0000      -1.313117       -35.7317
  11   2.0000      -1.222567       -33.2677
  12   2.0000      -1.054265       -28.6880
  13   2.0000      -0.974091       -26.5064
  14   2.0000      -0.945399       -25.7256
  15   2.0000      -0.889223       -24.1970
  16   2.0000      -0.791310       -21.5326
  17   2.0000      -0.750332       -20.4176
  18   2.0000      -0.722218       -19.6525
  19   2.0000      -0.683835       -18.6081
  20   2.0000      -0.656432       -17.8624
  21   2.0000      -0.617048       -16.7907
  22   2.0000      -0.578731       -15.7481
  23   2.0000      -0.573369       -15.6022
  24   2.0000      -0.560111       -15.2414
  25   2.0000      -0.558874       -15.2077
  26   2.0000      -0.537194       -14.6178
  27   2.0000      -0.483810       -13.1651
  28   2.0000      -0.479770       -13.0552
  29   2.0000      -0.470109       -12.7923
  30   2.0000      -0.457800       -12.4574
  31   2.0000      -0.428235       -11.6529
  32   2.0000      -0.417974       -11.3736
  33   0.0000       0.107175         2.9164
  34   0.0000       0.137540         3.7427
  35   0.0000       0.148093         4.0298
  36   0.0000       0.155419         4.2292
  37   0.0000       0.165521         4.5041

MULLIKEN ATOMIC CHARGES
-----------------------
   0 N :   -0.054375
   1 C :   -0.191277
   2 C :    0.047979
   3 N :   -0.365339
   4 C :   -0.086611
   5 C :   -0.066611
   6 C :   -0.035061
   7 O :   -0.327743
   8 C :   -0.023051
   9 H :    0.164116
  10 H :    0.232860
  11 H :    0.150674
  12 H :    0.148520
  13 H :    0.109090
  14 H :    0.096987
  15 H :    0.094721
  16 H :    0.105122
Sum of atomic charges:    0.0000000

LOEWDIN ATOMIC CHARGES
----------------------
   0 N :    0.073716
   1 C :   -0.172299
   2 C :   -0.241565
   3 N :    0.038697
   4 C :   -0.227365
   5 C :   -0.218755
   6 C :   -0.243805
   7 O :    0.110622
   8 C :   -0.242867
   9 H :    0.160369
  10 H :    0.174470
  11 H :    0.149598
  12 H :    0.160369
  13 H :    0.121445
  14 H :    0.118539
  15 H :    0.118531
  16 H :    0.120301

  Mayer bond orders larger than 0.1
B(  0-N ,  1-C ) :   2.8413 B(  1-C ,  2-C ) :   0.9471 B(  2-C ,  3-N ) :   0.9458
B(  2-C ,  4-C ) :   0.8776 B(  2-C ,  9-H ) :   0.9071 B(  3-N ,  4-C ) :   0.8767
B(  3-N , 10-H ) :   0.8626 B(  4-C ,  5-C ) :   0.9215 B(  4-C , 11-H ) :   0.9166
B(  5-C ,  6-C ) :   0.9455 B(  5-C ,  8-C ) :   0.9442 B(  5-C , 12-H ) :   0.9130
B(  6-C ,  7-O ) :   0.9563 B(  6-C , 13-H ) :   0.9137 B(  6-C , 14-H ) :   0.9062
B(  7-O ,  8-C ) :   0.9591 B(  8-C , 15-H ) :   0.9080 B(  8-C , 16-H ) :   0.9134

MP2 TOTAL ENERGY:     -417.254784719 Eh
FINAL SINGLE POINT ENERGY      -417.254784719091

DIPOLE MOMENT
-------------
                                X             Y             Z
Electronic contribution:     -3.55710      -2.77766       0.89830
Nuclear contribution   :      3.16083       4.30542      -1.16109
                        -----------------------------------------
Total Dipole Moment    :     -0.39626       1.52776      -0.26279
                        -----------------------------------------
Magnitude (a.u.)       :      1.60004
Magnitude (Debye)      :      4.06698

                             ****ORCA TERMINATED NORMALLY****
TOTAL RUN TIME: 0 days 0 hours 15 minutes 26 seconds 497 msec
