                         Program Version 3.0.3 - RELEASE   -
|  1> ! RI-MP2 RIJK def2-TZVP def2-TZVP/C def2-TZVP/JK TIGHTSCF
|  2> % maxcore 2000
|  3> % mp2 density relaxed end
|  4> *xyz 0 1
|  5>  C        0.0571452423     1.6530239188    -0.0289866449
|  6>  C        0.0999362135     0.1277153814    -0.0045751782
|  7>  C        0.7638410932    -0.5536615854    -1.2139918032
|  8>  C        1.4048939119    -1.8403821769    -0.6194876275
|  9>  N        1.6456026482    -1.4721897772     0.7540009193
| 10>  C        0.8762838345    -0.4223163309     1.2021807017
| 11>  O        0.8219634416    -0.0195557517     2.3407530387
| 12>  C        0.5018333876    -3.0585130437    -0.7737055673
| 13>  O        0.0417395247    -3.6854889086     0.1427590574
| 14>  H        1.0551452991     2.0704458482    -0.2005824510
| 15>  H       -0.6062665492     2.0211378258    -0.8171630321
| 16>  H       -0.3006857737     2.0253107650     0.9342292900
| 17>  H       -0.9229240057    -0.2549562857     0.1170696382
| 18>  H        0.0691692696    -0.7786014297    -2.0276580013
| 19>  H        1.5536037596     0.0846889615    -1.6206951688
| 20>  H        2.3376896144    -2.0786651425    -1.1516197023
| 21>  H        2.0080111542    -2.1342654602     1.4232919192
| 22>  H        0.3042177343    -3.3393378682    -1.8347379179
| 23> *
| 24>
| 25>                          ****END OF INPUT****

CARTESIAN COORDINATES (ANGSTROEM)
---------------------------------
  C      0.057145    1.653024   -0.028987
  C      0.099936    0.127715   -0.004575
  C      0.763841   -0.553662   -1.213992
  C      1.404894   -1.840382   -0.619488
  N      1.645603   -1.472190    0.754001
  C      0.876284   -0.422316    1.202181
  O      0.821963   -0.019556    2.340753
  C      0.501833   -3.058513   -0.773706
  O      0.041740   -3.685489    0.142759
  H      1.055145    2.070446   -0.200582
  H     -0.606267    2.021138   -0.817163
  H     -0.300686    2.025311    0.934229
  H     -0.922924   -0.254956    0.117070
  H      0.069169   -0.778601   -2.027658
  H      1.553604    0.084689   -1.620695
  H      2.337690   -2.078665   -1.151620
  H      2.008011   -2.134265    1.423292
  H      0.304218   -3.339338   -1.834738

 Total Charge           Charge          ....    0
 Multiplicity           Mult            ....    1
 Number of Electrons    NEL             ....   68
 Basis Dimension        Dim             ....  333

ORBITAL ENERGIES
----------------

  NO   OCC          E(Eh)            E(eV)
   0   2.0000     -20.577014      -559.9290
   1   2.0000     -20.521804      -558.4267
   2   2.0000     -15.588662      -424.1891
   3   2.0000     -11.349156      -308.8262
   4   2.0000     -11.348002      -308.7948
   5   2.0000     -11.302771      -307.5640
   6   2.0000     -11.261455      -306.4398
   7   2.0000     -11.255236      -306.2705
   8   2.0000     -11.228201      -305.5349
   9   2.0000      -1.417343       -38.5679
  10   2.0000      -1.386229       -37.7212
  11   2.0000      -1.261663       -34.3316
  12   2.0000      -1.092311       -29.7233
  13   2.0000      -1.030518       -28.0418
  14   2.0000      -0.936670       -25.4881
  15   2.0000      -0.867910       -23.6170
  16   2.0000      -0.812085       -22.0980
  17   2.0000      -0.777032       -21.1441
  18   2.0000      -0.705905       -19.2086
  19   2.0000      -0.698761       -19.0143
  20   2.0000      -0.672012       -18.2864
  21   2.0000      -0.635024       -17.2799
  22   2.0000      -0.631398       -17.1812
  23   2.0000      -0.599993       -16.3266
  24   2.0000      -0.574062       -15.6210
  25   2.0000      -0.570469       -15.5233
  26   2.0000      -0.558409       -15.1951
  27   2.0000      -0.537334       -14.6216
  28   2.0000      -0.533235       -14.5101
  29   2.0000      -0.499880       -13.6024
  30   2.0000      -0.485244       -13.2042
  31   2.0000      -0.451700       -12.2914
  32   2.0000      -0.417715       -11.3666
  33   2.0000      -0.398611       -10.8468
  34   0.0000       0.106447         2.8966
  35   0.0000       0.130696         3.5564
  36   0.0000       0.139604         3.7988
  37   0.0000       0.154811         4.2126
  38   0.0000       0.157084         4.2745

MULLIKEN ATOMIC CHARGES
-----------------------
   0 C :   -0.407416
   1 C :   -0.027149
   2 C :   -0.312199
   3 C :    0.136926
   4 N :   -0.306778
   5 C :    0.177538
   6 O :   -0.328498
   7 C :    0.041747
   8 O :   -0.251072
   9 H :    0.125487
  10 H :    0.134160
  11 H :    0.161332
  12 H :    0.119829
  13 H :    0.143014
  14 H :    0.133664
  15 H :    0.131181
  16 H :    0.246686
  17 H :    0.081545
Sum of atomic charges:    0.0000000

LOEWDIN ATOMIC CHARGES
----------------------
   0 C :   -0.283310
   1 C :   -0.237716
   2 C :   -0.195489
   3 C :   -0.281296
   4 N :    0.147542
   5 C :   -0.419538
   6 O :    0.100667
   7 C :   -0.281020
   8 O :    0.145706
   9 H :    0.126295
  10 H :    0.123933
  11 H :    0.136029
  12 H :    0.169174
  13 H :    0.140946
  14 H :    0.145836
  15 H :    0.157722
  16 H :    0.190035
  17 H :    0.114483

  Mayer bond orders larger than 0.1
B(  0-C ,  1-C ) :   0.9216 B(  0-C ,  9-H ) :   0.9311 B(  0-C , 10-H ) :   0.9386
B(  0-C , 11-H ) :   0.9331 B(  1-C ,  2-C ) :   0.9196 B(  1-C ,  5-C ) :   0.8905
B(  1-C , 12-H ) :   0.9074 B(  2-C ,  3-C ) :   0.8816 B(  2-C , 13-H ) :   0.9312
B(  2-C , 14-H ) :   0.9159 B(  3-C ,  4-N ) :   0.8941 B(  3-C ,  7-C ) :   0.8511
B(  3-C , 15-H ) :   0.9052 B(  4-N ,  5-C ) :   1.1568 B(  4-N , 16-H ) :   0.8585
B(  5-C ,  6-O ) :   2.0127 B(  7-C ,  8-O ) :   2.0262 B(  7-C , 17-H ) :   0.9375

MP2 TOTAL ENERGY:     -438.422927939 Eh
FINAL SINGLE POINT ENERGY      -438.422927939110

DIPOLE MOMENT
-------------
                                X             Y             Z
Electronic contribution:      1.03589      -6.51997       4.86100
Nuclear contribution   :     -0.61501       6.46788      -6.67055
                        -----------------------------------------
Total Dipole Moment    :      0.42087      -0.05209      -1.80955
                        -----------------------------------------
Magnitude (a.u.)       :      1.85858
Magnitude (Debye)      :      4.72414

                             ****ORCA TERMINATED NORMALLY****
TOTAL RUN TIME: 0 days 0 hours 17 minutes 15 seconds 113 msec
