                         Program Version 3.0.3 - RELEASE   -
|  1> ! RI-MP2 RIJK def2-TZVP def2-TZVP/C def2-TZVP/JK TIGHTSCF
|  2> % maxcore 2000
|  3> % mp2 density relaxed end
|  4> *xyz 0 1
|  5>  C       -0.0883131211     1.4485473314     0.0098300652
|  6>  O       -0.0411880494     0.0408277692     0.1444537750
|  7>  C       -1.2892831030    -0.6026059696     0.0343371390
|  8>  C       -1.6976022660    -0.8507042942    -1.4158157426
|  9>  O       -2.8943966545    -1.6243070367    -1.4667529974
| 10>  C       -3.0135063946    -2.7267222771    -0.6932488561
| 11>  N       -3.8540796370    -3.6084859812    -1.0198883984
| 12>  O       -2.2896288164    -2.7912602887     0.4598510459
| 13>  C       -1.1405049304    -1.9699235865     0.6829275131
| 14>  H        0.9266731873     1.8159244094     0.1750279487
| 15>  H       -0.4164275574     1.7644934560    -0.9900606016
| 16>  H       -0.7579471336     1.9007480703     0.7558995354
| 17>  H       -2.0800333413    -0.0298236650     0.5428849595
| 18>  H       -1.9261221398     0.0711486906    -1.9540095789
| 19>  H       -0.8810439594    -1.3663742874    -1.9398371167
| 20>  H       -3.8706966241    -4.3392396074    -0.3115399295
| 21>  H       -0.2471335542    -2.4603436859     0.2744695657
| 22>  H       -1.0274543452    -1.8924885273     1.7660776937
| 23> *
| 24>
| 25>                          ****END OF INPUT****

CARTESIAN COORDINATES (ANGSTROEM)
---------------------------------
  C     -0.088313    1.448547    0.009830
  O     -0.041188    0.040828    0.144454
  C     -1.289283   -0.602606    0.034337
  C     -1.697602   -0.850704   -1.415816
  O     -2.894397   -1.624307   -1.466753
  C     -3.013506   -2.726722   -0.693249
  N     -3.854080   -3.608486   -1.019888
  O     -2.289629   -2.791260    0.459851
  C     -1.140505   -1.969924    0.682928
  H      0.926673    1.815924    0.175028
  H     -0.416428    1.764493   -0.990061
  H     -0.757947    1.900748    0.755900
  H     -2.080033   -0.029824    0.542885
  H     -1.926122    0.071149   -1.954010
  H     -0.881044   -1.366374   -1.939837
  H     -3.870697   -4.339240   -0.311540
  H     -0.247134   -2.460344    0.274470
  H     -1.027454   -1.892489    1.766078

 Total Charge           Charge          ....    0
 Multiplicity           Mult            ....    1
 Number of Electrons    NEL             ....   70
 Basis Dimension        Dim             ....  333

ORBITAL ENERGIES
----------------

  NO   OCC          E(Eh)            E(eV)
   0   2.0000     -20.606472      -560.7306
   1   2.0000     -20.603083      -560.6384
   2   2.0000     -20.586011      -560.1738
   3   2.0000     -15.519241      -422.3000
   4   2.0000     -11.390984      -309.9644
   5   2.0000     -11.309051      -307.7349
   6   2.0000     -11.306982      -307.6786
   7   2.0000     -11.306277      -307.6594
   8   2.0000     -11.294241      -307.3319
   9   2.0000      -1.477094       -40.1938
  10   2.0000      -1.406441       -38.2712
  11   2.0000      -1.392348       -37.8877
  12   2.0000      -1.194400       -32.5013
  13   2.0000      -1.070959       -29.1423
  14   2.0000      -0.970219       -26.4010
  15   2.0000      -0.944420       -25.6990
  16   2.0000      -0.875684       -23.8286
  17   2.0000      -0.786103       -21.3910
  18   2.0000      -0.743359       -20.2278
  19   2.0000      -0.714505       -19.4427
  20   2.0000      -0.692281       -18.8379
  21   2.0000      -0.674556       -18.3556
  22   2.0000      -0.659835       -17.9550
  23   2.0000      -0.643158       -17.5012
  24   2.0000      -0.626442       -17.0464
  25   2.0000      -0.604155       -16.4399
  26   2.0000      -0.598656       -16.2903
  27   2.0000      -0.581218       -15.8158
  28   2.0000      -0.521284       -14.1849
  29   2.0000      -0.518674       -14.1138
  30   2.0000      -0.495543       -13.4844
  31   2.0000      -0.486840       -13.2476
  32   2.0000      -0.441023       -12.0008
  33   2.0000      -0.437010       -11.8916
  34   2.0000      -0.386080       -10.5058
  35   0.0000       0.126773         3.4497
  36   0.0000       0.145258         3.9527
  37   0.0000       0.161248         4.3878
  38   0.0000       0.168941         4.5971
  39   0.0000       0.183177         4.9845

MULLIKEN ATOMIC CHARGES
-----------------------
   0 C :   -0.227508
   1 O :   -0.306398
   2 C :    0.026126
   3 C :   -0.056363
   4 O :   -0.235768
   5 C :    0.263618
   6 N :   -0.382354
   7 O :   -0.270688
   8 C :   -0.025629
   9 H :    0.149231
  10 H :    0.118896
  11 H :    0.123667
  12 H :    0.086242
  13 H :    0.134605
  14 H :    0.118278
  15 H :    0.227742
  16 H :    0.120054
  17 H :    0.136249
Sum of atomic charges:   -0.0000000

LOEWDIN ATOMIC CHARGES
----------------------
   0 C :   -0.345096
   1 O :    0.166408
   2 C :   -0.349502
   3 C :   -0.266414
   4 O :    0.262636
   5 C :   -0.546508
   6 N :   -0.076413
   7 O :    0.234441
   8 C :   -0.259646
   9 H :    0.117520
  10 H :    0.103763
  11 H :    0.105869
  12 H :    0.142564
  13 H :    0.134589
  14 H :    0.133622
  15 H :    0.170818
  16 H :    0.134655
  17 H :    0.136694

  Mayer bond orders larger than 0.1
B(  0-C ,  1-O ) :   0.9008 B(  0-C ,  9-H ) :   0.9394 B(  0-C , 10-H ) :   0.9343
B(  0-C , 11-H ) :   0.9364 B(  1-O ,  2-C ) :   0.9656 B(  2-C ,  3-C ) :   0.9183
B(  2-C ,  8-C ) :   0.9227 B(  2-C , 12-H ) :   0.9301 B(  3-C ,  4-O ) :   0.8824
B(  3-C , 13-H ) :   0.9237 B(  3-C , 14-H ) :   0.9209 B(  4-O ,  5-C ) :   1.0803
B(  5-C ,  6-N ) :   2.0006 B(  5-C ,  7-O ) :   1.0755 B(  6-N , 15-H ) :   0.8517
B(  7-O ,  8-C ) :   0.8781 B(  8-C , 16-H ) :   0.9220 B(  8-C , 17-H ) :   0.9271

MP2 TOTAL ENERGY:     -475.462717239 Eh
FINAL SINGLE POINT ENERGY      -475.462717239491

DIPOLE MOMENT
-------------
                                X             Y             Z
Electronic contribution:     -4.27639      -6.18951      -0.74940
Nuclear contribution   :      5.46343       7.42076       1.40837
                        -----------------------------------------
Total Dipole Moment    :      1.18703       1.23125       0.65896
                        -----------------------------------------
Magnitude (a.u.)       :      1.83282
Magnitude (Debye)      :      4.65867

                             ****ORCA TERMINATED NORMALLY****
TOTAL RUN TIME: 0 days 0 hours 24 minutes 47 seconds 678 msec
