                         Program Version 3.0.3 - RELEASE   -
|  1> ! RI-MP2 RIJK def2-TZVP def2-TZVP/C def2-TZVP/JK TIGHTSCF
|  2> % maxcore 2000
|  3> % mp2 density relaxed end
|  4> *xyz 0 1
|  5>  C       -0.0348663059     1.4805120941     0.0792151750
|  6>  C        0.0032275207    -0.0213223721     0.0379713820
|  7>  C       -1.2230909316    -0.8917053133     0.2955444340
|  8>  C       -0.6749873369    -2.3426398131     0.4741368018
|  9>  C       -0.0821437871    -2.2898252252    -0.9030015306
| 10>  C        0.8344405064    -2.2091535407     0.3118651934
| 11>  C        1.2103100872    -0.7750042785     0.5286846509
| 12>  O        2.2272058395    -0.3152745255     0.9840671471
| 13>  C       -0.6289449295    -0.8387606173    -1.0844967390
| 14>  H        0.7809774505     1.9043862622    -0.5144210407
| 15>  H       -0.9798764397     1.8678685731    -0.3132533127
| 16>  H        0.0827731942     1.8422305514     1.1053722372
| 17>  H       -2.1596207529    -0.4973923878     0.6654058404
| 18>  H       -1.1462970258    -3.1598860382     1.0016638817
| 19>  H       -0.0008187738    -3.0578397913    -1.6592083317
| 20>  H        1.5007869469    -3.0207139862     0.5675900739
| 21>  H       -1.0155713520    -0.3954378016    -1.9918847529
| 22> *
| 23>
| 24>                          ****END OF INPUT****

CARTESIAN COORDINATES (ANGSTROEM)
---------------------------------
  C     -0.034866    1.480512    0.079215
  C      0.003228   -0.021322    0.037971
  C     -1.223091   -0.891705    0.295544
  C     -0.674987   -2.342640    0.474137
  C     -0.082144   -2.289825   -0.903002
  C      0.834441   -2.209154    0.311865
  C      1.210310   -0.775004    0.528685
  O      2.227206   -0.315275    0.984067
  C     -0.628945   -0.838761   -1.084497
  H      0.780977    1.904386   -0.514421
  H     -0.979876    1.867869   -0.313253
  H      0.082773    1.842231    1.105372
  H     -2.159621   -0.497392    0.665406
  H     -1.146297   -3.159886    1.001664
  H     -0.000819   -3.057840   -1.659208
  H      1.500787   -3.020714    0.567590
  H     -1.015571   -0.395438   -1.991885

 Total Charge           Charge          ....    0
 Multiplicity           Mult            ....    1
 Number of Electrons    NEL             ....   64
 Basis Dimension        Dim             ....  327

ORBITAL ENERGIES
----------------

  NO   OCC          E(Eh)            E(eV)
   0   2.0000     -20.539118      -558.8978
   1   2.0000     -11.324008      -308.1419
   2   2.0000     -11.257434      -306.3304
   3   2.0000     -11.256714      -306.3108
   4   2.0000     -11.254334      -306.2460
   5   2.0000     -11.253590      -306.2257
   6   2.0000     -11.250546      -306.1429
   7   2.0000     -11.246306      -306.0275
   8   2.0000     -11.225927      -305.4730
   9   2.0000      -1.383514       -37.6473
  10   2.0000      -1.263618       -34.3848
  11   2.0000      -1.089956       -29.6592
  12   2.0000      -0.985088       -26.8056
  13   2.0000      -0.928884       -25.2762
  14   2.0000      -0.887990       -24.1634
  15   2.0000      -0.792771       -21.5724
  16   2.0000      -0.740539       -20.1511
  17   2.0000      -0.727491       -19.7960
  18   2.0000      -0.713493       -19.4151
  19   2.0000      -0.632674       -17.2159
  20   2.0000      -0.627782       -17.0828
  21   2.0000      -0.598763       -16.2932
  22   2.0000      -0.590048       -16.0560
  23   2.0000      -0.555717       -15.1218
  24   2.0000      -0.549164       -14.9435
  25   2.0000      -0.535795       -14.5797
  26   2.0000      -0.498908       -13.5760
  27   2.0000      -0.485508       -13.2113
  28   2.0000      -0.429698       -11.6927
  29   2.0000      -0.427274       -11.6267
  30   2.0000      -0.397088       -10.8053
  31   2.0000      -0.348305        -9.4779
  32   0.0000       0.142760         3.8847
  33   0.0000       0.143169         3.8958
  34   0.0000       0.153655         4.1812
  35   0.0000       0.166493         4.5305
  36   0.0000       0.174839         4.7576

MULLIKEN ATOMIC CHARGES
-----------------------
   0 C :   -0.421649
   1 C :    0.092940
   2 C :   -0.162779
   3 C :   -0.120018
   4 C :   -0.120013
   5 C :   -0.165178
   6 C :    0.171572
   7 O :   -0.277807
   8 C :   -0.162818
   9 H :    0.144719
  10 H :    0.135723
  11 H :    0.144697
  12 H :    0.147584
  13 H :    0.149519
  14 H :    0.149518
  15 H :    0.146407
  16 H :    0.147583
Sum of atomic charges:    0.0000000

LOEWDIN ATOMIC CHARGES
----------------------
   0 C :   -0.256223
   1 C :   -0.185371
   2 C :   -0.104323
   3 C :   -0.118540
   4 C :   -0.118540
   5 C :   -0.127742
   6 C :   -0.262461
   7 O :    0.154715
   8 C :   -0.104324
   9 H :    0.135235
  10 H :    0.130932
  11 H :    0.135226
  12 H :    0.142617
  13 H :    0.140752
  14 H :    0.140752
  15 H :    0.154680
  16 H :    0.142616

  Mayer bond orders larger than 0.1
B(  0-C ,  1-C ) :   0.8758 B(  0-C ,  9-H ) :   0.9336 B(  0-C , 10-H ) :   0.9440
B(  0-C , 11-H ) :   0.9336 B(  1-C ,  2-C ) :   0.8367 B(  1-C ,  5-C ) :  -0.1211
B(  1-C ,  6-C ) :   0.8991 B(  1-C ,  8-C ) :   0.8367 B(  2-C ,  3-C ) :   0.8862
B(  2-C ,  8-C ) :   0.9096 B(  2-C , 12-H ) :   0.9233 B(  3-C ,  4-C ) :   0.8752
B(  3-C ,  5-C ) :   0.8352 B(  3-C , 13-H ) :   0.9230 B(  4-C ,  5-C ) :   0.8352
B(  4-C ,  8-C ) :   0.8862 B(  4-C , 14-H ) :   0.9230 B(  5-C ,  6-C ) :   0.9679
B(  5-C , 15-H ) :   0.9298 B(  6-C ,  7-O ) :   2.0488 B(  8-C , 16-H ) :   0.9233

MP2 TOTAL ENERGY:     -383.981775443 Eh
FINAL SINGLE POINT ENERGY      -383.981775443037

DIPOLE MOMENT
-------------
                                X             Y             Z
Electronic contribution:      3.20158      -2.70983       1.27424
Nuclear contribution   :     -4.31992       2.28830      -1.77183
                        -----------------------------------------
Total Dipole Moment    :     -1.11834      -0.42153      -0.49760
                        -----------------------------------------
Magnitude (a.u.)       :      1.29460
Magnitude (Debye)      :      3.29061

                             ****ORCA TERMINATED NORMALLY****
TOTAL RUN TIME: 0 days 0 hours 18 minutes 24 seconds 283 msec
