                         Program Version 3.0.3 - RELEASE   -
|  1> ! RI-MP2 RIJK def2-TZVP def2-TZVP/C def2-TZVP/JK TIGHTSCF
|  2> % maxcore 2000
|  3> % mp2 density relaxed end
|  4> *xyz 0 1
|  5>  C       -0.9497441927     1.0183093278    -0.5003546173
|  6>  C       -0.1833940452    -0.2315930714    -0.2256664569
|  7>  C        0.4639896627    -1.1914898371    -0.9836504207
|  8>  N        0.6383383485    -1.3797180630    -2.3591584930
|  9>  C       -0.1380570732    -0.9431880631    -3.3905837638
| 10>  O       -1.1066323211    -0.2188380532    -3.3063382193
| 11>  N        1.0688231520    -2.0943670137    -0.1618018758
| 12>  N        0.8362471694    -1.7666535424     1.0758917804
| 13>  N        0.0850218211    -0.6587429256     1.0404777114
| 14>  H       -0.3043365720     1.9022130728    -0.4307312461
| 15>  H       -1.3690999759     0.9761593673    -1.5045862141
| 16>  H       -1.7630406444     1.1435991828     0.2223445037
| 17>  H        1.3519161757    -2.0618416207    -2.5755185727
| 18>  H        0.2377115125    -1.3323122424    -4.3554902189
| 19>  H       -0.2185566975    -0.2407908382     1.9063524131
| 20> *
| 21>
| 22>                          ****END OF INPUT****

CARTESIAN COORDINATES (ANGSTROEM)
---------------------------------
  C     -0.949744    1.018309   -0.500355
  C     -0.183394   -0.231593   -0.225666
  C      0.463990   -1.191490   -0.983650
  N      0.638338   -1.379718   -2.359158
  C     -0.138057   -0.943188   -3.390584
  O     -1.106632   -0.218838   -3.306338
  N      1.068823   -2.094367   -0.161802
  N      0.836247   -1.766654    1.075892
  N      0.085022   -0.658743    1.040478
  H     -0.304337    1.902213   -0.430731
  H     -1.369100    0.976159   -1.504586
  H     -1.763041    1.143599    0.222345
  H      1.351916   -2.061842   -2.575519
  H      0.237712   -1.332312   -4.355490
  H     -0.218557   -0.240791    1.906352

 Total Charge           Charge          ....    0
 Multiplicity           Mult            ....    1
 Number of Electrons    NEL             ....   66
 Basis Dimension        Dim             ....  315

ORBITAL ENERGIES
----------------

  NO   OCC          E(Eh)            E(eV)
   0   2.0000     -20.540782      -558.9431
   1   2.0000     -15.659458      -426.1155
   2   2.0000     -15.645547      -425.7370
   3   2.0000     -15.616150      -424.9370
   4   2.0000     -15.601275      -424.5323
   5   2.0000     -11.368119      -309.3423
   6   2.0000     -11.303408      -307.5814
   7   2.0000     -11.294586      -307.3413
   8   2.0000     -11.240333      -305.8650
   9   2.0000      -1.446086       -39.3500
  10   2.0000      -1.401165       -38.1276
  11   2.0000      -1.270864       -34.5820
  12   2.0000      -1.203626       -32.7523
  13   2.0000      -1.095770       -29.8174
  14   2.0000      -0.981790       -26.7159
  15   2.0000      -0.899434       -24.4749
  16   2.0000      -0.873077       -23.7576
  17   2.0000      -0.785699       -21.3800
  18   2.0000      -0.769855       -20.9488
  19   2.0000      -0.714262       -19.4361
  20   2.0000      -0.678591       -18.4654
  21   2.0000      -0.661929       -18.0120
  22   2.0000      -0.619608       -16.8604
  23   2.0000      -0.602340       -16.3905
  24   2.0000      -0.590839       -16.0775
  25   2.0000      -0.575448       -15.6587
  26   2.0000      -0.564588       -15.3632
  27   2.0000      -0.524454       -14.2711
  28   2.0000      -0.477761       -13.0005
  29   2.0000      -0.453306       -12.3351
  30   2.0000      -0.443760       -12.0753
  31   2.0000      -0.410752       -11.1771
  32   2.0000      -0.328260        -8.9324
  33   0.0000       0.123212         3.3528
  34   0.0000       0.132025         3.5926
  35   0.0000       0.136625         3.7178
  36   0.0000       0.149078         4.0566
  37   0.0000       0.162267         4.4155

MULLIKEN ATOMIC CHARGES
-----------------------
   0 C :   -0.408580
   1 C :   -0.029194
   2 C :    0.172383
   3 N :   -0.304334
   4 C :    0.211141
   5 O :   -0.370844
   6 N :   -0.158007
   7 N :   -0.151114
   8 N :   -0.065758
   9 H :    0.150265
  10 H :    0.202340
  11 H :    0.134565
  12 H :    0.259693
  13 H :    0.093604
  14 H :    0.263840
Sum of atomic charges:    0.0000000

LOEWDIN ATOMIC CHARGES
----------------------
   0 C :   -0.276169
   1 C :   -0.238053
   2 C :   -0.310178
   3 N :    0.141485
   4 C :   -0.417172
   5 O :    0.068208
   6 N :    0.010435
   7 N :   -0.053363
   8 N :    0.141722
   9 H :    0.135201
  10 H :    0.147108
  11 H :    0.132274
  12 H :    0.206998
  13 H :    0.116813
  14 H :    0.194691

  Mayer bond orders larger than 0.1
B(  0-C ,  1-C ) :   0.8503 B(  0-C ,  9-H ) :   0.9268 B(  0-C , 10-H ) :   0.9268
B(  0-C , 11-H ) :   0.9311 B(  1-C ,  2-C ) :   1.4347 B(  1-C ,  7-N ) :   0.1299
B(  1-C ,  8-N ) :   1.1973 B(  2-C ,  3-N ) :   0.9584 B(  2-C ,  6-N ) :   1.3896
B(  3-N ,  4-C ) :   1.1220 B(  3-N , 12-H ) :   0.8529 B(  4-C ,  5-O ) :   1.8546
B(  4-C , 13-H ) :   0.9276 B(  6-N ,  7-N ) :   1.2954 B(  7-N ,  8-N ) :   1.0708
B(  8-N , 14-H ) :   0.8596

MP2 TOTAL ENERGY:     -449.421000957 Eh
FINAL SINGLE POINT ENERGY      -449.421000957061

DIPOLE MOMENT
-------------
                                X             Y             Z
Electronic contribution:      2.27818      -4.15441       0.85142
Nuclear contribution   :     -2.26909       4.90681      -0.68401
                        -----------------------------------------
Total Dipole Moment    :      0.00909       0.75240       0.16741
                        -----------------------------------------
Magnitude (a.u.)       :      0.77086
Magnitude (Debye)      :      1.95936

                             ****ORCA TERMINATED NORMALLY****
TOTAL RUN TIME: 0 days 0 hours 14 minutes 37 seconds 455 msec
