                         Program Version 3.0.3 - RELEASE   -
|  1> ! RI-MP2 RIJK def2-TZVP def2-TZVP/C def2-TZVP/JK TIGHTSCF
|  2> % maxcore 2000
|  3> % mp2 density relaxed end
|  4> *xyz 0 1
|  5>  C       -0.2805832316     1.4364934666     0.1358053004
|  6>  C        0.0487554634    -0.0333379892     0.0117799058
|  7>  C       -0.3535314564    -0.9875678802     1.1305215582
|  8>  C        1.1014806492    -0.7133575578     0.8494308853
|  9>  O        1.8301724642    -1.6504014703     0.1002816633
| 10>  C        1.3078081702    -1.7171657228    -1.2206454346
| 11>  C        0.2591464846    -2.8250764058    -1.5304956446
| 12>  C       -0.7893385587    -1.7240708098    -1.8738379029
| 13>  C        0.2051974763    -0.6270947474    -1.3868206753
| 14>  H        0.4153505661     2.0506339471    -0.4475303412
| 15>  H       -1.2942720205     1.6499719991    -0.2235487607
| 16>  H       -0.2269724813     1.7696721955     1.1772580846
| 17>  H       -0.7850912404    -0.5380286205     2.0198096688
| 18>  H       -0.7520744125    -1.9665893272     0.8919456864
| 19>  H        1.7193570574    -0.1920501251     1.5733914610
| 20>  H        2.1492395865    -1.6920767829    -1.9196784790
| 21>  H        0.5232913950    -3.4989907928    -2.3490336199
| 22>  H        0.0199697571    -3.4291489042    -0.6526009053
| 23>  H       -1.0075163730    -1.6562220105    -2.9421414072
| 24>  H       -1.7382676181    -1.7727422878    -1.3349388469
| 25>  H        0.4093001226     0.1701125361    -2.1057801661
| 26> *
| 27>
| 28>                          ****END OF INPUT****

CARTESIAN COORDINATES (ANGSTROEM)
---------------------------------
  C     -0.280583    1.436493    0.135805
  C      0.048755   -0.033338    0.011780
  C     -0.353531   -0.987568    1.130522
  C      1.101481   -0.713358    0.849431
  O      1.830172   -1.650401    0.100282
  C      1.307808   -1.717166   -1.220645
  C      0.259146   -2.825076   -1.530496
  C     -0.789339   -1.724071   -1.873838
  C      0.205197   -0.627095   -1.386821
  H      0.415351    2.050634   -0.447530
  H     -1.294272    1.649972   -0.223549
  H     -0.226972    1.769672    1.177258
  H     -0.785091   -0.538029    2.019810
  H     -0.752074   -1.966589    0.891946
  H      1.719357   -0.192050    1.573391
  H      2.149240   -1.692077   -1.919678
  H      0.523291   -3.498991   -2.349034
  H      0.019970   -3.429149   -0.652601
  H     -1.007516   -1.656222   -2.942141
  H     -1.738268   -1.772742   -1.334939
  H      0.409300    0.170113   -2.105780

 Total Charge           Charge          ....    0
 Multiplicity           Mult            ....    1
 Number of Electrons    NEL             ....   68
 Basis Dimension        Dim             ....  351

ORBITAL ENERGIES
----------------

  NO   OCC          E(Eh)            E(eV)
   0   2.0000     -20.550997      -559.2211
   1   2.0000     -11.274500      -306.7947
   2   2.0000     -11.272816      -306.7489
   3   2.0000     -11.236134      -305.7508
   4   2.0000     -11.228610      -305.5460
   5   2.0000     -11.221739      -305.3590
   6   2.0000     -11.221588      -305.3549
   7   2.0000     -11.221261      -305.3460
   8   2.0000     -11.217966      -305.2564
   9   2.0000      -1.380778       -37.5729
  10   2.0000      -1.145289       -31.1649
  11   2.0000      -1.105778       -30.0897
  12   2.0000      -0.969510       -26.3817
  13   2.0000      -0.913271       -24.8514
  14   2.0000      -0.893309       -24.3082
  15   2.0000      -0.820287       -22.3211
  16   2.0000      -0.761434       -20.7197
  17   2.0000      -0.738771       -20.1030
  18   2.0000      -0.692984       -18.8571
  19   2.0000      -0.630233       -17.1495
  20   2.0000      -0.621117       -16.9015
  21   2.0000      -0.607036       -16.5183
  22   2.0000      -0.595800       -16.2126
  23   2.0000      -0.568882       -15.4801
  24   2.0000      -0.557772       -15.1778
  25   2.0000      -0.543446       -14.7879
  26   2.0000      -0.527742       -14.3606
  27   2.0000      -0.515849       -14.0370
  28   2.0000      -0.477466       -12.9925
  29   2.0000      -0.468502       -12.7486
  30   2.0000      -0.434548       -11.8247
  31   2.0000      -0.420861       -11.4522
  32   2.0000      -0.393846       -10.7171
  33   2.0000      -0.365406        -9.9432
  34   0.0000       0.137798         3.7497
  35   0.0000       0.155742         4.2380
  36   0.0000       0.158023         4.3000
  37   0.0000       0.173415         4.7189
  38   0.0000       0.188419         5.1271

MULLIKEN ATOMIC CHARGES
-----------------------
   0 C :   -0.430065
   1 C :   -0.005415
   2 C :   -0.285235
   3 C :    0.039467
   4 O :   -0.312578
   5 C :    0.044057
   6 C :   -0.259000
   7 C :   -0.287196
   8 C :    0.030524
   9 H :    0.132535
  10 H :    0.136043
  11 H :    0.128116
  12 H :    0.123418
  13 H :    0.133151
  14 H :    0.121065
  15 H :    0.092517
  16 H :    0.117965
  17 H :    0.125621
  18 H :    0.121042
  19 H :    0.121984
  20 H :    0.111982
Sum of atomic charges:   -0.0000000

LOEWDIN ATOMIC CHARGES
----------------------
   0 C :   -0.268743
   1 C :   -0.231640
   2 C :   -0.188095
   3 C :   -0.256020
   4 O :    0.201766
   5 C :   -0.244853
   6 C :   -0.224967
   7 C :   -0.219642
   8 C :   -0.159174
   9 H :    0.127105
  10 H :    0.127946
  11 H :    0.128050
  12 H :    0.136064
  13 H :    0.136322
  14 H :    0.137302
  15 H :    0.132448
  16 H :    0.126789
  17 H :    0.132256
  18 H :    0.130206
  19 H :    0.129115
  20 H :    0.147764

  Mayer bond orders larger than 0.1
B(  0-C ,  1-C ) :   0.8900 B(  0-C ,  9-H ) :   0.9414 B(  0-C , 10-H ) :   0.9391
B(  0-C , 11-H ) :   0.9354 B(  1-C ,  2-C ) :   0.8854 B(  1-C ,  3-C ) :   0.9024
B(  1-C ,  8-C ) :   0.9029 B(  2-C ,  3-C ) :   0.8448 B(  2-C , 12-H ) :   0.9172
B(  2-C , 13-H ) :   0.9103 B(  3-C ,  4-O ) :   0.9710 B(  3-C , 14-H ) :   0.9426
B(  4-O ,  5-C ) :   0.9750 B(  5-C ,  6-C ) :   0.8934 B(  5-C ,  8-C ) :   0.9425
B(  5-C , 15-H ) :   0.9409 B(  6-C ,  7-C ) :   0.9399 B(  6-C , 16-H ) :   0.9214
B(  6-C , 17-H ) :   0.9242 B(  7-C ,  8-C ) :   0.8822 B(  7-C , 18-H ) :   0.9189
B(  7-C , 19-H ) :   0.9224 B(  8-C , 20-H ) :   0.9175

MP2 TOTAL ENERGY:     -386.390023172 Eh
FINAL SINGLE POINT ENERGY      -386.390023171701

DIPOLE MOMENT
-------------
                                X             Y             Z
Electronic contribution:      4.30487      -2.12232       0.99061
Nuclear contribution   :     -4.74591       2.50384      -1.25400
                        -----------------------------------------
Total Dipole Moment    :     -0.44104       0.38152      -0.26339
                        -----------------------------------------
Magnitude (a.u.)       :      0.63989
Magnitude (Debye)      :      1.62646

                             ****ORCA TERMINATED NORMALLY****
TOTAL RUN TIME: 0 days 0 hours 19 minutes 59 seconds 602 msec
