                         Program Version 3.0.3 - RELEASE   -
|  1> ! RI-MP2 RIJK def2-TZVP def2-TZVP/C def2-TZVP/JK TIGHTSCF
|  2> % maxcore 2000
|  3> % mp2 density relaxed end
|  4> *xyz 0 1
|  5>  O        0.0335935088     1.4436802912    -0.2250052522
|  6>  C        0.0986796479     0.0812154430     0.1613092619
|  7>  C       -1.2605985733    -0.5807805271     0.0511408866
|  8>  O       -1.7590042563    -0.6470939206    -1.3309575079
|  9>  C       -2.1527539232    -2.0171934910    -1.1504457764
| 10>  C       -0.9234048914    -2.8486819285    -0.9918325558
| 11>  O        0.2615509686    -2.5744752371    -1.6712506782
| 12>  C       -1.4592574893    -2.0877629391     0.2114084271
| 13>  O       -1.8784854802    -2.6840963504     1.3810828011
| 14>  H       -0.3044489066     1.4636848621    -1.1272819434
| 15>  H        0.8438827686    -0.4784197241    -0.4187882818
| 16>  H        0.4149259044     0.0685154869     1.2107859170
| 17>  H       -1.9941242447    -0.0277292192     0.6506583023
| 18>  H       -3.1220383783    -2.3219018234    -1.5273349406
| 19>  H       -1.1167801362    -3.9162907381    -0.9084101577
| 20>  H        0.1015545828    -1.7618435725    -2.1687820032
| 21>  H       -1.1337110614    -3.1565126420     1.7690422612
| 22> *
| 23>
| 24>                          ****END OF INPUT****

CARTESIAN COORDINATES (ANGSTROEM)
---------------------------------
  O      0.033594    1.443680   -0.225005
  C      0.098680    0.081215    0.161309
  C     -1.260599   -0.580781    0.051141
  O     -1.759004   -0.647094   -1.330958
  C     -2.152754   -2.017193   -1.150446
  C     -0.923405   -2.848682   -0.991833
  O      0.261551   -2.574475   -1.671251
  C     -1.459257   -2.087763    0.211408
  O     -1.878485   -2.684096    1.381083
  H     -0.304449    1.463685   -1.127282
  H      0.843883   -0.478420   -0.418788
  H      0.414926    0.068515    1.210786
  H     -1.994124   -0.027729    0.650658
  H     -3.122038   -2.321902   -1.527335
  H     -1.116780   -3.916291   -0.908410
  H      0.101555   -1.761844   -2.168782
  H     -1.133711   -3.156513    1.769042

 Total Charge           Charge          ....    0
 Multiplicity           Mult            ....    1
 Number of Electrons    NEL             ....   70
 Basis Dimension        Dim             ....  327

ORBITAL ENERGIES
----------------

  NO   OCC          E(Eh)            E(eV)
   0   2.0000     -20.592164      -560.3413
   1   2.0000     -20.579132      -559.9867
   2   2.0000     -20.576085      -559.9037
   3   2.0000     -20.561221      -559.4993
   4   2.0000     -11.310204      -307.7663
   5   2.0000     -11.307162      -307.6835
   6   2.0000     -11.302094      -307.5456
   7   2.0000     -11.300910      -307.5134
   8   2.0000     -11.282747      -307.0192
   9   2.0000      -1.430361       -38.9221
  10   2.0000      -1.394040       -37.9337
  11   2.0000      -1.377567       -37.4855
  12   2.0000      -1.363199       -37.0945
  13   2.0000      -1.113851       -30.3094
  14   2.0000      -1.019582       -27.7442
  15   2.0000      -0.889942       -24.2166
  16   2.0000      -0.841438       -22.8967
  17   2.0000      -0.776167       -21.1206
  18   2.0000      -0.767212       -20.8769
  19   2.0000      -0.718324       -19.5466
  20   2.0000      -0.697549       -18.9813
  21   2.0000      -0.663982       -18.0679
  22   2.0000      -0.658807       -17.9271
  23   2.0000      -0.621520       -16.9124
  24   2.0000      -0.609212       -16.5775
  25   2.0000      -0.593816       -16.1585
  26   2.0000      -0.580804       -15.8045
  27   2.0000      -0.564189       -15.3524
  28   2.0000      -0.544556       -14.8181
  29   2.0000      -0.529591       -14.4109
  30   2.0000      -0.508116       -13.8265
  31   2.0000      -0.484897       -13.1947
  32   2.0000      -0.452762       -12.3203
  33   2.0000      -0.396822       -10.7981
  34   2.0000      -0.392188       -10.6720
  35   0.0000       0.126180         3.4335
  36   0.0000       0.135970         3.6999
  37   0.0000       0.162393         4.4189
  38   0.0000       0.170163         4.6304
  39   0.0000       0.189842         5.1659

MULLIKEN ATOMIC CHARGES
-----------------------
   0 O :   -0.468402
   1 C :   -0.031835
   2 C :    0.012952
   3 O :   -0.364794
   4 C :    0.025834
   5 C :   -0.003684
   6 O :   -0.458537
   7 C :    0.108715
   8 O :   -0.447304
   9 H :    0.325217
  10 H :    0.118836
  11 H :    0.112672
  12 H :    0.113972
  13 H :    0.145968
  14 H :    0.133433
  15 H :    0.337475
  16 H :    0.339484
Sum of atomic charges:   -0.0000000

LOEWDIN ATOMIC CHARGES
----------------------
   0 O :   -0.042009
   1 C :   -0.333880
   2 C :   -0.240881
   3 O :    0.145444
   4 C :   -0.211469
   5 C :   -0.300478
   6 O :    0.003034
   7 C :   -0.313822
   8 O :    0.038896
   9 H :    0.178386
  10 H :    0.123129
  11 H :    0.136852
  12 H :    0.152803
  13 H :    0.134195
  14 H :    0.155315
  15 H :    0.183030
  16 H :    0.191455

  Mayer bond orders larger than 0.1
B(  0-O ,  1-C ) :   0.9130 B(  0-O ,  9-H ) :   0.8392 B(  1-C ,  2-C ) :   0.9508
B(  1-C , 10-H ) :   0.9122 B(  1-C , 11-H ) :   0.9236 B(  2-C ,  3-O ) :   0.8635
B(  2-C ,  7-C ) :   0.9031 B(  2-C , 12-H ) :   0.9063 B(  3-O ,  4-C ) :   0.9477
B(  4-C ,  5-C ) :   0.9044 B(  4-C ,  7-C ) :   0.8451 B(  4-C , 13-H ) :   0.9005
B(  5-C ,  6-O ) :   0.9628 B(  5-C ,  7-C ) :   0.8458 B(  5-C , 14-H ) :   0.9480
B(  6-O , 15-H ) :   0.8211 B(  7-C ,  8-O ) :   1.0520 B(  8-O , 16-H ) :   0.8295

MP2 TOTAL ENERGY:     -495.275437769 Eh
FINAL SINGLE POINT ENERGY      -495.275437769490

DIPOLE MOMENT
-------------
                                X             Y             Z
Electronic contribution:     -1.48086      -0.90871      -0.58847
Nuclear contribution   :      1.37417       0.22767       0.62680
                        -----------------------------------------
Total Dipole Moment    :     -0.10669      -0.68104       0.03833
                        -----------------------------------------
Magnitude (a.u.)       :      0.69041
Magnitude (Debye)      :      1.75487

                             ****ORCA TERMINATED NORMALLY****
TOTAL RUN TIME: 0 days 0 hours 24 minutes 42 seconds 405 msec
