                         Program Version 3.0.3 - RELEASE   -
|  1> ! RI-MP2 RIJK def2-TZVP def2-TZVP/C def2-TZVP/JK TIGHTSCF
|  2> % maxcore 2000
|  3> % mp2 density relaxed end
|  4> *xyz 0 1
|  5>  C        0.0843258898     1.5725696435     0.1607117821
|  6>  C       -0.1153487167     0.0929186894     0.5049725873
|  7>  C       -1.4603337232    -0.5061084939     0.0875253832
|  8>  C       -2.6576579138     0.3531763432     0.1134712864
|  9>  O       -2.0098401983     0.0409915528    -1.1248659763
| 10>  C       -1.5838840711    -2.0468470019     0.1896638652
| 11>  C       -1.1763073023    -2.5256708561     1.5969852536
| 12>  C       -3.0251089708    -2.5152585268    -0.0910238517
| 13>  C       -0.6626748974    -2.6876336243    -0.8716437366
| 14>  H        1.1230567356     1.8628354292     0.3430750614
| 15>  H       -0.1480221352     1.7603348963    -0.8901579022
| 16>  H       -0.5454621197     2.2272971919     0.7706707187
| 17>  H        0.6837273597    -0.4856164752     0.0285536069
| 18>  H        0.0088552708    -0.0538757517     1.5838281425
| 19>  H       -3.6470659705    -0.0770485840     0.2397907723
| 20>  H       -2.5730511646     1.3909424738     0.4288734507
| 21>  H       -1.7702208685    -2.0300458989     2.3731247714
| 22>  H       -1.3450748229    -3.6038374169     1.6886204497
| 23>  H       -0.1195341235    -2.3408904035     1.8083665890
| 24>  H       -3.4003211434    -2.0898017683    -1.0255027492
| 25>  H       -3.0480001208    -3.6057947045    -0.1811660645
| 26>  H       -3.7085936200    -2.2424315145     0.7189443444
| 27>  H        0.3930985050    -2.4617780859    -0.6975780575
| 28>  H       -0.7691486454    -3.7771725184    -0.8555696680
| 29>  H       -0.9263575929    -2.3338720053    -1.8726526589
| 30> *
| 31>
| 32>                          ****END OF INPUT****

CARTESIAN COORDINATES (ANGSTROEM)
---------------------------------
  C      0.084326    1.572570    0.160712
  C     -0.115349    0.092919    0.504973
  C     -1.460334   -0.506108    0.087525
  C     -2.657658    0.353176    0.113471
  O     -2.009840    0.040992   -1.124866
  C     -1.583884   -2.046847    0.189664
  C     -1.176307   -2.525671    1.596985
  C     -3.025109   -2.515259   -0.091024
  C     -0.662675   -2.687634   -0.871644
  H      1.123057    1.862835    0.343075
  H     -0.148022    1.760335   -0.890158
  H     -0.545462    2.227297    0.770671
  H      0.683727   -0.485616    0.028554
  H      0.008855   -0.053876    1.583828
  H     -3.647066   -0.077049    0.239791
  H     -2.573051    1.390942    0.428873
  H     -1.770221   -2.030046    2.373125
  H     -1.345075   -3.603837    1.688620
  H     -0.119534   -2.340890    1.808367
  H     -3.400321   -2.089802   -1.025503
  H     -3.048000   -3.605795   -0.181166
  H     -3.708594   -2.242432    0.718944
  H      0.393099   -2.461778   -0.697578
  H     -0.769149   -3.777173   -0.855570
  H     -0.926358   -2.333872   -1.872653

 Total Charge           Charge          ....    0
 Multiplicity           Mult            ....    1
 Number of Electrons    NEL             ....   72
 Basis Dimension        Dim             ....  375

ORBITAL ENERGIES
----------------

  NO   OCC          E(Eh)            E(eV)
   0   2.0000     -20.556681      -559.3757
   1   2.0000     -11.285841      -307.1033
   2   2.0000     -11.272026      -306.7274
   3   2.0000     -11.241603      -305.8996
   4   2.0000     -11.225020      -305.4483
   5   2.0000     -11.216021      -305.2035
   6   2.0000     -11.211440      -305.0788
   7   2.0000     -11.209420      -305.0238
   8   2.0000     -11.209145      -305.0164
   9   2.0000      -1.401378       -38.1334
  10   2.0000      -1.101259       -29.9668
  11   2.0000      -1.036983       -28.2177
  12   2.0000      -0.934559       -25.4306
  13   2.0000      -0.932145       -25.3649
  14   2.0000      -0.916772       -24.9466
  15   2.0000      -0.880619       -23.9629
  16   2.0000      -0.807068       -21.9614
  17   2.0000      -0.727881       -19.8066
  18   2.0000      -0.683184       -18.5904
  19   2.0000      -0.643970       -17.5233
  20   2.0000      -0.615634       -16.7522
  21   2.0000      -0.600067       -16.3287
  22   2.0000      -0.595635       -16.2081
  23   2.0000      -0.574320       -15.6280
  24   2.0000      -0.552839       -15.0435
  25   2.0000      -0.544790       -14.8245
  26   2.0000      -0.530210       -14.4278
  27   2.0000      -0.518836       -14.1182
  28   2.0000      -0.515616       -14.0306
  29   2.0000      -0.502802       -13.6819
  30   2.0000      -0.491210       -13.3665
  31   2.0000      -0.476960       -12.9787
  32   2.0000      -0.466824       -12.7029
  33   2.0000      -0.457805       -12.4575
  34   2.0000      -0.422969       -11.5096
  35   2.0000      -0.412623       -11.2280
  36   0.0000       0.131895         3.5890
  37   0.0000       0.155800         4.2395
  38   0.0000       0.170006         4.6261
  39   0.0000       0.173180         4.7125
  40   0.0000       0.182808         4.9745

MULLIKEN ATOMIC CHARGES
-----------------------
   0 C :   -0.409608
   1 C :   -0.261224
   2 C :    0.199914
   3 C :   -0.094002
   4 O :   -0.356071
   5 C :    0.141355
   6 C :   -0.440704
   7 C :   -0.456919
   8 C :   -0.450373
   9 H :    0.135964
  10 H :    0.155544
  11 H :    0.116476
  12 H :    0.114289
  13 H :    0.127580
  14 H :    0.121582
  15 H :    0.113246
  16 H :    0.133953
  17 H :    0.135963
  18 H :    0.139025
  19 H :    0.162339
  20 H :    0.134280
  21 H :    0.127256
  22 H :    0.125451
  23 H :    0.130663
  24 H :    0.154021
Sum of atomic charges:   -0.0000000

LOEWDIN ATOMIC CHARGES
----------------------
   0 C :   -0.313746
   1 C :   -0.250136
   2 C :   -0.279599
   3 C :   -0.244999
   4 O :    0.164120
   5 C :   -0.308502
   6 C :   -0.267282
   7 C :   -0.271867
   8 C :   -0.265585
   9 H :    0.122378
  10 H :    0.129043
  11 H :    0.117742
  12 H :    0.143261
  13 H :    0.145227
  14 H :    0.121523
  15 H :    0.119807
  16 H :    0.126465
  17 H :    0.128047
  18 H :    0.124299
  19 H :    0.132475
  20 H :    0.126526
  21 H :    0.122217
  22 H :    0.120681
  23 H :    0.125431
  24 H :    0.132474

  Mayer bond orders larger than 0.1
B(  0-C ,  1-C ) :   0.9269 B(  0-C ,  9-H ) :   0.9395 B(  0-C , 10-H ) :   0.9374
B(  0-C , 11-H ) :   0.9385 B(  1-C ,  2-C ) :   0.8946 B(  1-C , 12-H ) :   0.9325
B(  1-C , 13-H ) :   0.9296 B(  2-C ,  3-C ) :   0.9606 B(  2-C ,  4-O ) :   0.8343
B(  2-C ,  5-C ) :   0.8829 B(  3-C ,  4-O ) :   0.8913 B(  3-C , 14-H ) :   0.9070
B(  3-C , 15-H ) :   0.9143 B(  5-C ,  6-C ) :   0.8933 B(  5-C ,  7-C ) :   0.8866
B(  5-C ,  8-C ) :   0.9123 B(  6-C , 16-H ) :   0.9364 B(  6-C , 17-H ) :   0.9332
B(  6-C , 18-H ) :   0.9346 B(  7-C , 19-H ) :   0.9374 B(  7-C , 20-H ) :   0.9365
B(  7-C , 21-H ) :   0.9342 B(  8-C , 22-H ) :   0.9302 B(  8-C , 23-H ) :   0.9362
B(  8-C , 24-H ) :   0.9363

MP2 TOTAL ENERGY:     -388.810259183 Eh
FINAL SINGLE POINT ENERGY      -388.810259183057

DIPOLE MOMENT
-------------
                                X             Y             Z
Electronic contribution:     -2.36628       2.97381      -2.71488
Nuclear contribution   :      2.42420      -3.09232       3.37109
                        -----------------------------------------
Total Dipole Moment    :      0.05792      -0.11851       0.65621
                        -----------------------------------------
Magnitude (a.u.)       :      0.66934
Magnitude (Debye)      :      1.70132

                             ****ORCA TERMINATED NORMALLY****
TOTAL RUN TIME: 0 days 0 hours 22 minutes 57 seconds 654 msec
