                         Program Version 3.0.3 - RELEASE   -
|  1> ! RI-MP2 RIJK def2-TZVP def2-TZVP/C def2-TZVP/JK TIGHTSCF
|  2> % maxcore 2000
|  3> % mp2 density relaxed end
|  4> *xyz 0 1
|  5>  C        0.0238837717     1.5183852057     0.0331760983
|  6>  C       -0.1461932720     0.0268159075    -0.1947582674
|  7>  O        0.9464085410    -0.4362095447    -0.9763635317
|  8>  C        0.9463621888    -1.8112084888    -1.1794281898
|  9>  C        0.1683776246    -2.4687004471    -2.3710499641
| 10>  C        1.1352067773    -1.7826095324    -3.3638719471
| 11>  C        1.9582303165    -2.3812817397    -2.1978316515
| 12>  O        1.1159824842    -3.5981568709    -2.2554477806
| 13>  H        0.9620910787     1.7212489649     0.5571464562
| 14>  H        0.0413722685     2.0535422179    -0.9204603794
| 15>  H       -0.8026883356     1.9079637470     0.6347350355
| 16>  H       -0.1725411385    -0.5135926699     0.7650886211
| 17>  H       -1.0964296390    -0.1818405676    -0.7110448700
| 18>  H        0.8750595034    -2.3852919654    -0.2469854707
| 19>  H       -0.8884689900    -2.7135283455    -2.4795922765
| 20>  H        1.2520599748    -2.2941505267    -4.3198602087
| 21>  H        1.0944068584    -0.6960340509    -3.4467565899
| 22>  H        3.0352180972    -2.5164138234    -2.0984079839
| 23> *
| 24>
| 25>                          ****END OF INPUT****

CARTESIAN COORDINATES (ANGSTROEM)
---------------------------------
  C      0.023884    1.518385    0.033176
  C     -0.146193    0.026816   -0.194758
  O      0.946409   -0.436210   -0.976364
  C      0.946362   -1.811208   -1.179428
  C      0.168378   -2.468700   -2.371050
  C      1.135207   -1.782610   -3.363872
  C      1.958230   -2.381282   -2.197832
  O      1.115982   -3.598157   -2.255448
  H      0.962091    1.721249    0.557146
  H      0.041372    2.053542   -0.920460
  H     -0.802688    1.907964    0.634735
  H     -0.172541   -0.513593    0.765089
  H     -1.096430   -0.181841   -0.711045
  H      0.875060   -2.385292   -0.246985
  H     -0.888469   -2.713528   -2.479592
  H      1.252060   -2.294151   -4.319860
  H      1.094407   -0.696034   -3.446757
  H      3.035218   -2.516414   -2.098408

 Total Charge           Charge          ....    0
 Multiplicity           Mult            ....    1
 Number of Electrons    NEL             ....   62
 Basis Dimension        Dim             ....  308

ORBITAL ENERGIES
----------------

  NO   OCC          E(Eh)            E(eV)
   0   2.0000     -20.565756      -559.6227
   1   2.0000     -20.550362      -559.2038
   2   2.0000     -11.297184      -307.4120
   3   2.0000     -11.297079      -307.4091
   4   2.0000     -11.292572      -307.2865
   5   2.0000     -11.284653      -307.0710
   6   2.0000     -11.233214      -305.6713
   7   2.0000     -11.221552      -305.3540
   8   2.0000      -1.409563       -38.3562
   9   2.0000      -1.378140       -37.5011
  10   2.0000      -1.071503       -29.1571
  11   2.0000      -1.017065       -27.6758
  12   2.0000      -0.914896       -24.8956
  13   2.0000      -0.887456       -24.1489
  14   2.0000      -0.843441       -22.9512
  15   2.0000      -0.750845       -20.4315
  16   2.0000      -0.706491       -19.2246
  17   2.0000      -0.682787       -18.5796
  18   2.0000      -0.665052       -18.0970
  19   2.0000      -0.633319       -17.2335
  20   2.0000      -0.594708       -16.1828
  21   2.0000      -0.554062       -15.0768
  22   2.0000      -0.544058       -14.8046
  23   2.0000      -0.538366       -14.6497
  24   2.0000      -0.522797       -14.2260
  25   2.0000      -0.497724       -13.5438
  26   2.0000      -0.480815       -13.0836
  27   2.0000      -0.471666       -12.8347
  28   2.0000      -0.461480       -12.5575
  29   2.0000      -0.428857       -11.6698
  30   2.0000      -0.402438       -10.9509
  31   0.0000       0.135421         3.6850
  32   0.0000       0.161071         4.3830
  33   0.0000       0.169511         4.6126
  34   0.0000       0.175463         4.7746
  35   0.0000       0.189212         5.1487

MULLIKEN ATOMIC CHARGES
-----------------------
   0 C :   -0.363741
   1 C :   -0.048032
   2 O :   -0.300298
   3 C :    0.085275
   4 C :   -0.068576
   5 C :   -0.167009
   6 C :   -0.027845
   7 O :   -0.315952
   8 H :    0.131859
   9 H :    0.130738
  10 H :    0.124626
  11 H :    0.098375
  12 H :    0.095812
  13 H :    0.099424
  14 H :    0.138947
  15 H :    0.121278
  16 H :    0.126242
  17 H :    0.138875
Sum of atomic charges:    0.0000000

LOEWDIN ATOMIC CHARGES
----------------------
   0 C :   -0.315929
   1 C :   -0.340380
   2 O :    0.187728
   3 C :   -0.289721
   4 C :   -0.222428
   5 C :   -0.202388
   6 C :   -0.210666
   7 O :    0.134883
   8 H :    0.124978
   9 H :    0.124281
  10 H :    0.125442
  11 H :    0.119248
  12 H :    0.118131
  13 H :    0.135646
  14 H :    0.121548
  15 H :    0.132283
  16 H :    0.132895
  17 H :    0.124451

  Mayer bond orders larger than 0.1
B(  0-C ,  1-C ) :   0.9557 B(  0-C ,  8-H ) :   0.9349 B(  0-C ,  9-H ) :   0.9365
B(  0-C , 10-H ) :   0.9323 B(  1-C ,  2-O ) :   0.8984 B(  1-C , 11-H ) :   0.9250
B(  1-C , 12-H ) :   0.9234 B(  2-O ,  3-C ) :   0.9781 B(  3-C ,  4-C ) :   0.9134
B(  3-C ,  6-C ) :   0.9326 B(  3-C , 13-H ) :   0.9212 B(  4-C ,  5-C ) :   0.9221
B(  4-C ,  7-O ) :   0.9271 B(  4-C , 14-H ) :   0.8859 B(  5-C ,  6-C ) :   0.9261
B(  5-C , 15-H ) :   0.9239 B(  5-C , 16-H ) :   0.9064 B(  6-C ,  7-O ) :   0.9076
B(  6-C , 17-H ) :   0.8865

MP2 TOTAL ENERGY:     -384.223427139 Eh
FINAL SINGLE POINT ENERGY      -384.223427138756

DIPOLE MOMENT
-------------
                                X             Y             Z
Electronic contribution:      2.65178      -6.59723      -2.69863
Nuclear contribution   :     -3.05957       7.29025       2.91111
                        -----------------------------------------
Total Dipole Moment    :     -0.40780       0.69302       0.21248
                        -----------------------------------------
Magnitude (a.u.)       :      0.83170
Magnitude (Debye)      :      2.11400

                             ****ORCA TERMINATED NORMALLY****
TOTAL RUN TIME: 0 days 0 hours 11 minutes 38 seconds 187 msec
