                         Program Version 3.0.3 - RELEASE   -
|  1> ! RI-MP2 RIJK def2-TZVP def2-TZVP/C def2-TZVP/JK TIGHTSCF
|  2> % maxcore 2000
|  3> % mp2 density relaxed end
|  4> *xyz 0 1
|  5>  C       -0.0267309966     1.5096861294     0.1346178909
|  6>  C        1.3284955054     0.8378677358     0.0040364615
|  7>  O        2.1429800930     0.3164628605     1.0335553925
|  8>  C        1.6357506750    -1.0220272466     1.2132158314
|  9>  C        0.1338678232    -0.7850490065     1.2434254835
| 10>  C        0.0728992324     0.0143542993    -0.0697152280
| 11>  C        0.0168959112    -0.9508334725    -1.2308999329
| 12>  C        1.3800967520    -1.7119006404    -1.1492384754
| 13>  O        1.9379300488    -1.9174511007     0.1657529978
| 14>  H       -0.4017446315     1.8426666048     1.0970613833
| 15>  H       -0.2886500446     2.1600592761    -0.6961667827
| 16>  H        1.8802735548     1.0666926579    -0.9032682026
| 17>  H        2.1203306569    -1.4303408974     2.1016532881
| 18>  H       -0.4498610113    -1.7068509319     1.2101570793
| 19>  H       -0.1546557455    -0.2016073669     2.1199573324
| 20>  H       -0.8367372825    -1.6331930354    -1.1536221957
| 21>  H       -0.0431933470    -0.4575622617    -2.2068287169
| 22>  H        1.3036069781    -2.7123186263    -1.5857541753
| 23>  H        2.1155471081    -1.1487361475    -1.7369813114
| 24> *
| 25>
| 26>                          ****END OF INPUT****

CARTESIAN COORDINATES (ANGSTROEM)
---------------------------------
  C     -0.026731    1.509686    0.134618
  C      1.328496    0.837868    0.004036
  O      2.142980    0.316463    1.033555
  C      1.635751   -1.022027    1.213216
  C      0.133868   -0.785049    1.243425
  C      0.072899    0.014354   -0.069715
  C      0.016896   -0.950833   -1.230900
  C      1.380097   -1.711901   -1.149238
  O      1.937930   -1.917451    0.165753
  H     -0.401745    1.842667    1.097061
  H     -0.288650    2.160059   -0.696167
  H      1.880274    1.066693   -0.903268
  H      2.120331   -1.430341    2.101653
  H     -0.449861   -1.706851    1.210157
  H     -0.154656   -0.201607    2.119957
  H     -0.836737   -1.633193   -1.153622
  H     -0.043193   -0.457562   -2.206829
  H      1.303607   -2.712319   -1.585754
  H      2.115547   -1.148736   -1.736981

 Total Charge           Charge          ....    0
 Multiplicity           Mult            ....    1
 Number of Electrons    NEL             ....   68
 Basis Dimension        Dim             ....  339

ORBITAL ENERGIES
----------------

  NO   OCC          E(Eh)            E(eV)
   0   2.0000     -20.559679      -559.4573
   1   2.0000     -20.556649      -559.3749
   2   2.0000     -11.331038      -308.3332
   3   2.0000     -11.282445      -307.0109
   4   2.0000     -11.275243      -306.8150
   5   2.0000     -11.246061      -306.0209
   6   2.0000     -11.241279      -305.8908
   7   2.0000     -11.239983      -305.8555
   8   2.0000     -11.226978      -305.5016
   9   2.0000      -1.414468       -38.4896
  10   2.0000      -1.342293       -36.5257
  11   2.0000      -1.156513       -31.4703
  12   2.0000      -1.026837       -27.9416
  13   2.0000      -1.019627       -27.7455
  14   2.0000      -0.881302       -23.9815
  15   2.0000      -0.845174       -22.9983
  16   2.0000      -0.792570       -21.5669
  17   2.0000      -0.763029       -20.7631
  18   2.0000      -0.690153       -18.7800
  19   2.0000      -0.679723       -18.4962
  20   2.0000      -0.651916       -17.7395
  21   2.0000      -0.638811       -17.3829
  22   2.0000      -0.601923       -16.3791
  23   2.0000      -0.586423       -15.9574
  24   2.0000      -0.576452       -15.6861
  25   2.0000      -0.553915       -15.0728
  26   2.0000      -0.534280       -14.5385
  27   2.0000      -0.521812       -14.1992
  28   2.0000      -0.514406       -13.9977
  29   2.0000      -0.469870       -12.7858
  30   2.0000      -0.453186       -12.3318
  31   2.0000      -0.440135       -11.9767
  32   2.0000      -0.405549       -11.0356
  33   2.0000      -0.372615       -10.1394
  34   0.0000       0.135764         3.6943
  35   0.0000       0.158377         4.3097
  36   0.0000       0.166844         4.5401
  37   0.0000       0.172820         4.7027
  38   0.0000       0.187269         5.0959

MULLIKEN ATOMIC CHARGES
-----------------------
   0 C :   -0.241553
   1 C :   -0.012763
   2 O :   -0.302311
   3 C :    0.182246
   4 C :   -0.263387
   5 C :    0.093970
   6 C :   -0.295828
   7 C :   -0.042754
   8 O :   -0.310083
   9 H :    0.132656
  10 H :    0.128372
  11 H :    0.109175
  12 H :    0.119311
  13 H :    0.121464
  14 H :    0.111844
  15 H :    0.119415
  16 H :    0.125460
  17 H :    0.119659
  18 H :    0.105107
Sum of atomic charges:   -0.0000000

LOEWDIN ATOMIC CHARGES
----------------------
   0 C :   -0.177431
   1 C :   -0.256138
   2 O :    0.185673
   3 C :   -0.373777
   4 C :   -0.186254
   5 C :   -0.233868
   6 C :   -0.227873
   7 C :   -0.276720
   8 O :    0.172549
   9 H :    0.139233
  10 H :    0.138190
  11 H :    0.139217
  12 H :    0.137097
  13 H :    0.144063
  14 H :    0.143957
  15 H :    0.136924
  16 H :    0.143929
  17 H :    0.126667
  18 H :    0.124561

  Mayer bond orders larger than 0.1
B(  0-C ,  1-C ) :   0.8864 B(  0-C ,  5-C ) :   0.9087 B(  0-C ,  9-H ) :   0.8970
B(  0-C , 10-H ) :   0.9114 B(  1-C ,  2-O ) :   0.9829 B(  1-C ,  5-C ) :   0.8499
B(  1-C , 11-H ) :   0.9418 B(  2-O ,  3-C ) :   0.9490 B(  3-C ,  4-C ) :   0.9882
B(  3-C ,  8-O ) :   0.9832 B(  3-C , 12-H ) :   0.9279 B(  4-C ,  5-C ) :   0.9185
B(  4-C , 13-H ) :   0.9229 B(  4-C , 14-H ) :   0.9023 B(  5-C ,  6-C ) :   0.9037
B(  6-C ,  7-C ) :   0.9392 B(  6-C , 15-H ) :   0.9240 B(  6-C , 16-H ) :   0.9205
B(  7-C ,  8-O ) :   0.9210 B(  7-C , 17-H ) :   0.9284 B(  7-C , 18-H ) :   0.9316

MP2 TOTAL ENERGY:     -422.293828338 Eh
FINAL SINGLE POINT ENERGY      -422.293828338110

DIPOLE MOMENT
-------------
                                X             Y             Z
Electronic contribution:      3.50173      -0.08416       2.58810
Nuclear contribution   :     -4.35331       0.13314      -3.05750
                        -----------------------------------------
Total Dipole Moment    :     -0.85158       0.04898      -0.46940
                        -----------------------------------------
Magnitude (a.u.)       :      0.97362
Magnitude (Debye)      :      2.47474

                             ****ORCA TERMINATED NORMALLY****
TOTAL RUN TIME: 0 days 0 hours 18 minutes 56 seconds 244 msec
