                         Program Version 3.0.3 - RELEASE   -
|  1> ! RI-MP2 RIJK def2-TZVP def2-TZVP/C def2-TZVP/JK TIGHTSCF
|  2> % maxcore 2000
|  3> % mp2 density relaxed end
|  4> *xyz 0 1
|  5>  O       -0.5685418981     1.0767258738     0.9335875683
|  6>  C        0.1491365054     0.1060314133     0.1705133654
|  7>  C        0.9436473357    -0.8617452037     1.0699164539
|  8>  C       -0.0750054246    -1.9433867353     1.5193728961
|  9>  C       -1.3544191790    -1.7125496039     0.6698580243
| 10>  C       -0.8955135463    -0.7978644168    -0.4800217820
| 11>  N       -1.9061881053    -2.9712149174     0.1767121322
| 12>  C       -2.8401641557    -3.6579918460     1.0648017908
| 13>  C       -3.3273239052    -2.9663050568    -0.1592448518
| 14>  H        0.0705443878     1.5761768339     1.4512500599
| 15>  H        0.7919507519     0.6054778207    -0.5686100773
| 16>  H        1.7556660129    -1.3119079590     0.4888099037
| 17>  H        1.4111294856    -0.3349215638     1.9086993208
| 18>  H        0.3058628206    -2.9489219545     1.3222858077
| 19>  H       -0.2937168459    -1.8827398273     2.5882072834
| 20>  H       -2.0980000508    -1.1670090029     1.2739205743
| 21>  H       -1.7083723556    -0.2250507274    -0.9328303766
| 22>  H       -0.4263080442    -1.4101660005    -1.2580114731
| 23>  H       -2.7585482460    -4.7407987205     1.0937251102
| 24>  H       -3.0710885087    -3.1923311524     2.0217759587
| 25>  H       -3.8826239782    -2.0402656557    -0.0180145556
| 26>  H       -3.6073427863    -3.5344988777    -1.0416658731
| 27> *
| 28>
| 29>                          ****END OF INPUT****

CARTESIAN COORDINATES (ANGSTROEM)
---------------------------------
  O     -0.568542    1.076726    0.933588
  C      0.149137    0.106031    0.170513
  C      0.943647   -0.861745    1.069916
  C     -0.075005   -1.943387    1.519373
  C     -1.354419   -1.712550    0.669858
  C     -0.895514   -0.797864   -0.480022
  N     -1.906188   -2.971215    0.176712
  C     -2.840164   -3.657992    1.064802
  C     -3.327324   -2.966305   -0.159245
  H      0.070544    1.576177    1.451250
  H      0.791951    0.605478   -0.568610
  H      1.755666   -1.311908    0.488810
  H      1.411129   -0.334922    1.908699
  H      0.305863   -2.948922    1.322286
  H     -0.293717   -1.882740    2.588207
  H     -2.098000   -1.167009    1.273921
  H     -1.708372   -0.225051   -0.932830
  H     -0.426308   -1.410166   -1.258011
  H     -2.758548   -4.740799    1.093725
  H     -3.071089   -3.192331    2.021776
  H     -3.882624   -2.040266   -0.018015
  H     -3.607343   -3.534499   -1.041666

 Total Charge           Charge          ....    0
 Multiplicity           Mult            ....    1
 Number of Electrons    NEL             ....   70
 Basis Dimension        Dim             ....  357

ORBITAL ENERGIES
----------------

  NO   OCC          E(Eh)            E(eV)
   0   2.0000     -20.551188      -559.2263
   1   2.0000     -15.552405      -423.2024
   2   2.0000     -11.274108      -306.7841
   3   2.0000     -11.248561      -306.0889
   4   2.0000     -11.247778      -306.0676
   5   2.0000     -11.246931      -306.0446
   6   2.0000     -11.219445      -305.2966
   7   2.0000     -11.212690      -305.1128
   8   2.0000     -11.209572      -305.0280
   9   2.0000      -1.357387       -36.9364
  10   2.0000      -1.268129       -34.5076
  11   2.0000      -1.105976       -30.0951
  12   2.0000      -0.978288       -26.6206
  13   2.0000      -0.960075       -26.1250
  14   2.0000      -0.859442       -23.3866
  15   2.0000      -0.837650       -22.7936
  16   2.0000      -0.779128       -21.2012
  17   2.0000      -0.762818       -20.7573
  18   2.0000      -0.694650       -18.9024
  19   2.0000      -0.675692       -18.3865
  20   2.0000      -0.651842       -17.7375
  21   2.0000      -0.633307       -17.2332
  22   2.0000      -0.610720       -16.6185
  23   2.0000      -0.561433       -15.2774
  24   2.0000      -0.539715       -14.6864
  25   2.0000      -0.531127       -14.4527
  26   2.0000      -0.520293       -14.1579
  27   2.0000      -0.515620       -14.0307
  28   2.0000      -0.492101       -13.3907
  29   2.0000      -0.469763       -12.7829
  30   2.0000      -0.464610       -12.6427
  31   2.0000      -0.449106       -12.2208
  32   2.0000      -0.431550       -11.7431
  33   2.0000      -0.422278       -11.4908
  34   2.0000      -0.368861       -10.0372
  35   0.0000       0.132091         3.5944
  36   0.0000       0.152251         4.1430
  37   0.0000       0.165783         4.5112
  38   0.0000       0.168011         4.5718
  39   0.0000       0.182289         4.9603

MULLIKEN ATOMIC CHARGES
-----------------------
   0 O :   -0.475559
   1 C :    0.085137
   2 C :   -0.269862
   3 C :   -0.229249
   4 C :   -0.038477
   5 C :   -0.189556
   6 N :   -0.213140
   7 C :   -0.173987
   8 C :   -0.177007
   9 H :    0.309864
  10 H :    0.094354
  11 H :    0.116437
  12 H :    0.116266
  13 H :    0.120860
  14 H :    0.113416
  15 H :    0.075526
  16 H :    0.119511
  17 H :    0.117908
  18 H :    0.128875
  19 H :    0.119047
  20 H :    0.121414
  21 H :    0.128223
Sum of atomic charges:    0.0000000

LOEWDIN ATOMIC CHARGES
----------------------
   0 O :   -0.025104
   1 C :   -0.340650
   2 C :   -0.243882
   3 C :   -0.224283
   4 C :   -0.283325
   5 C :   -0.214659
   6 N :    0.107232
   7 C :   -0.269330
   8 C :   -0.268882
   9 H :    0.171307
  10 H :    0.128272
  11 H :    0.139217
  12 H :    0.130209
  13 H :    0.140772
  14 H :    0.133180
  15 H :    0.140079
  16 H :    0.139671
  17 H :    0.147944
  18 H :    0.123130
  19 H :    0.122540
  20 H :    0.123160
  21 H :    0.123400

  Mayer bond orders larger than 0.1
B(  0-O ,  1-C ) :   0.9796 B(  0-O ,  9-H ) :   0.8479 B(  1-C ,  2-C ) :   0.9294
B(  1-C ,  5-C ) :   0.9043 B(  1-C , 10-H ) :   0.9500 B(  2-C ,  3-C ) :   0.9405
B(  2-C , 11-H ) :   0.9195 B(  2-C , 12-H ) :   0.9320 B(  3-C ,  4-C ) :   0.9304
B(  3-C , 13-H ) :   0.9333 B(  3-C , 14-H ) :   0.9238 B(  4-C ,  5-C ) :   0.9450
B(  4-C ,  6-N ) :   0.9241 B(  4-C , 15-H ) :   0.9252 B(  5-C , 16-H ) :   0.9134
B(  5-C , 17-H ) :   0.9226 B(  6-N ,  7-C ) :   0.8818 B(  6-N ,  8-C ) :   0.8847
B(  7-C ,  8-C ) :   0.9501 B(  7-C , 18-H ) :   0.9273 B(  7-C , 19-H ) :   0.9220
B(  8-C , 20-H ) :   0.9210 B(  8-C , 21-H ) :   0.9281

MP2 TOTAL ENERGY:     -403.643009859 Eh
FINAL SINGLE POINT ENERGY      -403.643009859222

DIPOLE MOMENT
-------------
                                X             Y             Z
Electronic contribution:     -0.27793       1.49573      -0.61629
Nuclear contribution   :      0.58880      -1.34292       0.90279
                        -----------------------------------------
Total Dipole Moment    :      0.31087       0.15281       0.28650
                        -----------------------------------------
Magnitude (a.u.)       :      0.44952
Magnitude (Debye)      :      1.14260

                             ****ORCA TERMINATED NORMALLY****
TOTAL RUN TIME: 0 days 0 hours 18 minutes 10 seconds 195 msec
