                         Program Version 3.0.3 - RELEASE   -
|  1> ! RI-MP2 RIJK def2-TZVP def2-TZVP/C def2-TZVP/JK TIGHTSCF
|  2> % maxcore 2000
|  3> % mp2 density relaxed end
|  4> *xyz 0 1
|  5>  C        0.0715443946     1.5886784417     0.0219259841
|  6>  C        0.0300879306     0.0725494484    -0.0837250565
|  7>  C        0.7707155593    -0.4716654482    -1.3084858694
|  8>  C        0.8054891017    -2.0055709943    -1.2802922259
|  9>  C        1.4093566088    -2.4898332273     0.0443329944
| 10>  C        0.6984878615    -1.8232017080     1.2429248228
| 11>  O        0.6240296951    -0.4255900980     1.1274172236
| 12>  C       -0.6434263972    -2.4926805364     1.5216558738
| 13>  O       -1.7148462035    -1.9466655977     1.5352875266
| 14>  H        1.1060025119     1.9421496724     0.0805400776
| 15>  H       -0.4042492766     2.0458855830    -0.8509674594
| 16>  H       -0.4563679057     1.9205255756     0.9196491656
| 17>  H       -1.0155102394    -0.2602337042    -0.1221619197
| 18>  H        0.2797359131    -0.1115979639    -2.2195216645
| 19>  H        1.7950516515    -0.0757568826    -1.3113006600
| 20>  H       -0.2156049622    -2.3950878429    -1.3894024595
| 21>  H        1.3828049657    -2.3988057740    -2.1234004673
| 22>  H        1.3544975717    -3.5808474156     0.1348855596
| 23>  H        2.4694624511    -2.2169550908     0.0885954472
| 24>  H        1.2963620142    -2.0161086382     2.1474463214
| 25>  H       -0.5471154265    -3.5852452189     1.7366872552
| 26> *
| 27>
| 28>                          ****END OF INPUT****

CARTESIAN COORDINATES (ANGSTROEM)
---------------------------------
  C      0.071544    1.588678    0.021926
  C      0.030088    0.072549   -0.083725
  C      0.770716   -0.471665   -1.308486
  C      0.805489   -2.005571   -1.280292
  C      1.409357   -2.489833    0.044333
  C      0.698488   -1.823202    1.242925
  O      0.624030   -0.425590    1.127417
  C     -0.643426   -2.492681    1.521656
  O     -1.714846   -1.946666    1.535288
  H      1.106003    1.942150    0.080540
  H     -0.404249    2.045886   -0.850967
  H     -0.456368    1.920526    0.919649
  H     -1.015510   -0.260234   -0.122162
  H      0.279736   -0.111598   -2.219522
  H      1.795052   -0.075757   -1.311301
  H     -0.215605   -2.395088   -1.389402
  H      1.382805   -2.398806   -2.123400
  H      1.354498   -3.580847    0.134886
  H      2.469462   -2.216955    0.088595
  H      1.296362   -2.016109    2.147446
  H     -0.547115   -3.585245    1.736687

 Total Charge           Charge          ....    0
 Multiplicity           Mult            ....    1
 Number of Electrons    NEL             ....   70
 Basis Dimension        Dim             ....  351

ORBITAL ENERGIES
----------------

  NO   OCC          E(Eh)            E(eV)
   0   2.0000     -20.559903      -559.4634
   1   2.0000     -20.555679      -559.3485
   2   2.0000     -11.332289      -308.3673
   3   2.0000     -11.296375      -307.3900
   4   2.0000     -11.274241      -306.7877
   5   2.0000     -11.240430      -305.8676
   6   2.0000     -11.232619      -305.6551
   7   2.0000     -11.223743      -305.4136
   8   2.0000     -11.209485      -305.0256
   9   2.0000      -1.404953       -38.2307
  10   2.0000      -1.373297       -37.3693
  11   2.0000      -1.088507       -29.6198
  12   2.0000      -1.068131       -29.0653
  13   2.0000      -0.965295       -26.2670
  14   2.0000      -0.910188       -24.7675
  15   2.0000      -0.837449       -22.7881
  16   2.0000      -0.817636       -22.2490
  17   2.0000      -0.758216       -20.6321
  18   2.0000      -0.679739       -18.4966
  19   2.0000      -0.670842       -18.2545
  20   2.0000      -0.659353       -17.9419
  21   2.0000      -0.633488       -17.2381
  22   2.0000      -0.619290       -16.8517
  23   2.0000      -0.596010       -16.2183
  24   2.0000      -0.560129       -15.2419
  25   2.0000      -0.550682       -14.9848
  26   2.0000      -0.538062       -14.6414
  27   2.0000      -0.530108       -14.4250
  28   2.0000      -0.518834       -14.1182
  29   2.0000      -0.507861       -13.8196
  30   2.0000      -0.489735       -13.3264
  31   2.0000      -0.468630       -12.7521
  32   2.0000      -0.462896       -12.5961
  33   2.0000      -0.427998       -11.6464
  34   2.0000      -0.395534       -10.7630
  35   0.0000       0.120555         3.2805
  36   0.0000       0.139667         3.8005
  37   0.0000       0.153502         4.1770
  38   0.0000       0.161755         4.4016
  39   0.0000       0.169536         4.6133

MULLIKEN ATOMIC CHARGES
-----------------------
   0 C :   -0.374079
   1 C :    0.034594
   2 C :   -0.231000
   3 C :   -0.209520
   4 C :   -0.274692
   5 C :    0.128525
   6 O :   -0.301810
   7 C :    0.056982
   8 O :   -0.259192
   9 H :    0.123621
  10 H :    0.121060
  11 H :    0.144695
  12 H :    0.108187
  13 H :    0.123378
  14 H :    0.104292
  15 H :    0.120365
  16 H :    0.132126
  17 H :    0.133356
  18 H :    0.122851
  19 H :    0.122912
  20 H :    0.073349
Sum of atomic charges:   -0.0000000

LOEWDIN ATOMIC CHARGES
----------------------
   0 C :   -0.289922
   1 C :   -0.333331
   2 C :   -0.247510
   3 C :   -0.263281
   4 C :   -0.243460
   5 C :   -0.337989
   6 O :    0.209642
   7 C :   -0.281915
   8 O :    0.142198
   9 H :    0.124973
  10 H :    0.126250
  11 H :    0.128738
  12 H :    0.143727
  13 H :    0.141881
  14 H :    0.141249
  15 H :    0.140630
  16 H :    0.137599
  17 H :    0.141770
  18 H :    0.143739
  19 H :    0.161651
  20 H :    0.113362

  Mayer bond orders larger than 0.1
B(  0-C ,  1-C ) :   0.9176 B(  0-C ,  9-H ) :   0.9365 B(  0-C , 10-H ) :   0.9337
B(  0-C , 11-H ) :   0.9406 B(  1-C ,  2-C ) :   0.9292 B(  1-C ,  6-O ) :   0.8972
B(  1-C , 12-H ) :   0.9301 B(  2-C ,  3-C ) :   0.9184 B(  2-C , 13-H ) :   0.9239
B(  2-C , 14-H ) :   0.9197 B(  3-C ,  4-C ) :   0.9213 B(  3-C , 15-H ) :   0.9329
B(  3-C , 16-H ) :   0.9343 B(  4-C ,  5-C ) :   0.9022 B(  4-C , 17-H ) :   0.9257
B(  4-C , 18-H ) :   0.9218 B(  5-C ,  6-O ) :   0.9869 B(  5-C ,  7-C ) :   0.8469
B(  5-C , 19-H ) :   0.9041 B(  7-C ,  8-O ) :   1.9915 B(  7-C , 20-H ) :   0.9243

MP2 TOTAL ENERGY:     -423.544252801 Eh
FINAL SINGLE POINT ENERGY      -423.544252801174

DIPOLE MOMENT
-------------
                                X             Y             Z
Electronic contribution:     -3.42831      -2.77666       5.78309
Nuclear contribution   :      4.18112       2.25362      -6.35071
                        -----------------------------------------
Total Dipole Moment    :      0.75281      -0.52304      -0.56762
                        -----------------------------------------
Magnitude (a.u.)       :      1.07819
Magnitude (Debye)      :      2.74054

                             ****ORCA TERMINATED NORMALLY****
TOTAL RUN TIME: 0 days 0 hours 20 minutes 44 seconds 334 msec
