                         Program Version 3.0.3 - RELEASE   -
|  1> ! RI-MP2 RIJK def2-TZVP def2-TZVP/C def2-TZVP/JK TIGHTSCF
|  2> % maxcore 2000
|  3> % mp2 density relaxed end
|  4> *xyz 0 1
|  5>  C       -0.0046762739     1.4966180490     0.0274522026
|  6>  C        0.0125631768     0.0417300562    -0.0125131462
|  7>  C        0.0337634844    -1.1612995493    -0.0384133821
|  8>  C        0.0214656731    -2.6171050435    -0.0672659103
|  9>  C       -1.4070536602    -3.2204376869    -0.0193126550
| 10>  C       -1.3802042099    -4.7604660997    -0.1810421946
| 11>  O       -2.6661090089    -5.3300310454    -0.1837800868
| 12>  C       -2.0958423546    -2.8895914984     1.2306752588
| 13>  N       -2.6532597807    -2.7055082775     2.2268385651
| 14>  H        0.9074676283     1.8905613290     0.4886270129
| 15>  H       -0.0798183934     1.9228774118    -0.9787961737
| 16>  H       -0.8563431045     1.8641817237     0.6098726761
| 17>  H        0.5012871994    -2.9819375462    -0.9843714371
| 18>  H        0.6057981790    -3.0195074050     0.7695439196
| 19>  H       -1.9975137939    -2.8031068727    -0.8421879617
| 20>  H       -0.9343021081    -4.9954882236    -1.1524592079
| 21>  H       -0.7352837681    -5.1930582902     0.5991713205
| 22>  H       -3.0553513646    -5.1995855113     0.6889156197
| 23> *
| 24>
| 25>                          ****END OF INPUT****

CARTESIAN COORDINATES (ANGSTROEM)
---------------------------------
  C     -0.004676    1.496618    0.027452
  C      0.012563    0.041730   -0.012513
  C      0.033763   -1.161300   -0.038413
  C      0.021466   -2.617105   -0.067266
  C     -1.407054   -3.220438   -0.019313
  C     -1.380204   -4.760466   -0.181042
  O     -2.666109   -5.330031   -0.183780
  C     -2.095842   -2.889591    1.230675
  N     -2.653260   -2.705508    2.226839
  H      0.907468    1.890561    0.488627
  H     -0.079818    1.922877   -0.978796
  H     -0.856343    1.864182    0.609873
  H      0.501287   -2.981938   -0.984371
  H      0.605798   -3.019507    0.769544
  H     -1.997514   -2.803107   -0.842188
  H     -0.934302   -4.995488   -1.152459
  H     -0.735284   -5.193058    0.599171
  H     -3.055351   -5.199586    0.688916

 Total Charge           Charge          ....    0
 Multiplicity           Mult            ....    1
 Number of Electrons    NEL             ....   66
 Basis Dimension        Dim             ....  333

ORBITAL ENERGIES
----------------

  NO   OCC          E(Eh)            E(eV)
   0   2.0000     -20.576018      -559.9019
   1   2.0000     -15.575949      -423.8431
   2   2.0000     -11.308495      -307.7198
   3   2.0000     -11.294931      -307.3507
   4   2.0000     -11.282081      -307.0010
   5   2.0000     -11.277919      -306.8878
   6   2.0000     -11.252662      -306.2005
   7   2.0000     -11.237072      -305.7763
   8   2.0000     -11.229527      -305.5710
   9   2.0000      -1.385238       -37.6942
  10   2.0000      -1.226231       -33.3674
  11   2.0000      -1.126534       -30.6546
  12   2.0000      -1.062271       -28.9059
  13   2.0000      -0.995745       -27.0956
  14   2.0000      -0.928566       -25.2676
  15   2.0000      -0.894073       -24.3290
  16   2.0000      -0.734715       -19.9926
  17   2.0000      -0.718005       -19.5379
  18   2.0000      -0.673079       -18.3154
  19   2.0000      -0.647241       -17.6123
  20   2.0000      -0.629475       -17.1289
  21   2.0000      -0.606831       -16.5127
  22   2.0000      -0.600519       -16.3409
  23   2.0000      -0.592417       -16.1205
  24   2.0000      -0.589747       -16.0478
  25   2.0000      -0.567730       -15.4487
  26   2.0000      -0.555683       -15.1209
  27   2.0000      -0.520459       -14.1624
  28   2.0000      -0.487963       -13.2782
  29   2.0000      -0.466855       -12.7038
  30   2.0000      -0.452652       -12.3173
  31   2.0000      -0.381163       -10.3720
  32   2.0000      -0.380487       -10.3536
  33   0.0000       0.115546         3.1442
  34   0.0000       0.137754         3.7485
  35   0.0000       0.149464         4.0671
  36   0.0000       0.157078         4.2743
  37   0.0000       0.167042         4.5455

MULLIKEN ATOMIC CHARGES
-----------------------
   0 C :   -0.479184
   1 C :    0.084663
   2 C :   -0.036704
   3 C :   -0.366055
   4 C :    0.072664
   5 C :   -0.022081
   6 O :   -0.465912
   7 C :   -0.246568
   8 N :   -0.053810
   9 H :    0.163922
  10 H :    0.162207
  11 H :    0.169328
  12 H :    0.153288
  13 H :    0.154821
  14 H :    0.135262
  15 H :    0.126489
  16 H :    0.115230
  17 H :    0.332439
Sum of atomic charges:    0.0000000

LOEWDIN ATOMIC CHARGES
----------------------
   0 C :   -0.291320
   1 C :   -0.094094
   2 C :   -0.089415
   3 C :   -0.212032
   4 C :   -0.238861
   5 C :   -0.314238
   6 O :   -0.023913
   7 C :   -0.177323
   8 N :    0.063535
   9 H :    0.142497
  10 H :    0.141347
  11 H :    0.143893
  12 H :    0.161721
  13 H :    0.162794
  14 H :    0.181393
  15 H :    0.135490
  16 H :    0.125455
  17 H :    0.183070

  Mayer bond orders larger than 0.1
B(  0-C ,  1-C ) :   0.8491 B(  0-C ,  9-H ) :   0.9468 B(  0-C , 10-H ) :   0.9472
B(  0-C , 11-H ) :   0.9434 B(  1-C ,  2-C ) :   2.6968 B(  1-C ,  3-C ) :  -0.1080
B(  2-C ,  3-C ) :   1.0648 B(  3-C ,  4-C ) :   0.9028 B(  3-C , 12-H ) :   0.9211
B(  3-C , 13-H ) :   0.9129 B(  4-C ,  5-C ) :   0.8952 B(  4-C ,  7-C ) :   0.9111
B(  4-C , 14-H ) :   0.8943 B(  5-C ,  6-O ) :   0.9553 B(  5-C , 15-H ) :   0.9261
B(  5-C , 16-H ) :   0.9214 B(  6-O , 17-H ) :   0.8340 B(  7-C ,  8-N ) :   2.8603

MP2 TOTAL ENERGY:     -401.240227920 Eh
FINAL SINGLE POINT ENERGY      -401.240227919706

DIPOLE MOMENT
-------------
                                X             Y             Z
Electronic contribution:     -3.52131      -2.88926       2.65048
Nuclear contribution   :      4.50616       3.10577      -3.40419
                        -----------------------------------------
Total Dipole Moment    :      0.98484       0.21651      -0.75372
                        -----------------------------------------
Magnitude (a.u.)       :      1.25892
Magnitude (Debye)      :      3.19992

                             ****ORCA TERMINATED NORMALLY****
TOTAL RUN TIME: 0 days 0 hours 14 minutes 35 seconds 146 msec
