                         Program Version 3.0.3 - RELEASE   -
|  1> ! RI-MP2 RIJK def2-TZVP def2-TZVP/C def2-TZVP/JK TIGHTSCF
|  2> % maxcore 2000
|  3> % mp2 density relaxed end
|  4> *xyz 0 1
|  5>  C        0.0610484928     1.5653777531    -0.1851238564
|  6>  C        0.0126249342     0.0464913708     0.0012161296
|  7>  C       -1.4114172476    -0.5173176479    -0.0154320828
|  8>  C       -1.4618247586    -2.0470242446     0.1711553409
|  9>  C       -2.8442501809    -2.6188890262     0.1664363781
| 10>  C       -3.6206130031    -3.1285595783     1.1851964388
| 11>  C       -4.8767017299    -3.5107789126     0.6345163085
| 12>  C       -4.8365321653    -3.2251309505    -0.7087289294
| 13>  N       -3.6028743388    -2.6849758278    -0.9810812627
| 14>  H        1.0901127476     1.9379082678    -0.1695268484
| 15>  H       -0.3856332105     1.8617886868    -1.1408729285
| 16>  H       -0.4914019255     2.0791809684     0.6093149725
| 17>  H        0.6048863273    -0.4391980404    -0.7861774859
| 18>  H        0.4958707660    -0.2224139498     0.9499942528
| 19>  H       -2.0091828273    -0.0448337702     0.7741809111
| 20>  H       -1.8990184456    -0.2477376984    -0.9625609181
| 21>  H       -0.8494212157    -2.5212381636    -0.6100101615
| 22>  H       -0.9894472866    -2.3087990147     1.1243301480
| 23>  H       -3.3129440301    -3.2169117341     2.2165740037
| 24>  H       -5.7094731474    -3.9486355586     1.1631763411
| 25>  H       -5.5681083101    -3.3610952063    -1.4889554381
| 26>  H       -3.2923112449    -2.3880047230    -1.8897036932
| 27> *
| 28>
| 29>                          ****END OF INPUT****

CARTESIAN COORDINATES (ANGSTROEM)
---------------------------------
  C      0.061048    1.565378   -0.185124
  C      0.012625    0.046491    0.001216
  C     -1.411417   -0.517318   -0.015432
  C     -1.461825   -2.047024    0.171155
  C     -2.844250   -2.618889    0.166436
  C     -3.620613   -3.128560    1.185196
  C     -4.876702   -3.510779    0.634516
  C     -4.836532   -3.225131   -0.708729
  N     -3.602874   -2.684976   -0.981081
  H      1.090113    1.937908   -0.169527
  H     -0.385633    1.861789   -1.140873
  H     -0.491402    2.079181    0.609315
  H      0.604886   -0.439198   -0.786177
  H      0.495871   -0.222414    0.949994
  H     -2.009183   -0.044834    0.774181
  H     -1.899018   -0.247738   -0.962561
  H     -0.849421   -2.521238   -0.610010
  H     -0.989447   -2.308799    1.124330
  H     -3.312944   -3.216912    2.216574
  H     -5.709473   -3.948636    1.163176
  H     -5.568108   -3.361095   -1.488955
  H     -3.292311   -2.388005   -1.889704

 Total Charge           Charge          ....    0
 Multiplicity           Mult            ....    1
 Number of Electrons    NEL             ....   68
 Basis Dimension        Dim             ....  357

ORBITAL ENERGIES
----------------

  NO   OCC          E(Eh)            E(eV)
   0   2.0000     -15.594666      -424.3524
   1   2.0000     -11.249601      -306.1172
   2   2.0000     -11.243256      -305.9446
   3   2.0000     -11.231051      -305.6124
   4   2.0000     -11.222402      -305.3771
   5   2.0000     -11.221566      -305.3543
   6   2.0000     -11.214321      -305.1572
   7   2.0000     -11.201765      -304.8155
   8   2.0000     -11.197885      -304.7099
   9   2.0000      -1.283857       -34.9355
  10   2.0000      -1.082247       -29.4494
  11   2.0000      -1.034624       -28.1536
  12   2.0000      -1.018376       -27.7114
  13   2.0000      -0.945110       -25.7178
  14   2.0000      -0.865679       -23.5563
  15   2.0000      -0.797493       -21.7009
  16   2.0000      -0.781262       -21.2592
  17   2.0000      -0.762126       -20.7385
  18   2.0000      -0.692261       -18.8374
  19   2.0000      -0.644406       -17.5352
  20   2.0000      -0.596477       -16.2310
  21   2.0000      -0.591354       -16.0916
  22   2.0000      -0.580185       -15.7876
  23   2.0000      -0.566755       -15.4222
  24   2.0000      -0.558332       -15.1930
  25   2.0000      -0.539094       -14.6695
  26   2.0000      -0.528775       -14.3887
  27   2.0000      -0.517561       -14.0835
  28   2.0000      -0.494084       -13.4447
  29   2.0000      -0.475423       -12.9369
  30   2.0000      -0.467969       -12.7341
  31   2.0000      -0.466165       -12.6850
  32   2.0000      -0.341386        -9.2896
  33   2.0000      -0.284283        -7.7357
  34   0.0000       0.124423         3.3857
  35   0.0000       0.146888         3.9970
  36   0.0000       0.158991         4.3264
  37   0.0000       0.174780         4.7560
  38   0.0000       0.180702         4.9171

MULLIKEN ATOMIC CHARGES
-----------------------
   0 C :   -0.382135
   1 C :   -0.185243
   2 C :   -0.223909
   3 C :   -0.315995
   4 C :    0.237090
   5 C :   -0.265825
   6 C :   -0.152916
   7 C :   -0.112176
   8 N :   -0.279265
   9 H :    0.133065
  10 H :    0.120128
  11 H :    0.124236
  12 H :    0.102521
  13 H :    0.106795
  14 H :    0.121439
  15 H :    0.092429
  16 H :    0.127259
  17 H :    0.131212
  18 H :    0.119581
  19 H :    0.124916
  20 H :    0.139353
  21 H :    0.237441
Sum of atomic charges:    0.0000000

LOEWDIN ATOMIC CHARGES
----------------------
   0 C :   -0.321529
   1 C :   -0.298752
   2 C :   -0.267013
   3 C :   -0.239249
   4 C :   -0.233314
   5 C :   -0.179628
   6 C :   -0.205937
   7 C :   -0.243136
   8 N :    0.197538
   9 H :    0.120325
  10 H :    0.119576
  11 H :    0.120872
  12 H :    0.133369
  13 H :    0.134960
  14 H :    0.140336
  15 H :    0.131647
  16 H :    0.143067
  17 H :    0.151477
  18 H :    0.138414
  19 H :    0.136823
  20 H :    0.130108
  21 H :    0.190046

  Mayer bond orders larger than 0.1
B(  0-C ,  1-C ) :   0.9233 B(  0-C ,  9-H ) :   0.9424 B(  0-C , 10-H ) :   0.9394
B(  0-C , 11-H ) :   0.9395 B(  1-C ,  2-C ) :   0.9231 B(  1-C , 12-H ) :   0.9336
B(  1-C , 13-H ) :   0.9324 B(  2-C ,  3-C ) :   0.9160 B(  2-C , 14-H ) :   0.9294
B(  2-C , 15-H ) :   0.9338 B(  3-C ,  4-C ) :   0.8905 B(  3-C , 16-H ) :   0.9406
B(  3-C , 17-H ) :   0.9363 B(  4-C ,  5-C ) :   1.4644 B(  4-C ,  8-N ) :   1.0788
B(  5-C ,  6-C ) :   1.2816 B(  5-C , 18-H ) :   0.9433 B(  6-C ,  7-C ) :   1.4867
B(  6-C , 19-H ) :   0.9375 B(  7-C ,  8-N ) :   1.1424 B(  7-C , 20-H ) :   0.9177
B(  8-N , 21-H ) :   0.8763

MP2 TOTAL ENERGY:     -366.591984982 Eh
FINAL SINGLE POINT ENERGY      -366.591984982049

DIPOLE MOMENT
-------------
                                X             Y             Z
Electronic contribution:     -8.47514      -8.63979      -0.31006
Nuclear contribution   :      8.84538       8.94554      -0.30670
                        -----------------------------------------
Total Dipole Moment    :      0.37024       0.30575      -0.61676
                        -----------------------------------------
Magnitude (a.u.)       :      0.78164
Magnitude (Debye)      :      1.98676

                             ****ORCA TERMINATED NORMALLY****
TOTAL RUN TIME: 0 days 0 hours 17 minutes 53 seconds 816 msec
