                         Program Version 3.0.3 - RELEASE   -
|  1> ! RI-MP2 RIJK def2-TZVP def2-TZVP/C def2-TZVP/JK TIGHTSCF
|  2> % maxcore 2000
|  3> % mp2 density relaxed end
|  4> *xyz 0 1
|  5>  O       -0.0000829677    -0.0304390678     0.4118680409
|  6>  C       -0.0047621848     1.1236195577     0.0579690180
|  7>  C       -1.3690909662     1.8297326004    -0.0929329208
|  8>  O       -1.5607105095     2.6153766706    -1.2600053694
|  9>  C       -1.2757515619     3.9679008840    -1.1412341355
| 10>  O        0.0944527136     4.2035381762    -0.8291827342
| 11>  C        0.9662342990     3.5620421569    -1.6772984388
| 12>  N        1.5735889641     2.4993203723    -1.3901629303
| 13>  C        1.3187113934     1.8948976324    -0.0832913375
| 14>  H       -2.1169332056     1.0345764249    -0.1137892897
| 15>  H       -1.5295411540     2.4350451247     0.8139462087
| 16>  H       -1.5424170665     4.4148028738    -2.1062934497
| 17>  H       -1.8294394964     4.4471710271    -0.3237764865
| 18>  H        1.1173840587     4.0512971186    -2.6410896744
| 19>  H        1.3180888528     2.6569054324     0.7095685590
| 20>  H        2.1072611411     1.1710057357     0.1249028502
| 21> *
| 22>
| 23>                          ****END OF INPUT****

CARTESIAN COORDINATES (ANGSTROEM)
---------------------------------
  O     -0.000083   -0.030439    0.411868
  C     -0.004762    1.123620    0.057969
  C     -1.369091    1.829733   -0.092933
  O     -1.560711    2.615377   -1.260005
  C     -1.275752    3.967901   -1.141234
  O      0.094453    4.203538   -0.829183
  C      0.966234    3.562042   -1.677298
  N      1.573589    2.499320   -1.390163
  C      1.318711    1.894898   -0.083291
  H     -2.116933    1.034576   -0.113789
  H     -1.529541    2.435045    0.813946
  H     -1.542417    4.414803   -2.106293
  H     -1.829439    4.447171   -0.323776
  H      1.117384    4.051297   -2.641090
  H      1.318089    2.656905    0.709569
  H      2.107261    1.171006    0.124903

 Total Charge           Charge          ....    0
 Multiplicity           Mult            ....    1
 Number of Electrons    NEL             ....   68
 Basis Dimension        Dim             ....  321

ORBITAL ENERGIES
----------------

  NO   OCC          E(Eh)            E(eV)
   0   2.0000     -20.605679      -560.7090
   1   2.0000     -20.597947      -560.4986
   2   2.0000     -20.561582      -559.5091
   3   2.0000     -15.572536      -423.7502
   4   2.0000     -11.366911      -309.3094
   5   2.0000     -11.345017      -308.7136
   6   2.0000     -11.343443      -308.6708
   7   2.0000     -11.309287      -307.7413
   8   2.0000     -11.273838      -306.7767
   9   2.0000      -1.467131       -39.9227
  10   2.0000      -1.406789       -38.2807
  11   2.0000      -1.393792       -37.9270
  12   2.0000      -1.238852       -33.7109
  13   2.0000      -1.028531       -27.9877
  14   2.0000      -1.004600       -27.3366
  15   2.0000      -0.916020       -24.9262
  16   2.0000      -0.835688       -22.7402
  17   2.0000      -0.763845       -20.7853
  18   2.0000      -0.737367       -20.0648
  19   2.0000      -0.732043       -19.9199
  20   2.0000      -0.700659       -19.0659
  21   2.0000      -0.667004       -18.1501
  22   2.0000      -0.651964       -17.7408
  23   2.0000      -0.642408       -17.4808
  24   2.0000      -0.623539       -16.9674
  25   2.0000      -0.592489       -16.1224
  26   2.0000      -0.565339       -15.3837
  27   2.0000      -0.534932       -14.5562
  28   2.0000      -0.517637       -14.0856
  29   2.0000      -0.505238       -13.7482
  30   2.0000      -0.487063       -13.2537
  31   2.0000      -0.457847       -12.4587
  32   2.0000      -0.434560       -11.8250
  33   2.0000      -0.399354       -10.8670
  34   0.0000       0.118810         3.2330
  35   0.0000       0.130114         3.5406
  36   0.0000       0.146223         3.9789
  37   0.0000       0.162268         4.4155
  38   0.0000       0.184705         5.0261

MULLIKEN ATOMIC CHARGES
-----------------------
   0 O :   -0.253628
   1 C :    0.118714
   2 C :   -0.064575
   3 O :   -0.299023
   4 C :    0.092410
   5 O :   -0.314783
   6 C :    0.099982
   7 N :   -0.235698
   8 C :   -0.073664
   9 H :    0.152595
  10 H :    0.117702
  11 H :    0.123694
  12 H :    0.121134
  13 H :    0.134318
  14 H :    0.131225
  15 H :    0.149597
Sum of atomic charges:   -0.0000000

LOEWDIN ATOMIC CHARGES
----------------------
   0 O :    0.171491
   1 C :   -0.314879
   2 C :   -0.273657
   3 O :    0.177683
   4 C :   -0.389691
   5 O :    0.183956
   6 C :   -0.340750
   7 N :    0.098411
   8 C :   -0.255817
   9 H :    0.143882
  10 H :    0.137949
  11 H :    0.122205
  12 H :    0.118898
  13 H :    0.129257
  14 H :    0.146557
  15 H :    0.144505

  Mayer bond orders larger than 0.1
B(  0-O ,  1-C ) :   2.0138 B(  1-C ,  2-C ) :   0.8888 B(  1-C ,  8-C ) :   0.8977
B(  2-C ,  3-O ) :   0.8693 B(  2-C ,  9-H ) :   0.9241 B(  2-C , 10-H ) :   0.9108
B(  3-O ,  4-C ) :   0.9823 B(  4-C ,  5-O ) :   0.8988 B(  4-C , 11-H ) :   0.9316
B(  4-C , 12-H ) :   0.9318 B(  5-O ,  6-C ) :   0.9553 B(  6-C ,  7-N ) :   1.9035
B(  6-C , 13-H ) :   0.9209 B(  7-N ,  8-C ) :   0.8520 B(  8-C , 14-H ) :   0.9024
B(  8-C , 15-H ) :   0.9246

MP2 TOTAL ENERGY:     -474.261602877 Eh
FINAL SINGLE POINT ENERGY      -474.261602877429

DIPOLE MOMENT
-------------
                                X             Y             Z
Electronic contribution:      1.24310      -1.82568      -0.83533
Nuclear contribution   :     -1.91050       3.05152       1.01336
                        -----------------------------------------
Total Dipole Moment    :     -0.66740       1.22584       0.17803
                        -----------------------------------------
Magnitude (a.u.)       :      1.40706
Magnitude (Debye)      :      3.57646

                             ****ORCA TERMINATED NORMALLY****
TOTAL RUN TIME: 0 days 0 hours 14 minutes 12 seconds 353 msec
