                         Program Version 3.0.3 - RELEASE   -
|  1> ! RI-MP2 RIJK def2-TZVP def2-TZVP/C def2-TZVP/JK TIGHTSCF
|  2> % maxcore 2000
|  3> % mp2 density relaxed end
|  4> *xyz 0 1
|  5>  O        0.0144175635     0.7067926305     0.7859546399
|  6>  C       -0.3228142368     0.2628780310    -0.5142628946
|  7>  C       -1.5773802157    -0.5888475592    -0.5292084540
|  8>  C       -1.6537978083    -1.8084271738    -1.3954525864
|  9>  C       -1.4871661459    -1.9709783672     0.1059238139
| 10>  O       -0.2407031757    -2.3075945830     0.6526554135
| 11>  C       -2.6639445945    -2.4341139409     0.8916287768
| 12>  O       -3.8131446142    -2.2634177113     0.5637869436
| 13>  H        0.2521695037    -0.0826249894     1.2859198510
| 14>  H       -0.4883322763     1.1628762828    -1.1157640846
| 15>  H        0.5056394441    -0.2931492946    -0.9751018334
| 16>  H       -2.5101222969    -0.0711725964    -0.3283394510
| 17>  H       -2.6155366184    -2.1000349858    -1.8020934543
| 18>  H       -0.7849158925    -2.0492225117    -1.9998525098
| 19>  H        0.0083303558    -3.1898345058     0.3583984746
| 20>  H       -2.3858253419    -2.9556707652     1.8347482449
| 21> *
| 22>
| 23>                          ****END OF INPUT****

CARTESIAN COORDINATES (ANGSTROEM)
---------------------------------
  O      0.014418    0.706793    0.785955
  C     -0.322814    0.262878   -0.514263
  C     -1.577380   -0.588848   -0.529208
  C     -1.653798   -1.808427   -1.395453
  C     -1.487166   -1.970978    0.105924
  O     -0.240703   -2.307595    0.652655
  C     -2.663945   -2.434114    0.891629
  O     -3.813145   -2.263418    0.563787
  H      0.252170   -0.082625    1.285920
  H     -0.488332    1.162876   -1.115764
  H      0.505639   -0.293149   -0.975102
  H     -2.510122   -0.071173   -0.328339
  H     -2.615537   -2.100035   -1.802093
  H     -0.784916   -2.049223   -1.999853
  H      0.008330   -3.189835    0.358398
  H     -2.385825   -2.955671    1.834748

 Total Charge           Charge          ....    0
 Multiplicity           Mult            ....    1
 Number of Electrons    NEL             ....   62
 Basis Dimension        Dim             ....  296

ORBITAL ENERGIES
----------------

  NO   OCC          E(Eh)            E(eV)
   0   2.0000     -20.598353      -560.5097
   1   2.0000     -20.561787      -559.5147
   2   2.0000     -20.552858      -559.2717
   3   2.0000     -11.340455      -308.5895
   4   2.0000     -11.311610      -307.8046
   5   2.0000     -11.284103      -307.0560
   6   2.0000     -11.255600      -306.2805
   7   2.0000     -11.254065      -306.2387
   8   2.0000      -1.414315       -38.4855
   9   2.0000      -1.396850       -38.0102
  10   2.0000      -1.359373       -36.9904
  11   2.0000      -1.161527       -31.6068
  12   2.0000      -0.965037       -26.2600
  13   2.0000      -0.918934       -25.0055
  14   2.0000      -0.824688       -22.4409
  15   2.0000      -0.784079       -21.3359
  16   2.0000      -0.738034       -20.0829
  17   2.0000      -0.696418       -18.9505
  18   2.0000      -0.679625       -18.4935
  19   2.0000      -0.659287       -17.9401
  20   2.0000      -0.637704       -17.3528
  21   2.0000      -0.610908       -16.6236
  22   2.0000      -0.589538       -16.0421
  23   2.0000      -0.569541       -15.4980
  24   2.0000      -0.548156       -14.9161
  25   2.0000      -0.536171       -14.5900
  26   2.0000      -0.513775       -13.9805
  27   2.0000      -0.473158       -12.8753
  28   2.0000      -0.447761       -12.1842
  29   2.0000      -0.417725       -11.3669
  30   2.0000      -0.414796       -11.2872
  31   0.0000       0.108067         2.9407
  32   0.0000       0.126666         3.4468
  33   0.0000       0.164016         4.4631
  34   0.0000       0.165917         4.5148
  35   0.0000       0.177185         4.8214

MULLIKEN ATOMIC CHARGES
-----------------------
   0 O :   -0.478968
   1 C :   -0.004406
   2 C :   -0.117779
   3 C :   -0.329586
   4 C :    0.176298
   5 O :   -0.491037
   6 C :    0.079377
   7 O :   -0.283435
   8 H :    0.330724
   9 H :    0.124690
  10 H :    0.098836
  11 H :    0.151233
  12 H :    0.156936
  13 H :    0.154582
  14 H :    0.340190
  15 H :    0.092346
Sum of atomic charges:   -0.0000000

LOEWDIN ATOMIC CHARGES
----------------------
   0 O :   -0.041639
   1 C :   -0.326568
   2 C :   -0.182380
   3 C :   -0.173569
   4 C :   -0.350456
   5 O :    0.024426
   6 C :   -0.269338
   7 O :    0.133138
   8 H :    0.177309
   9 H :    0.134999
  10 H :    0.122383
  11 H :    0.159308
  12 H :    0.145839
  13 H :    0.141458
  14 H :    0.186968
  15 H :    0.118122

  Mayer bond orders larger than 0.1
B(  0-O ,  1-C ) :   0.9248 B(  0-O ,  8-H ) :   0.8368 B(  1-C ,  2-C ) :   0.9292
B(  1-C ,  9-H ) :   0.9324 B(  1-C , 10-H ) :   0.9197 B(  2-C ,  3-C ) :   0.9055
B(  2-C ,  4-C ) :   0.8248 B(  2-C , 11-H ) :   0.9133 B(  3-C ,  4-C ) :   0.8419
B(  3-C , 12-H ) :   0.9042 B(  3-C , 13-H ) :   0.9219 B(  4-C ,  5-O ) :   0.9785
B(  4-C ,  6-C ) :   0.9081 B(  5-O , 14-H ) :   0.8317 B(  6-C ,  7-O ) :   1.9552
B(  6-C , 15-H ) :   0.9380

MP2 TOTAL ENERGY:     -420.203844415 Eh
FINAL SINGLE POINT ENERGY      -420.203844415287

DIPOLE MOMENT
-------------
                                X             Y             Z
Electronic contribution:     -2.41014      -1.70985       2.73343
Nuclear contribution   :      3.16220       0.71073      -3.32058
                        -----------------------------------------
Total Dipole Moment    :      0.75207      -0.99912      -0.58714
                        -----------------------------------------
Magnitude (a.u.)       :      1.38152
Magnitude (Debye)      :      3.51154

                             ****ORCA TERMINATED NORMALLY****
TOTAL RUN TIME: 0 days 0 hours 11 minutes 0 seconds 368 msec
