                         Program Version 3.0.3 - RELEASE   -
|  1> ! RI-MP2 RIJK def2-TZVP def2-TZVP/C def2-TZVP/JK TIGHTSCF
|  2> % maxcore 2000
|  3> % mp2 density relaxed end
|  4> *xyz 0 1
|  5>  C       -0.0413311757     1.4263630332    -0.0581593793
|  6>  N        0.1608495755    -0.0084179021     0.0386563041
|  7>  C        0.6619004365    -0.7012692311    -1.0278121377
|  8>  N        1.2277173469    -0.0995869638    -2.0696372589
|  9>  N        1.6404195730    -1.1267873765    -2.8660542457
| 10>  C        1.3471219539    -2.3393243372    -2.3794577584
| 11>  C        0.7002480963    -2.1293803589    -1.1697130207
| 12>  C        0.1822026799    -3.0788874136    -0.2671242165
| 13>  N       -0.2669134491    -3.8197983781     0.5042087514
| 14>  H        0.9076526565     1.9145347974    -0.2937821746
| 15>  H       -0.7646370576     1.7061498347    -0.8369989740
| 16>  H       -0.3940615709     1.7966614537     0.9064801768
| 17>  H       -0.4998803431    -0.5193790988     0.6025533246
| 18>  H        2.1071694087    -0.9073639941    -3.7288671352
| 19>  H        1.6007957892    -3.2529928148    -2.8923619157
| 20> *
| 21>
| 22>                          ****END OF INPUT****

CARTESIAN COORDINATES (ANGSTROEM)
---------------------------------
  C     -0.041331    1.426363   -0.058159
  N      0.160850   -0.008418    0.038656
  C      0.661900   -0.701269   -1.027812
  N      1.227717   -0.099587   -2.069637
  N      1.640420   -1.126787   -2.866054
  C      1.347122   -2.339324   -2.379458
  C      0.700248   -2.129380   -1.169713
  C      0.182203   -3.078887   -0.267124
  N     -0.266913   -3.819798    0.504209
  H      0.907653    1.914535   -0.293782
  H     -0.764637    1.706150   -0.836999
  H     -0.394062    1.796661    0.906480
  H     -0.499880   -0.519379    0.602553
  H      2.107169   -0.907364   -3.728867
  H      1.600796   -3.252993   -2.892362

 Total Charge           Charge          ....    0
 Multiplicity           Mult            ....    1
 Number of Electrons    NEL             ....   64
 Basis Dimension        Dim             ....  315

ORBITAL ENERGIES
----------------

  NO   OCC          E(Eh)            E(eV)
   0   2.0000     -15.659055      -426.1046
   1   2.0000     -15.587719      -424.1634
   2   2.0000     -15.580134      -423.9570
   3   2.0000     -15.567671      -423.6179
   4   2.0000     -11.322430      -308.0990
   5   2.0000     -11.320156      -308.0371
   6   2.0000     -11.277136      -306.8665
   7   2.0000     -11.265176      -306.5410
   8   2.0000     -11.260240      -306.4067
   9   2.0000      -1.395094       -37.9624
  10   2.0000      -1.254990       -34.1500
  11   2.0000      -1.215340       -33.0711
  12   2.0000      -1.108454       -30.1626
  13   2.0000      -1.088549       -29.6209
  14   2.0000      -0.944152       -25.6917
  15   2.0000      -0.893549       -24.3147
  16   2.0000      -0.803834       -21.8734
  17   2.0000      -0.793157       -21.5829
  18   2.0000      -0.696726       -18.9589
  19   2.0000      -0.676628       -18.4120
  20   2.0000      -0.652196       -17.7472
  21   2.0000      -0.647442       -17.6178
  22   2.0000      -0.604054       -16.4371
  23   2.0000      -0.583025       -15.8649
  24   2.0000      -0.556865       -15.1531
  25   2.0000      -0.550360       -14.9761
  26   2.0000      -0.507306       -13.8045
  27   2.0000      -0.488744       -13.2994
  28   2.0000      -0.466536       -12.6951
  29   2.0000      -0.454001       -12.3540
  30   2.0000      -0.366732        -9.9793
  31   2.0000      -0.330567        -8.9952
  32   0.0000       0.112695         3.0666
  33   0.0000       0.120513         3.2793
  34   0.0000       0.139623         3.7993
  35   0.0000       0.157926         4.2974
  36   0.0000       0.166625         4.5341

MULLIKEN ATOMIC CHARGES
-----------------------
   0 C :   -0.273135
   1 N :   -0.350642
   2 C :    0.171784
   3 N :   -0.250935
   4 N :   -0.111935
   5 C :   -0.075980
   6 C :    0.086686
   7 C :   -0.241166
   8 N :   -0.055641
   9 H :    0.149668
  10 H :    0.128630
  11 H :    0.140370
  12 H :    0.247032
  13 H :    0.263082
  14 H :    0.172181
Sum of atomic charges:   -0.0000000

LOEWDIN ATOMIC CHARGES
----------------------
   0 C :   -0.318292
   1 N :    0.060431
   2 C :   -0.315956
   3 N :    0.034904
   4 N :    0.141172
   5 C :   -0.188863
   6 C :   -0.189572
   7 C :   -0.170006
   8 N :    0.062697
   9 H :    0.123582
  10 H :    0.110509
  11 H :    0.119121
  12 H :    0.190704
  13 H :    0.192898
  14 H :    0.146668

  Mayer bond orders larger than 0.1
B(  0-C ,  1-N ) :   0.8948 B(  0-C ,  9-H ) :   0.9335 B(  0-C , 10-H ) :   0.9355
B(  0-C , 11-H ) :   0.9326 B(  1-N ,  2-C ) :   1.1489 B(  1-N , 12-H ) :   0.8671
B(  2-C ,  3-N ) :   1.5538 B(  2-C ,  6-C ) :   1.1596 B(  3-N ,  4-N ) :   1.0142
B(  3-N ,  5-C ) :   0.1146 B(  4-N ,  5-C ) :   1.2731 B(  4-N , 13-H ) :   0.8737
B(  5-C ,  6-C ) :   1.3713 B(  5-C , 14-H ) :   0.8985 B(  6-C ,  7-C ) :   0.8896
B(  7-C ,  8-N ) :   2.8723

MP2 TOTAL ENERGY:     -412.312537349 Eh
FINAL SINGLE POINT ENERGY      -412.312537349321

DIPOLE MOMENT
-------------
                                X             Y             Z
Electronic contribution:      1.16861      -6.86047      -1.24931
Nuclear contribution   :     -0.72261       7.69737      -0.01851
                        -----------------------------------------
Total Dipole Moment    :      0.44600       0.83690      -1.26782
                        -----------------------------------------
Magnitude (a.u.)       :      1.58325
Magnitude (Debye)      :      4.02430

                             ****ORCA TERMINATED NORMALLY****
TOTAL RUN TIME: 0 days 0 hours 16 minutes 9 seconds 663 msec
