                         Program Version 3.0.3 - RELEASE   -
|  1> ! RI-MP2 RIJK def2-TZVP def2-TZVP/C def2-TZVP/JK TIGHTSCF
|  2> % maxcore 2000
|  3> % mp2 density relaxed end
|  4> *xyz 0 1
|  5>  C        0.0009516735     1.5829440849     0.0945139681
|  6>  C       -0.0084183498     0.0586534706    -0.0090896843
|  7>  C        0.7654030059    -0.4560395637    -1.2256922376
|  8>  O        2.1412841839    -0.1361488420    -1.1471549227
|  9>  O        0.6348632855    -0.5375996104     1.1236940550
| 10>  C       -0.1888503416    -0.7451172443     2.2595474624
| 11>  C        0.7336092581    -1.1085816532     3.4120796845
| 12>  O        1.6354619691    -0.0592953585     3.7014777344
| 13>  H        1.0293003720     1.9491995285     0.0428220875
| 14>  H       -0.5653174822     2.0253561215    -0.7314619164
| 15>  H       -0.4500980828     1.9233251904     1.0307428813
| 16>  H       -1.0426525264    -0.3129628853    -0.0737153461
| 17>  H        0.6123838565    -1.5429354129    -1.3090653038
| 18>  H        0.3812745658     0.0111683055    -2.1383594109
| 19>  H        2.4473828030    -0.5004161773    -0.3086010396
| 20>  H       -0.7442486424     0.1699365572     2.5106984200
| 21>  H       -0.9157716416    -1.5510474078     2.0696837244
| 22>  H        0.1420887862    -1.2876403489     4.3159051366
| 23>  H        1.2644576505    -2.0422845476     3.1653426696
| 24>  H        2.0122115168     0.2031036933     2.8535518275
| 25> *
| 26>
| 27>                          ****END OF INPUT****

CARTESIAN COORDINATES (ANGSTROEM)
---------------------------------
  C      0.000952    1.582944    0.094514
  C     -0.008418    0.058653   -0.009090
  C      0.765403   -0.456040   -1.225692
  O      2.141284   -0.136149   -1.147155
  O      0.634863   -0.537600    1.123694
  C     -0.188850   -0.745117    2.259547
  C      0.733609   -1.108582    3.412080
  O      1.635462   -0.059295    3.701478
  H      1.029300    1.949200    0.042822
  H     -0.565317    2.025356   -0.731462
  H     -0.450098    1.923325    1.030743
  H     -1.042653   -0.312963   -0.073715
  H      0.612384   -1.542935   -1.309065
  H      0.381275    0.011168   -2.138359
  H      2.447383   -0.500416   -0.308601
  H     -0.744249    0.169937    2.510698
  H     -0.915772   -1.551047    2.069684
  H      0.142089   -1.287640    4.315905
  H      1.264458   -2.042285    3.165343
  H      2.012212    0.203104    2.853552

 Total Charge           Charge          ....    0
 Multiplicity           Mult            ....    1
 Number of Electrons    NEL             ....   66
 Basis Dimension        Dim             ....  320

ORBITAL ENERGIES
----------------

  NO   OCC          E(Eh)            E(eV)
   0   2.0000     -20.570310      -559.7466
   1   2.0000     -20.554333      -559.3118
   2   2.0000     -20.553539      -559.2902
   3   2.0000     -11.291218      -307.2496
   4   2.0000     -11.286174      -307.1124
   5   2.0000     -11.278456      -306.9024
   6   2.0000     -11.277479      -306.8758
   7   2.0000     -11.220643      -305.3292
   8   2.0000      -1.397590       -38.0304
   9   2.0000      -1.361923       -37.0598
  10   2.0000      -1.351626       -36.7796
  11   2.0000      -1.059982       -28.8436
  12   2.0000      -0.990727       -26.9591
  13   2.0000      -0.932437       -25.3729
  14   2.0000      -0.850934       -23.1551
  15   2.0000      -0.806307       -21.9407
  16   2.0000      -0.706505       -19.2250
  17   2.0000      -0.691841       -18.8259
  18   2.0000      -0.683043       -18.5865
  19   2.0000      -0.666377       -18.1330
  20   2.0000      -0.643955       -17.5229
  21   2.0000      -0.602367       -16.3912
  22   2.0000      -0.595924       -16.2159
  23   2.0000      -0.575915       -15.6714
  24   2.0000      -0.553170       -15.0525
  25   2.0000      -0.546404       -14.8684
  26   2.0000      -0.541589       -14.7374
  27   2.0000      -0.517611       -14.0849
  28   2.0000      -0.492327       -13.3969
  29   2.0000      -0.476985       -12.9794
  30   2.0000      -0.454967       -12.3803
  31   2.0000      -0.443930       -12.0800
  32   2.0000      -0.427169       -11.6239
  33   0.0000       0.129780         3.5315
  34   0.0000       0.143444         3.9033
  35   0.0000       0.157123         4.2755
  36   0.0000       0.170235         4.6323
  37   0.0000       0.186181         5.0663

MULLIKEN ATOMIC CHARGES
-----------------------
   0 C :   -0.398670
   1 C :    0.042760
   2 C :    0.019947
   3 O :   -0.480722
   4 O :   -0.364295
   5 C :   -0.100182
   6 C :    0.001110
   7 O :   -0.482773
   8 H :    0.142911
   9 H :    0.129077
  10 H :    0.133226
  11 H :    0.079846
  12 H :    0.104628
  13 H :    0.102993
  14 H :    0.324333
  15 H :    0.107952
  16 H :    0.105435
  17 H :    0.110548
  18 H :    0.099182
  19 H :    0.322695
Sum of atomic charges:   -0.0000000

LOEWDIN ATOMIC CHARGES
----------------------
   0 C :   -0.298232
   1 C :   -0.356652
   2 C :   -0.330049
   3 O :   -0.043392
   4 O :    0.152069
   5 C :   -0.338178
   6 C :   -0.354416
   7 O :   -0.048389
   8 H :    0.129984
   9 H :    0.127688
  10 H :    0.122496
  11 H :    0.139087
  12 H :    0.119798
  13 H :    0.131677
  14 H :    0.175796
  15 H :    0.123794
  16 H :    0.122826
  17 H :    0.130533
  18 H :    0.118979
  19 H :    0.174579

  Mayer bond orders larger than 0.1
B(  0-C ,  1-C ) :   0.9362 B(  0-C ,  8-H ) :   0.9288 B(  0-C ,  9-H ) :   0.9305
B(  0-C , 10-H ) :   0.9322 B(  1-C ,  2-C ) :   0.9340 B(  1-C ,  4-O ) :   0.8519
B(  1-C , 11-H ) :   0.9299 B(  2-C ,  3-O ) :   0.9311 B(  2-C , 12-H ) :   0.9278
B(  2-C , 13-H ) :   0.9229 B(  3-O , 14-H ) :   0.8335 B(  4-O ,  5-C ) :   0.9064
B(  5-C ,  6-C ) :   0.9579 B(  5-C , 15-H ) :   0.9239 B(  5-C , 16-H ) :   0.9194
B(  6-C ,  7-O ) :   0.9358 B(  6-C , 17-H ) :   0.9239 B(  6-C , 18-H ) :   0.9322
B(  7-O , 19-H ) :   0.8334

MP2 TOTAL ENERGY:     -422.607316850 Eh
FINAL SINGLE POINT ENERGY      -422.607316849919

DIPOLE MOMENT
-------------
                                X             Y             Z
Electronic contribution:      3.52668      -1.40261       0.79152
Nuclear contribution   :     -4.52871       1.04178      -0.96369
                        -----------------------------------------
Total Dipole Moment    :     -1.00203      -0.36082      -0.17217
                        -----------------------------------------
Magnitude (a.u.)       :      1.07884
Magnitude (Debye)      :      2.74219

                             ****ORCA TERMINATED NORMALLY****
TOTAL RUN TIME: 0 days 0 hours 11 minutes 39 seconds 647 msec
