                         Program Version 3.0.3 - RELEASE   -
|  1> ! RI-MP2 RIJK def2-TZVP def2-TZVP/C def2-TZVP/JK TIGHTSCF
|  2> % maxcore 2000
|  3> % mp2 density relaxed end
|  4> *xyz 0 1
|  5>  C        0.0155982837     1.3849924651    -0.0590509861
|  6>  N        0.0216287278    -0.0584934569    -0.0950156889
|  7>  C       -1.1938009179    -0.8611721234    -0.0663270472
|  8>  C       -0.7036731900    -2.2734527817    -0.4546806339
|  9>  C        0.7715700669    -2.2871478297    -0.0258155058
| 10>  C        0.9764531321    -2.7887214540     1.4114628532
| 11>  O        1.5713818969    -3.0270369867    -0.9266378758
| 12>  C        1.1579714432    -0.8018134523    -0.1126744869
| 13>  O        2.3060061659    -0.3998831883    -0.1915753450
| 14>  H        1.0521048932     1.7224497873    -0.1156317999
| 15>  H       -0.5459394564     1.7962988431    -0.9063630865
| 16>  H       -0.4364825566     1.7593197115     0.8681022347
| 17>  H       -1.6547263015    -0.8414531134     0.9321069893
| 18>  H       -1.9309618073    -0.4647045872    -0.7735902640
| 19>  H       -1.2999196915    -3.0619019800     0.0091738505
| 20>  H       -0.7419473744    -2.4022099320    -1.5392398214
| 21>  H        0.7736705237    -3.8627621483     1.4498518374
| 22>  H        2.0100530350    -2.6153394630     1.7243301127
| 23>  H        0.3131058288    -2.2808396355     2.1205472477
| 24>  H        2.4232888885    -2.5663251047    -0.9490188640
| 25> *
| 26>
| 27>                          ****END OF INPUT****

CARTESIAN COORDINATES (ANGSTROEM)
---------------------------------
  C      0.015598    1.384992   -0.059051
  N      0.021629   -0.058493   -0.095016
  C     -1.193801   -0.861172   -0.066327
  C     -0.703673   -2.273453   -0.454681
  C      0.771570   -2.287148   -0.025816
  C      0.976453   -2.788721    1.411463
  O      1.571382   -3.027037   -0.926638
  C      1.157971   -0.801813   -0.112674
  O      2.306006   -0.399883   -0.191575
  H      1.052105    1.722450   -0.115632
  H     -0.545939    1.796299   -0.906363
  H     -0.436483    1.759320    0.868102
  H     -1.654726   -0.841453    0.932107
  H     -1.930962   -0.464705   -0.773590
  H     -1.299920   -3.061902    0.009174
  H     -0.741947   -2.402210   -1.539240
  H      0.773671   -3.862762    1.449852
  H      2.010053   -2.615339    1.724330
  H      0.313106   -2.280840    2.120547
  H      2.423289   -2.566325   -0.949019

 Total Charge           Charge          ....    0
 Multiplicity           Mult            ....    1
 Number of Electrons    NEL             ....   70
 Basis Dimension        Dim             ....  345

ORBITAL ENERGIES
----------------

  NO   OCC          E(Eh)            E(eV)
   0   2.0000     -20.555337      -559.3392
   1   2.0000     -20.522579      -558.4478
   2   2.0000     -15.593951      -424.3330
   3   2.0000     -11.343681      -308.6772
   4   2.0000     -11.298496      -307.4477
   5   2.0000     -11.280869      -306.9681
   6   2.0000     -11.265915      -306.5611
   7   2.0000     -11.238844      -305.8245
   8   2.0000     -11.225132      -305.4514
   9   2.0000      -1.396632       -38.0043
  10   2.0000      -1.357369       -36.9359
  11   2.0000      -1.269794       -34.5528
  12   2.0000      -1.081752       -29.4360
  13   2.0000      -0.998342       -27.1663
  14   2.0000      -0.958832       -26.0911
  15   2.0000      -0.911835       -24.8123
  16   2.0000      -0.813619       -22.1397
  17   2.0000      -0.754028       -20.5182
  18   2.0000      -0.698885       -19.0176
  19   2.0000      -0.684902       -18.6371
  20   2.0000      -0.669874       -18.2282
  21   2.0000      -0.629500       -17.1296
  22   2.0000      -0.614464       -16.7204
  23   2.0000      -0.603112       -16.4115
  24   2.0000      -0.581923       -15.8349
  25   2.0000      -0.572330       -15.5739
  26   2.0000      -0.561528       -15.2800
  27   2.0000      -0.533147       -14.5077
  28   2.0000      -0.529919       -14.4198
  29   2.0000      -0.524841       -14.2817
  30   2.0000      -0.513810       -13.9815
  31   2.0000      -0.500199       -13.6111
  32   2.0000      -0.446378       -12.1466
  33   2.0000      -0.412406       -11.2221
  34   2.0000      -0.382089       -10.3972
  35   0.0000       0.122584         3.3357
  36   0.0000       0.151541         4.1236
  37   0.0000       0.160875         4.3776
  38   0.0000       0.172524         4.6946
  39   0.0000       0.184185         5.0119

MULLIKEN ATOMIC CHARGES
-----------------------
   0 C :   -0.333408
   1 N :   -0.077226
   2 C :   -0.191829
   3 C :   -0.234633
   4 C :    0.284845
   5 C :   -0.426617
   6 O :   -0.477700
   7 C :    0.132353
   8 O :   -0.389922
   9 H :    0.179497
  10 H :    0.138623
  11 H :    0.137133
  12 H :    0.123052
  13 H :    0.133084
  14 H :    0.134213
  15 H :    0.131654
  16 H :    0.139758
  17 H :    0.139541
  18 H :    0.123858
  19 H :    0.333724
Sum of atomic charges:   -0.0000000

LOEWDIN ATOMIC CHARGES
----------------------
   0 C :   -0.286285
   1 N :    0.186359
   2 C :   -0.236844
   3 C :   -0.198800
   4 C :   -0.374978
   5 C :   -0.263947
   6 O :    0.014468
   7 C :   -0.412490
   8 O :    0.069229
   9 H :    0.137385
  10 H :    0.119872
  11 H :    0.118968
  12 H :    0.128194
  13 H :    0.132548
  14 H :    0.140388
  15 H :    0.149479
  16 H :    0.130301
  17 H :    0.131687
  18 H :    0.126939
  19 H :    0.187527

  Mayer bond orders larger than 0.1
B(  0-C ,  1-N ) :   0.8730 B(  0-C ,  9-H ) :   0.9236 B(  0-C , 10-H ) :   0.9309
B(  0-C , 11-H ) :   0.9301 B(  1-N ,  2-C ) :   0.8872 B(  1-N ,  7-C ) :   1.2058
B(  2-C ,  3-C ) :   0.9284 B(  2-C , 12-H ) :   0.9154 B(  2-C , 13-H ) :   0.9303
B(  3-C ,  4-C ) :   0.8687 B(  3-C , 14-H ) :   0.9315 B(  3-C , 15-H ) :   0.9257
B(  4-C ,  5-C ) :   0.8983 B(  4-C ,  6-O ) :   1.0281 B(  4-C ,  7-C ) :   0.8837
B(  5-C , 16-H ) :   0.9352 B(  5-C , 17-H ) :   0.9285 B(  5-C , 18-H ) :   0.9235
B(  6-O , 19-H ) :   0.8158 B(  7-C ,  8-O ) :   1.9008

MP2 TOTAL ENERGY:     -439.624246878 Eh
FINAL SINGLE POINT ENERGY      -439.624246878404

DIPOLE MOMENT
-------------
                                X             Y             Z
Electronic contribution:      4.58422      -0.30014      -2.87499
Nuclear contribution   :     -5.95883       0.76588       3.27470
                        -----------------------------------------
Total Dipole Moment    :     -1.37461       0.46573       0.39971
                        -----------------------------------------
Magnitude (a.u.)       :      1.50540
Magnitude (Debye)      :      3.82643

                             ****ORCA TERMINATED NORMALLY****
TOTAL RUN TIME: 0 days 0 hours 18 minutes 47 seconds 150 msec
