                         Program Version 3.0.3 - RELEASE   -
|  1> ! RI-MP2 RIJK def2-TZVP def2-TZVP/C def2-TZVP/JK TIGHTSCF
|  2> % maxcore 2000
|  3> % mp2 density relaxed end
|  4> *xyz 0 1
|  5>  C        0.2600376912     0.5984683112    -1.4787224936
|  6>  C        0.0241157176     0.2086585004    -0.0198324572
|  7>  N       -1.2564877188    -0.4834355662     0.1223125871
|  8>  C       -1.3877313891    -1.8561229048    -0.3593833938
|  9>  C       -0.8711785113    -2.8548671603     0.6738747384
| 10>  O        0.0458827924    -2.4002406819     1.6472106596
| 11>  C       -0.6110712309    -1.3589968425     2.3840128571
| 12>  C       -1.7512707173    -0.9127890736     1.4700441694
| 13>  C       -2.2252960500    -2.2498893207     0.8442982786
| 14>  H        1.1971823739     1.1538892035    -1.5819232935
| 15>  H        0.3306691658    -0.2883650012    -2.1175683419
| 16>  H       -0.5599081317     1.2190974034    -1.8513649985
| 17>  H        0.8744636894    -0.3878537571     0.3447764117
| 18>  H       -0.0276877955     1.1166193349     0.5944396399
| 19>  H       -1.5246653283    -2.0884869126    -1.4107396999
| 20>  H       -0.7363392976    -3.8952220337     0.4013631716
| 21>  H       -0.9968417054    -1.7420470743     3.3420388896
| 22>  H        0.1202614252    -0.5719730426     2.5914502604
| 23>  H       -2.4750674954    -0.2343363279     1.9270081280
| 24>  H       -3.1842503142    -2.7380467239     0.9383492070
| 25> *
| 26>
| 27>                          ****END OF INPUT****

CARTESIAN COORDINATES (ANGSTROEM)
---------------------------------
  C      0.260038    0.598468   -1.478722
  C      0.024116    0.208659   -0.019832
  N     -1.256488   -0.483436    0.122313
  C     -1.387731   -1.856123   -0.359383
  C     -0.871179   -2.854867    0.673875
  O      0.045883   -2.400241    1.647211
  C     -0.611071   -1.358997    2.384013
  C     -1.751271   -0.912789    1.470044
  C     -2.225296   -2.249889    0.844298
  H      1.197182    1.153889   -1.581923
  H      0.330669   -0.288365   -2.117568
  H     -0.559908    1.219097   -1.851365
  H      0.874464   -0.387854    0.344776
  H     -0.027688    1.116619    0.594440
  H     -1.524665   -2.088487   -1.410740
  H     -0.736339   -3.895222    0.401363
  H     -0.996842   -1.742047    3.342039
  H      0.120261   -0.571973    2.591450
  H     -2.475067   -0.234336    1.927008
  H     -3.184250   -2.738047    0.938349

 Total Charge           Charge          ....    0
 Multiplicity           Mult            ....    1
 Number of Electrons    NEL             ....   68
 Basis Dimension        Dim             ....  345

ORBITAL ENERGIES
----------------

  NO   OCC          E(Eh)            E(eV)
   0   2.0000     -20.555590      -559.3460
   1   2.0000     -15.548850      -423.1057
   2   2.0000     -11.283463      -307.0386
   3   2.0000     -11.275726      -306.8281
   4   2.0000     -11.267738      -306.6107
   5   2.0000     -11.261183      -306.4324
   6   2.0000     -11.240675      -305.8743
   7   2.0000     -11.233564      -305.6808
   8   2.0000     -11.208894      -305.0095
   9   2.0000      -1.389617       -37.8134
  10   2.0000      -1.257023       -34.2053
  11   2.0000      -1.095959       -29.8226
  12   2.0000      -1.019236       -27.7348
  13   2.0000      -0.964362       -26.2416
  14   2.0000      -0.855456       -23.2781
  15   2.0000      -0.845778       -23.0148
  16   2.0000      -0.788231       -21.4489
  17   2.0000      -0.727108       -19.7856
  18   2.0000      -0.720607       -19.6087
  19   2.0000      -0.668810       -18.1992
  20   2.0000      -0.636234       -17.3128
  21   2.0000      -0.629450       -17.1282
  22   2.0000      -0.593701       -16.1554
  23   2.0000      -0.585981       -15.9454
  24   2.0000      -0.548231       -14.9181
  25   2.0000      -0.528600       -14.3839
  26   2.0000      -0.525875       -14.3098
  27   2.0000      -0.501627       -13.6500
  28   2.0000      -0.489679       -13.3248
  29   2.0000      -0.473003       -12.8711
  30   2.0000      -0.459038       -12.4911
  31   2.0000      -0.427871       -11.6430
  32   2.0000      -0.400650       -10.9022
  33   2.0000      -0.330475        -8.9927
  34   0.0000       0.143686         3.9099
  35   0.0000       0.155989         4.2447
  36   0.0000       0.167085         4.5466
  37   0.0000       0.183537         4.9943
  38   0.0000       0.193937         5.2773

MULLIKEN ATOMIC CHARGES
-----------------------
   0 C :   -0.388771
   1 C :   -0.146798
   2 N :   -0.128956
   3 C :   -0.133219
   4 C :    0.065754
   5 O :   -0.327933
   6 C :   -0.032879
   7 C :   -0.057250
   8 C :   -0.220525
   9 H :    0.127749
  10 H :    0.124779
  11 H :    0.126797
  12 H :    0.115240
  13 H :    0.113089
  14 H :    0.130827
  15 H :    0.127975
  16 H :    0.098125
  17 H :    0.121271
  18 H :    0.133135
  19 H :    0.151590
Sum of atomic charges:    0.0000000

LOEWDIN ATOMIC CHARGES
----------------------
   0 C :   -0.317015
   1 C :   -0.317336
   2 N :    0.135066
   3 C :   -0.199062
   4 C :   -0.262037
   5 O :    0.168424
   6 C :   -0.277428
   7 C :   -0.211098
   8 C :   -0.145855
   9 H :    0.122038
  10 H :    0.120289
  11 H :    0.121986
  12 H :    0.126619
  13 H :    0.130815
  14 H :    0.132383
  15 H :    0.142534
  16 H :    0.124665
  17 H :    0.128395
  18 H :    0.141364
  19 H :    0.135255

  Mayer bond orders larger than 0.1
B(  0-C ,  1-C ) :   0.9369 B(  0-C ,  9-H ) :   0.9382 B(  0-C , 10-H ) :   0.9367
B(  0-C , 11-H ) :   0.9372 B(  1-C ,  2-N ) :   0.8800 B(  1-C , 12-H ) :   0.9112
B(  1-C , 13-H ) :   0.9258 B(  2-N ,  3-C ) :   0.9960 B(  2-N ,  7-C ) :   0.9871
B(  3-C ,  4-C ) :   0.8585 B(  3-C ,  8-C ) :   0.8508 B(  3-C , 14-H ) :   0.9115
B(  4-C ,  5-O ) :   0.9555 B(  4-C ,  8-C ) :   0.8861 B(  4-C , 15-H ) :   0.9340
B(  5-O ,  6-C ) :   0.9177 B(  6-C ,  7-C ) :   0.9725 B(  6-C , 16-H ) :   0.9116
B(  6-C , 17-H ) :   0.9154 B(  7-C ,  8-C ) :   0.9216 B(  7-C , 18-H ) :   0.9024
B(  8-C , 19-H ) :   0.9005

MP2 TOTAL ENERGY:     -402.402615497 Eh
FINAL SINGLE POINT ENERGY      -402.402615496641

DIPOLE MOMENT
-------------
                                X             Y             Z
Electronic contribution:     -2.27125      -4.79409       3.17155
Nuclear contribution   :      1.92920       4.82376      -3.06373
                        -----------------------------------------
Total Dipole Moment    :     -0.34206       0.02968       0.10782
                        -----------------------------------------
Magnitude (a.u.)       :      0.35987
Magnitude (Debye)      :      0.91472

                             ****ORCA TERMINATED NORMALLY****
TOTAL RUN TIME: 0 days 0 hours 18 minutes 55 seconds 783 msec
