                         Program Version 3.0.3 - RELEASE   -
|  1> ! RI-MP2 RIJK def2-TZVP def2-TZVP/C def2-TZVP/JK TIGHTSCF
|  2> % maxcore 2000
|  3> % mp2 density relaxed end
|  4> *xyz 0 1
|  5>  C        0.3796070540     1.3471949283     0.1456686180
|  6>  C       -0.3843788287     0.0855533563    -0.2654042366
|  7>  N        0.2092706183    -0.5969087485    -1.4043952656
|  8>  C        1.0046626790    -1.6990013746    -1.2653801931
|  9>  O        1.2429135608    -2.2370748178    -0.1984498469
| 10>  C        1.5423120922    -2.1892757413    -2.5271746920
| 11>  C        2.0133409879    -2.6308915238    -3.5446576440
| 12>  C        2.5666981675    -3.1448461220    -4.7904934277
| 13>  O        3.4185417886    -4.2461903164    -4.5198454374
| 14>  H        1.4049551514     1.0980369440     0.4325251684
| 15>  H        0.4193343830     2.0739574905    -0.6728768007
| 16>  H       -0.1101999266     1.8275853085     0.9986985370
| 17>  H       -0.3927352004    -0.6368837764     0.5532731572
| 18>  H       -1.4246311087     0.3307686833    -0.5084595279
| 19>  H        0.1216250746    -0.1921824773    -2.3227480370
| 20>  H        1.7324109059    -3.4305207825    -5.4525519275
| 21>  H        3.1080219221    -2.3288574728    -5.2975966323
| 22>  H        3.7595844790    -4.5617914875    -5.3629850119
| 23> *
| 24>
| 25>                          ****END OF INPUT****

CARTESIAN COORDINATES (ANGSTROEM)
---------------------------------
  C      0.379607    1.347195    0.145669
  C     -0.384379    0.085553   -0.265404
  N      0.209271   -0.596909   -1.404395
  C      1.004663   -1.699001   -1.265380
  O      1.242914   -2.237075   -0.198450
  C      1.542312   -2.189276   -2.527175
  C      2.013341   -2.630892   -3.544658
  C      2.566698   -3.144846   -4.790493
  O      3.418542   -4.246190   -4.519845
  H      1.404955    1.098037    0.432525
  H      0.419334    2.073957   -0.672877
  H     -0.110200    1.827585    0.998699
  H     -0.392735   -0.636884    0.553273
  H     -1.424631    0.330769   -0.508460
  H      0.121625   -0.192182   -2.322748
  H      1.732411   -3.430521   -5.452552
  H      3.108022   -2.328857   -5.297597
  H      3.759584   -4.561791   -5.362985

 Total Charge           Charge          ....    0
 Multiplicity           Mult            ....    1
 Number of Electrons    NEL             ....   68
 Basis Dimension        Dim             ....  333

ORBITAL ENERGIES
----------------

  NO   OCC          E(Eh)            E(eV)
   0   2.0000     -20.578682      -559.9744
   1   2.0000     -20.521280      -558.4124
   2   2.0000     -15.587792      -424.1654
   3   2.0000     -11.372087      -309.4502
   4   2.0000     -11.323913      -308.1393
   5   2.0000     -11.266022      -306.5640
   6   2.0000     -11.257253      -306.3254
   7   2.0000     -11.243205      -305.9432
   8   2.0000     -11.221711      -305.3583
   9   2.0000      -1.386529       -37.7294
  10   2.0000      -1.384069       -37.6624
  11   2.0000      -1.236774       -33.6543
  12   2.0000      -1.075374       -29.2624
  13   2.0000      -1.025804       -27.9135
  14   2.0000      -0.968222       -26.3467
  15   2.0000      -0.887796       -24.1582
  16   2.0000      -0.815401       -22.1882
  17   2.0000      -0.766086       -20.8463
  18   2.0000      -0.727086       -19.7850
  19   2.0000      -0.664609       -18.0849
  20   2.0000      -0.662232       -18.0202
  21   2.0000      -0.655879       -17.8474
  22   2.0000      -0.626755       -17.0549
  23   2.0000      -0.598327       -16.2813
  24   2.0000      -0.593241       -16.1429
  25   2.0000      -0.549446       -14.9512
  26   2.0000      -0.542390       -14.7592
  27   2.0000      -0.524994       -14.2858
  28   2.0000      -0.501217       -13.6388
  29   2.0000      -0.484602       -13.1867
  30   2.0000      -0.448959       -12.2168
  31   2.0000      -0.408931       -11.1276
  32   2.0000      -0.400291       -10.8925
  33   2.0000      -0.390740       -10.6326
  34   0.0000       0.112683         3.0663
  35   0.0000       0.118704         3.2301
  36   0.0000       0.131297         3.5728
  37   0.0000       0.159795         4.3482
  38   0.0000       0.168587         4.5875

MULLIKEN ATOMIC CHARGES
-----------------------
   0 C :   -0.379637
   1 C :   -0.119727
   2 N :   -0.319381
   3 C :    0.175236
   4 O :   -0.349373
   5 C :    0.083480
   6 C :    0.041483
   7 C :   -0.186457
   8 O :   -0.437409
   9 H :    0.146640
  10 H :    0.113470
  11 H :    0.129476
  12 H :    0.155966
  13 H :    0.125371
  14 H :    0.240237
  15 H :    0.131360
  16 H :    0.130306
  17 H :    0.318959
Sum of atomic charges:   -0.0000000

LOEWDIN ATOMIC CHARGES
----------------------
   0 C :   -0.318444
   1 C :   -0.301185
   2 N :    0.118630
   3 C :   -0.457721
   4 O :    0.102699
   5 C :   -0.019732
   6 C :   -0.041911
   7 C :   -0.336618
   8 O :   -0.032529
   9 H :    0.127249
  10 H :    0.117488
  11 H :    0.124623
  12 H :    0.146645
  13 H :    0.131180
  14 H :    0.189499
  15 H :    0.136816
  16 H :    0.136421
  17 H :    0.176891

  Mayer bond orders larger than 0.1
B(  0-C ,  1-C ) :   0.9188 B(  0-C ,  9-H ) :   0.9382 B(  0-C , 10-H ) :   0.9341
B(  0-C , 11-H ) :   0.9343 B(  1-C ,  2-N ) :   0.8420 B(  1-C , 12-H ) :   0.9235
B(  1-C , 13-H ) :   0.9356 B(  2-N ,  3-C ) :   1.2543 B(  2-N , 14-H ) :   0.8705
B(  3-C ,  4-O ) :   1.9539 B(  3-C ,  5-C ) :   0.9332 B(  5-C ,  6-C ) :   2.7505
B(  6-C ,  7-C ) :   0.9289 B(  7-C ,  8-O ) :   1.1226 B(  7-C , 15-H ) :   0.9464
B(  7-C , 16-H ) :   0.9472 B(  8-O , 17-H ) :   0.8451

MP2 TOTAL ENERGY:     -438.346408915 Eh
FINAL SINGLE POINT ENERGY      -438.346408914782

DIPOLE MOMENT
-------------
                                X             Y             Z
Electronic contribution:      2.79638      -7.77832      -2.45270
Nuclear contribution   :     -3.29720       8.89956       0.72075
                        -----------------------------------------
Total Dipole Moment    :     -0.50082       1.12123      -1.73194
                        -----------------------------------------
Magnitude (a.u.)       :      2.12311
Magnitude (Debye)      :      5.39652

                             ****ORCA TERMINATED NORMALLY****
TOTAL RUN TIME: 0 days 0 hours 14 minutes 6 seconds 444 msec
