                         Program Version 3.0.3 - RELEASE   -
|  1> ! RI-MP2 RIJK def2-TZVP def2-TZVP/C def2-TZVP/JK TIGHTSCF
|  2> % maxcore 2000
|  3> % mp2 density relaxed end
|  4> *xyz 0 1
|  5>  O       -0.4146008684     0.0950473916    -0.0621287157
|  6>  C       -0.0882707389     1.2455922626     0.0431137032
|  7>  N        1.2060947937     1.7370561482     0.0741940911
|  8>  C        2.3996157095     1.0358791628     0.0265962889
|  9>  N        2.5557482273    -0.2255995334    -0.0108502393
| 10>  C        4.0040443124    -0.4720360021    -0.0170001196
| 11>  C        4.6546866698     0.9127140881    -0.0929262386
| 12>  C        4.2963489753     1.7764967784    -1.2392344335
| 13>  N        3.5538169232     1.8970510036     0.0492598113
| 14>  H       -0.8098406154     2.0835957495     0.1257263863
| 15>  H        1.3175535552     2.7349618395     0.1737696465
| 16>  H        4.2910952648    -0.9922596153     0.9047080139
| 17>  H        4.2768138417    -1.1263543634    -0.8527803986
| 18>  H        5.5549502424     1.1196935488     0.4754467145
| 19>  H        4.9074323755     2.6398180193    -1.4819310519
| 20>  H        3.7646255118     1.3301899516    -2.0755946886
| 21> *
| 22>
| 23>                          ****END OF INPUT****

CARTESIAN COORDINATES (ANGSTROEM)
---------------------------------
  O     -0.414601    0.095047   -0.062129
  C     -0.088271    1.245592    0.043114
  N      1.206095    1.737056    0.074194
  C      2.399616    1.035879    0.026596
  N      2.555748   -0.225600   -0.010850
  C      4.004044   -0.472036   -0.017000
  C      4.654687    0.912714   -0.092926
  C      4.296349    1.776497   -1.239234
  N      3.553817    1.897051    0.049260
  H     -0.809841    2.083596    0.125726
  H      1.317554    2.734962    0.173770
  H      4.291095   -0.992260    0.904708
  H      4.276814   -1.126354   -0.852780
  H      5.554950    1.119694    0.475447
  H      4.907432    2.639818   -1.481931
  H      3.764626    1.330190   -2.075595

 Total Charge           Charge          ....    0
 Multiplicity           Mult            ....    1
 Number of Electrons    NEL             ....   66
 Basis Dimension        Dim             ....  321

ORBITAL ENERGIES
----------------

  NO   OCC          E(Eh)            E(eV)
   0   2.0000     -20.540337      -558.9310
   1   2.0000     -15.615327      -424.9147
   2   2.0000     -15.591844      -424.2756
   3   2.0000     -15.542242      -422.9259
   4   2.0000     -11.364072      -309.2321
   5   2.0000     -11.349366      -308.8319
   6   2.0000     -11.283051      -307.0274
   7   2.0000     -11.280876      -306.9682
   8   2.0000     -11.263983      -306.5086
   9   2.0000      -1.402163       -38.1548
  10   2.0000      -1.351147       -36.7666
  11   2.0000      -1.255630       -34.1674
  12   2.0000      -1.190549       -32.3965
  13   2.0000      -1.013636       -27.5824
  14   2.0000      -0.920183       -25.0395
  15   2.0000      -0.878358       -23.9013
  16   2.0000      -0.828577       -22.5467
  17   2.0000      -0.761573       -20.7234
  18   2.0000      -0.737634       -20.0720
  19   2.0000      -0.709130       -19.2964
  20   2.0000      -0.666671       -18.1411
  21   2.0000      -0.631618       -17.1872
  22   2.0000      -0.611143       -16.6300
  23   2.0000      -0.588984       -16.0271
  24   2.0000      -0.585881       -15.9426
  25   2.0000      -0.569851       -15.5064
  26   2.0000      -0.520920       -14.1750
  27   2.0000      -0.511531       -13.9195
  28   2.0000      -0.472756       -12.8643
  29   2.0000      -0.453991       -12.3537
  30   2.0000      -0.426495       -11.6055
  31   2.0000      -0.406653       -11.0656
  32   2.0000      -0.365605        -9.9486
  33   0.0000       0.130283         3.5452
  34   0.0000       0.133063         3.6208
  35   0.0000       0.150139         4.0855
  36   0.0000       0.169042         4.5999
  37   0.0000       0.174718         4.7543

MULLIKEN ATOMIC CHARGES
-----------------------
   0 O :   -0.274731
   1 C :    0.178017
   2 N :   -0.310604
   3 C :    0.210583
   4 N :   -0.203958
   5 C :   -0.106544
   6 C :   -0.098072
   7 C :   -0.158196
   8 N :   -0.260989
   9 H :    0.083722
  10 H :    0.258738
  11 H :    0.126200
  12 H :    0.128084
  13 H :    0.141637
  14 H :    0.140696
  15 H :    0.145418
Sum of atomic charges:   -0.0000000

LOEWDIN ATOMIC CHARGES
----------------------
   0 O :    0.123387
   1 C :   -0.401595
   2 N :    0.133483
   3 C :   -0.381698
   4 N :    0.110654
   5 C :   -0.259544
   6 C :   -0.231306
   7 C :   -0.218532
   8 N :    0.130621
   9 H :    0.111421
  10 H :    0.202487
  11 H :    0.137011
  12 H :    0.136748
  13 H :    0.142143
  14 H :    0.129424
  15 H :    0.135298

  Mayer bond orders larger than 0.1
B(  0-O ,  1-C ) :   1.9887 B(  1-C ,  2-N ) :   1.0223 B(  1-C ,  9-H ) :   0.9286
B(  2-N ,  3-C ) :   0.9982 B(  2-N , 10-H ) :   0.8595 B(  3-C ,  4-N ) :   1.8710
B(  3-C ,  8-N ) :   1.0063 B(  4-N ,  5-C ) :   0.9321 B(  5-C ,  6-C ) :   0.9497
B(  5-C , 11-H ) :   0.9241 B(  5-C , 12-H ) :   0.9167 B(  6-C ,  7-C ) :   0.9410
B(  6-C ,  8-N ) :   0.9017 B(  6-C , 13-H ) :   0.9092 B(  7-C ,  8-N ) :   0.8210
B(  7-C , 14-H ) :   0.9285 B(  7-C , 15-H ) :   0.9103

MP2 TOTAL ENERGY:     -433.349725165 Eh
FINAL SINGLE POINT ENERGY      -433.349725165224

DIPOLE MOMENT
-------------
                                X             Y             Z
Electronic contribution:     -4.78558      -0.15669       1.37628
Nuclear contribution   :      5.93428       1.46702      -1.63737
                        -----------------------------------------
Total Dipole Moment    :      1.14870       1.31033      -0.26109
                        -----------------------------------------
Magnitude (a.u.)       :      1.76200
Magnitude (Debye)      :      4.47864

                             ****ORCA TERMINATED NORMALLY****
TOTAL RUN TIME: 0 days 0 hours 15 minutes 11 seconds 570 msec
