                         Program Version 3.0.3 - RELEASE   -
|  1> ! RI-MP2 RIJK def2-TZVP def2-TZVP/C def2-TZVP/JK TIGHTSCF
|  2> % maxcore 2000
|  3> % mp2 density relaxed end
|  4> *xyz 0 1
|  5>  C        0.7157445267     1.3347000254    -0.1292829584
|  6>  C       -0.0810433025     0.0392233101    -0.0638601078
|  7>  O       -1.4768185960     0.2808063647    -0.0751786663
|  8>  C        0.4524540370    -1.0764053029    -1.0268987368
|  9>  C        1.1845940515    -1.6849311935     0.1746551910
| 10>  C        1.7692069440    -3.0477973671     0.3709915380
| 11>  C        2.6711698350    -1.8346313329     0.3231050862
| 12>  C        0.3154480593    -0.8774388910     1.1336411911
| 13>  O        0.9902833185    -0.3291152518     2.2404458056
| 14>  H        1.7894814943     1.1436507581    -0.0630733209
| 15>  H        0.5205666984     1.8543735297    -1.0758528203
| 16>  H        0.4366274112     1.9970108218     0.6950344339
| 17>  H       -1.6771016463     0.8582996505    -0.8197959587
| 18>  H       -0.3691115456    -1.7021679928    -1.3877775206
| 19>  H        1.0632407865    -0.7504411116    -1.8736838483
| 20>  H        1.6203900516    -3.5325166584     1.3310810201
| 21>  H        1.7772073396    -3.7263792082    -0.4761764658
| 22>  H        3.2885692514    -1.6904491835    -0.5580845732
| 23>  H        3.1133635958    -1.4924097048     1.2520324159
| 24>  H       -0.5727514937    -1.4456700833     1.4449732696
| 25>  H        0.3350117433     0.0220194516     2.8510429957
| 26> *
| 27>
| 28>                          ****END OF INPUT****

CARTESIAN COORDINATES (ANGSTROEM)
---------------------------------
  C      0.715745    1.334700   -0.129283
  C     -0.081043    0.039223   -0.063860
  O     -1.476819    0.280806   -0.075179
  C      0.452454   -1.076405   -1.026899
  C      1.184594   -1.684931    0.174655
  C      1.769207   -3.047797    0.370992
  C      2.671170   -1.834631    0.323105
  C      0.315448   -0.877439    1.133641
  O      0.990283   -0.329115    2.240446
  H      1.789481    1.143651   -0.063073
  H      0.520567    1.854374   -1.075853
  H      0.436627    1.997011    0.695034
  H     -1.677102    0.858300   -0.819796
  H     -0.369112   -1.702168   -1.387778
  H      1.063241   -0.750441   -1.873684
  H      1.620390   -3.532517    1.331081
  H      1.777207   -3.726379   -0.476176
  H      3.288569   -1.690449   -0.558085
  H      3.113364   -1.492410    1.252032
  H     -0.572751   -1.445670    1.444973
  H      0.335012    0.022019    2.851043

 Total Charge           Charge          ....    0
 Multiplicity           Mult            ....    1
 Number of Electrons    NEL             ....   70
 Basis Dimension        Dim             ....  351

ORBITAL ENERGIES
----------------

  NO   OCC          E(Eh)            E(eV)
   0   2.0000     -20.558198      -559.4170
   1   2.0000     -20.555898      -559.3544
   2   2.0000     -11.282635      -307.0161
   3   2.0000     -11.274690      -306.7999
   4   2.0000     -11.230489      -305.5971
   5   2.0000     -11.220379      -305.3220
   6   2.0000     -11.219254      -305.2914
   7   2.0000     -11.218172      -305.2620
   8   2.0000     -11.215862      -305.1991
   9   2.0000      -1.372251       -37.3408
  10   2.0000      -1.357765       -36.9467
  11   2.0000      -1.158834       -31.5335
  12   2.0000      -1.067960       -29.0607
  13   2.0000      -0.962775       -26.1984
  14   2.0000      -0.895304       -24.3625
  15   2.0000      -0.819927       -22.3113
  16   2.0000      -0.800445       -21.7812
  17   2.0000      -0.721038       -19.6204
  18   2.0000      -0.700650       -19.0657
  19   2.0000      -0.675350       -18.3772
  20   2.0000      -0.652604       -17.7582
  21   2.0000      -0.643951       -17.5228
  22   2.0000      -0.608534       -16.5591
  23   2.0000      -0.592130       -16.1127
  24   2.0000      -0.579420       -15.7668
  25   2.0000      -0.537480       -14.6256
  26   2.0000      -0.523845       -14.2545
  27   2.0000      -0.518365       -14.1054
  28   2.0000      -0.507102       -13.7989
  29   2.0000      -0.505569       -13.7572
  30   2.0000      -0.464180       -12.6310
  31   2.0000      -0.452377       -12.3098
  32   2.0000      -0.412112       -11.2141
  33   2.0000      -0.398362       -10.8400
  34   2.0000      -0.386326       -10.5125
  35   0.0000       0.128646         3.5006
  36   0.0000       0.149163         4.0589
  37   0.0000       0.160453         4.3662
  38   0.0000       0.167608         4.5608
  39   0.0000       0.187284         5.0963

MULLIKEN ATOMIC CHARGES
-----------------------
   0 C :   -0.448605
   1 C :    0.202931
   2 O :   -0.459376
   3 C :   -0.181499
   4 C :   -0.031404
   5 C :   -0.289097
   6 C :   -0.292983
   7 C :    0.100649
   8 O :   -0.463909
   9 H :    0.148868
  10 H :    0.122994
  11 H :    0.126374
  12 H :    0.313702
  13 H :    0.106146
  14 H :    0.112843
  15 H :    0.130306
  16 H :    0.124769
  17 H :    0.122207
  18 H :    0.142710
  19 H :    0.090910
  20 H :    0.321464
Sum of atomic charges:   -0.0000000

LOEWDIN ATOMIC CHARGES
----------------------
   0 C :   -0.278881
   1 C :   -0.363172
   2 O :    0.000351
   3 C :   -0.164034
   4 C :   -0.217835
   5 C :   -0.209060
   6 C :   -0.202380
   7 C :   -0.258463
   8 O :   -0.001512
   9 H :    0.136668
  10 H :    0.122645
  11 H :    0.126837
  12 H :    0.175184
  13 H :    0.139962
  14 H :    0.131040
  15 H :    0.135979
  16 H :    0.133571
  17 H :    0.131504
  18 H :    0.138664
  19 H :    0.143465
  20 H :    0.179465

  Mayer bond orders larger than 0.1
B(  0-C ,  1-C ) :   0.9197 B(  0-C ,  9-H ) :   0.9260 B(  0-C , 10-H ) :   0.9280
B(  0-C , 11-H ) :   0.9363 B(  1-C ,  2-O ) :   1.0480 B(  1-C ,  3-C ) :   0.9213
B(  1-C ,  7-C ) :   0.8922 B(  2-O , 12-H ) :   0.8413 B(  3-C ,  4-C ) :   0.9138
B(  3-C , 13-H ) :   0.8921 B(  3-C , 14-H ) :   0.9069 B(  4-C ,  5-C ) :   0.8431
B(  4-C ,  6-C ) :   0.8488 B(  4-C ,  7-C ) :   0.8901 B(  5-C ,  6-C ) :   0.9630
B(  5-C , 15-H ) :   0.9230 B(  5-C , 16-H ) :   0.9233 B(  6-C , 17-H ) :   0.9243
B(  6-C , 18-H ) :   0.9127 B(  7-C ,  8-O ) :   1.0951 B(  7-C , 19-H ) :   0.9398
B(  8-O , 20-H ) :   0.8429

MP2 TOTAL ENERGY:     -423.502892671 Eh
FINAL SINGLE POINT ENERGY      -423.502892671019

DIPOLE MOMENT
-------------
                                X             Y             Z
Electronic contribution:     -3.03595      -0.12744       2.36635
Nuclear contribution   :      2.86464       0.43766      -2.72540
                        -----------------------------------------
Total Dipole Moment    :     -0.17132       0.31021      -0.35905
                        -----------------------------------------
Magnitude (a.u.)       :      0.50448
Magnitude (Debye)      :      1.28229

                             ****ORCA TERMINATED NORMALLY****
TOTAL RUN TIME: 0 days 0 hours 18 minutes 42 seconds 94 msec
