                         Program Version 3.0.3 - RELEASE   -
|  1> ! RI-MP2 RIJK def2-TZVP def2-TZVP/C def2-TZVP/JK TIGHTSCF
|  2> % maxcore 2000
|  3> % mp2 density relaxed end
|  4> *xyz 0 1
|  5>  C       -0.3131909509    -0.9525287526    -0.4774402421
|  6>  C       -0.1080454575     0.2240868099    -0.3440393831
|  7>  C        0.1333050138     1.6595090786    -0.2127525703
|  8>  N        1.4945055765     1.9549832747     0.2573812671
|  9>  C        2.5505255789     1.5707800104    -0.6984831367
| 10>  C        2.9937391843     2.8600253457    -1.3652021160
| 11>  O        1.8950588084     3.6505089631    -1.8437507527
| 12>  C        2.4698143310     3.9730055735    -0.5700027389
| 13>  C        1.6963901629     3.3762674809     0.5926505585
| 14>  H       -0.4989401104    -1.9924558187    -0.5845128544
| 15>  H       -0.0980930995     2.1539600272    -1.1709128517
| 16>  H       -0.5661191454     2.0631078301     0.5290818499
| 17>  H        3.4088012756     1.1267126080    -0.1741377461
| 18>  H        2.1737495426     0.8236818402    -1.4016218982
| 19>  H        3.9115451333     2.9153838614    -1.9450056745
| 20>  H        2.9570643268     4.9416786983    -0.4929004486
| 21>  H        0.7369133721     3.8730056806     0.7647092648
| 22>  H        2.2936135774     3.4801912487     1.5104150230
| 23> *
| 24>
| 25>                          ****END OF INPUT****

CARTESIAN COORDINATES (ANGSTROEM)
---------------------------------
  C     -0.313191   -0.952529   -0.477440
  C     -0.108045    0.224087   -0.344039
  C      0.133305    1.659509   -0.212753
  N      1.494506    1.954983    0.257381
  C      2.550526    1.570780   -0.698483
  C      2.993739    2.860025   -1.365202
  O      1.895059    3.650509   -1.843751
  C      2.469814    3.973006   -0.570003
  C      1.696390    3.376267    0.592651
  H     -0.498940   -1.992456   -0.584513
  H     -0.098093    2.153960   -1.170913
  H     -0.566119    2.063108    0.529082
  H      3.408801    1.126713   -0.174138
  H      2.173750    0.823682   -1.401622
  H      3.911545    2.915384   -1.945006
  H      2.957064    4.941679   -0.492900
  H      0.736913    3.873006    0.764709
  H      2.293614    3.480191    1.510415

 Total Charge           Charge          ....    0
 Multiplicity           Mult            ....    1
 Number of Electrons    NEL             ....   66
 Basis Dimension        Dim             ....  333

ORBITAL ENERGIES
----------------

  NO   OCC          E(Eh)            E(eV)
   0   2.0000     -20.570166      -559.7427
   1   2.0000     -15.557589      -423.3435
   2   2.0000     -11.288322      -307.1709
   3   2.0000     -11.287304      -307.1432
   4   2.0000     -11.276336      -306.8447
   5   2.0000     -11.263221      -306.4878
   6   2.0000     -11.258141      -306.3496
   7   2.0000     -11.230963      -305.6101
   8   2.0000     -11.219837      -305.3073
   9   2.0000      -1.418942       -38.6114
  10   2.0000      -1.236157       -33.6375
  11   2.0000      -1.055613       -28.7247
  12   2.0000      -0.999060       -27.1858
  13   2.0000      -0.990413       -26.9505
  14   2.0000      -0.912507       -24.8306
  15   2.0000      -0.808849       -22.0099
  16   2.0000      -0.806545       -21.9472
  17   2.0000      -0.726234       -19.7618
  18   2.0000      -0.720177       -19.5970
  19   2.0000      -0.662143       -18.0178
  20   2.0000      -0.646766       -17.5994
  21   2.0000      -0.633567       -17.2402
  22   2.0000      -0.602557       -16.3964
  23   2.0000      -0.584125       -15.8949
  24   2.0000      -0.542725       -14.7683
  25   2.0000      -0.532528       -14.4908
  26   2.0000      -0.525941       -14.3116
  27   2.0000      -0.509911       -13.8754
  28   2.0000      -0.472053       -12.8452
  29   2.0000      -0.425674       -11.5832
  30   2.0000      -0.390936       -10.6379
  31   2.0000      -0.390251       -10.6193
  32   2.0000      -0.359396        -9.7797
  33   0.0000       0.144014         3.9188
  34   0.0000       0.163409         4.4466
  35   0.0000       0.166892         4.5414
  36   0.0000       0.170584         4.6418
  37   0.0000       0.178380         4.8540

MULLIKEN ATOMIC CHARGES
-----------------------
   0 C :   -0.119630
   1 C :   -0.035203
   2 C :   -0.307090
   3 N :   -0.146856
   4 C :   -0.127025
   5 C :   -0.017842
   6 O :   -0.336283
   7 C :   -0.029977
   8 C :   -0.121796
   9 H :    0.189702
  10 H :    0.153451
  11 H :    0.137944
  12 H :    0.120716
  13 H :    0.138299
  14 H :    0.131478
  15 H :    0.127588
  16 H :    0.120234
  17 H :    0.122289
Sum of atomic charges:   -0.0000000

LOEWDIN ATOMIC CHARGES
----------------------
   0 C :   -0.102437
   1 C :   -0.109600
   2 C :   -0.276613
   3 N :    0.101116
   4 C :   -0.247290
   5 C :   -0.265195
   6 O :    0.165134
   7 C :   -0.268105
   8 C :   -0.253637
   9 H :    0.126281
  10 H :    0.145829
  11 H :    0.151805
  12 H :    0.138958
  13 H :    0.146357
  14 H :    0.135649
  15 H :    0.135186
  16 H :    0.138311
  17 H :    0.138252

  Mayer bond orders larger than 0.1
B(  0-C ,  1-C ) :   2.6391 B(  0-C ,  9-H ) :   0.8976 B(  1-C ,  2-C ) :   1.0889
B(  2-C ,  3-N ) :   0.9881 B(  2-C , 10-H ) :   0.9436 B(  2-C , 11-H ) :   0.8944
B(  3-N ,  4-C ) :   0.9160 B(  3-N ,  8-C ) :   0.9350 B(  4-C ,  5-C ) :   0.9483
B(  4-C , 12-H ) :   0.9102 B(  4-C , 13-H ) :   0.9253 B(  5-C ,  6-O ) :   0.8936
B(  5-C ,  7-C ) :   0.9358 B(  5-C , 14-H ) :   0.9198 B(  6-O ,  7-C ) :   0.9258
B(  7-C ,  8-C ) :   0.9512 B(  7-C , 15-H ) :   0.9211 B(  8-C , 16-H ) :   0.9260
B(  8-C , 17-H ) :   0.9070

MP2 TOTAL ENERGY:     -401.183339910 Eh
FINAL SINGLE POINT ENERGY      -401.183339910480

DIPOLE MOMENT
-------------
                                X             Y             Z
Electronic contribution:     -0.68280      -0.31291      -1.46586
Nuclear contribution   :      1.17735       0.52026       1.71598
                        -----------------------------------------
Total Dipole Moment    :      0.49454       0.20735       0.25012
                        -----------------------------------------
Magnitude (a.u.)       :      0.59172
Magnitude (Debye)      :      1.50402

                             ****ORCA TERMINATED NORMALLY****
TOTAL RUN TIME: 0 days 0 hours 17 minutes 51 seconds 586 msec
