                         Program Version 3.0.3 - RELEASE   -
|  1> ! RI-MP2 RIJK def2-TZVP def2-TZVP/C def2-TZVP/JK TIGHTSCF
|  2> % maxcore 2000
|  3> % mp2 density relaxed end
|  4> *xyz 0 1
|  5>  O        0.0103093335    -0.0396266236     0.0039181837
|  6>  C        0.0085158403     1.1694176976     0.0098922525
|  7>  C       -1.2375818923     2.0892855036     0.0318014592
|  8>  C       -0.7411553301     3.5682776817     0.0322690613
|  9>  C        0.7555109850     3.4215688165     0.0106266692
| 10>  C        1.1395519109     2.0978918558    -0.0012902319
| 11>  N        2.4929653490     2.0697670596    -0.0203019213
| 12>  N        3.0133223476     3.3092581353    -0.0214695318
| 13>  C        1.9641368938     4.1419663609    -0.0026928400
| 14>  H       -1.8598153818     1.8556895636    -0.8373808408
| 15>  H       -1.8354900298     1.8469452025     0.9155390035
| 16>  H       -1.1147521855     4.1196259060    -0.8370600091
| 17>  H       -1.0902313708     4.1108306210     0.9171857624
| 18>  H        3.1087512045     1.2737236567    -0.0328119131
| 19>  H        2.1404922957     5.2072122229     0.0001088962
| 20> *
| 21>
| 22>                          ****END OF INPUT****

CARTESIAN COORDINATES (ANGSTROEM)
---------------------------------
  O      0.010309   -0.039627    0.003918
  C      0.008516    1.169418    0.009892
  C     -1.237582    2.089286    0.031801
  C     -0.741155    3.568278    0.032269
  C      0.755511    3.421569    0.010627
  C      1.139552    2.097892   -0.001290
  N      2.492965    2.069767   -0.020302
  N      3.013322    3.309258   -0.021470
  C      1.964137    4.141966   -0.002693
  H     -1.859815    1.855690   -0.837381
  H     -1.835490    1.846945    0.915539
  H     -1.114752    4.119626   -0.837060
  H     -1.090231    4.110831    0.917186
  H      3.108751    1.273724   -0.032812
  H      2.140492    5.207212    0.000109

 Total Charge           Charge          ....    0
 Multiplicity           Mult            ....    1
 Number of Electrons    NEL             ....   64
 Basis Dimension        Dim             ....  315

ORBITAL ENERGIES
----------------

  NO   OCC          E(Eh)            E(eV)
   0   2.0000     -20.551908      -559.2459
   1   2.0000     -15.655715      -426.0137
   2   2.0000     -15.616579      -424.9487
   3   2.0000     -11.348409      -308.8059
   4   2.0000     -11.275830      -306.8309
   5   2.0000     -11.269988      -306.6720
   6   2.0000     -11.258076      -306.3478
   7   2.0000     -11.252197      -306.1878
   8   2.0000     -11.249297      -306.1089
   9   2.0000      -1.400225       -38.1021
  10   2.0000      -1.387268       -37.7495
  11   2.0000      -1.148926       -31.2639
  12   2.0000      -1.112270       -30.2664
  13   2.0000      -1.016219       -27.6527
  14   2.0000      -0.942020       -25.6337
  15   2.0000      -0.848247       -23.0820
  16   2.0000      -0.818511       -22.2728
  17   2.0000      -0.788709       -21.4619
  18   2.0000      -0.694844       -18.9077
  19   2.0000      -0.662867       -18.0375
  20   2.0000      -0.636986       -17.3333
  21   2.0000      -0.624954       -17.0059
  22   2.0000      -0.614816       -16.7300
  23   2.0000      -0.590908       -16.0794
  24   2.0000      -0.558893       -15.2083
  25   2.0000      -0.551521       -15.0076
  26   2.0000      -0.550679       -14.9847
  27   2.0000      -0.503892       -13.7116
  28   2.0000      -0.473619       -12.8878
  29   2.0000      -0.420034       -11.4297
  30   2.0000      -0.378584       -10.3018
  31   2.0000      -0.355951        -9.6859
  32   0.0000       0.078839         2.1453
  33   0.0000       0.130010         3.5377
  34   0.0000       0.141813         3.8589
  35   0.0000       0.162918         4.4332
  36   0.0000       0.166416         4.5284

MULLIKEN ATOMIC CHARGES
-----------------------
   0 O :   -0.285678
   1 C :    0.076327
   2 C :   -0.180625
   3 C :   -0.220375
   4 C :    0.002709
   5 C :    0.072333
   6 N :   -0.118104
   7 N :   -0.178727
   8 C :   -0.135115
   9 H :    0.141824
  10 H :    0.141826
  11 H :    0.135442
  12 H :    0.135440
  13 H :    0.270227
  14 H :    0.142496
Sum of atomic charges:   -0.0000000

LOEWDIN ATOMIC CHARGES
----------------------
   0 O :    0.136997
   1 C :   -0.302063
   2 C :   -0.193146
   3 C :   -0.203307
   4 C :   -0.141617
   5 C :   -0.197098
   6 N :    0.166578
   7 N :    0.041663
   8 C :   -0.232715
   9 H :    0.150508
  10 H :    0.150504
  11 H :    0.144892
  12 H :    0.144894
  13 H :    0.196729
  14 H :    0.137183

  Mayer bond orders larger than 0.1
B(  0-O ,  1-C ) :   2.0398 B(  1-C ,  2-C ) :   0.9636 B(  1-C ,  5-C ) :   0.8710
B(  2-C ,  3-C ) :   0.9333 B(  2-C ,  5-C ) :  -0.1583 B(  2-C ,  9-H ) :   0.9088
B(  2-C , 10-H ) :   0.9088 B(  3-C ,  4-C ) :   0.9229 B(  3-C , 11-H ) :   0.9092
B(  3-C , 12-H ) :   0.9092 B(  4-C ,  5-C ) :   1.2324 B(  4-C ,  8-C ) :   1.2754
B(  5-C ,  6-N ) :   1.1803 B(  6-N ,  7-N ) :   1.0725 B(  6-N , 13-H ) :   0.8611
B(  7-N ,  8-C ) :   1.5101 B(  8-C , 14-H ) :   0.9385

MP2 TOTAL ENERGY:     -416.146349279 Eh
FINAL SINGLE POINT ENERGY      -416.146349278760

DIPOLE MOMENT
-------------
                                X             Y             Z
Electronic contribution:      4.76251      -3.13793      -0.08197
Nuclear contribution   :     -5.17932       3.81591       0.09114
                        -----------------------------------------
Total Dipole Moment    :     -0.41681       0.67798       0.00918
                        -----------------------------------------
Magnitude (a.u.)       :      0.79591
Magnitude (Debye)      :      2.02304

                             ****ORCA TERMINATED NORMALLY****
TOTAL RUN TIME: 0 days 0 hours 17 minutes 9 seconds 887 msec
