                         Program Version 3.0.3 - RELEASE   -
|  1> ! RI-MP2 RIJK def2-TZVP def2-TZVP/C def2-TZVP/JK TIGHTSCF
|  2> % maxcore 2000
|  3> % mp2 density relaxed end
|  4> *xyz 0 1
|  5>  C        0.0253617706     1.3818771866     0.0264418638
|  6>  N        0.1713214662    -0.0640052502     0.1714397279
|  7>  C        1.4976276388    -0.6451869035    -0.0086698931
|  8>  C        0.8539384284    -0.6168533223     1.3385359469
|  9>  C        1.4188477751     0.2778159088     2.4453218492
| 10>  O        2.4296838010     1.1877889504     2.0424812427
| 11>  C        0.2102420847    -1.9023461392     1.8679133852
| 12>  C       -0.8427249986    -1.6557916087     2.8492727060
| 13>  C       -1.7008307042    -1.4345520528     3.6615582901
| 14>  H        0.8853928580     1.9597441913     0.3868992165
| 15>  H       -0.1335267051     1.6063525221    -1.0330187497
| 16>  H       -0.8679710503     1.7018040395     0.5723234892
| 17>  H        1.5436583840    -1.5703713024    -0.5802293289
| 18>  H        2.3274430061     0.0378035667    -0.1802018300
| 19>  H        0.6144860516     0.8914854367     2.8625965926
| 20>  H        1.7746881701    -0.3683068480     3.2615519904
| 21>  H        3.2092660022     0.6755795064     1.8051616007
| 22>  H       -0.2043092503    -2.4501330333     1.0154727704
| 23>  H        0.9842647216    -2.5403977652     2.3159783879
| 24>  H       -2.4650651897    -1.2474199930     4.3744445721
| 25> *
| 26>
| 27>                          ****END OF INPUT****

CARTESIAN COORDINATES (ANGSTROEM)
---------------------------------
  C      0.025362    1.381877    0.026442
  N      0.171321   -0.064005    0.171440
  C      1.497628   -0.645187   -0.008670
  C      0.853938   -0.616853    1.338536
  C      1.418848    0.277816    2.445322
  O      2.429684    1.187789    2.042481
  C      0.210242   -1.902346    1.867913
  C     -0.842725   -1.655792    2.849273
  C     -1.700831   -1.434552    3.661558
  H      0.885393    1.959744    0.386899
  H     -0.133527    1.606353   -1.033019
  H     -0.867971    1.701804    0.572323
  H      1.543658   -1.570371   -0.580229
  H      2.327443    0.037804   -0.180202
  H      0.614486    0.891485    2.862597
  H      1.774688   -0.368307    3.261552
  H      3.209266    0.675580    1.805162
  H     -0.204309   -2.450133    1.015473
  H      0.984265   -2.540398    2.315978
  H     -2.465065   -1.247420    4.374445

 Total Charge           Charge          ....    0
 Multiplicity           Mult            ....    1
 Number of Electrons    NEL             ....   68
 Basis Dimension        Dim             ....  345

ORBITAL ENERGIES
----------------

  NO   OCC          E(Eh)            E(eV)
   0   2.0000     -20.565545      -559.6169
   1   2.0000     -15.557420      -423.3389
   2   2.0000     -11.285093      -307.0830
   3   2.0000     -11.274351      -306.7907
   4   2.0000     -11.256395      -306.3021
   5   2.0000     -11.256307      -306.2997
   6   2.0000     -11.237519      -305.7884
   7   2.0000     -11.234568      -305.7081
   8   2.0000     -11.220946      -305.3375
   9   2.0000      -1.371960       -37.3329
  10   2.0000      -1.276008       -34.7219
  11   2.0000      -1.077085       -29.3090
  12   2.0000      -1.007344       -27.4112
  13   2.0000      -0.961651       -26.1679
  14   2.0000      -0.939864       -25.5750
  15   2.0000      -0.831863       -22.6361
  16   2.0000      -0.772278       -21.0148
  17   2.0000      -0.722744       -19.6669
  18   2.0000      -0.704006       -19.1570
  19   2.0000      -0.679394       -18.4873
  20   2.0000      -0.640323       -17.4241
  21   2.0000      -0.623503       -16.9664
  22   2.0000      -0.605635       -16.4802
  23   2.0000      -0.597863       -16.2687
  24   2.0000      -0.576899       -15.6982
  25   2.0000      -0.558680       -15.2025
  26   2.0000      -0.545421       -14.8417
  27   2.0000      -0.506833       -13.7916
  28   2.0000      -0.489062       -13.3081
  29   2.0000      -0.444942       -12.1075
  30   2.0000      -0.439670       -11.9640
  31   2.0000      -0.391866       -10.6632
  32   2.0000      -0.386249       -10.5104
  33   2.0000      -0.363444        -9.8898
  34   0.0000       0.127637         3.4732
  35   0.0000       0.148971         4.0537
  36   0.0000       0.157147         4.2762
  37   0.0000       0.168115         4.5746
  38   0.0000       0.171323         4.6619

MULLIKEN ATOMIC CHARGES
-----------------------
   0 C :   -0.332910
   1 N :   -0.236177
   2 C :   -0.230354
   3 C :    0.099418
   4 C :   -0.002589
   5 O :   -0.468679
   6 C :   -0.337452
   7 C :   -0.044047
   8 C :   -0.162978
   9 H :    0.149352
  10 H :    0.137429
  11 H :    0.136583
  12 H :    0.123900
  13 H :    0.117408
  14 H :    0.133375
  15 H :    0.123957
  16 H :    0.314152
  17 H :    0.149599
  18 H :    0.140874
  19 H :    0.189138
Sum of atomic charges:    0.0000000

LOEWDIN ATOMIC CHARGES
----------------------
   0 C :   -0.326459
   1 N :    0.111180
   2 C :   -0.231956
   3 C :   -0.291110
   4 C :   -0.303707
   5 O :   -0.039138
   6 C :   -0.207616
   7 C :   -0.104042
   8 C :   -0.105194
   9 H :    0.114410
  10 H :    0.118323
  11 H :    0.119241
  12 H :    0.125028
  13 H :    0.124005
  14 H :    0.141972
  15 H :    0.130919
  16 H :    0.171277
  17 H :    0.167295
  18 H :    0.159282
  19 H :    0.126290

  Mayer bond orders larger than 0.1
B(  0-C ,  1-N ) :   0.8784 B(  0-C ,  9-H ) :   0.9228 B(  0-C , 10-H ) :   0.9357
B(  0-C , 11-H ) :   0.9382 B(  1-N ,  2-C ) :   0.9109 B(  1-N ,  3-C ) :   0.8549
B(  2-C ,  3-C ) :   0.9337 B(  2-C , 12-H ) :   0.9050 B(  2-C , 13-H ) :   0.9163
B(  3-C ,  4-C ) :   0.9078 B(  3-C ,  6-C ) :   0.8567 B(  4-C ,  5-O ) :   0.9182
B(  4-C , 14-H ) :   0.9203 B(  4-C , 15-H ) :   0.9313 B(  5-O , 16-H ) :   0.8427
B(  6-C ,  7-C ) :   1.1079 B(  6-C , 17-H ) :   0.9112 B(  6-C , 18-H ) :   0.9360
B(  7-C ,  8-C ) :   2.6070 B(  8-C , 19-H ) :   0.9031

MP2 TOTAL ENERGY:     -402.378508281 Eh
FINAL SINGLE POINT ENERGY      -402.378508280806

DIPOLE MOMENT
-------------
                                X             Y             Z
Electronic contribution:     -1.11801      -2.26483       2.33336
Nuclear contribution   :      1.73205       1.96601      -2.29879
                        -----------------------------------------
Total Dipole Moment    :      0.61404      -0.29882       0.03458
                        -----------------------------------------
Magnitude (a.u.)       :      0.68377
Magnitude (Debye)      :      1.73800

                             ****ORCA TERMINATED NORMALLY****
TOTAL RUN TIME: 0 days 0 hours 19 minutes 52 seconds 583 msec
