                         Program Version 3.0.3 - RELEASE   -
|  1> ! RI-MP2 RIJK def2-TZVP def2-TZVP/C def2-TZVP/JK TIGHTSCF
|  2> % maxcore 2000
|  3> % mp2 density relaxed end
|  4> *xyz 0 1
|  5>  C       -0.0532835641     1.5515823462     0.0362225659
|  6>  C        0.0681704421     0.0475443529     0.0392186268
|  7>  C       -1.2145686174    -0.8388663233     0.2681002879
|  8>  C       -0.3641209475    -1.7240294524     1.1852621176
|  9>  C        0.7234967980    -0.7125663361     1.2325535024
| 10>  N        0.9978323465    -2.0141532306     0.6291808468
| 11>  C        1.1265893750    -1.8286405571    -0.8031575965
| 12>  O        1.4464244703    -2.6832545396    -1.5833928175
| 13>  N        0.8383918831    -0.4980113472    -1.0789577562
| 14>  H        0.9364750525     2.0162321232    -0.0096076379
| 15>  H       -0.6340878315     1.9003799744    -0.8247757342
| 16>  H       -0.5599184332     1.8991639651     0.9412181435
| 17>  H       -1.9690456220    -0.3100785882     0.8571483753
| 18>  H       -1.6788827782    -1.2828741924    -0.6181041141
| 19>  H       -0.7165103964    -2.4118611904     1.9431303020
| 20>  H        1.3513788566    -0.3305690240     2.0285445149
| 21>  H        0.5598887863    -0.2969880306    -2.0300491667
| 22> *
| 23>
| 24>                          ****END OF INPUT****

CARTESIAN COORDINATES (ANGSTROEM)
---------------------------------
  C     -0.053284    1.551582    0.036223
  C      0.068170    0.047544    0.039219
  C     -1.214569   -0.838866    0.268100
  C     -0.364121   -1.724029    1.185262
  C      0.723497   -0.712566    1.232554
  N      0.997832   -2.014153    0.629181
  C      1.126589   -1.828641   -0.803158
  O      1.446424   -2.683255   -1.583393
  N      0.838392   -0.498011   -1.078958
  H      0.936475    2.016232   -0.009608
  H     -0.634088    1.900380   -0.824776
  H     -0.559918    1.899164    0.941218
  H     -1.969046   -0.310079    0.857148
  H     -1.678883   -1.282874   -0.618104
  H     -0.716510   -2.411861    1.943130
  H      1.351379   -0.330569    2.028545
  H      0.559889   -0.296988   -2.030049

 Total Charge           Charge          ....    0
 Multiplicity           Mult            ....    1
 Number of Electrons    NEL             ....   66
 Basis Dimension        Dim             ....  327

ORBITAL ENERGIES
----------------

  NO   OCC          E(Eh)            E(eV)
   0   2.0000     -20.527269      -558.5754
   1   2.0000     -15.585911      -424.1142
   2   2.0000     -15.584698      -424.0812
   3   2.0000     -11.372908      -309.4726
   4   2.0000     -11.302590      -307.5591
   5   2.0000     -11.292210      -307.2767
   6   2.0000     -11.281322      -306.9804
   7   2.0000     -11.252455      -306.1949
   8   2.0000     -11.243663      -305.9556
   9   2.0000      -1.408119       -38.3169
  10   2.0000      -1.332112       -36.2486
  11   2.0000      -1.214067       -33.0364
  12   2.0000      -1.087346       -29.5882
  13   2.0000      -0.994424       -27.0597
  14   2.0000      -0.915195       -24.9037
  15   2.0000      -0.879339       -23.9280
  16   2.0000      -0.793405       -21.5896
  17   2.0000      -0.761976       -20.7344
  18   2.0000      -0.710959       -19.3462
  19   2.0000      -0.681625       -18.5480
  20   2.0000      -0.643104       -17.4997
  21   2.0000      -0.636200       -17.3119
  22   2.0000      -0.614107       -16.7107
  23   2.0000      -0.596775       -16.2391
  24   2.0000      -0.562093       -15.2953
  25   2.0000      -0.555269       -15.1096
  26   2.0000      -0.519245       -14.1294
  27   2.0000      -0.497269       -13.5314
  28   2.0000      -0.493088       -13.4176
  29   2.0000      -0.474575       -12.9138
  30   2.0000      -0.430814       -11.7231
  31   2.0000      -0.412897       -11.2355
  32   2.0000      -0.389389       -10.5958
  33   0.0000       0.120271         3.2727
  34   0.0000       0.152143         4.1400
  35   0.0000       0.160342         4.3631
  36   0.0000       0.171111         4.6562
  37   0.0000       0.178350         4.8531

MULLIKEN ATOMIC CHARGES
-----------------------
   0 C :   -0.425430
   1 C :    0.144835
   2 C :   -0.197328
   3 C :   -0.098199
   4 C :   -0.082746
   5 N :   -0.191254
   6 C :    0.236972
   7 O :   -0.291159
   8 N :   -0.312059
   9 H :    0.150052
  10 H :    0.140883
  11 H :    0.137426
  12 H :    0.124818
  13 H :    0.121318
  14 H :    0.147492
  15 H :    0.156136
  16 H :    0.238244
Sum of atomic charges:    0.0000000

LOEWDIN ATOMIC CHARGES
----------------------
   0 C :   -0.267982
   1 C :   -0.286180
   2 C :   -0.183103
   3 C :   -0.183406
   4 C :   -0.157690
   5 N :    0.177428
   6 C :   -0.485386
   7 O :    0.120157
   8 N :    0.128114
   9 H :    0.134448
  10 H :    0.130806
  11 H :    0.133449
  12 H :    0.145890
  13 H :    0.130033
  14 H :    0.137421
  15 H :    0.137991
  16 H :    0.188011

  Mayer bond orders larger than 0.1
B(  0-C ,  1-C ) :   0.8798 B(  0-C ,  9-H ) :   0.9394 B(  0-C , 10-H ) :   0.9333
B(  0-C , 11-H ) :   0.9360 B(  1-C ,  2-C ) :   0.9616 B(  1-C ,  4-C ) :   0.8581
B(  1-C ,  8-N ) :   0.9268 B(  2-C ,  3-C ) :   0.9221 B(  2-C , 12-H ) :   0.9090
B(  2-C , 13-H ) :   0.9034 B(  3-C ,  4-C ) :   0.8760 B(  3-C ,  5-N ) :   0.8696
B(  3-C , 14-H ) :   0.9416 B(  4-C ,  5-N ) :   0.8899 B(  4-C , 15-H ) :   0.8935
B(  5-N ,  6-C ) :   0.9669 B(  6-C ,  7-O ) :   2.0611 B(  6-C ,  8-N ) :   1.1199
B(  8-N , 16-H ) :   0.8568

MP2 TOTAL ENERGY:     -417.303028807 Eh
FINAL SINGLE POINT ENERGY      -417.303028807333

DIPOLE MOMENT
-------------
                                X             Y             Z
Electronic contribution:      4.31081      -6.64646      -1.87286
Nuclear contribution   :     -5.51866       8.27731       2.47247
                        -----------------------------------------
Total Dipole Moment    :     -1.20784       1.63085       0.59961
                        -----------------------------------------
Magnitude (a.u.)       :      2.11615
Magnitude (Debye)      :      5.37883

                             ****ORCA TERMINATED NORMALLY****
TOTAL RUN TIME: 0 days 0 hours 17 minutes 14 seconds 48 msec
