                         Program Version 3.0.3 - RELEASE   -
|  1> ! RI-MP2 RIJK def2-TZVP def2-TZVP/C def2-TZVP/JK TIGHTSCF
|  2> % maxcore 2000
|  3> % mp2 density relaxed end
|  4> *xyz 0 1
|  5>  C       -0.0590120981     1.3826850964     0.0889811031
|  6>  O        0.0002553040    -0.0310697403     0.0044626754
|  7>  C        0.6096686651    -0.5635293018    -1.0636700666
|  8>  C        1.1800379475     0.1241270002    -2.0803459662
|  9>  N        1.7674390253    -0.5898224349    -3.1068847847
| 10>  N        1.8173045225    -1.9263398010    -3.1750214908
| 11>  N        1.2966661136    -2.6109131674    -2.2461619437
| 12>  C        0.6514611473    -2.0267287580    -1.1165654317
| 13>  N        0.1370122266    -2.7503614863    -0.1981650954
| 14>  H        0.9465964187     1.8222263913     0.1234936115
| 15>  H       -0.6108895938     1.8096794822    -0.7588059259
| 16>  H       -0.5858705159     1.6094400713     1.0157937077
| 17>  H        1.2197770572     1.1998037060    -2.1659914802
| 18>  H        2.2059262032    -0.1293419927    -3.8871963023
| 19>  H        0.2856908266    -3.7318670452    -0.4461822103
| 20> *
| 21>
| 22>                          ****END OF INPUT****

CARTESIAN COORDINATES (ANGSTROEM)
---------------------------------
  C     -0.059012    1.382685    0.088981
  O      0.000255   -0.031070    0.004463
  C      0.609669   -0.563529   -1.063670
  C      1.180038    0.124127   -2.080346
  N      1.767439   -0.589822   -3.106885
  N      1.817305   -1.926340   -3.175021
  N      1.296666   -2.610913   -2.246162
  C      0.651461   -2.026729   -1.116565
  N      0.137012   -2.750361   -0.198165
  H      0.946596    1.822226    0.123494
  H     -0.610890    1.809679   -0.758806
  H     -0.585871    1.609440    1.015794
  H      1.219777    1.199804   -2.165991
  H      2.205926   -0.129342   -3.887196
  H      0.285691   -3.731867   -0.446182

 Total Charge           Charge          ....    0
 Multiplicity           Mult            ....    1
 Number of Electrons    NEL             ....   66
 Basis Dimension        Dim             ....  315

ORBITAL ENERGIES
----------------

  NO   OCC          E(Eh)            E(eV)
   0   2.0000     -20.599989      -560.5542
   1   2.0000     -15.696050      -427.1112
   2   2.0000     -15.658301      -426.0840
   3   2.0000     -15.613608      -424.8679
   4   2.0000     -15.530813      -422.6149
   5   2.0000     -11.320784      -308.0542
   6   2.0000     -11.315464      -307.9094
   7   2.0000     -11.303037      -307.5713
   8   2.0000     -11.298678      -307.4527
   9   2.0000      -1.442422       -39.2503
  10   2.0000      -1.427954       -38.8566
  11   2.0000      -1.255196       -34.1556
  12   2.0000      -1.197676       -32.5904
  13   2.0000      -1.082062       -29.4444
  14   2.0000      -0.988264       -26.8920
  15   2.0000      -0.917061       -24.9545
  16   2.0000      -0.888980       -24.1904
  17   2.0000      -0.789030       -21.4706
  18   2.0000      -0.768784       -20.9197
  19   2.0000      -0.698515       -19.0076
  20   2.0000      -0.688674       -18.7398
  21   2.0000      -0.678262       -18.4564
  22   2.0000      -0.641648       -17.4601
  23   2.0000      -0.636005       -17.3066
  24   2.0000      -0.599941       -16.3252
  25   2.0000      -0.557078       -15.1589
  26   2.0000      -0.529161       -14.3992
  27   2.0000      -0.521194       -14.1824
  28   2.0000      -0.493817       -13.4374
  29   2.0000      -0.452822       -12.3219
  30   2.0000      -0.426477       -11.6050
  31   2.0000      -0.411475       -11.1968
  32   2.0000      -0.309307        -8.4167
  33   0.0000       0.097476         2.6525
  34   0.0000       0.110321         3.0020
  35   0.0000       0.116578         3.1723
  36   0.0000       0.137934         3.7534
  37   0.0000       0.176481         4.8023

MULLIKEN ATOMIC CHARGES
-----------------------
   0 C :   -0.265193
   1 O :   -0.220583
   2 C :    0.275346
   3 C :   -0.170368
   4 N :   -0.088198
   5 N :   -0.117019
   6 N :   -0.122833
   7 C :   -0.014287
   8 N :   -0.359342
   9 H :    0.133875
  10 H :    0.133871
  11 H :    0.165200
  12 H :    0.161992
  13 H :    0.267432
  14 H :    0.220108
Sum of atomic charges:   -0.0000000

LOEWDIN ATOMIC CHARGES
----------------------
   0 C :   -0.319782
   1 O :    0.278039
   2 C :   -0.259298
   3 C :   -0.222091
   4 N :    0.083840
   5 N :   -0.027877
   6 N :    0.032093
   7 C :   -0.369177
   8 N :   -0.048302
   9 H :    0.110351
  10 H :    0.110350
  11 H :    0.122944
  12 H :    0.148883
  13 H :    0.194596
  14 H :    0.165431

  Mayer bond orders larger than 0.1
B(  0-C ,  1-O ) :   0.8754 B(  0-C ,  9-H ) :   0.9293 B(  0-C , 10-H ) :   0.9293
B(  0-C , 11-H ) :   0.9376 B(  1-O ,  2-C ) :   1.1609 B(  2-C ,  3-C ) :   1.4947
B(  2-C ,  7-C ) :   0.9565 B(  3-C ,  4-N ) :   1.0357 B(  3-C , 12-H ) :   0.9083
B(  4-N ,  5-N ) :   1.0261 B(  4-N , 13-H ) :   0.8688 B(  5-N ,  6-N ) :   1.4240
B(  6-N ,  7-C ) :   1.1410 B(  7-C ,  8-N ) :   2.0065 B(  8-N , 14-H ) :   0.8529

MP2 TOTAL ENERGY:     -449.332242452 Eh
FINAL SINGLE POINT ENERGY      -449.332242452108

DIPOLE MOMENT
-------------
                                X             Y             Z
Electronic contribution:      1.72934      -5.47056      -2.97427
Nuclear contribution   :     -1.32533       7.82369       2.22735
                        -----------------------------------------
Total Dipole Moment    :      0.40400       2.35313      -0.74692
                        -----------------------------------------
Magnitude (a.u.)       :      2.50166
Magnitude (Debye)      :      6.35872

                             ****ORCA TERMINATED NORMALLY****
TOTAL RUN TIME: 0 days 0 hours 16 minutes 3 seconds 921 msec
