                         Program Version 3.0.3 - RELEASE   -
|  1> ! RI-MP2 RIJK def2-TZVP def2-TZVP/C def2-TZVP/JK TIGHTSCF
|  2> % maxcore 2000
|  3> % mp2 density relaxed end
|  4> *xyz 0 1
|  5>  N       -0.0391052589     1.3440124731     0.0107464567
|  6>  C       -0.0085394015     0.0629419394     0.0033078585
|  7>  N        1.1473461291    -0.7351000891    -0.0073240016
|  8>  N        1.2281881367    -2.0748305315    -0.0153637524
|  9>  C        0.1162647486    -2.7368074401    -0.0132603912
| 10>  C       -1.1745703519    -2.0806259930    -0.0027232974
| 11>  C       -1.2293117412    -0.7247111208     0.0052705276
| 12>  C       -2.3595653663    -2.8803465953    -0.0010173475
| 13>  N       -3.3036875636    -3.5493982503     0.0001602924
| 14>  H        0.8965184793     1.7531171418     0.0081350085
| 15>  H        2.0470081031    -0.2763978748    -0.0094633742
| 16>  H        0.1912981515    -3.8168145461    -0.0197931393
| 17>  H       -2.1628615749    -0.1773882234     0.0133049199
| 18> *
| 19>
| 20>                          ****END OF INPUT****

CARTESIAN COORDINATES (ANGSTROEM)
---------------------------------
  N     -0.039105    1.344012    0.010746
  C     -0.008539    0.062942    0.003308
  N      1.147346   -0.735100   -0.007324
  N      1.228188   -2.074831   -0.015364
  C      0.116265   -2.736807   -0.013260
  C     -1.174570   -2.080626   -0.002723
  C     -1.229312   -0.724711    0.005271
  C     -2.359565   -2.880347   -0.001017
  N     -3.303688   -3.549398    0.000160
  H      0.896518    1.753117    0.008135
  H      2.047008   -0.276398   -0.009463
  H      0.191298   -3.816815   -0.019793
  H     -2.162862   -0.177388    0.013305

 Total Charge           Charge          ....    0
 Multiplicity           Mult            ....    1
 Number of Electrons    NEL             ....   62
 Basis Dimension        Dim             ....  303

ORBITAL ENERGIES
----------------

  NO   OCC          E(Eh)            E(eV)
   0   2.0000     -15.660576      -426.1459
   1   2.0000     -15.657780      -426.0698
   2   2.0000     -15.600386      -424.5081
   3   2.0000     -15.550213      -423.1428
   4   2.0000     -11.357481      -309.0528
   5   2.0000     -11.326363      -308.2060
   6   2.0000     -11.311467      -307.8007
   7   2.0000     -11.305540      -307.6394
   8   2.0000     -11.300329      -307.4976
   9   2.0000      -1.399247       -38.0755
  10   2.0000      -1.246904       -33.9300
  11   2.0000      -1.241913       -33.7942
  12   2.0000      -1.165017       -31.7017
  13   2.0000      -1.108975       -30.1767
  14   2.0000      -0.967132       -26.3170
  15   2.0000      -0.911097       -24.7922
  16   2.0000      -0.792413       -21.5626
  17   2.0000      -0.778432       -21.1822
  18   2.0000      -0.759625       -20.6705
  19   2.0000      -0.678238       -18.4558
  20   2.0000      -0.647170       -17.6104
  21   2.0000      -0.627994       -17.0886
  22   2.0000      -0.613950       -16.7064
  23   2.0000      -0.581619       -15.8267
  24   2.0000      -0.542046       -14.7498
  25   2.0000      -0.521158       -14.1814
  26   2.0000      -0.496595       -13.5130
  27   2.0000      -0.486931       -13.2501
  28   2.0000      -0.446376       -12.1465
  29   2.0000      -0.438103       -11.9214
  30   2.0000      -0.338923        -9.2226
  31   0.0000       0.027395         0.7455
  32   0.0000       0.113968         3.1012
  33   0.0000       0.115579         3.1451
  34   0.0000       0.140245         3.8163
  35   0.0000       0.163324         4.4443

MULLIKEN ATOMIC CHARGES
-----------------------
   0 N :   -0.371832
   1 C :    0.118913
   2 N :   -0.158009
   3 N :   -0.129455
   4 C :   -0.129795
   5 C :    0.280078
   6 C :   -0.181918
   7 C :   -0.177367
   8 N :   -0.038160
   9 H :    0.199152
  10 H :    0.254758
  11 H :    0.168910
  12 H :    0.164725
Sum of atomic charges:    0.0000000

LOEWDIN ATOMIC CHARGES
----------------------
   0 N :   -0.081166
   1 C :   -0.374630
   2 N :    0.114526
   3 N :    0.082360
   4 C :   -0.203990
   5 C :   -0.152266
   6 C :   -0.017232
   7 C :   -0.136920
   8 N :    0.095132
   9 H :    0.155729
  10 H :    0.192965
  11 H :    0.154455
  12 H :    0.171037

  Mayer bond orders larger than 0.1
B(  0-N ,  1-C ) :   1.9672 B(  0-N ,  9-H ) :   0.8576 B(  1-C ,  2-N ) :   1.0437
B(  1-C ,  6-C ) :   1.0650 B(  2-N ,  3-N ) :   1.0042 B(  2-N , 10-H ) :   0.8678
B(  3-N ,  4-C ) :   1.6725 B(  4-C ,  5-C ) :   1.0505 B(  4-C , 11-H ) :   0.9283
B(  5-C ,  6-C ) :   1.5075 B(  5-C ,  7-C ) :   0.8958 B(  6-C , 12-H ) :   0.9421
B(  7-C ,  8-N ) :   2.8235

MP2 TOTAL ENERGY:     -411.088910527 Eh
FINAL SINGLE POINT ENERGY      -411.088910526785

DIPOLE MOMENT
-------------
                                X             Y             Z
Electronic contribution:     -1.63633      -2.77304      -0.00712
Nuclear contribution   :      3.05887       3.05332       0.00121
                        -----------------------------------------
Total Dipole Moment    :      1.42253       0.28028      -0.00591
                        -----------------------------------------
Magnitude (a.u.)       :      1.44989
Magnitude (Debye)      :      3.68534

                             ****ORCA TERMINATED NORMALLY****
TOTAL RUN TIME: 0 days 0 hours 15 minutes 50 seconds 865 msec
