                         Program Version 3.0.3 - RELEASE   -
|  1> ! RI-MP2 RIJK def2-TZVP def2-TZVP/C def2-TZVP/JK TIGHTSCF
|  2> % maxcore 2000
|  3> % mp2 density relaxed end
|  4> *xyz 0 1
|  5>  C        0.0809856786     1.5176870550    -0.0659131529
|  6>  C       -0.0336359803    -0.0005674679     0.0866793689
|  7>  C       -1.4752797581    -0.5507871742    -0.0411128635
|  8>  O       -2.0561503282    -0.1672258234    -1.2738894069
|  9>  C       -1.4960516855    -2.0828448916     0.1518684136
| 10>  C       -2.0263872367    -2.2700943998     1.5516678039
| 11>  C       -2.4902550926    -1.1378593050     2.0998347885
| 12>  C       -2.3584796059    -0.0437618267     1.1222829913
| 13>  O       -2.8811864217     1.0510627279     1.1302354589
| 14>  H        1.1271162665     1.8290770888     0.0083575193
| 15>  H       -0.2926121130     1.8330284754    -1.0442142098
| 16>  H       -0.4882403563     2.0495698995     0.7006334009
| 17>  H        0.5601274233    -0.4922195213    -0.6934867466
| 18>  H        0.3824012013    -0.3215837260     1.0503075756
| 19>  H       -2.5162835269     0.6660403027    -1.0988370506
| 20>  H       -2.1706953265    -2.5353600916    -0.5840458997
| 21>  H       -0.5147544994    -2.5509535709     0.0182717097
| 22>  H       -2.0387066998    -3.2425486278     2.0333013181
| 23>  H       -2.9583093188    -1.0204643731     3.0684803411
| 24> *
| 25>
| 26>                          ****END OF INPUT****

CARTESIAN COORDINATES (ANGSTROEM)
---------------------------------
  C      0.080986    1.517687   -0.065913
  C     -0.033636   -0.000567    0.086679
  C     -1.475280   -0.550787   -0.041113
  O     -2.056150   -0.167226   -1.273889
  C     -1.496052   -2.082845    0.151868
  C     -2.026387   -2.270094    1.551668
  C     -2.490255   -1.137859    2.099835
  C     -2.358480   -0.043762    1.122283
  O     -2.881186    1.051063    1.130235
  H      1.127116    1.829077    0.008358
  H     -0.292612    1.833028   -1.044214
  H     -0.488240    2.049570    0.700633
  H      0.560127   -0.492220   -0.693487
  H      0.382401   -0.321584    1.050308
  H     -2.516284    0.666040   -1.098837
  H     -2.170695   -2.535360   -0.584046
  H     -0.514754   -2.550954    0.018272
  H     -2.038707   -3.242549    2.033301
  H     -2.958309   -1.020464    3.068480

 Total Charge           Charge          ....    0
 Multiplicity           Mult            ....    1
 Number of Electrons    NEL             ....   68
 Basis Dimension        Dim             ....  339

ORBITAL ENERGIES
----------------

  NO   OCC          E(Eh)            E(eV)
   0   2.0000     -20.559352      -559.4484
   1   2.0000     -20.550182      -559.1989
   2   2.0000     -11.332484      -308.3726
   3   2.0000     -11.299038      -307.4624
   4   2.0000     -11.278292      -306.8979
   5   2.0000     -11.247462      -306.0590
   6   2.0000     -11.246993      -306.0462
   7   2.0000     -11.232357      -305.6480
   8   2.0000     -11.211520      -305.0810
   9   2.0000      -1.400437       -38.1078
  10   2.0000      -1.362241       -37.0685
  11   2.0000      -1.154614       -31.4186
  12   2.0000      -1.049592       -28.5609
  13   2.0000      -0.977711       -26.6049
  14   2.0000      -0.929585       -25.2953
  15   2.0000      -0.845289       -23.0015
  16   2.0000      -0.787191       -21.4206
  17   2.0000      -0.753486       -20.5034
  18   2.0000      -0.694780       -18.9059
  19   2.0000      -0.672148       -18.2901
  20   2.0000      -0.641124       -17.4459
  21   2.0000      -0.618990       -16.8436
  22   2.0000      -0.606969       -16.5165
  23   2.0000      -0.593653       -16.1541
  24   2.0000      -0.563109       -15.3230
  25   2.0000      -0.550272       -14.9737
  26   2.0000      -0.543727       -14.7956
  27   2.0000      -0.528194       -14.3729
  28   2.0000      -0.514949       -14.0125
  29   2.0000      -0.504410       -13.7257
  30   2.0000      -0.494521       -13.4566
  31   2.0000      -0.442554       -12.0425
  32   2.0000      -0.402777       -10.9601
  33   2.0000      -0.389093       -10.5877
  34   0.0000       0.084807         2.3077
  35   0.0000       0.138508         3.7690
  36   0.0000       0.150734         4.1017
  37   0.0000       0.171466         4.6658
  38   0.0000       0.184057         5.0085

MULLIKEN ATOMIC CHARGES
-----------------------
   0 C :   -0.443872
   1 C :   -0.232716
   2 C :    0.266497
   3 O :   -0.482283
   4 C :   -0.164773
   5 C :   -0.155373
   6 C :   -0.212099
   7 C :    0.174171
   8 O :   -0.309381
   9 H :    0.134554
  10 H :    0.135519
  11 H :    0.147621
  12 H :    0.119344
  13 H :    0.118300
  14 H :    0.332857
  15 H :    0.144624
  16 H :    0.137137
  17 H :    0.143865
  18 H :    0.146008
Sum of atomic charges:   -0.0000000

LOEWDIN ATOMIC CHARGES
----------------------
   0 C :   -0.317707
   1 C :   -0.249474
   2 C :   -0.334070
   3 O :    0.018170
   4 C :   -0.190014
   5 C :   -0.092821
   6 C :   -0.120445
   7 C :   -0.290966
   8 O :    0.139716
   9 H :    0.122743
  10 H :    0.124054
  11 H :    0.125296
  12 H :    0.144323
  13 H :    0.144115
  14 H :    0.184827
  15 H :    0.157706
  16 H :    0.146120
  17 H :    0.141899
  18 H :    0.146528

  Mayer bond orders larger than 0.1
B(  0-C ,  1-C ) :   0.9155 B(  0-C ,  9-H ) :   0.9359 B(  0-C , 10-H ) :   0.9405
B(  0-C , 11-H ) :   0.9328 B(  1-C ,  2-C ) :   0.8930 B(  1-C , 12-H ) :   0.9266
B(  1-C , 13-H ) :   0.9133 B(  2-C ,  3-O ) :   0.9895 B(  2-C ,  4-C ) :   0.8636
B(  2-C ,  7-C ) :   0.8594 B(  3-O , 14-H ) :   0.8196 B(  4-C ,  5-C ) :   0.9650
B(  4-C , 15-H ) :   0.8919 B(  4-C , 16-H ) :   0.9227 B(  5-C ,  6-C ) :   1.6709
B(  5-C , 17-H ) :   0.9209 B(  6-C ,  7-C ) :   1.0376 B(  6-C , 18-H ) :   0.9160
B(  7-C ,  8-O ) :   1.9264

MP2 TOTAL ENERGY:     -422.355530421 Eh
FINAL SINGLE POINT ENERGY      -422.355530420788

DIPOLE MOMENT
-------------
                                X             Y             Z
Electronic contribution:     -6.42367      -0.70933       1.72718
Nuclear contribution   :      6.91120      -0.21526      -1.24117
                        -----------------------------------------
Total Dipole Moment    :      0.48753      -0.92459       0.48601
                        -----------------------------------------
Magnitude (a.u.)       :      1.15272
Magnitude (Debye)      :      2.92997

                             ****ORCA TERMINATED NORMALLY****
TOTAL RUN TIME: 0 days 0 hours 19 minutes 48 seconds 238 msec
