                         Program Version 3.0.3 - RELEASE   -
|  1> ! RI-MP2 RIJK def2-TZVP def2-TZVP/C def2-TZVP/JK TIGHTSCF
|  2> % maxcore 2000
|  3> % mp2 density relaxed end
|  4> *xyz 0 1
|  5>  O       -0.0630137270     1.3596742494     0.1302069938
|  6>  N        0.0920780231    -0.0365039037     0.1700262591
|  7>  C       -1.0168406516    -0.6256423575    -0.0499947131
|  8>  C       -1.0666952834    -2.1236912186    -0.0844034442
|  9>  C       -2.0267943659    -2.5423351334    -1.2094067254
| 10>  C       -3.4135347492    -1.9689033064    -0.9741879550
| 11>  O       -4.4376490712    -2.5478061195    -1.2031966958
| 12>  O       -3.4604313102    -0.7306957648    -0.4098435118
| 13>  C       -2.3017989780     0.1074513365    -0.3503737786
| 14>  H        0.8280820413     1.6727101495     0.3178835299
| 15>  H       -0.0632352798    -2.5298170174    -0.2252523061
| 16>  H       -1.4463439784    -2.5081201774     0.8714959498
| 17>  H       -1.6535762126    -2.1804916937    -2.1760694219
| 18>  H       -2.1336147389    -3.6250087555    -1.2865351749
| 19>  H       -2.5067220690     0.8483778866     0.4263118307
| 20>  H       -2.1978838091     0.6609572060    -1.2931546666
| 21> *
| 22>
| 23>                          ****END OF INPUT****

CARTESIAN COORDINATES (ANGSTROEM)
---------------------------------
  O     -0.063014    1.359674    0.130207
  N      0.092078   -0.036504    0.170026
  C     -1.016841   -0.625642   -0.049995
  C     -1.066695   -2.123691   -0.084403
  C     -2.026794   -2.542335   -1.209407
  C     -3.413535   -1.968903   -0.974188
  O     -4.437649   -2.547806   -1.203197
  O     -3.460431   -0.730696   -0.409844
  C     -2.301799    0.107451   -0.350374
  H      0.828082    1.672710    0.317884
  H     -0.063235   -2.529817   -0.225252
  H     -1.446344   -2.508120    0.871496
  H     -1.653576   -2.180492   -2.176069
  H     -2.133615   -3.625009   -1.286535
  H     -2.506722    0.848378    0.426312
  H     -2.197884    0.660957   -1.293155

 Total Charge           Charge          ....    0
 Multiplicity           Mult            ....    1
 Number of Electrons    NEL             ....   68
 Basis Dimension        Dim             ....  321

ORBITAL ENERGIES
----------------

  NO   OCC          E(Eh)            E(eV)
   0   2.0000     -20.610355      -560.8363
   1   2.0000     -20.609475      -560.8123
   2   2.0000     -20.545006      -559.0580
   3   2.0000     -15.635538      -425.4646
   4   2.0000     -11.387227      -309.8622
   5   2.0000     -11.317508      -307.9651
   6   2.0000     -11.302682      -307.5616
   7   2.0000     -11.266704      -306.5826
   8   2.0000     -11.265800      -306.5580
   9   2.0000      -1.463804       -39.8321
  10   2.0000      -1.438691       -39.1488
  11   2.0000      -1.369793       -37.2740
  12   2.0000      -1.194064       -32.4921
  13   2.0000      -1.087271       -29.5861
  14   2.0000      -1.006032       -27.3755
  15   2.0000      -0.927588       -25.2410
  16   2.0000      -0.827793       -22.5254
  17   2.0000      -0.745205       -20.2781
  18   2.0000      -0.720332       -19.6012
  19   2.0000      -0.709967       -19.3192
  20   2.0000      -0.703377       -19.1399
  21   2.0000      -0.669788       -18.2259
  22   2.0000      -0.646342       -17.5878
  23   2.0000      -0.624310       -16.9883
  24   2.0000      -0.611245       -16.6328
  25   2.0000      -0.589336       -16.0366
  26   2.0000      -0.575261       -15.6536
  27   2.0000      -0.554989       -15.1020
  28   2.0000      -0.538256       -14.6467
  29   2.0000      -0.532076       -14.4785
  30   2.0000      -0.473043       -12.8722
  31   2.0000      -0.449352       -12.2275
  32   2.0000      -0.441093       -12.0028
  33   2.0000      -0.401333       -10.9208
  34   0.0000       0.119750         3.2586
  35   0.0000       0.130003         3.5376
  36   0.0000       0.138958         3.7812
  37   0.0000       0.152170         4.1408
  38   0.0000       0.166099         4.5198

MULLIKEN ATOMIC CHARGES
-----------------------
   0 O :   -0.372110
   1 N :   -0.087200
   2 C :   -0.025014
   3 C :   -0.186763
   4 C :   -0.240026
   5 C :    0.227103
   6 O :   -0.276365
   7 O :   -0.213124
   8 C :   -0.067466
   9 H :    0.341525
  10 H :    0.146348
  11 H :    0.142258
  12 H :    0.145840
  13 H :    0.156251
  14 H :    0.162731
  15 H :    0.146012
Sum of atomic charges:    0.0000000

LOEWDIN ATOMIC CHARGES
----------------------
   0 O :   -0.068197
   1 N :    0.030028
   2 C :   -0.293346
   3 C :   -0.216076
   4 C :   -0.221584
   5 C :   -0.473329
   6 O :    0.143037
   7 O :    0.258871
   8 C :   -0.252188
   9 H :    0.173482
  10 H :    0.152521
  11 H :    0.156622
  12 H :    0.158438
  13 H :    0.156513
  14 H :    0.150230
  15 H :    0.144978

  Mayer bond orders larger than 0.1
B(  0-O ,  1-N ) :   0.8156 B(  0-O ,  9-H ) :   0.8420 B(  1-N ,  2-C ) :   1.8476
B(  2-C ,  3-C ) :   0.9389 B(  2-C ,  8-C ) :   0.9323 B(  3-C ,  4-C ) :   0.8786
B(  3-C , 10-H ) :   0.9139 B(  3-C , 11-H ) :   0.9160 B(  4-C ,  5-C ) :   0.9459
B(  4-C , 12-H ) :   0.9079 B(  4-C , 13-H ) :   0.9150 B(  5-C ,  6-O ) :   2.0493
B(  5-C ,  7-O ) :   1.0911 B(  7-O ,  8-C ) :   0.8757 B(  8-C , 14-H ) :   0.9153
B(  8-C , 15-H ) :   0.9259

MP2 TOTAL ENERGY:     -474.266818650 Eh
FINAL SINGLE POINT ENERGY      -474.266818649911

DIPOLE MOMENT
-------------
                                X             Y             Z
Electronic contribution:     -2.77120       1.21543       0.33376
Nuclear contribution   :      4.26034      -0.81782      -0.26808
                        -----------------------------------------
Total Dipole Moment    :      1.48914       0.39762       0.06568
                        -----------------------------------------
Magnitude (a.u.)       :      1.54271
Magnitude (Debye)      :      3.92125

                             ****ORCA TERMINATED NORMALLY****
TOTAL RUN TIME: 0 days 0 hours 13 minutes 44 seconds 439 msec
