                         Program Version 3.0.3 - RELEASE   -
|  1> ! RI-MP2 RIJK def2-TZVP def2-TZVP/C def2-TZVP/JK TIGHTSCF
|  2> % maxcore 2000
|  3> % mp2 density relaxed end
|  4> *xyz 0 1
|  5>  C        0.0304363639     1.5779565599    -0.1533927436
|  6>  C        0.0836387984     0.0700001971     0.0058286286
|  7>  C        1.0548373686    -0.7516530774    -0.8804752968
|  8>  C        1.3052027956    -1.6995426014     0.3281527078
|  9>  C        2.6387997390    -2.2310091999     0.5392440183
| 10>  N        3.7033441030    -2.6544666999     0.6940640196
| 11>  C        0.7619622970    -0.5621470790     1.2828408542
| 12>  C        1.7918485056     0.2476487601     1.8993547721
| 13>  C        2.6505401387     0.9187522532     2.4069662389
| 14>  H        1.0217942408     2.0231966977    -0.0315344218
| 15>  H       -0.3458286673     1.8435036220    -1.1471857517
| 16>  H       -0.6345919118     2.0325471822     0.5883484604
| 17>  H       -0.9244055579    -0.3517634853    -0.0710736490
| 18>  H        0.6661139880    -1.2081755461    -1.7921346664
| 19>  H        1.9561191684    -0.1814297270    -1.1181795581
| 20>  H        0.5912040359    -2.5278230139     0.3223809526
| 21>  H        0.0665175904    -0.9233951802     2.0452682601
| 22>  H        3.4156426738     1.4980299178     2.8621404648
| 23> *
| 24>
| 25>                          ****END OF INPUT****

CARTESIAN COORDINATES (ANGSTROEM)
---------------------------------
  C      0.030436    1.577957   -0.153393
  C      0.083639    0.070000    0.005829
  C      1.054837   -0.751653   -0.880475
  C      1.305203   -1.699543    0.328153
  C      2.638800   -2.231009    0.539244
  N      3.703344   -2.654467    0.694064
  C      0.761962   -0.562147    1.282841
  C      1.791849    0.247649    1.899355
  C      2.650540    0.918752    2.406966
  H      1.021794    2.023197   -0.031534
  H     -0.345829    1.843504   -1.147186
  H     -0.634592    2.032547    0.588348
  H     -0.924406   -0.351763   -0.071074
  H      0.666114   -1.208176   -1.792135
  H      1.956119   -0.181430   -1.118180
  H      0.591204   -2.527823    0.322381
  H      0.066518   -0.923395    2.045268
  H      3.415643    1.498030    2.862140

 Total Charge           Charge          ....    0
 Multiplicity           Mult            ....    1
 Number of Electrons    NEL             ....   64
 Basis Dimension        Dim             ....  333

ORBITAL ENERGIES
----------------

  NO   OCC          E(Eh)            E(eV)
   0   2.0000     -15.564840      -423.5408
   1   2.0000     -11.291150      -307.2478
   2   2.0000     -11.283046      -307.0273
   3   2.0000     -11.267478      -306.6037
   4   2.0000     -11.259991      -306.3999
   5   2.0000     -11.253119      -306.2129
   6   2.0000     -11.241492      -305.8966
   7   2.0000     -11.232626      -305.6553
   8   2.0000     -11.227535      -305.5168
   9   2.0000      -1.217388       -33.1268
  10   2.0000      -1.176736       -32.0206
  11   2.0000      -1.043439       -28.3934
  12   2.0000      -1.020230       -27.7619
  13   2.0000      -0.942374       -25.6433
  14   2.0000      -0.914323       -24.8800
  15   2.0000      -0.804506       -21.8917
  16   2.0000      -0.728892       -19.8341
  17   2.0000      -0.706629       -19.2284
  18   2.0000      -0.695430       -18.9236
  19   2.0000      -0.615503       -16.7487
  20   2.0000      -0.607008       -16.5175
  21   2.0000      -0.600794       -16.3484
  22   2.0000      -0.567025       -15.4295
  23   2.0000      -0.545792       -14.8518
  24   2.0000      -0.543185       -14.7808
  25   2.0000      -0.501140       -13.6367
  26   2.0000      -0.494060       -13.4440
  27   2.0000      -0.483371       -13.1532
  28   2.0000      -0.447969       -12.1899
  29   2.0000      -0.442498       -12.0410
  30   2.0000      -0.392029       -10.6677
  31   2.0000      -0.390252       -10.6193
  32   0.0000       0.111458         3.0329
  33   0.0000       0.139059         3.7840
  34   0.0000       0.146089         3.9753
  35   0.0000       0.152828         4.1587
  36   0.0000       0.165385         4.5003

MULLIKEN ATOMIC CHARGES
-----------------------
   0 C :   -0.415899
   1 C :   -0.029566
   2 C :   -0.272861
   3 C :    0.036458
   4 C :   -0.211158
   5 N :   -0.048389
   6 C :   -0.116371
   7 C :   -0.088467
   8 C :   -0.140179
   9 H :    0.143585
  10 H :    0.138029
  11 H :    0.137348
  12 H :    0.107625
  13 H :    0.135920
  14 H :    0.142502
  15 H :    0.142913
  16 H :    0.144492
  17 H :    0.194019
Sum of atomic charges:   -0.0000000

LOEWDIN ATOMIC CHARGES
----------------------
   0 C :   -0.291874
   1 C :   -0.219153
   2 C :   -0.170650
   3 C :   -0.183090
   4 C :   -0.171244
   5 N :    0.066262
   6 C :   -0.154657
   7 C :   -0.089087
   8 C :   -0.078163
   9 H :    0.131144
  10 H :    0.128244
  11 H :    0.128962
  12 H :    0.154100
  13 H :    0.130453
  14 H :    0.149915
  15 H :    0.175957
  16 H :    0.163368
  17 H :    0.129511

  Mayer bond orders larger than 0.1
B(  0-C ,  1-C ) :   0.8961 B(  0-C ,  9-H ) :   0.9331 B(  0-C , 10-H ) :   0.9383
B(  0-C , 11-H ) :   0.9379 B(  1-C ,  2-C ) :   0.9186 B(  1-C ,  6-C ) :   0.8765
B(  1-C , 12-H ) :   0.9255 B(  2-C ,  3-C ) :   0.9046 B(  2-C , 13-H ) :   0.9254
B(  2-C , 14-H ) :   0.9154 B(  3-C ,  4-C ) :   0.9460 B(  3-C ,  6-C ) :   0.8821
B(  3-C , 15-H ) :   0.8950 B(  4-C ,  5-N ) :   2.8786 B(  6-C ,  7-C ) :   1.1378
B(  6-C , 16-H ) :   0.9198 B(  7-C ,  8-C ) :   2.5807 B(  8-C , 17-H ) :   0.8945

MP2 TOTAL ENERGY:     -364.117013141 Eh
FINAL SINGLE POINT ENERGY      -364.117013140659

DIPOLE MOMENT
-------------
                                X             Y             Z
Electronic contribution:      5.88765      -5.88035       3.53815
Nuclear contribution   :     -7.40579       6.60177      -3.87134
                        -----------------------------------------
Total Dipole Moment    :     -1.51815       0.72142      -0.33319
                        -----------------------------------------
Magnitude (a.u.)       :      1.71354
Magnitude (Debye)      :      4.35548

                             ****ORCA TERMINATED NORMALLY****
TOTAL RUN TIME: 0 days 0 hours 18 minutes 58 seconds 541 msec
