                         Program Version 3.0.3 - RELEASE   -
|  1> ! RI-MP2 RIJK def2-TZVP def2-TZVP/C def2-TZVP/JK TIGHTSCF
|  2> % maxcore 2000
|  3> % mp2 density relaxed end
|  4> *xyz 0 1
|  5>  C       -0.0168634552     1.5685677655     0.0062604527
|  6>  C       -0.0008486884     0.0390764117     0.0059566710
|  7>  C        0.7079936494    -0.5354300157    -1.2380329119
|  8>  C        0.7404522317    -1.9903564219    -1.2687127133
|  9>  C        0.7477812813    -3.1982648446    -1.2594363319
| 10>  C        0.7601977622    -4.6482988742    -1.2547151990
| 11>  C        1.4385267596    -5.2969363540    -2.4456186908
| 12>  O        0.2593806725    -5.2894893394    -0.3547494314
| 13>  H        0.9995883623     1.9776929118    -0.0025295968
| 14>  H       -0.5400055912     1.9617397686    -0.8725879488
| 15>  H       -0.5232273381     1.9555364293     0.8951912433
| 16>  H        0.5030806121    -0.3354967094     0.9033738597
| 17>  H       -1.0235926480    -0.3513004439     0.0407528370
| 18>  H        0.2127567271    -0.1693205644    -2.1478353646
| 19>  H        1.7369899501    -0.1535297089    -1.2865914489
| 20>  H        2.4814842871    -4.9682442521    -2.5089155505
| 21>  H        1.3934417343    -6.3824959869    -2.3463835703
| 22>  H        0.9485423312    -4.9835869614    -3.3737997154
| 23> *
| 24>
| 25>                          ****END OF INPUT****

CARTESIAN COORDINATES (ANGSTROEM)
---------------------------------
  C     -0.016863    1.568568    0.006260
  C     -0.000849    0.039076    0.005957
  C      0.707994   -0.535430   -1.238033
  C      0.740452   -1.990356   -1.268713
  C      0.747781   -3.198265   -1.259436
  C      0.760198   -4.648299   -1.254715
  C      1.438527   -5.296936   -2.445619
  O      0.259381   -5.289489   -0.354749
  H      0.999588    1.977693   -0.002530
  H     -0.540006    1.961740   -0.872588
  H     -0.523227    1.955536    0.895191
  H      0.503081   -0.335497    0.903374
  H     -1.023593   -0.351300    0.040753
  H      0.212757   -0.169321   -2.147835
  H      1.736990   -0.153530   -1.286591
  H      2.481484   -4.968244   -2.508916
  H      1.393442   -6.382496   -2.346384
  H      0.948542   -4.983587   -3.373800

 Total Charge           Charge          ....    0
 Multiplicity           Mult            ....    1
 Number of Electrons    NEL             ....   60
 Basis Dimension        Dim             ....  308

ORBITAL ENERGIES
----------------

  NO   OCC          E(Eh)            E(eV)
   0   2.0000     -20.550488      -559.2072
   1   2.0000     -11.352168      -308.9082
   2   2.0000     -11.263145      -306.4858
   3   2.0000     -11.256654      -306.3091
   4   2.0000     -11.238540      -305.8162
   5   2.0000     -11.238250      -305.8083
   6   2.0000     -11.232644      -305.6558
   7   2.0000     -11.225990      -305.4747
   8   2.0000      -1.391930       -37.8763
   9   2.0000      -1.105048       -30.0699
  10   2.0000      -1.052106       -28.6293
  11   2.0000      -1.009600       -27.4726
  12   2.0000      -0.955168       -25.9914
  13   2.0000      -0.846929       -23.0461
  14   2.0000      -0.822912       -22.3926
  15   2.0000      -0.687020       -18.6948
  16   2.0000      -0.659574       -17.9479
  17   2.0000      -0.653505       -17.7828
  18   2.0000      -0.629648       -17.1336
  19   2.0000      -0.606091       -16.4926
  20   2.0000      -0.587266       -15.9803
  21   2.0000      -0.567122       -15.4322
  22   2.0000      -0.564500       -15.3608
  23   2.0000      -0.522992       -14.2313
  24   2.0000      -0.511744       -13.9253
  25   2.0000      -0.504312       -13.7230
  26   2.0000      -0.491819       -13.3831
  27   2.0000      -0.437108       -11.8943
  28   2.0000      -0.393663       -10.7121
  29   2.0000      -0.393463       -10.7067
  30   0.0000       0.099521         2.7081
  31   0.0000       0.123747         3.3673
  32   0.0000       0.145072         3.9476
  33   0.0000       0.169796         4.6204
  34   0.0000       0.176228         4.7954

MULLIKEN ATOMIC CHARGES
-----------------------
   0 C :   -0.396956
   1 C :   -0.156994
   2 C :   -0.402103
   3 C :    0.007293
   4 C :    0.120550
   5 C :    0.123458
   6 C :   -0.388117
   7 O :   -0.275244
   8 H :    0.125028
   9 H :    0.125023
  10 H :    0.141402
  11 H :    0.121453
  12 H :    0.121443
  13 H :    0.147067
  14 H :    0.147068
  15 H :    0.144171
  16 H :    0.151292
  17 H :    0.144167
Sum of atomic charges:    0.0000000

LOEWDIN ATOMIC CHARGES
----------------------
   0 C :   -0.318512
   1 C :   -0.275912
   2 C :   -0.250097
   3 C :   -0.036102
   4 C :   -0.037825
   5 C :   -0.355574
   6 C :   -0.266221
   7 O :    0.162266
   8 H :    0.121416
   9 H :    0.121415
  10 H :    0.124358
  11 H :    0.140494
  12 H :    0.140492
  13 H :    0.159167
  14 H :    0.159174
  15 H :    0.139206
  16 H :    0.133057
  17 H :    0.139195

  Mayer bond orders larger than 0.1
B(  0-C ,  1-C ) :   0.9180 B(  0-C ,  8-H ) :   0.9374 B(  0-C ,  9-H ) :   0.9374
B(  0-C , 10-H ) :   0.9422 B(  1-C ,  2-C ) :   0.9473 B(  1-C , 11-H ) :   0.9309
B(  1-C , 12-H ) :   0.9309 B(  2-C ,  3-C ) :   1.0382 B(  2-C ,  4-C ) :  -0.1417
B(  2-C , 13-H ) :   0.9220 B(  2-C , 14-H ) :   0.9220 B(  3-C ,  4-C ) :   2.7057
B(  4-C ,  5-C ) :   0.8598 B(  4-C ,  6-C ) :  -0.1402 B(  5-C ,  6-C ) :   1.0107
B(  5-C ,  7-O ) :   2.0238 B(  6-C , 15-H ) :   0.9097 B(  6-C , 16-H ) :   0.9381
B(  6-C , 17-H ) :   0.9098

MP2 TOTAL ENERGY:     -347.181502966 Eh
FINAL SINGLE POINT ENERGY      -347.181502965939

DIPOLE MOMENT
-------------
                                X             Y             Z
Electronic contribution:     -0.04023     -10.72227       0.27398
Nuclear contribution   :      0.43934      11.79093      -1.00156
                        -----------------------------------------
Total Dipole Moment    :      0.39911       1.06866      -0.72758
                        -----------------------------------------
Magnitude (a.u.)       :      1.35303
Magnitude (Debye)      :      3.43914

                             ****ORCA TERMINATED NORMALLY****
TOTAL RUN TIME: 0 days 0 hours 10 minutes 9 seconds 455 msec
