                         Program Version 3.0.3 - RELEASE   -
|  1> ! RI-MP2 RIJK def2-TZVP def2-TZVP/C def2-TZVP/JK TIGHTSCF
|  2> % maxcore 2000
|  3> % mp2 density relaxed end
|  4> *xyz 0 1
|  5>  C       -0.2924110073     1.6559354665     0.3126502279
|  6>  C       -0.0614948481     0.1446825460     0.2328567430
|  7>  C        0.5625208669    -0.4389792960     1.5087786445
|  8>  C        0.7301926322    -1.9530421941     1.4355453807
|  9>  C        1.8772675984    -2.6313609662     0.6092600140
| 10>  C        2.8645964269    -2.2118784640     1.7367982051
| 11>  C        1.5980122476    -2.7485113654     2.4661005835
| 12>  C        1.6332890472    -3.9348385788     1.4432701404
| 13>  C        0.4475454471    -4.8591157674     1.2061970353
| 14>  H        0.6487846154     2.1922433263     0.4780232968
| 15>  H       -0.7377664433     2.0429251291    -0.6093850126
| 16>  H       -0.9649954981     1.9104034602     1.1396368222
| 17>  H       -1.0149798412    -0.3617210774     0.0315931429
| 18>  H        0.5872198395    -0.0829293054    -0.6229692483
| 19>  H        1.5114310811     0.0708110188     1.7063946625
| 20>  H       -0.0882088832    -0.2035841673     2.3632960028
| 21>  H       -0.2556388964    -2.3924377417     1.2581114276
| 22>  H        2.0448451777    -2.5674615445    -0.4684020910
| 23>  H        3.7705491901    -2.8170008669     1.8343675134
| 24>  H        3.0961354756    -1.1520367689     1.8392479217
| 25>  H        1.4397033820    -2.8167082657     3.5451387145
| 26>  H        2.5423216818    -4.5404807024     1.5408581719
| 27>  H       -0.5080377845    -4.3403082358     1.1011348276
| 28>  H        0.6037063878    -5.4483748146     0.2954862585
| 29>  H        0.3479374648    -5.5667646444     2.0370110052
| 30> *
| 31>
| 32>                          ****END OF INPUT****

CARTESIAN COORDINATES (ANGSTROEM)
---------------------------------
  C     -0.292411    1.655935    0.312650
  C     -0.061495    0.144683    0.232857
  C      0.562521   -0.438979    1.508779
  C      0.730193   -1.953042    1.435545
  C      1.877268   -2.631361    0.609260
  C      2.864596   -2.211878    1.736798
  C      1.598012   -2.748511    2.466101
  C      1.633289   -3.934839    1.443270
  C      0.447545   -4.859116    1.206197
  H      0.648785    2.192243    0.478023
  H     -0.737766    2.042925   -0.609385
  H     -0.964995    1.910403    1.139637
  H     -1.014980   -0.361721    0.031593
  H      0.587220   -0.082929   -0.622969
  H      1.511431    0.070811    1.706395
  H     -0.088209   -0.203584    2.363296
  H     -0.255639   -2.392438    1.258111
  H      2.044845   -2.567462   -0.468402
  H      3.770549   -2.817001    1.834368
  H      3.096135   -1.152037    1.839248
  H      1.439703   -2.816708    3.545139
  H      2.542322   -4.540481    1.540858
  H     -0.508038   -4.340308    1.101135
  H      0.603706   -5.448375    0.295486
  H      0.347937   -5.566765    2.037011

 Total Charge           Charge          ....    0
 Multiplicity           Mult            ....    1
 Number of Electrons    NEL             ....   70
 Basis Dimension        Dim             ....  375

ORBITAL ENERGIES
----------------

  NO   OCC          E(Eh)            E(eV)
   0   2.0000     -11.234462      -305.7053
   1   2.0000     -11.234365      -305.7026
   2   2.0000     -11.229002      -305.5567
   3   2.0000     -11.225016      -305.4482
   4   2.0000     -11.219644      -305.3020
   5   2.0000     -11.215409      -305.1868
   6   2.0000     -11.211618      -305.0836
   7   2.0000     -11.209608      -305.0290
   8   2.0000     -11.209155      -305.0166
   9   2.0000      -1.202258       -32.7151
  10   2.0000      -1.058788       -28.8111
  11   2.0000      -0.989527       -26.9264
  12   2.0000      -0.954172       -25.9643
  13   2.0000      -0.869463       -23.6593
  14   2.0000      -0.847341       -23.0573
  15   2.0000      -0.830349       -22.5949
  16   2.0000      -0.787042       -21.4165
  17   2.0000      -0.699443       -19.0328
  18   2.0000      -0.664655       -18.0862
  19   2.0000      -0.636334       -17.3155
  20   2.0000      -0.611627       -16.6432
  21   2.0000      -0.595569       -16.2062
  22   2.0000      -0.567463       -15.4415
  23   2.0000      -0.561042       -15.2667
  24   2.0000      -0.540112       -14.6972
  25   2.0000      -0.519413       -14.1339
  26   2.0000      -0.504917       -13.7395
  27   2.0000      -0.484568       -13.1858
  28   2.0000      -0.478055       -13.0085
  29   2.0000      -0.467050       -12.7091
  30   2.0000      -0.442230       -12.0337
  31   2.0000      -0.426095       -11.5946
  32   2.0000      -0.423422       -11.5219
  33   2.0000      -0.419637       -11.4189
  34   2.0000      -0.414480       -11.2786
  35   0.0000       0.140162         3.8140
  36   0.0000       0.147867         4.0237
  37   0.0000       0.163730         4.4553
  38   0.0000       0.167139         4.5481
  39   0.0000       0.178509         4.8575

MULLIKEN ATOMIC CHARGES
-----------------------
   0 C :   -0.386573
   1 C :   -0.193148
   2 C :   -0.275912
   3 C :   -0.064289
   4 C :   -0.131882
   5 C :   -0.219266
   6 C :   -0.100299
   7 C :   -0.047212
   8 C :   -0.417946
   9 H :    0.121941
  10 H :    0.131845
  11 H :    0.121213
  12 H :    0.104514
  13 H :    0.110457
  14 H :    0.102230
  15 H :    0.109907
  16 H :    0.081063
  17 H :    0.127172
  18 H :    0.105561
  19 H :    0.113119
  20 H :    0.124074
  21 H :    0.094283
  22 H :    0.126182
  23 H :    0.131492
  24 H :    0.131477
Sum of atomic charges:    0.0000000

LOEWDIN ATOMIC CHARGES
----------------------
   0 C :   -0.322728
   1 C :   -0.292967
   2 C :   -0.252498
   3 C :   -0.185362
   4 C :   -0.150110
   5 C :   -0.198804
   6 C :   -0.148533
   7 C :   -0.208435
   8 C :   -0.300161
   9 H :    0.119765
  10 H :    0.119768
  11 H :    0.119768
  12 H :    0.133816
  13 H :    0.135002
  14 H :    0.136460
  15 H :    0.140376
  16 H :    0.144091
  17 H :    0.122311
  18 H :    0.126197
  19 H :    0.122634
  20 H :    0.122724
  21 H :    0.145293
  22 H :    0.119931
  23 H :    0.125774
  24 H :    0.125689

  Mayer bond orders larger than 0.1
B(  0-C ,  1-C ) :   0.9179 B(  0-C ,  9-H ) :   0.9398 B(  0-C , 10-H ) :   0.9436
B(  0-C , 11-H ) :   0.9402 B(  1-C ,  2-C ) :   0.9251 B(  1-C , 12-H ) :   0.9359
B(  1-C , 13-H ) :   0.9345 B(  2-C ,  3-C ) :   0.9220 B(  2-C , 14-H ) :   0.9242
B(  2-C , 15-H ) :   0.9325 B(  3-C ,  4-C ) :   0.8975 B(  3-C ,  6-C ) :   0.8844
B(  3-C , 16-H ) :   0.9278 B(  4-C ,  5-C ) :   0.9078 B(  4-C ,  7-C ) :   0.8902
B(  4-C , 17-H ) :   0.8822 B(  5-C ,  6-C ) :   0.9084 B(  5-C , 18-H ) :   0.9288
B(  5-C , 19-H ) :   0.9239 B(  6-C ,  7-C ) :   0.8895 B(  6-C , 20-H ) :   0.8876
B(  7-C ,  8-C ) :   0.9085 B(  7-C , 21-H ) :   0.9290 B(  8-C , 22-H ) :   0.9353
B(  8-C , 23-H ) :   0.9386 B(  8-C , 24-H ) :   0.9386

MP2 TOTAL ENERGY:     -351.663639213 Eh
FINAL SINGLE POINT ENERGY      -351.663639213105

DIPOLE MOMENT
-------------
                                X             Y             Z
Electronic contribution:      2.90356      -3.37825       1.61256
Nuclear contribution   :     -2.95213       3.35375      -1.63252
                        -----------------------------------------
Total Dipole Moment    :     -0.04857      -0.02449      -0.01996
                        -----------------------------------------
Magnitude (a.u.)       :      0.05794
Magnitude (Debye)      :      0.14727

                             ****ORCA TERMINATED NORMALLY****
TOTAL RUN TIME: 0 days 0 hours 20 minutes 30 seconds 942 msec
