                         Program Version 3.0.3 - RELEASE   -
|  1> ! RI-MP2 RIJK def2-TZVP def2-TZVP/C def2-TZVP/JK TIGHTSCF
|  2> % maxcore 2000
|  3> % mp2 density relaxed end
|  4> *xyz 0 1
|  5>  C       -0.0655159530     1.3342020113    -0.1741517296
|  6>  O       -0.1242142287     0.0904580050     0.5283128018
|  7>  C       -1.2329849822    -0.6386260411     0.3386090892
|  8>  C       -1.3828003392    -1.9763802083     0.1460090967
|  9>  C       -0.2931906830    -2.9916754393     0.0085862304
| 10>  C       -2.8141690950    -2.1924712822     0.1075326166
| 11>  C       -3.5104617572    -3.5026642790    -0.0839267007
| 12>  C       -3.3876082709    -0.9738046352     0.2676838917
| 13>  O       -2.4305529566    -0.0017222843     0.4185129545
| 14>  H        0.9097446176     1.7656854768     0.0555847504
| 15>  H       -0.1542500293     1.1755047859    -1.2555995580
| 16>  H       -0.8561755394     2.0131891914     0.1581515860
| 17>  H       -0.3091042015    -3.7238231038     0.8252780197
| 18>  H       -0.3789788732    -3.5562905963    -0.9276331646
| 19>  H        0.6848782461    -2.5040412606     0.0195227825
| 20>  H       -3.2592315280    -4.2128888408     0.7128082304
| 21>  H       -4.5966889973    -3.3760360737    -0.0868434763
| 22>  H       -3.2270326587    -3.9757100598    -1.0317416452
| 23>  H       -4.4084385305    -0.6303519161     0.2861146245
| 24> *
| 25>
| 26>                          ****END OF INPUT****

CARTESIAN COORDINATES (ANGSTROEM)
---------------------------------
  C     -0.065516    1.334202   -0.174152
  O     -0.124214    0.090458    0.528313
  C     -1.232985   -0.638626    0.338609
  C     -1.382800   -1.976380    0.146009
  C     -0.293191   -2.991675    0.008586
  C     -2.814169   -2.192471    0.107533
  C     -3.510462   -3.502664   -0.083927
  C     -3.387608   -0.973805    0.267684
  O     -2.430553   -0.001722    0.418513
  H      0.909745    1.765685    0.055585
  H     -0.154250    1.175505   -1.255600
  H     -0.856176    2.013189    0.158152
  H     -0.309104   -3.723823    0.825278
  H     -0.378979   -3.556291   -0.927633
  H      0.684878   -2.504041    0.019523
  H     -3.259232   -4.212889    0.712808
  H     -4.596689   -3.376036   -0.086843
  H     -3.227033   -3.975710   -1.031742
  H     -4.408439   -0.630352    0.286115

 Total Charge           Charge          ....    0
 Multiplicity           Mult            ....    1
 Number of Electrons    NEL             ....   68
 Basis Dimension        Dim             ....  339

ORBITAL ENERGIES
----------------

  NO   OCC          E(Eh)            E(eV)
   0   2.0000     -20.610755      -560.8471
   1   2.0000     -20.588429      -560.2396
   2   2.0000     -11.333474      -308.3995
   3   2.0000     -11.284346      -307.0627
   4   2.0000     -11.267131      -306.5942
   5   2.0000     -11.229202      -305.5621
   6   2.0000     -11.226167      -305.4795
   7   2.0000     -11.220175      -305.3165
   8   2.0000     -11.216270      -305.2102
   9   2.0000      -1.468706       -39.9655
  10   2.0000      -1.394517       -37.9467
  11   2.0000      -1.104834       -30.0641
  12   2.0000      -1.023712       -27.8566
  13   2.0000      -0.963381       -26.2149
  14   2.0000      -0.939856       -25.5748
  15   2.0000      -0.914496       -24.8847
  16   2.0000      -0.772942       -21.0328
  17   2.0000      -0.759467       -20.6662
  18   2.0000      -0.702849       -19.1255
  19   2.0000      -0.671836       -18.2816
  20   2.0000      -0.644287       -17.5319
  21   2.0000      -0.627588       -17.0775
  22   2.0000      -0.609712       -16.5911
  23   2.0000      -0.588975       -16.0268
  24   2.0000      -0.569061       -15.4849
  25   2.0000      -0.555201       -15.1078
  26   2.0000      -0.553327       -15.0568
  27   2.0000      -0.538211       -14.6455
  28   2.0000      -0.530563       -14.4373
  29   2.0000      -0.522430       -14.2160
  30   2.0000      -0.496417       -13.5082
  31   2.0000      -0.471784       -12.8379
  32   2.0000      -0.369356       -10.0507
  33   2.0000      -0.289822        -7.8865
  34   0.0000       0.135358         3.6833
  35   0.0000       0.150210         4.0874
  36   0.0000       0.170266         4.6332
  37   0.0000       0.174248         4.7415
  38   0.0000       0.194186         5.2841

MULLIKEN ATOMIC CHARGES
-----------------------
   0 C :   -0.203574
   1 O :   -0.301291
   2 C :    0.310832
   3 C :   -0.081228
   4 C :   -0.439966
   5 C :    0.024438
   6 C :   -0.419314
   7 C :   -0.058706
   8 O :   -0.228668
   9 H :    0.143517
  10 H :    0.123055
  11 H :    0.142632
  12 H :    0.140705
  13 H :    0.137648
  14 H :    0.152406
  15 H :    0.142182
  16 H :    0.136715
  17 H :    0.140270
  18 H :    0.138347
Sum of atomic charges:   -0.0000000

LOEWDIN ATOMIC CHARGES
----------------------
   0 C :   -0.314350
   1 O :    0.223392
   2 C :   -0.366049
   3 C :   -0.173356
   4 C :   -0.269575
   5 C :   -0.193566
   6 C :   -0.268281
   7 C :   -0.228212
   8 O :    0.336389
   9 H :    0.114960
  10 H :    0.108555
  11 H :    0.110552
  12 H :    0.130015
  13 H :    0.129259
  14 H :    0.135450
  15 H :    0.131169
  16 H :    0.131726
  17 H :    0.130535
  18 H :    0.131385

  Mayer bond orders larger than 0.1
B(  0-C ,  1-O ) :   0.8501 B(  0-C ,  9-H ) :   0.9378 B(  0-C , 10-H ) :   0.9286
B(  0-C , 11-H ) :   0.9387 B(  1-O ,  2-C ) :   1.0967 B(  2-C ,  3-C ) :   1.5138
B(  2-C ,  8-O ) :   1.0403 B(  3-C ,  4-C ) :   0.8474 B(  3-C ,  5-C ) :   1.1464
B(  4-C , 12-H ) :   0.9447 B(  4-C , 13-H ) :   0.9416 B(  4-C , 14-H ) :   0.9465
B(  5-C ,  6-C ) :   0.8489 B(  5-C ,  7-C ) :   1.5747 B(  6-C , 15-H ) :   0.9408
B(  6-C , 16-H ) :   0.9481 B(  6-C , 17-H ) :   0.9412 B(  7-C ,  8-O ) :   1.0035
B(  7-C , 18-H ) :   0.9411

MP2 TOTAL ENERGY:     -422.336002778 Eh
FINAL SINGLE POINT ENERGY      -422.336002777734

DIPOLE MOMENT
-------------
                                X             Y             Z
Electronic contribution:     -0.96755       5.04831       2.35038
Nuclear contribution   :      0.92086      -4.99267      -2.73682
                        -----------------------------------------
Total Dipole Moment    :     -0.04669       0.05564      -0.38644
                        -----------------------------------------
Magnitude (a.u.)       :      0.39321
Magnitude (Debye)      :      0.99946

                             ****ORCA TERMINATED NORMALLY****
TOTAL RUN TIME: 0 days 0 hours 17 minutes 28 seconds 946 msec
