                         Program Version 3.0.3 - RELEASE   -
|  1> ! RI-MP2 RIJK def2-TZVP def2-TZVP/C def2-TZVP/JK TIGHTSCF
|  2> % maxcore 2000
|  3> % mp2 density relaxed end
|  4> *xyz 0 1
|  5>  O       -0.1279303179     1.5094081545     0.1061770967
|  6>  C        0.0260426717     0.1037955257    -0.0369798445
|  7>  C       -1.3654631126    -0.5178604775    -0.0010162819
|  8>  C       -1.3829116327    -2.0523110222    -0.0215641481
|  9>  C       -2.8121280210    -2.5933849716     0.1470029743
| 10>  C       -2.8316410791    -4.1232355208     0.2674946495
| 11>  C       -1.9440187611    -4.7785106596    -0.7578890645
| 12>  C       -1.0331533582    -4.1128222878    -1.4661149310
| 13>  C       -0.7555524114    -2.6402759218    -1.3004876260
| 14>  H        0.7418262297     1.9143921501     0.0430075629
| 15>  H        0.5340952251    -0.1397143247    -0.9826491826
| 16>  H        0.6393204246    -0.3138358639     0.7794662592
| 17>  H       -1.8634966981    -0.1592753899     0.9081784353
| 18>  H       -1.9457457771    -0.1264772167    -0.8469418086
| 19>  H       -0.7909557163    -2.4133982448     0.8334567269
| 20>  H       -3.2864744347    -2.1388574604     1.0242223898
| 21>  H       -3.4092816654    -2.2910796457    -0.7240970662
| 22>  H       -2.5153385304    -4.4281641290     1.2766813720
| 23>  H       -3.8586340369    -4.4958877604     0.1622305804
| 24>  H       -2.0725975634    -5.8473362113    -0.9133445259
| 25>  H       -0.4372705906    -4.6398464121    -2.2081544417
| 26>  H       -1.1293952748    -2.0924731654    -2.1803836142
| 27>  H        0.3298328907    -2.4783253946    -1.3004307917
| 28> *
| 29>
| 30>                          ****END OF INPUT****

CARTESIAN COORDINATES (ANGSTROEM)
---------------------------------
  O     -0.127930    1.509408    0.106177
  C      0.026043    0.103796   -0.036980
  C     -1.365463   -0.517860   -0.001016
  C     -1.382912   -2.052311   -0.021564
  C     -2.812128   -2.593385    0.147003
  C     -2.831641   -4.123236    0.267495
  C     -1.944019   -4.778511   -0.757889
  C     -1.033153   -4.112822   -1.466115
  C     -0.755552   -2.640276   -1.300488
  H      0.741826    1.914392    0.043008
  H      0.534095   -0.139714   -0.982649
  H      0.639320   -0.313836    0.779466
  H     -1.863497   -0.159275    0.908178
  H     -1.945746   -0.126477   -0.846942
  H     -0.790956   -2.413398    0.833457
  H     -3.286474   -2.138857    1.024222
  H     -3.409282   -2.291080   -0.724097
  H     -2.515339   -4.428164    1.276681
  H     -3.858634   -4.495888    0.162231
  H     -2.072598   -5.847336   -0.913345
  H     -0.437271   -4.639846   -2.208154
  H     -1.129395   -2.092473   -2.180384
  H      0.329833   -2.478325   -1.300431

 Total Charge           Charge          ....    0
 Multiplicity           Mult            ....    1
 Number of Electrons    NEL             ....   70
 Basis Dimension        Dim             ....  363

ORBITAL ENERGIES
----------------

  NO   OCC          E(Eh)            E(eV)
   0   2.0000     -20.552387      -559.2589
   1   2.0000     -11.272141      -306.7305
   2   2.0000     -11.225099      -305.4505
   3   2.0000     -11.222375      -305.3764
   4   2.0000     -11.221599      -305.3552
   5   2.0000     -11.220585      -305.3277
   6   2.0000     -11.218868      -305.2809
   7   2.0000     -11.216264      -305.2101
   8   2.0000     -11.213805      -305.1431
   9   2.0000      -1.355970       -36.8978
  10   2.0000      -1.125654       -30.6306
  11   2.0000      -1.047882       -28.5143
  12   2.0000      -1.002327       -27.2747
  13   2.0000      -0.964164       -26.2362
  14   2.0000      -0.861535       -23.4436
  15   2.0000      -0.828519       -22.5452
  16   2.0000      -0.783834       -21.3292
  17   2.0000      -0.705821       -19.2064
  18   2.0000      -0.694129       -18.8882
  19   2.0000      -0.657212       -17.8837
  20   2.0000      -0.640335       -17.4244
  21   2.0000      -0.604633       -16.4529
  22   2.0000      -0.595926       -16.2160
  23   2.0000      -0.572762       -15.5856
  24   2.0000      -0.553981       -15.0746
  25   2.0000      -0.544768       -14.8239
  26   2.0000      -0.526715       -14.3326
  27   2.0000      -0.518509       -14.1093
  28   2.0000      -0.498320       -13.5600
  29   2.0000      -0.492435       -13.3998
  30   2.0000      -0.456600       -12.4247
  31   2.0000      -0.442895       -12.0518
  32   2.0000      -0.434439       -11.8217
  33   2.0000      -0.434060       -11.8114
  34   2.0000      -0.343180        -9.3384
  35   0.0000       0.133306         3.6274
  36   0.0000       0.141029         3.8376
  37   0.0000       0.159836         4.3493
  38   0.0000       0.161688         4.3998
  39   0.0000       0.166093         4.5196

MULLIKEN ATOMIC CHARGES
-----------------------
   0 O :   -0.463318
   1 C :   -0.081662
   2 C :   -0.162765
   3 C :   -0.093525
   4 C :   -0.242717
   5 C :   -0.140204
   6 C :   -0.194026
   7 C :   -0.174471
   8 C :   -0.206649
   9 H :    0.313691
  10 H :    0.101679
  11 H :    0.091069
  12 H :    0.117564
  13 H :    0.111068
  14 H :    0.085209
  15 H :    0.122740
  16 H :    0.109629
  17 H :    0.112922
  18 H :    0.123368
  19 H :    0.117543
  20 H :    0.116292
  21 H :    0.115379
  22 H :    0.121184
Sum of atomic charges:   -0.0000000

LOEWDIN ATOMIC CHARGES
----------------------
   0 O :   -0.052715
   1 C :   -0.351171
   2 C :   -0.250044
   3 C :   -0.249032
   4 C :   -0.232990
   5 C :   -0.255648
   6 C :   -0.176550
   7 C :   -0.174735
   8 C :   -0.234217
   9 H :    0.170743
  10 H :    0.113683
  11 H :    0.114420
  12 H :    0.143853
  13 H :    0.141697
  14 H :    0.155753
  15 H :    0.137961
  16 H :    0.142871
  17 H :    0.143443
  18 H :    0.142306
  19 H :    0.140145
  20 H :    0.140334
  21 H :    0.147349
  22 H :    0.142547

  Mayer bond orders larger than 0.1
B(  0-O ,  1-C ) :   1.0208 B(  0-O ,  9-H ) :   0.8499 B(  1-C ,  2-C ) :   0.9251
B(  1-C , 10-H ) :   0.9363 B(  1-C , 11-H ) :   0.9297 B(  2-C ,  3-C ) :   0.8954
B(  2-C , 12-H ) :   0.9314 B(  2-C , 13-H ) :   0.9183 B(  3-C ,  4-C ) :   0.9149
B(  3-C ,  8-C ) :   0.9376 B(  3-C , 14-H ) :   0.9286 B(  4-C ,  5-C ) :   0.9458
B(  4-C , 15-H ) :   0.9357 B(  4-C , 16-H ) :   0.9249 B(  5-C ,  6-C ) :   0.9423
B(  5-C , 17-H ) :   0.9107 B(  5-C , 18-H ) :   0.9280 B(  6-C ,  7-C ) :   1.8152
B(  6-C , 19-H ) :   0.9307 B(  7-C ,  8-C ) :   0.9305 B(  7-C , 20-H ) :   0.9316
B(  8-C , 21-H ) :   0.9013 B(  8-C , 22-H ) :   0.9256

MP2 TOTAL ENERGY:     -387.629932191 Eh
FINAL SINGLE POINT ENERGY      -387.629932190736

DIPOLE MOMENT
-------------
                                X             Y             Z
Electronic contribution:      1.02677       1.05384      -0.37041
Nuclear contribution   :     -0.53040      -1.27300       0.35134
                        -----------------------------------------
Total Dipole Moment    :      0.49636      -0.21916      -0.01907
                        -----------------------------------------
Magnitude (a.u.)       :      0.54293
Magnitude (Debye)      :      1.38002

                             ****ORCA TERMINATED NORMALLY****
TOTAL RUN TIME: 0 days 0 hours 19 minutes 0 seconds 569 msec
