                         Program Version 3.0.3 - RELEASE   -
|  1> ! RI-MP2 RIJK def2-TZVP def2-TZVP/C def2-TZVP/JK TIGHTSCF
|  2> % maxcore 2000
|  3> % mp2 density relaxed end
|  4> *xyz 0 1
|  5>  N       -0.1363558492    -1.1108749937    -0.4474773487
|  6>  C       -0.1053701869     0.0205221481    -0.2161863586
|  7>  C       -0.0610291219     1.4683655839     0.0439917351
|  8>  O       -0.4889764839     1.7721916113     1.3662269583
|  9>  C        0.6363707461     2.3187027496     2.0428708984
| 10>  O        1.4134873245     2.9483041571     1.0585770370
| 11>  C        1.3616550559     2.0651740237    -0.0336895226
| 12>  C        2.5905480602     1.2924612686    -0.4216444877
| 13>  C        2.0770056028     2.4380234773    -1.2811396505
| 14>  H       -0.7412836645     1.9642994447    -0.6586513081
| 15>  H        0.2888172231     3.0627459238     2.7625031193
| 16>  H        1.2029597348     1.5176601659     2.5451499653
| 17>  H        3.4792195598     1.4761193316     0.1711688457
| 18>  H        2.4766280601     0.2786294921    -0.7885625855
| 19>  H        1.6104846909     2.2001614491    -2.2313543463
| 20>  H        2.6279239383     3.3715167171    -1.2641467309
| 21> *
| 22>
| 23>                          ****END OF INPUT****

CARTESIAN COORDINATES (ANGSTROEM)
---------------------------------
  N     -0.136356   -1.110875   -0.447477
  C     -0.105370    0.020522   -0.216186
  C     -0.061029    1.468366    0.043992
  O     -0.488976    1.772192    1.366227
  C      0.636371    2.318703    2.042871
  O      1.413487    2.948304    1.058577
  C      1.361655    2.065174   -0.033690
  C      2.590548    1.292461   -0.421644
  C      2.077006    2.438023   -1.281140
  H     -0.741284    1.964299   -0.658651
  H      0.288817    3.062746    2.762503
  H      1.202960    1.517660    2.545150
  H      3.479220    1.476119    0.171169
  H      2.476628    0.278629   -0.788563
  H      1.610485    2.200161   -2.231354
  H      2.627924    3.371517   -1.264147

 Total Charge           Charge          ....    0
 Multiplicity           Mult            ....    1
 Number of Electrons    NEL             ....   66
 Basis Dimension        Dim             ....  321

ORBITAL ENERGIES
----------------

  NO   OCC          E(Eh)            E(eV)
   0   2.0000     -20.597480      -560.4859
   1   2.0000     -20.596121      -560.4489
   2   2.0000     -15.584934      -424.0876
   3   2.0000     -11.353421      -308.9423
   4   2.0000     -11.353038      -308.9319
   5   2.0000     -11.324670      -308.1599
   6   2.0000     -11.282870      -307.0225
   7   2.0000     -11.252949      -306.2083
   8   2.0000     -11.248917      -306.0986
   9   2.0000      -1.475416       -40.1481
  10   2.0000      -1.370421       -37.2910
  11   2.0000      -1.230785       -33.4913
  12   2.0000      -1.169189       -31.8152
  13   2.0000      -1.035346       -28.1732
  14   2.0000      -0.916559       -24.9408
  15   2.0000      -0.857394       -23.3309
  16   2.0000      -0.833449       -22.6793
  17   2.0000      -0.757314       -20.6076
  18   2.0000      -0.729024       -19.8377
  19   2.0000      -0.698977       -19.0201
  20   2.0000      -0.684295       -18.6206
  21   2.0000      -0.646364       -17.5885
  22   2.0000      -0.615816       -16.7572
  23   2.0000      -0.582995       -15.8641
  24   2.0000      -0.574646       -15.6369
  25   2.0000      -0.554808       -15.0971
  26   2.0000      -0.543660       -14.7937
  27   2.0000      -0.533117       -14.5068
  28   2.0000      -0.483665       -13.1612
  29   2.0000      -0.478273       -13.0145
  30   2.0000      -0.462914       -12.5965
  31   2.0000      -0.450763       -12.2659
  32   2.0000      -0.418385       -11.3848
  33   0.0000       0.133443         3.6312
  34   0.0000       0.141360         3.8466
  35   0.0000       0.151984         4.1357
  36   0.0000       0.165209         4.4956
  37   0.0000       0.177746         4.8367

MULLIKEN ATOMIC CHARGES
-----------------------
   0 N :   -0.050590
   1 C :   -0.232556
   2 C :    0.273514
   3 O :   -0.314367
   4 C :    0.103523
   5 O :   -0.292448
   6 C :    0.082058
   7 C :   -0.263211
   8 C :   -0.275008
   9 H :    0.142365
  10 H :    0.136928
  11 H :    0.094704
  12 H :    0.143070
  13 H :    0.158732
  14 H :    0.145863
  15 H :    0.147425
Sum of atomic charges:    0.0000000

LOEWDIN ATOMIC CHARGES
----------------------
   0 N :    0.076911
   1 C :   -0.157873
   2 C :   -0.256212
   3 O :    0.183687
   4 C :   -0.348277
   5 O :    0.221394
   6 C :   -0.313203
   7 C :   -0.192715
   8 C :   -0.190194
   9 H :    0.168309
  10 H :    0.124802
  11 H :    0.112586
  12 H :    0.141999
  13 H :    0.142530
  14 H :    0.140949
  15 H :    0.145306

  Mayer bond orders larger than 0.1
B(  0-N ,  1-C ) :   2.8428 B(  1-C ,  2-C ) :   0.8805 B(  2-C ,  3-O ) :   0.9205
B(  2-C ,  6-C ) :   0.8677 B(  2-C ,  9-H ) :   0.9115 B(  3-O ,  4-C ) :   0.9504
B(  4-C ,  5-O ) :   0.9662 B(  4-C , 10-H ) :   0.9222 B(  4-C , 11-H ) :   0.9178
B(  5-O ,  6-C ) :   0.9478 B(  6-C ,  7-C ) :   0.8958 B(  6-C ,  8-C ) :   0.8861
B(  7-C ,  8-C ) :   0.9221 B(  7-C , 12-H ) :   0.9194 B(  7-C , 13-H ) :   0.9084
B(  8-C , 14-H ) :   0.9194 B(  8-C , 15-H ) :   0.9148

MP2 TOTAL ENERGY:     -437.148806314 Eh
FINAL SINGLE POINT ENERGY      -437.148806314148

DIPOLE MOMENT
-------------
                                X             Y             Z
Electronic contribution:     -4.34535      -2.04577       1.29250
Nuclear contribution   :      4.90031       3.08939      -1.29347
                        -----------------------------------------
Total Dipole Moment    :      0.55496       1.04363      -0.00097
                        -----------------------------------------
Magnitude (a.u.)       :      1.18201
Magnitude (Debye)      :      3.00442

                             ****ORCA TERMINATED NORMALLY****
TOTAL RUN TIME: 0 days 0 hours 16 minutes 14 seconds 770 msec
