                         Program Version 3.0.3 - RELEASE   -
|  1> ! RI-MP2 RIJK def2-TZVP def2-TZVP/C def2-TZVP/JK TIGHTSCF
|  2> % maxcore 2000
|  3> % mp2 density relaxed end
|  4> *xyz 0 1
|  5>  O        0.0386070788    -0.0844587495    -0.0360050768
|  6>  C        0.0346564769     1.1329669102    -0.0306224011
|  7>  N       -1.1063062093     1.8766025035     0.1889677637
|  8>  C       -1.2048505761     3.3032936714     0.0767322088
|  9>  C       -0.5489346179     4.2696258991     1.0445280696
| 10>  C        0.7016474037     3.6242261817     1.6399539698
| 11>  C        1.1907918868     3.2869844100     0.1762973662
| 12>  N        1.1695381655     1.9005516846    -0.2426047674
| 13>  C       -0.0089756198     4.0641640480    -0.3803064721
| 14>  H       -1.9226640007     1.3290492749     0.4045990439
| 15>  H       -2.1543420454     3.6384487771    -0.3287375553
| 16>  H       -1.0821657290     5.1233266457     1.4448378262
| 17>  H        1.3581128782     4.3470282435     2.1299608289
| 18>  H        0.5478983340     2.7685614481     2.3040937325
| 19>  H        2.1641963406     3.7160590279    -0.0602616581
| 20>  H        2.0175445929     1.3575986547    -0.1898489633
| 21>  H       -0.0053849290     4.7093074991    -1.2495860455
| 22> *
| 23>
| 24>                          ****END OF INPUT****

CARTESIAN COORDINATES (ANGSTROEM)
---------------------------------
  O      0.038607   -0.084459   -0.036005
  C      0.034656    1.132967   -0.030622
  N     -1.106306    1.876603    0.188968
  C     -1.204851    3.303294    0.076732
  C     -0.548935    4.269626    1.044528
  C      0.701647    3.624226    1.639954
  C      1.190792    3.286984    0.176297
  N      1.169538    1.900552   -0.242605
  C     -0.008976    4.064164   -0.380306
  H     -1.922664    1.329049    0.404599
  H     -2.154342    3.638449   -0.328738
  H     -1.082166    5.123327    1.444838
  H      1.358113    4.347028    2.129961
  H      0.547898    2.768561    2.304094
  H      2.164196    3.716059   -0.060262
  H      2.017545    1.357599   -0.189849
  H     -0.005385    4.709307   -1.249586

 Total Charge           Charge          ....    0
 Multiplicity           Mult            ....    1
 Number of Electrons    NEL             ....   66
 Basis Dimension        Dim             ....  327

ORBITAL ENERGIES
----------------

  NO   OCC          E(Eh)            E(eV)
   0   2.0000     -20.498587      -557.7949
   1   2.0000     -15.577548      -423.8866
   2   2.0000     -15.572637      -423.7530
   3   2.0000     -11.366522      -309.2988
   4   2.0000     -11.286230      -307.1139
   5   2.0000     -11.285702      -307.0996
   6   2.0000     -11.247568      -306.0619
   7   2.0000     -11.246094      -306.0218
   8   2.0000     -11.238454      -305.8139
   9   2.0000      -1.383896       -37.6577
  10   2.0000      -1.275435       -34.7064
  11   2.0000      -1.199427       -32.6381
  12   2.0000      -1.167703       -31.7748
  13   2.0000      -0.984791       -26.7975
  14   2.0000      -0.912330       -24.8257
  15   2.0000      -0.864645       -23.5282
  16   2.0000      -0.794676       -21.6242
  17   2.0000      -0.752024       -20.4636
  18   2.0000      -0.710006       -19.3202
  19   2.0000      -0.686866       -18.6906
  20   2.0000      -0.670232       -18.2379
  21   2.0000      -0.649947       -17.6859
  22   2.0000      -0.614803       -16.7296
  23   2.0000      -0.598705       -16.2916
  24   2.0000      -0.567791       -15.4504
  25   2.0000      -0.553567       -15.0633
  26   2.0000      -0.523316       -14.2402
  27   2.0000      -0.495834       -13.4923
  28   2.0000      -0.467713       -12.7271
  29   2.0000      -0.426925       -11.6172
  30   2.0000      -0.412250       -11.2179
  31   2.0000      -0.384562       -10.4645
  32   2.0000      -0.366292        -9.9673
  33   0.0000       0.130155         3.5417
  34   0.0000       0.149276         4.0620
  35   0.0000       0.157335         4.2813
  36   0.0000       0.163073         4.4375
  37   0.0000       0.183381         4.9901

MULLIKEN ATOMIC CHARGES
-----------------------
   0 O :   -0.381667
   1 C :    0.292480
   2 N :   -0.342081
   3 C :   -0.029451
   4 C :   -0.120660
   5 C :   -0.233732
   6 C :    0.038150
   7 N :   -0.346190
   8 C :   -0.167512
   9 H :    0.242860
  10 H :    0.140073
  11 H :    0.138031
  12 H :    0.124685
  13 H :    0.123916
  14 H :    0.134280
  15 H :    0.242683
  16 H :    0.144136
Sum of atomic charges:    0.0000000

LOEWDIN ATOMIC CHARGES
----------------------
   0 O :    0.044612
   1 C :   -0.543960
   2 N :    0.126364
   3 C :   -0.230807
   4 C :   -0.163662
   5 C :   -0.193554
   6 C :   -0.230713
   7 N :    0.104924
   8 C :   -0.140878
   9 H :    0.193054
  10 H :    0.155034
  11 H :    0.135234
  12 H :    0.137080
  13 H :    0.133383
  14 H :    0.146497
  15 H :    0.190150
  16 H :    0.137243

  Mayer bond orders larger than 0.1
B(  0-O ,  1-C ) :   1.9871 B(  1-C ,  2-N ) :   1.1159 B(  1-C ,  7-N ) :   1.1130
B(  2-N ,  3-C ) :   0.9420 B(  2-N ,  9-H ) :   0.8699 B(  3-C ,  4-C ) :   0.8481
B(  3-C ,  8-C ) :   0.9344 B(  3-C , 10-H ) :   0.9319 B(  4-C ,  5-C ) :   0.9606
B(  4-C ,  8-C ) :   0.7995 B(  4-C , 11-H ) :   0.9231 B(  5-C ,  6-C ) :   0.9667
B(  5-C , 12-H ) :   0.9299 B(  5-C , 13-H ) :   0.9110 B(  6-C ,  7-N ) :   0.9359
B(  6-C ,  8-C ) :   0.9103 B(  6-C , 14-H ) :   0.9189 B(  7-N , 15-H ) :   0.8651
B(  8-C , 16-H ) :   0.9144

MP2 TOTAL ENERGY:     -417.323045268 Eh
FINAL SINGLE POINT ENERGY      -417.323045267505

DIPOLE MOMENT
-------------
                                X             Y             Z
Electronic contribution:     -0.60396      -4.53629      -1.87731
Nuclear contribution   :      0.59964       6.22144       2.14589
                        -----------------------------------------
Total Dipole Moment    :     -0.00432       1.68514       0.26857
                        -----------------------------------------
Magnitude (a.u.)       :      1.70642
Magnitude (Debye)      :      4.33737

                             ****ORCA TERMINATED NORMALLY****
TOTAL RUN TIME: 0 days 0 hours 17 minutes 13 seconds 888 msec
