                         Program Version 3.0.3 - RELEASE   -
|  1> ! RI-MP2 RIJK def2-TZVP def2-TZVP/C def2-TZVP/JK TIGHTSCF
|  2> % maxcore 2000
|  3> % mp2 density relaxed end
|  4> *xyz 0 1
|  5>  O        0.1057826124     1.3541159205     0.3631849115
|  6>  C        0.0429164554    -0.0360164139     0.0486710621
|  7>  C       -1.4345888572    -0.4265219667     0.0108730740
|  8>  O       -2.2913139874     0.3002629606    -0.8699872116
|  9>  C       -2.0671294970     0.4224789333    -2.2171112415
| 10>  N       -2.9929402952     0.2126368562    -3.0549118599
| 11>  C       -0.7369589905     0.9829994836    -2.6697375649
| 12>  C        0.4473791019     0.0743963009    -2.4205511393
| 13>  C        0.7945205663    -0.3854186653    -1.2207558089
| 14>  H        1.0191246690     1.6361331343     0.2498309045
| 15>  H        0.4676622488    -0.6289160741     0.8759787487
| 16>  H       -1.5016284221    -1.5007796806    -0.2082744986
| 17>  H       -1.8662408001    -0.2460287614     0.9989675549
| 18>  H       -3.8234201541    -0.1287290261    -2.5647919923
| 19>  H       -0.8370615191     1.2008011109    -3.7324968705
| 20>  H       -0.5807258832     1.9264366333    -2.1330255312
| 21>  H        1.0397678107    -0.2004405834    -3.2889974127
| 22>  H        1.6602351014    -1.0343988820    -1.1198622141
| 23> *
| 24>
| 25>                          ****END OF INPUT****

CARTESIAN COORDINATES (ANGSTROEM)
---------------------------------
  O      0.105783    1.354116    0.363185
  C      0.042916   -0.036016    0.048671
  C     -1.434589   -0.426522    0.010873
  O     -2.291314    0.300263   -0.869987
  C     -2.067129    0.422479   -2.217111
  N     -2.992940    0.212637   -3.054912
  C     -0.736959    0.982999   -2.669738
  C      0.447379    0.074396   -2.420551
  C      0.794521   -0.385419   -1.220756
  H      1.019125    1.636133    0.249831
  H      0.467662   -0.628916    0.875979
  H     -1.501628   -1.500780   -0.208274
  H     -1.866241   -0.246029    0.998968
  H     -3.823420   -0.128729   -2.564792
  H     -0.837062    1.200801   -3.732497
  H     -0.580726    1.926437   -2.133026
  H      1.039768   -0.200441   -3.288997
  H      1.660235   -1.034399   -1.119862

 Total Charge           Charge          ....    0
 Multiplicity           Mult            ....    1
 Number of Electrons    NEL             ....   68
 Basis Dimension        Dim             ....  333

ORBITAL ENERGIES
----------------

  NO   OCC          E(Eh)            E(eV)
   0   2.0000     -20.580501      -560.0239
   1   2.0000     -20.569163      -559.7154
   2   2.0000     -15.531520      -422.6341
   3   2.0000     -11.333603      -308.4030
   4   2.0000     -11.303034      -307.5712
   5   2.0000     -11.296652      -307.3975
   6   2.0000     -11.253479      -306.2227
   7   2.0000     -11.241359      -305.8929
   8   2.0000     -11.240385      -305.8664
   9   2.0000      -1.413869       -38.4733
  10   2.0000      -1.373608       -37.3778
  11   2.0000      -1.194222       -32.4964
  12   2.0000      -1.104090       -30.0438
  13   2.0000      -1.031309       -28.0633
  14   2.0000      -0.959164       -26.1002
  15   2.0000      -0.888380       -24.1740
  16   2.0000      -0.769250       -20.9324
  17   2.0000      -0.749224       -20.3874
  18   2.0000      -0.718709       -19.5571
  19   2.0000      -0.706705       -19.2304
  20   2.0000      -0.670050       -18.2330
  21   2.0000      -0.637337       -17.3428
  22   2.0000      -0.632148       -17.2016
  23   2.0000      -0.606497       -16.5036
  24   2.0000      -0.582219       -15.8430
  25   2.0000      -0.567862       -15.4523
  26   2.0000      -0.553310       -15.0563
  27   2.0000      -0.531574       -14.4649
  28   2.0000      -0.494069       -13.4443
  29   2.0000      -0.471837       -12.8393
  30   2.0000      -0.459854       -12.5133
  31   2.0000      -0.433362       -11.7924
  32   2.0000      -0.400905       -10.9092
  33   2.0000      -0.372795       -10.1443
  34   0.0000       0.111517         3.0345
  35   0.0000       0.129324         3.5191
  36   0.0000       0.159483         4.3397
  37   0.0000       0.163414         4.4467
  38   0.0000       0.173961         4.7337

MULLIKEN ATOMIC CHARGES
-----------------------
   0 O :   -0.466995
   1 C :    0.167857
   2 C :   -0.040004
   3 O :   -0.279280
   4 C :    0.098958
   5 N :   -0.356271
   6 C :   -0.088439
   7 C :   -0.139759
   8 C :   -0.313533
   9 H :    0.317063
  10 H :    0.094905
  11 H :    0.105050
  12 H :    0.132817
  13 H :    0.217565
  14 H :    0.147247
  15 H :    0.134010
  16 H :    0.138195
  17 H :    0.130614
Sum of atomic charges:   -0.0000000

LOEWDIN ATOMIC CHARGES
----------------------
   0 O :   -0.012355
   1 C :   -0.345839
   2 C :   -0.270265
   3 O :    0.229129
   4 C :   -0.399706
   5 N :   -0.045338
   6 C :   -0.208741
   7 C :   -0.145308
   8 C :   -0.176917
   9 H :    0.177914
  10 H :    0.146089
  11 H :    0.133028
  12 H :    0.140182
  13 H :    0.166168
  14 H :    0.157443
  15 H :    0.162721
  16 H :    0.147428
  17 H :    0.144366

  Mayer bond orders larger than 0.1
B(  0-O ,  1-C ) :   0.9370 B(  0-O ,  9-H ) :   0.8424 B(  1-C ,  2-C ) :   0.9064
B(  1-C ,  8-C ) :   0.9444 B(  1-C , 10-H ) :   0.9267 B(  2-C ,  3-O ) :   0.8928
B(  2-C , 11-H ) :   0.9239 B(  2-C , 12-H ) :   0.9257 B(  3-O ,  4-C ) :   1.0548
B(  4-C ,  5-N ) :   2.0656 B(  4-C ,  6-C ) :   0.8986 B(  5-N , 13-H ) :   0.8583
B(  6-C ,  7-C ) :   0.9369 B(  6-C , 14-H ) :   0.9130 B(  6-C , 15-H ) :   0.9024
B(  7-C ,  8-C ) :   1.7971 B(  7-C , 16-H ) :   0.9285 B(  8-C , 17-H ) :   0.9268

MP2 TOTAL ENERGY:     -438.357536573 Eh
FINAL SINGLE POINT ENERGY      -438.357536572815

DIPOLE MOMENT
-------------
                                X             Y             Z
Electronic contribution:     -2.38042       1.06598      -0.02381
Nuclear contribution   :      3.59291      -1.55227       0.63981
                        -----------------------------------------
Total Dipole Moment    :      1.21250      -0.48629       0.61600
                        -----------------------------------------
Magnitude (a.u.)       :      1.44433
Magnitude (Debye)      :      3.67119

                             ****ORCA TERMINATED NORMALLY****
TOTAL RUN TIME: 0 days 0 hours 16 minutes 50 seconds 946 msec
