                         Program Version 3.0.3 - RELEASE   -
|  1> ! RI-MP2 RIJK def2-TZVP def2-TZVP/C def2-TZVP/JK TIGHTSCF
|  2> % maxcore 2000
|  3> % mp2 density relaxed end
|  4> *xyz 0 1
|  5>  C        0.0120702960     1.5207033499     0.2437836390
|  6>  C       -0.0231004053     0.0401802209    -0.1540808640
|  7>  C       -1.3993644879    -0.5569080782    -0.0671853867
|  8>  C       -2.0440642826    -1.0732314949     1.2007761882
|  9>  C       -1.7836038696    -1.9989209453     0.0350962968
| 10>  O       -2.8561069667    -2.1848336014    -0.8625474371
| 11>  C       -3.1553923127    -0.9951243197    -1.4627255144
| 12>  O       -4.0279146836    -0.8334542918    -2.2514189181
| 13>  O       -2.3200948963    -0.0181918551    -1.0084655994
| 14>  H        1.0265378121     1.9196632192     0.1583754363
| 15>  H       -0.6418055595     2.1112636079    -0.4035338390
| 16>  H       -0.3215622473     1.6593255398     1.2770625700
| 17>  H        0.3472470239    -0.0846847020    -1.1784532768
| 18>  H        0.6397158467    -0.5430347578     0.4956116178
| 19>  H       -1.3966829753    -1.1881776065     2.0634381226
| 20>  H       -3.0701920197    -0.7974254800     1.4189497702
| 21>  H       -1.1058817723    -2.8416078251     0.0763304248
| 22> *
| 23>
| 24>                          ****END OF INPUT****

CARTESIAN COORDINATES (ANGSTROEM)
---------------------------------
  C      0.012070    1.520703    0.243784
  C     -0.023100    0.040180   -0.154081
  C     -1.399364   -0.556908   -0.067185
  C     -2.044064   -1.073231    1.200776
  C     -1.783604   -1.998921    0.035096
  O     -2.856107   -2.184834   -0.862547
  C     -3.155392   -0.995124   -1.462726
  O     -4.027915   -0.833454   -2.251419
  O     -2.320095   -0.018192   -1.008466
  H      1.026538    1.919663    0.158375
  H     -0.641806    2.111264   -0.403534
  H     -0.321562    1.659326    1.277063
  H      0.347247   -0.084685   -1.178453
  H      0.639716   -0.543035    0.495612
  H     -1.396683   -1.188178    2.063438
  H     -3.070192   -0.797425    1.418950
  H     -1.105882   -2.841608    0.076330

 Total Charge           Charge          ....    0
 Multiplicity           Mult            ....    1
 Number of Electrons    NEL             ....   68
 Basis Dimension        Dim             ....  327

ORBITAL ENERGIES
----------------

  NO   OCC          E(Eh)            E(eV)
   0   2.0000     -20.627040      -561.2903
   1   2.0000     -20.625407      -561.2458
   2   2.0000     -20.547308      -559.1207
   3   2.0000     -11.436362      -311.1992
   4   2.0000     -11.326188      -308.2012
   5   2.0000     -11.321868      -308.0837
   6   2.0000     -11.261075      -306.4294
   7   2.0000     -11.254678      -306.2554
   8   2.0000     -11.231493      -305.6245
   9   2.0000      -1.528976       -41.6055
  10   2.0000      -1.399983       -38.0955
  11   2.0000      -1.393330       -37.9144
  12   2.0000      -1.168634       -31.8002
  13   2.0000      -1.055824       -28.7304
  14   2.0000      -0.911669       -24.8078
  15   2.0000      -0.897491       -24.4220
  16   2.0000      -0.847891       -23.0723
  17   2.0000      -0.819253       -22.2930
  18   2.0000      -0.736194       -20.0329
  19   2.0000      -0.698471       -19.0064
  20   2.0000      -0.675465       -18.3803
  21   2.0000      -0.658425       -17.9167
  22   2.0000      -0.635266       -17.2865
  23   2.0000      -0.624209       -16.9856
  24   2.0000      -0.594949       -16.1894
  25   2.0000      -0.586643       -15.9634
  26   2.0000      -0.576735       -15.6938
  27   2.0000      -0.557756       -15.1773
  28   2.0000      -0.530056       -14.4236
  29   2.0000      -0.514189       -13.9918
  30   2.0000      -0.495894       -13.4940
  31   2.0000      -0.479141       -13.0381
  32   2.0000      -0.433935       -11.8080
  33   2.0000      -0.420289       -11.4366
  34   0.0000       0.122335         3.3289
  35   0.0000       0.145882         3.9697
  36   0.0000       0.161832         4.4037
  37   0.0000       0.175749         4.7824
  38   0.0000       0.183061         4.9814

MULLIKEN ATOMIC CHARGES
-----------------------
   0 C :   -0.408837
   1 C :   -0.191969
   2 C :    0.169448
   3 C :   -0.297380
   4 C :    0.026256
   5 O :   -0.243757
   6 C :    0.351758
   7 O :   -0.274885
   8 O :   -0.242229
   9 H :    0.140035
  10 H :    0.152251
  11 H :    0.128370
  12 H :    0.126289
  13 H :    0.112104
  14 H :    0.141920
  15 H :    0.159327
  16 H :    0.151299
Sum of atomic charges:   -0.0000000

LOEWDIN ATOMIC CHARGES
----------------------
   0 C :   -0.304505
   1 C :   -0.247849
   2 C :   -0.293591
   3 C :   -0.176573
   4 C :   -0.235036
   5 O :    0.280462
   6 C :   -0.580847
   7 O :    0.143065
   8 O :    0.302246
   9 H :    0.123877
  10 H :    0.129372
  11 H :    0.123624
  12 H :    0.148973
  13 H :    0.148331
  14 H :    0.146674
  15 H :    0.147824
  16 H :    0.143955

  Mayer bond orders larger than 0.1
B(  0-C ,  1-C ) :   0.9317 B(  0-C ,  9-H ) :   0.9377 B(  0-C , 10-H ) :   0.9355
B(  0-C , 11-H ) :   0.9354 B(  1-C ,  2-C ) :   0.9313 B(  1-C , 12-H ) :   0.9210
B(  1-C , 13-H ) :   0.9235 B(  2-C ,  3-C ) :   0.8808 B(  2-C ,  4-C ) :   0.8678
B(  2-C ,  8-O ) :   0.9156 B(  3-C ,  4-C ) :   0.8874 B(  3-C , 14-H ) :   0.9138
B(  3-C , 15-H ) :   0.8941 B(  4-C ,  5-O ) :   0.9095 B(  4-C , 16-H ) :   0.9251
B(  5-O ,  6-C ) :   1.0791 B(  6-C ,  7-O ) :   2.0707 B(  6-C ,  8-O ) :   1.0880

MP2 TOTAL ENERGY:     -458.260154698 Eh
FINAL SINGLE POINT ENERGY      -458.260154697838

DIPOLE MOMENT
-------------
                                X             Y             Z
Electronic contribution:     -8.92605      -5.28564      -6.04143
Nuclear contribution   :     10.50683       5.19248       7.40406
                        -----------------------------------------
Total Dipole Moment    :      1.58078      -0.09316       1.36263
                        -----------------------------------------
Magnitude (a.u.)       :      2.08909
Magnitude (Debye)      :      5.31005

                             ****ORCA TERMINATED NORMALLY****
TOTAL RUN TIME: 0 days 0 hours 16 minutes 1 seconds 491 msec
