                         Program Version 3.0.3 - RELEASE   -
|  1> ! RI-MP2 RIJK def2-TZVP def2-TZVP/C def2-TZVP/JK TIGHTSCF
|  2> % maxcore 2000
|  3> % mp2 density relaxed end
|  4> *xyz 0 1
|  5>  C       -0.1704027027     1.6065746135    -0.0361640094
|  6>  C       -0.1212435204     0.0889398000    -0.1775261882
|  7>  N       -1.4289126758    -0.4945536074     0.1376151721
|  8>  C       -1.4525705151    -1.9547184170     0.1132223719
|  9>  C       -2.8410095172    -2.4780003194     0.5274158241
| 10>  C       -3.1890597132    -2.2100727008     1.9726958718
| 11>  O       -2.5119728114    -1.5673531466     2.7368138244
| 12>  C       -1.1426283920    -2.4499825698    -1.2398755747
| 13>  N       -0.9065262216    -2.8669282746    -2.2910908176
| 14>  H        0.7938882208     2.0486719447    -0.3020885983
| 15>  H       -0.9401991048     2.0293012949    -0.6877301924
| 16>  H       -0.3983575782     1.9007542095     0.9947138632
| 17>  H        0.1311209435    -0.1801647524    -1.2094141723
| 18>  H        0.6818876949    -0.3213432491     0.4616488630
| 19>  H       -1.6848691475    -0.2241657289     1.0831292311
| 20>  H       -0.7020676287    -2.4034995318     0.7908655868
| 21>  H       -3.6159879084    -2.0182186817    -0.1001360909
| 22>  H       -2.9171185791    -3.5595658411     0.3585558855
| 23>  H       -4.1502242531    -2.6606929020     2.3032856798
| 24> *
| 25>
| 26>                          ****END OF INPUT****

CARTESIAN COORDINATES (ANGSTROEM)
---------------------------------
  C     -0.170403    1.606575   -0.036164
  C     -0.121244    0.088940   -0.177526
  N     -1.428913   -0.494554    0.137615
  C     -1.452571   -1.954718    0.113222
  C     -2.841010   -2.478000    0.527416
  C     -3.189060   -2.210073    1.972696
  O     -2.511973   -1.567353    2.736814
  C     -1.142628   -2.449983   -1.239876
  N     -0.906526   -2.866928   -2.291091
  H      0.793888    2.048672   -0.302089
  H     -0.940199    2.029301   -0.687730
  H     -0.398358    1.900754    0.994714
  H      0.131121   -0.180165   -1.209414
  H      0.681888   -0.321343    0.461649
  H     -1.684869   -0.224166    1.083129
  H     -0.702068   -2.403500    0.790866
  H     -3.615988   -2.018219   -0.100136
  H     -2.917119   -3.559566    0.358556
  H     -4.150224   -2.660693    2.303286

 Total Charge           Charge          ....    0
 Multiplicity           Mult            ....    1
 Number of Electrons    NEL             ....   68
 Basis Dimension        Dim             ....  339

ORBITAL ENERGIES
----------------

  NO   OCC          E(Eh)            E(eV)
   0   2.0000     -20.584331      -560.1281
   1   2.0000     -15.575670      -423.8355
   2   2.0000     -15.565813      -423.5673
   3   2.0000     -11.361564      -309.1639
   4   2.0000     -11.322634      -308.1045
   5   2.0000     -11.276168      -306.8401
   6   2.0000     -11.275364      -306.8183
   7   2.0000     -11.259608      -306.3895
   8   2.0000     -11.221349      -305.3484
   9   2.0000      -1.424704       -38.7682
  10   2.0000      -1.250489       -34.0275
  11   2.0000      -1.213475       -33.0203
  12   2.0000      -1.088767       -29.6268
  13   2.0000      -1.006565       -27.3900
  14   2.0000      -0.942790       -25.6546
  15   2.0000      -0.845777       -23.0147
  16   2.0000      -0.810757       -22.0618
  17   2.0000      -0.735988       -20.0273
  18   2.0000      -0.694784       -18.9060
  19   2.0000      -0.673174       -18.3180
  20   2.0000      -0.657406       -17.8889
  21   2.0000      -0.639286       -17.3959
  22   2.0000      -0.612883       -16.6774
  23   2.0000      -0.598885       -16.2965
  24   2.0000      -0.578963       -15.7544
  25   2.0000      -0.557017       -15.1572
  26   2.0000      -0.531547       -14.4641
  27   2.0000      -0.523927       -14.2568
  28   2.0000      -0.512254       -13.9391
  29   2.0000      -0.503266       -13.6946
  30   2.0000      -0.472050       -12.8451
  31   2.0000      -0.471037       -12.8176
  32   2.0000      -0.443122       -12.0580
  33   2.0000      -0.400472       -10.8974
  34   0.0000       0.109191         2.9712
  35   0.0000       0.126023         3.4293
  36   0.0000       0.138015         3.7556
  37   0.0000       0.151501         4.1225
  38   0.0000       0.168084         4.5738

MULLIKEN ATOMIC CHARGES
-----------------------
   0 C :   -0.387943
   1 C :   -0.136650
   2 N :   -0.342781
   3 C :    0.096290
   4 C :   -0.216433
   5 C :    0.103953
   6 O :   -0.286971
   7 C :   -0.184229
   8 N :   -0.049761
   9 H :    0.133254
  10 H :    0.136278
  11 H :    0.125034
  12 H :    0.134910
  13 H :    0.095437
  14 H :    0.220321
  15 H :    0.131433
  16 H :    0.158229
  17 H :    0.159439
  18 H :    0.110193
Sum of atomic charges:   -0.0000000

LOEWDIN ATOMIC CHARGES
----------------------
   0 C :   -0.318201
   1 C :   -0.326794
   2 N :    0.007126
   3 C :   -0.293700
   4 C :   -0.232376
   5 C :   -0.285212
   6 O :    0.129384
   7 C :   -0.168514
   8 N :    0.067229
   9 H :    0.125340
  10 H :    0.125170
  11 H :    0.120755
  12 H :    0.137386
  13 H :    0.118325
  14 H :    0.179843
  15 H :    0.163842
  16 H :    0.167266
  17 H :    0.164036
  18 H :    0.119096

  Mayer bond orders larger than 0.1
B(  0-C ,  1-C ) :   0.9353 B(  0-C ,  9-H ) :   0.9372 B(  0-C , 10-H ) :   0.9354
B(  0-C , 11-H ) :   0.9370 B(  1-C ,  2-N ) :   0.9214 B(  1-C , 12-H ) :   0.9242
B(  1-C , 13-H ) :   0.9201 B(  2-N ,  3-C ) :   0.9875 B(  2-N , 14-H ) :   0.8693
B(  3-C ,  4-C ) :   0.8634 B(  3-C ,  7-C ) :   0.8823 B(  3-C , 15-H ) :   0.9324
B(  4-C ,  5-C ) :   0.8866 B(  4-C , 16-H ) :   0.8944 B(  4-C , 17-H ) :   0.9094
B(  5-C ,  6-O ) :   1.9384 B(  5-C , 18-H ) :   0.9476 B(  7-C ,  8-N ) :   2.8818

MP2 TOTAL ENERGY:     -418.512894469 Eh
FINAL SINGLE POINT ENERGY      -418.512894469193

DIPOLE MOMENT
-------------
                                X             Y             Z
Electronic contribution:     -2.85048      -7.28832      -0.22349
Nuclear contribution   :      2.32443       7.31390       1.16100
                        -----------------------------------------
Total Dipole Moment    :     -0.52605       0.02558       0.93751
                        -----------------------------------------
Magnitude (a.u.)       :      1.07532
Magnitude (Debye)      :      2.73324

                             ****ORCA TERMINATED NORMALLY****
TOTAL RUN TIME: 0 days 0 hours 16 minutes 12 seconds 468 msec
