                         Program Version 3.0.3 - RELEASE   -
|  1> ! RI-MP2 RIJK def2-TZVP def2-TZVP/C def2-TZVP/JK TIGHTSCF
|  2> % maxcore 2000
|  3> % mp2 density relaxed end
|  4> *xyz 0 1
|  5>  C       -0.6245370075     1.4505938205     0.1672911981
|  6>  C       -0.0833115759     0.0312860526     0.0168184647
|  7>  C        0.4952736217    -0.4085926924    -1.3363915330
|  8>  C        1.2949432438     0.6529266353    -2.0947892066
|  9>  O        1.9429317392     0.0760899896    -3.2065762350
| 10>  O        1.3788288204    -1.5131591106    -1.0205477081
| 11>  C        1.9708388952    -1.2902374974     0.2497690748
| 12>  C        1.0665985551    -0.2923196608     0.9739140264
| 13>  O        1.2396566972     0.1572900128     2.0751065038
| 14>  H        0.1228988378     2.2001871362    -0.1065886782
| 15>  H       -1.5110266920     1.6072005266    -0.4535131037
| 16>  H       -0.8956641095     1.6260665036     1.2114231444
| 17>  H       -0.8749282247    -0.6871206143     0.2775875101
| 18>  H       -0.2611427660    -0.8233025557    -2.0083204032
| 19>  H        0.6276696087     1.4345698020    -2.4722200155
| 20>  H        2.0158469741     1.1397650529    -1.4135776235
| 21>  H        2.3094193952    -0.7592973403    -2.8889390745
| 22>  H        2.0333466076    -2.2384426643     0.7942128435
| 23>  H        2.9866475796    -0.8752766463     0.1748091153
| 24> *
| 25>
| 26>                          ****END OF INPUT****

CARTESIAN COORDINATES (ANGSTROEM)
---------------------------------
  C     -0.624537    1.450594    0.167291
  C     -0.083312    0.031286    0.016818
  C      0.495274   -0.408593   -1.336392
  C      1.294943    0.652927   -2.094789
  O      1.942932    0.076090   -3.206576
  O      1.378829   -1.513159   -1.020548
  C      1.970839   -1.290237    0.249769
  C      1.066599   -0.292320    0.973914
  O      1.239657    0.157290    2.075107
  H      0.122899    2.200187   -0.106589
  H     -1.511027    1.607201   -0.453513
  H     -0.895664    1.626067    1.211423
  H     -0.874928   -0.687121    0.277588
  H     -0.261143   -0.823303   -2.008320
  H      0.627670    1.434570   -2.472220
  H      2.015847    1.139765   -1.413578
  H      2.309419   -0.759297   -2.888939
  H      2.033347   -2.238443    0.794213
  H      2.986648   -0.875277    0.174809

 Total Charge           Charge          ....    0
 Multiplicity           Mult            ....    1
 Number of Electrons    NEL             ....   70
 Basis Dimension        Dim             ....  339

ORBITAL ENERGIES
----------------

  NO   OCC          E(Eh)            E(eV)
   0   2.0000     -20.583067      -560.0937
   1   2.0000     -20.564146      -559.5789
   2   2.0000     -20.559613      -559.4555
   3   2.0000     -11.344945      -308.7116
   4   2.0000     -11.302491      -307.5564
   5   2.0000     -11.301348      -307.5253
   6   2.0000     -11.287457      -307.1473
   7   2.0000     -11.260231      -306.4065
   8   2.0000     -11.237659      -305.7922
   9   2.0000      -1.418248       -38.5925
  10   2.0000      -1.399606       -38.0852
  11   2.0000      -1.363464       -37.1017
  12   2.0000      -1.100807       -29.9545
  13   2.0000      -1.020691       -27.7744
  14   2.0000      -0.968628       -26.3577
  15   2.0000      -0.917030       -24.9537
  16   2.0000      -0.813175       -22.1276
  17   2.0000      -0.761771       -20.7288
  18   2.0000      -0.723822       -19.6962
  19   2.0000      -0.695661       -18.9299
  20   2.0000      -0.660355       -17.9692
  21   2.0000      -0.656819       -17.8730
  22   2.0000      -0.641047       -17.4438
  23   2.0000      -0.619209       -16.8495
  24   2.0000      -0.600336       -16.3360
  25   2.0000      -0.590622       -16.0716
  26   2.0000      -0.566931       -15.4270
  27   2.0000      -0.556635       -15.1468
  28   2.0000      -0.543944       -14.8015
  29   2.0000      -0.526360       -14.3230
  30   2.0000      -0.507493       -13.8096
  31   2.0000      -0.487523       -13.2662
  32   2.0000      -0.470855       -12.8126
  33   2.0000      -0.433000       -11.7825
  34   2.0000      -0.411051       -11.1853
  35   0.0000       0.109965         2.9923
  36   0.0000       0.133292         3.6271
  37   0.0000       0.149814         4.0767
  38   0.0000       0.155822         4.2401
  39   0.0000       0.168080         4.5737

MULLIKEN ATOMIC CHARGES
-----------------------
   0 C :   -0.414957
   1 C :   -0.044436
   2 C :    0.063321
   3 C :   -0.054574
   4 O :   -0.473015
   5 O :   -0.354719
   6 C :   -0.029177
   7 C :    0.070405
   8 O :   -0.266452
   9 H :    0.137021
  10 H :    0.145625
  11 H :    0.158562
  12 H :    0.125939
  13 H :    0.115020
  14 H :    0.121517
  15 H :    0.101552
  16 H :    0.327831
  17 H :    0.145976
  18 H :    0.124560
Sum of atomic charges:    0.0000000

LOEWDIN ATOMIC CHARGES
----------------------
   0 C :   -0.278898
   1 C :   -0.231616
   2 C :   -0.286236
   3 C :   -0.334801
   4 O :   -0.039366
   5 O :    0.154597
   6 C :   -0.276795
   7 C :   -0.301930
   8 O :    0.167107
   9 H :    0.128977
  10 H :    0.127720
  11 H :    0.135822
  12 H :    0.176927
  13 H :    0.147616
  14 H :    0.133311
  15 H :    0.121124
  16 H :    0.178311
  17 H :    0.141594
  18 H :    0.136535

  Mayer bond orders larger than 0.1
B(  0-C ,  1-C ) :   0.9061 B(  0-C ,  9-H ) :   0.9278 B(  0-C , 10-H ) :   0.9415
B(  0-C , 11-H ) :   0.9274 B(  1-C ,  2-C ) :   0.9072 B(  1-C ,  7-C ) :   0.8613
B(  1-C , 12-H ) :   0.8853 B(  2-C ,  3-C ) :   0.9509 B(  2-C ,  5-O ) :   0.8418
B(  2-C , 13-H ) :   0.9095 B(  3-C ,  4-O ) :   0.9463 B(  3-C , 14-H ) :   0.9284
B(  3-C , 15-H ) :   0.9025 B(  4-O , 16-H ) :   0.8249 B(  5-O ,  6-C ) :   0.9355
B(  6-C ,  7-C ) :   0.9328 B(  6-C , 17-H ) :   0.9047 B(  6-C , 18-H ) :   0.9161
B(  7-C ,  8-O ) :   2.0188

MP2 TOTAL ENERGY:     -459.448731588 Eh
FINAL SINGLE POINT ENERGY      -459.448731587915

DIPOLE MOMENT
-------------
                                X             Y             Z
Electronic contribution:      2.68067      -3.74634       1.81102
Nuclear contribution   :     -3.13278       3.60960      -1.73464
                        -----------------------------------------
Total Dipole Moment    :     -0.45210      -0.13674       0.07638
                        -----------------------------------------
Magnitude (a.u.)       :      0.47847
Magnitude (Debye)      :      1.21617

                             ****ORCA TERMINATED NORMALLY****
TOTAL RUN TIME: 0 days 0 hours 28 minutes 12 seconds 299 msec
