                         Program Version 3.0.3 - RELEASE   -
|  1> ! RI-MP2 RIJK def2-TZVP def2-TZVP/C def2-TZVP/JK TIGHTSCF
|  2> % maxcore 2000
|  3> % mp2 density relaxed end
|  4> *xyz 0 1
|  5>  C       -0.1378453447     1.4669235363     0.0518550922
|  6>  N        0.0428982112     0.0141282233     0.0402475757
|  7>  C        0.7178994125    -0.4879349647    -1.1403913613
|  8>  C        2.2371765191    -0.5704543682    -0.9529740578
|  9>  O        2.7679468362    -0.3665499703     0.1095991791
| 10>  C        0.1471281630    -1.8935421009    -1.5334833959
| 11>  C       -1.3637252228    -1.8279989138    -1.8206191091
| 12>  C        0.8630875600    -2.4563231334    -2.6832281630
| 13>  N        1.4186647309    -2.8832100472    -3.6029584809
| 14>  H        0.7957757262     2.0385885292    -0.0702022275
| 15>  H       -0.8250343505     1.7584811257    -0.7493034101
| 16>  H       -0.5931464483     1.7596827048     1.0017104204
| 17>  H        0.6132667370    -0.2426401425     0.8423470443
| 18>  H        0.5308996422     0.1814535305    -1.9913892729
| 19>  H        2.8256644641    -0.8512431321    -1.8495803998
| 20>  H        0.3161818766    -2.5618728979    -0.6795710535
| 21>  H       -1.5630061546    -1.2154244563    -2.7047962340
| 22>  H       -1.7657044599    -2.8279871780    -1.9996606241
| 23>  H       -1.8615146582    -1.3822483244    -0.9586464218
| 24> *
| 25>
| 26>                          ****END OF INPUT****

CARTESIAN COORDINATES (ANGSTROEM)
---------------------------------
  C     -0.137845    1.466924    0.051855
  N      0.042898    0.014128    0.040248
  C      0.717899   -0.487935   -1.140391
  C      2.237177   -0.570454   -0.952974
  O      2.767947   -0.366550    0.109599
  C      0.147128   -1.893542   -1.533483
  C     -1.363725   -1.827999   -1.820619
  C      0.863088   -2.456323   -2.683228
  N      1.418665   -2.883210   -3.602958
  H      0.795776    2.038589   -0.070202
  H     -0.825034    1.758481   -0.749303
  H     -0.593146    1.759683    1.001710
  H      0.613267   -0.242640    0.842347
  H      0.530900    0.181454   -1.991389
  H      2.825664   -0.851243   -1.849580
  H      0.316182   -2.561873   -0.679571
  H     -1.563006   -1.215424   -2.704796
  H     -1.765704   -2.827987   -1.999661
  H     -1.861515   -1.382248   -0.958646

 Total Charge           Charge          ....    0
 Multiplicity           Mult            ....    1
 Number of Electrons    NEL             ....   68
 Basis Dimension        Dim             ....  339

ORBITAL ENERGIES
----------------

  NO   OCC          E(Eh)            E(eV)
   0   2.0000     -20.578890      -559.9801
   1   2.0000     -15.580142      -423.9572
   2   2.0000     -15.564607      -423.5345
   3   2.0000     -11.348177      -308.7996
   4   2.0000     -11.301384      -307.5263
   5   2.0000     -11.300444      -307.5007
   6   2.0000     -11.281945      -306.9973
   7   2.0000     -11.261177      -306.4322
   8   2.0000     -11.245543      -306.0068
   9   2.0000      -1.418534       -38.6003
  10   2.0000      -1.240869       -33.7658
  11   2.0000      -1.226188       -33.3663
  12   2.0000      -1.105552       -30.0836
  13   2.0000      -0.993300       -27.0291
  14   2.0000      -0.916906       -24.9503
  15   2.0000      -0.889460       -24.2034
  16   2.0000      -0.807799       -21.9813
  17   2.0000      -0.723667       -19.6920
  18   2.0000      -0.717475       -19.5235
  19   2.0000      -0.678063       -18.4510
  20   2.0000      -0.650020       -17.6879
  21   2.0000      -0.612994       -16.6804
  22   2.0000      -0.610740       -16.6191
  23   2.0000      -0.581466       -15.8225
  24   2.0000      -0.573562       -15.6074
  25   2.0000      -0.566407       -15.4127
  26   2.0000      -0.549685       -14.9577
  27   2.0000      -0.545165       -14.8347
  28   2.0000      -0.531151       -14.4534
  29   2.0000      -0.519291       -14.1306
  30   2.0000      -0.474531       -12.9126
  31   2.0000      -0.465273       -12.6607
  32   2.0000      -0.447949       -12.1893
  33   2.0000      -0.393394       -10.7048
  34   0.0000       0.109259         2.9731
  35   0.0000       0.122518         3.3339
  36   0.0000       0.140825         3.8321
  37   0.0000       0.150622         4.0986
  38   0.0000       0.161604         4.3975

MULLIKEN ATOMIC CHARGES
-----------------------
   0 C :   -0.307304
   1 N :   -0.354539
   2 C :   -0.053859
   3 C :    0.090368
   4 O :   -0.271631
   5 C :    0.108052
   6 C :   -0.396207
   7 C :   -0.223547
   8 N :   -0.052975
   9 H :    0.127212
  10 H :    0.134102
  11 H :    0.142291
  12 H :    0.223131
  13 H :    0.127751
  14 H :    0.126495
  15 H :    0.131092
  16 H :    0.132320
  17 H :    0.150782
  18 H :    0.166467
Sum of atomic charges:    0.0000000

LOEWDIN ATOMIC CHARGES
----------------------
   0 C :   -0.344439
   1 N :   -0.011556
   2 C :   -0.282415
   3 C :   -0.266137
   4 O :    0.138620
   5 C :   -0.238597
   6 C :   -0.264765
   7 C :   -0.178508
   8 N :    0.063533
   9 H :    0.105556
  10 H :    0.115267
  11 H :    0.119001
  12 H :    0.176361
  13 H :    0.166546
  14 H :    0.126916
  15 H :    0.179360
  16 H :    0.129651
  17 H :    0.131137
  18 H :    0.134469

  Mayer bond orders larger than 0.1
B(  0-C ,  1-N ) :   0.9108 B(  0-C ,  9-H ) :   0.9259 B(  0-C , 10-H ) :   0.9391
B(  0-C , 11-H ) :   0.9404 B(  1-N ,  2-C ) :   0.9876 B(  1-N , 12-H ) :   0.8655
B(  2-C ,  3-C ) :   0.8859 B(  2-C ,  5-C ) :   0.8667 B(  2-C , 13-H ) :   0.9087
B(  3-C ,  4-O ) :   1.9544 B(  3-C , 14-H ) :   0.9309 B(  5-C ,  6-C ) :   0.8902
B(  5-C ,  7-C ) :   0.9023 B(  5-C , 15-H ) :   0.9014 B(  6-C , 16-H ) :   0.9260
B(  6-C , 17-H ) :   0.9313 B(  6-C , 18-H ) :   0.9302 B(  7-C ,  8-N ) :   2.8683

MP2 TOTAL ENERGY:     -418.512814515 Eh
FINAL SINGLE POINT ENERGY      -418.512814514537

DIPOLE MOMENT
-------------
                                X             Y             Z
Electronic contribution:      7.36283      -4.95238      -2.37998
Nuclear contribution   :     -8.30397       5.69489       2.90388
                        -----------------------------------------
Total Dipole Moment    :     -0.94114       0.74251       0.52390
                        -----------------------------------------
Magnitude (a.u.)       :      1.30826
Magnitude (Debye)      :      3.32533

                             ****ORCA TERMINATED NORMALLY****
TOTAL RUN TIME: 0 days 0 hours 17 minutes 3 seconds 256 msec
