                         Program Version 3.0.3 - RELEASE   -
|  1> ! RI-MP2 RIJK def2-TZVP def2-TZVP/C def2-TZVP/JK TIGHTSCF
|  2> % maxcore 2000
|  3> % mp2 density relaxed end
|  4> *xyz 0 1
|  5>  C       -0.4056839767     1.3068376952    -0.5398876148
|  6>  N        0.0485719931    -0.0408742593    -0.2431771353
|  7>  C        1.3279565783    -0.5085602191    -0.8642652390
|  8>  C        1.8542366782    -0.8637032448     0.5248219590
|  9>  O        2.5305429420    -2.0396216305     0.7799672616
| 10>  C        1.8799547697     0.3659792029     1.4008592724
| 11>  C        0.5594981562    -0.3327979901     1.0983150619
| 12>  C       -0.3041181981    -0.9693603149     2.1484904665
| 13>  O        0.5729978780    -1.7406826703     2.9779863653
| 14>  H        0.3396492391     2.0944867981    -0.3314196455
| 15>  H       -0.6776121634     1.3716262747    -1.5984648252
| 16>  H       -1.3030757771     1.5272233574     0.0478851340
| 17>  H        1.1719766160    -1.3764824776    -1.5119271078
| 18>  H        1.8913025037     0.2601806428    -1.4094101358
| 19>  H        2.1853619395    -2.3760185814     1.6176415264
| 20>  H        2.2555242312     0.1791494663     2.4018183274
| 21>  H        2.1049062567     1.3532986471     1.0035509678
| 22>  H       -0.8452362465    -0.2244727462     2.7529410699
| 23>  H       -1.0470499566    -1.6073531518     1.6487284099
| 24>  H        0.0548916069    -2.1501455586     3.6763485613
| 25> *
| 26>
| 27>                          ****END OF INPUT****

CARTESIAN COORDINATES (ANGSTROEM)
---------------------------------
  C     -0.405684    1.306838   -0.539888
  N      0.048572   -0.040874   -0.243177
  C      1.327957   -0.508560   -0.864265
  C      1.854237   -0.863703    0.524822
  O      2.530543   -2.039622    0.779967
  C      1.879955    0.365979    1.400859
  C      0.559498   -0.332798    1.098315
  C     -0.304118   -0.969360    2.148490
  O      0.572998   -1.740683    2.977986
  H      0.339649    2.094487   -0.331420
  H     -0.677612    1.371626   -1.598465
  H     -1.303076    1.527223    0.047885
  H      1.171977   -1.376482   -1.511927
  H      1.891303    0.260181   -1.409410
  H      2.185362   -2.376019    1.617642
  H      2.255524    0.179149    2.401818
  H      2.104906    1.353299    1.003551
  H     -0.845236   -0.224473    2.752941
  H     -1.047050   -1.607353    1.648728
  H      0.054892   -2.150146    3.676349

 Total Charge           Charge          ....    0
 Multiplicity           Mult            ....    1
 Number of Electrons    NEL             ....   70
 Basis Dimension        Dim             ....  345

ORBITAL ENERGIES
----------------

  NO   OCC          E(Eh)            E(eV)
   0   2.0000     -20.575639      -559.8916
   1   2.0000     -20.552609      -559.2649
   2   2.0000     -15.550682      -423.1556
   3   2.0000     -11.288856      -307.1854
   4   2.0000     -11.282107      -307.0017
   5   2.0000     -11.257147      -306.3225
   6   2.0000     -11.250578      -306.1438
   7   2.0000     -11.241948      -305.9090
   8   2.0000     -11.221052      -305.3403
   9   2.0000      -1.381168       -37.5835
  10   2.0000      -1.365250       -37.1503
  11   2.0000      -1.262118       -34.3440
  12   2.0000      -1.082411       -29.4539
  13   2.0000      -0.982392       -26.7322
  14   2.0000      -0.946423       -25.7535
  15   2.0000      -0.866028       -23.5658
  16   2.0000      -0.793991       -21.6056
  17   2.0000      -0.742490       -20.2042
  18   2.0000      -0.712344       -19.3839
  19   2.0000      -0.676771       -18.4159
  20   2.0000      -0.654932       -17.8216
  21   2.0000      -0.648784       -17.6543
  22   2.0000      -0.622620       -16.9424
  23   2.0000      -0.592084       -16.1114
  24   2.0000      -0.583628       -15.8813
  25   2.0000      -0.568726       -15.4758
  26   2.0000      -0.558803       -15.2058
  27   2.0000      -0.535461       -14.5706
  28   2.0000      -0.528890       -14.3918
  29   2.0000      -0.489973       -13.3328
  30   2.0000      -0.479507       -13.0481
  31   2.0000      -0.475235       -12.9318
  32   2.0000      -0.428969       -11.6728
  33   2.0000      -0.359593        -9.7850
  34   2.0000      -0.345089        -9.3904
  35   0.0000       0.123135         3.3507
  36   0.0000       0.145957         3.9717
  37   0.0000       0.169008         4.5989
  38   0.0000       0.189278         5.1505
  39   0.0000       0.199183         5.4200

MULLIKEN ATOMIC CHARGES
-----------------------
   0 C :   -0.308541
   1 N :   -0.144737
   2 C :   -0.151384
   3 C :    0.141541
   4 O :   -0.462603
   5 C :   -0.269554
   6 C :    0.044682
   7 C :   -0.100742
   8 O :   -0.498411
   9 H :    0.102247
  10 H :    0.140065
  11 H :    0.130638
  12 H :    0.112181
  13 H :    0.112013
  14 H :    0.344222
  15 H :    0.137750
  16 H :    0.126939
  17 H :    0.105086
  18 H :    0.116451
  19 H :    0.322156
Sum of atomic charges:   -0.0000000

LOEWDIN ATOMIC CHARGES
----------------------
   0 C :   -0.335131
   1 N :    0.113002
   2 C :   -0.189757
   3 C :   -0.316760
   4 O :    0.028409
   5 C :   -0.181721
   6 C :   -0.251945
   7 C :   -0.294256
   8 O :   -0.052692
   9 H :    0.101814
  10 H :    0.118551
  11 H :    0.117730
  12 H :    0.132158
  13 H :    0.124182
  14 H :    0.187646
  15 H :    0.147102
  16 H :    0.127689
  17 H :    0.120996
  18 H :    0.127305
  19 H :    0.175678

  Mayer bond orders larger than 0.1
B(  0-C ,  1-N ) :   0.8834 B(  0-C ,  9-H ) :   0.9208 B(  0-C , 10-H ) :   0.9399
B(  0-C , 11-H ) :   0.9411 B(  1-N ,  2-C ) :   0.9290 B(  1-N ,  6-C ) :   0.9985
B(  2-C ,  3-C ) :   0.9581 B(  2-C , 12-H ) :   0.9029 B(  2-C , 13-H ) :   0.9224
B(  3-C ,  4-O ) :   1.0839 B(  3-C ,  5-C ) :   0.8652 B(  3-C ,  6-C ) :   0.8642
B(  4-O , 14-H ) :   0.8139 B(  5-C ,  6-C ) :   0.8633 B(  5-C , 15-H ) :   0.9147
B(  5-C , 16-H ) :   0.9033 B(  6-C ,  7-C ) :   0.8987 B(  7-C ,  8-O ) :   0.9735
B(  7-C , 17-H ) :   0.9256 B(  7-C , 18-H ) :   0.9320 B(  8-O , 19-H ) :   0.8439

MP2 TOTAL ENERGY:     -439.508157865 Eh
FINAL SINGLE POINT ENERGY      -439.508157864981

DIPOLE MOMENT
-------------
                                X             Y             Z
Electronic contribution:      2.62777      -4.71005       1.67890
Nuclear contribution   :     -3.46294       4.98999      -1.00755
                        -----------------------------------------
Total Dipole Moment    :     -0.83517       0.27993       0.67135
                        -----------------------------------------
Magnitude (a.u.)       :      1.10751
Magnitude (Debye)      :      2.81507

                             ****ORCA TERMINATED NORMALLY****
TOTAL RUN TIME: 0 days 0 hours 17 minutes 27 seconds 713 msec
