                         Program Version 3.0.3 - RELEASE   -
|  1> ! RI-MP2 RIJK def2-TZVP def2-TZVP/C def2-TZVP/JK TIGHTSCF
|  2> % maxcore 2000
|  3> % mp2 density relaxed end
|  4> *xyz 0 1
|  5>  C       -0.0155513175     1.5548442894     0.0027544329
|  6>  C        0.0127743420     0.0241000302    -0.0181630182
|  7>  C        0.7169528818    -0.5420754857    -1.2552334552
|  8>  C        0.7453544992    -2.0641148249    -1.2762995429
|  9>  O        1.4098446297    -2.4921192956    -2.4450459992
| 10>  C        1.4886170550    -3.8964417269    -2.5615452184
| 11>  C        2.2203341226    -4.2376795889    -3.8487133807
| 12>  H        0.9987796382     1.9687854499    -0.0052724021
| 13>  H       -0.5401389541     1.9521821564    -0.8731482059
| 14>  H       -0.5231389033     1.9330552706     0.8955755551
| 15>  H        0.5127307777    -0.3445977263     0.8874012470
| 16>  H       -1.0146880180    -0.3610683772     0.0254932432
| 17>  H        0.2183528729    -0.1890163233    -2.1664204418
| 18>  H        1.7487266876    -0.1723498959    -1.3028164446
| 19>  H        1.2604748623    -2.4507054634    -0.3787349519
| 20>  H       -0.2827871376    -2.4674110503    -1.2499924170
| 21>  H        2.0179449734    -4.3225638752    -1.6914664655
| 22>  H        0.4761687447    -4.3366102609    -2.5641571606
| 23>  H        2.2972612777    -5.3225337658    -3.9686402913
| 24>  H        1.6877794067    -3.8292154933    -4.7123489163
| 25>  H        3.2296520289    -3.8163678330    -3.8394090368
| 26> *
| 27>
| 28>                          ****END OF INPUT****

CARTESIAN COORDINATES (ANGSTROEM)
---------------------------------
  C     -0.015551    1.554844    0.002754
  C      0.012774    0.024100   -0.018163
  C      0.716953   -0.542075   -1.255233
  C      0.745354   -2.064115   -1.276300
  O      1.409845   -2.492119   -2.445046
  C      1.488617   -3.896442   -2.561545
  C      2.220334   -4.237680   -3.848713
  H      0.998780    1.968785   -0.005272
  H     -0.540139    1.952182   -0.873148
  H     -0.523139    1.933055    0.895576
  H      0.512731   -0.344598    0.887401
  H     -1.014688   -0.361068    0.025493
  H      0.218353   -0.189016   -2.166420
  H      1.748727   -0.172350   -1.302816
  H      1.260475   -2.450705   -0.378735
  H     -0.282787   -2.467411   -1.249992
  H      2.017945   -4.322564   -1.691466
  H      0.476169   -4.336610   -2.564157
  H      2.297261   -5.322534   -3.968640
  H      1.687779   -3.829215   -4.712349
  H      3.229652   -3.816368   -3.839409

 Total Charge           Charge          ....    0
 Multiplicity           Mult            ....    1
 Number of Electrons    NEL             ....   58
 Basis Dimension        Dim             ....  301

ORBITAL ENERGIES
----------------

  NO   OCC          E(Eh)            E(eV)
   0   2.0000     -20.547736      -559.1323
   1   2.0000     -11.270861      -306.6957
   2   2.0000     -11.268266      -306.6251
   3   2.0000     -11.219907      -305.3092
   4   2.0000     -11.213632      -305.1384
   5   2.0000     -11.211910      -305.0916
   6   2.0000     -11.211346      -305.0762
   7   2.0000      -1.370893       -37.3039
   8   2.0000      -1.071701       -29.1625
   9   2.0000      -1.018506       -27.7150
  10   2.0000      -0.959430       -26.1074
  11   2.0000      -0.855522       -23.2799
  12   2.0000      -0.825545       -22.4642
  13   2.0000      -0.791720       -21.5438
  14   2.0000      -0.676355       -18.4046
  15   2.0000      -0.657390       -17.8885
  16   2.0000      -0.629370       -17.1260
  17   2.0000      -0.609473       -16.5846
  18   2.0000      -0.581519       -15.8239
  19   2.0000      -0.561527       -15.2799
  20   2.0000      -0.535080       -14.5603
  21   2.0000      -0.524791       -14.2803
  22   2.0000      -0.524188       -14.2639
  23   2.0000      -0.489583       -13.3222
  24   2.0000      -0.478756       -13.0276
  25   2.0000      -0.470862       -12.8128
  26   2.0000      -0.464552       -12.6411
  27   2.0000      -0.458562       -12.4781
  28   2.0000      -0.415950       -11.3186
  29   0.0000       0.136731         3.7206
  30   0.0000       0.147452         4.0124
  31   0.0000       0.163636         4.4528
  32   0.0000       0.184270         5.0142
  33   0.0000       0.187055         5.0900

MULLIKEN ATOMIC CHARGES
-----------------------
   0 C :   -0.382521
   1 C :   -0.213198
   2 C :   -0.179027
   3 C :   -0.060117
   4 O :   -0.291042
   5 C :   -0.047790
   6 C :   -0.357758
   7 H :    0.123059
   8 H :    0.123060
   9 H :    0.131912
  10 H :    0.104752
  11 H :    0.104748
  12 H :    0.109443
  13 H :    0.109460
  14 H :    0.086466
  15 H :    0.086428
  16 H :    0.088571
  17 H :    0.088606
  18 H :    0.119532
  19 H :    0.127718
  20 H :    0.127698
Sum of atomic charges:   -0.0000000

LOEWDIN ATOMIC CHARGES
----------------------
   0 C :   -0.320873
   1 C :   -0.296639
   2 C :   -0.271627
   3 C :   -0.332152
   4 O :    0.156127
   5 C :   -0.358077
   6 C :   -0.317967
   7 H :    0.120518
   8 H :    0.120517
   9 H :    0.119844
  10 H :    0.133976
  11 H :    0.133974
  12 H :    0.139150
  13 H :    0.139157
  14 H :    0.117171
  15 H :    0.117173
  16 H :    0.114748
  17 H :    0.114745
  18 H :    0.123338
  19 H :    0.123457
  20 H :    0.123441

  Mayer bond orders larger than 0.1
B(  0-C ,  1-C ) :   0.9249 B(  0-C ,  7-H ) :   0.9396 B(  0-C ,  8-H ) :   0.9396
B(  0-C ,  9-H ) :   0.9433 B(  1-C ,  2-C ) :   0.9254 B(  1-C , 10-H ) :   0.9303
B(  1-C , 11-H ) :   0.9303 B(  2-C ,  3-C ) :   0.9586 B(  2-C , 12-H ) :   0.9244
B(  2-C , 13-H ) :   0.9244 B(  3-C ,  4-O ) :   0.9564 B(  3-C , 14-H ) :   0.9243
B(  3-C , 15-H ) :   0.9244 B(  4-O ,  5-C ) :   0.9282 B(  5-C ,  6-C ) :   0.9512
B(  5-C , 16-H ) :   0.9256 B(  5-C , 17-H ) :   0.9256 B(  6-C , 18-H ) :   0.9329
B(  6-C , 19-H ) :   0.9364 B(  6-C , 20-H ) :   0.9364

MP2 TOTAL ENERGY:     -311.583718353 Eh
FINAL SINGLE POINT ENERGY      -311.583718352849

DIPOLE MOMENT
-------------
                                X             Y             Z
Electronic contribution:      0.93326      -1.91262      -1.61389
Nuclear contribution   :     -1.09898       1.66431       1.91097
                        -----------------------------------------
Total Dipole Moment    :     -0.16571      -0.24831       0.29708
                        -----------------------------------------
Magnitude (a.u.)       :      0.42116
Magnitude (Debye)      :      1.07051

                             ****ORCA TERMINATED NORMALLY****
TOTAL RUN TIME: 0 days 0 hours 8 minutes 9 seconds 867 msec
