                         Program Version 3.0.3 - RELEASE   -
|  1> ! RI-MP2 RIJK def2-TZVP def2-TZVP/C def2-TZVP/JK TIGHTSCF
|  2> % maxcore 2000
|  3> % mp2 density relaxed end
|  4> *xyz 0 1
|  5>  C        0.0003463012     1.4973573225     0.0738903825
|  6>  C       -0.0134702466    -0.0203520897    -0.0208659529
|  7>  C        0.7410425774    -0.6043873775    -1.2266366551
|  8>  C        0.9734606744    -2.0349045524    -0.7145249880
|  9>  C        1.4293781906    -1.7219200517     0.7205779682
| 10>  O        0.7180222147    -0.5430042093     1.1124521725
| 11>  C       -0.3629146062    -2.8036528547    -0.7403635985
| 12>  C       -1.4206149730    -2.1289830502     0.1563397314
| 13>  C       -1.4467150530    -0.5976879779    -0.0010333013
| 14>  H        1.0265010019     1.8748789671     0.0406385612
| 15>  H       -0.5623707186     1.9433843089    -0.7527030283
| 16>  H       -0.4544585093     1.8259784481     1.0133698371
| 17>  H        0.1649510065    -0.5629225477    -2.1549450809
| 18>  H        1.6872831512    -0.0741350527    -1.3802507931
| 19>  H        1.7416084782    -2.5748618176    -1.2752658084
| 20>  H        1.2076725772    -2.5324005718     1.4263209270
| 21>  H        2.5105661856    -1.5258140041     0.7608900538
| 22>  H       -0.7180828822    -2.8498984993    -1.7780731571
| 23>  H       -0.2131685757    -3.8401229002    -0.4159315608
| 24>  H       -2.4113750646    -2.5506461971    -0.0439852485
| 25>  H       -1.1951427853    -2.3569065136     1.2035424820
| 26>  H       -2.0139302146    -0.1512138869     0.8233802095
| 27>  H       -1.9541838799    -0.3074454822    -0.9301990925
| 28> *
| 29>
| 30>                          ****END OF INPUT****

CARTESIAN COORDINATES (ANGSTROEM)
---------------------------------
  C      0.000346    1.497357    0.073890
  C     -0.013470   -0.020352   -0.020866
  C      0.741043   -0.604387   -1.226637
  C      0.973461   -2.034905   -0.714525
  C      1.429378   -1.721920    0.720578
  O      0.718022   -0.543004    1.112452
  C     -0.362915   -2.803653   -0.740364
  C     -1.420615   -2.128983    0.156340
  C     -1.446715   -0.597688   -0.001033
  H      1.026501    1.874879    0.040639
  H     -0.562371    1.943384   -0.752703
  H     -0.454459    1.825978    1.013370
  H      0.164951   -0.562923   -2.154945
  H      1.687283   -0.074135   -1.380251
  H      1.741608   -2.574862   -1.275266
  H      1.207673   -2.532401    1.426321
  H      2.510566   -1.525814    0.760890
  H     -0.718083   -2.849898   -1.778073
  H     -0.213169   -3.840123   -0.415932
  H     -2.411375   -2.550646   -0.043985
  H     -1.195143   -2.356907    1.203542
  H     -2.013930   -0.151214    0.823380
  H     -1.954184   -0.307445   -0.930199

 Total Charge           Charge          ....    0
 Multiplicity           Mult            ....    1
 Number of Electrons    NEL             ....   70
 Basis Dimension        Dim             ....  363

ORBITAL ENERGIES
----------------

  NO   OCC          E(Eh)            E(eV)
   0   2.0000     -20.537454      -558.8525
   1   2.0000     -11.276080      -306.8377
   2   2.0000     -11.264699      -306.5280
   3   2.0000     -11.226741      -305.4951
   4   2.0000     -11.219298      -305.2926
   5   2.0000     -11.217255      -305.2370
   6   2.0000     -11.215726      -305.1954
   7   2.0000     -11.213383      -305.1317
   8   2.0000     -11.208075      -304.9872
   9   2.0000      -1.362994       -37.0890
  10   2.0000      -1.105603       -30.0850
  11   2.0000      -1.048438       -28.5294
  12   2.0000      -1.010974       -27.5100
  13   2.0000      -0.925438       -25.1825
  14   2.0000      -0.900931       -24.5156
  15   2.0000      -0.828279       -22.5386
  16   2.0000      -0.759166       -20.6579
  17   2.0000      -0.744935       -20.2707
  18   2.0000      -0.676035       -18.3958
  19   2.0000      -0.655565       -17.8388
  20   2.0000      -0.614817       -16.7300
  21   2.0000      -0.592725       -16.1289
  22   2.0000      -0.581109       -15.8128
  23   2.0000      -0.566399       -15.4125
  24   2.0000      -0.552396       -15.0315
  25   2.0000      -0.544002       -14.8030
  26   2.0000      -0.531235       -14.4557
  27   2.0000      -0.516789       -14.0626
  28   2.0000      -0.495482       -13.4827
  29   2.0000      -0.488314       -13.2877
  30   2.0000      -0.468957       -12.7610
  31   2.0000      -0.446586       -12.1522
  32   2.0000      -0.433836       -11.8053
  33   2.0000      -0.427778       -11.6404
  34   2.0000      -0.396871       -10.7994
  35   0.0000       0.130118         3.5407
  36   0.0000       0.153776         4.1845
  37   0.0000       0.163844         4.4584
  38   0.0000       0.169011         4.5990
  39   0.0000       0.191672         5.2157

MULLIKEN ATOMIC CHARGES
-----------------------
   0 C :   -0.402475
   1 C :    0.282874
   2 C :   -0.327668
   3 C :    0.022633
   4 C :   -0.090032
   5 O :   -0.341174
   6 C :   -0.298778
   7 C :   -0.217821
   8 C :   -0.273275
   9 H :    0.128566
  10 H :    0.124321
  11 H :    0.136947
  12 H :    0.122774
  13 H :    0.119349
  14 H :    0.114844
  15 H :    0.103181
  16 H :    0.098067
  17 H :    0.108116
  18 H :    0.122717
  19 H :    0.124876
  20 H :    0.121867
  21 H :    0.114596
  22 H :    0.105496
Sum of atomic charges:   -0.0000000

LOEWDIN ATOMIC CHARGES
----------------------
   0 C :   -0.269728
   1 C :   -0.357683
   2 C :   -0.195130
   3 C :   -0.249972
   4 C :   -0.277165
   5 O :    0.177862
   6 C :   -0.242071
   7 C :   -0.256658
   8 C :   -0.222943
   9 H :    0.126533
  10 H :    0.127795
  11 H :    0.129026
  12 H :    0.141182
  13 H :    0.142402
  14 H :    0.148031
  15 H :    0.124249
  16 H :    0.121034
  17 H :    0.137948
  18 H :    0.137144
  19 H :    0.135071
  20 H :    0.142448
  21 H :    0.140994
  22 H :    0.139631

  Mayer bond orders larger than 0.1
B(  0-C ,  1-C ) :   0.8615 B(  0-C ,  9-H ) :   0.9420 B(  0-C , 10-H ) :   0.9390
B(  0-C , 11-H ) :   0.9454 B(  1-C ,  2-C ) :   0.9394 B(  1-C ,  5-O ) :   0.8981
B(  1-C ,  8-C ) :   0.9214 B(  2-C ,  3-C ) :   0.8945 B(  2-C , 12-H ) :   0.9257
B(  2-C , 13-H ) :   0.9175 B(  3-C ,  4-C ) :   0.9363 B(  3-C ,  6-C ) :   0.9047
B(  3-C , 14-H ) :   0.9231 B(  4-C ,  5-O ) :   0.9519 B(  4-C , 15-H ) :   0.9240
B(  4-C , 16-H ) :   0.9216 B(  6-C ,  7-C ) :   0.9464 B(  6-C , 17-H ) :   0.9294
B(  6-C , 18-H ) :   0.9293 B(  7-C ,  8-C ) :   0.9423 B(  7-C , 19-H ) :   0.9330
B(  7-C , 20-H ) :   0.9282 B(  8-C , 21-H ) :   0.9192 B(  8-C , 22-H ) :   0.9227

MP2 TOTAL ENERGY:     -387.658279738 Eh
FINAL SINGLE POINT ENERGY      -387.658279737800

DIPOLE MOMENT
-------------
                                X             Y             Z
Electronic contribution:      2.00181      -0.28624       1.95640
Nuclear contribution   :     -2.04838       0.02856      -2.53002
                        -----------------------------------------
Total Dipole Moment    :     -0.04657      -0.25769      -0.57362
                        -----------------------------------------
Magnitude (a.u.)       :      0.63056
Magnitude (Debye)      :      1.60276

                             ****ORCA TERMINATED NORMALLY****
TOTAL RUN TIME: 0 days 0 hours 22 minutes 45 seconds 747 msec
