                         Program Version 3.0.3 - RELEASE   -
|  1> ! RI-MP2 RIJK def2-TZVP def2-TZVP/C def2-TZVP/JK TIGHTSCF
|  2> % maxcore 2000
|  3> % mp2 density relaxed end
|  4> *xyz 0 1
|  5>  C        0.0093753517     1.5162748249    -0.0456303548
|  6>  C        0.0152232394    -0.0029175212    -0.0205037908
|  7>  O        0.6726354606    -0.4717585075    -1.1786382575
|  8>  C        0.7334774537    -1.8786695561    -1.2561621344
|  9>  C        1.4592499384    -2.2672185339    -2.5373698808
| 10>  C        1.5737221431    -3.7843096966    -2.7086559810
| 11>  C        2.2996728023    -4.1744080881    -3.9888690593
| 12>  O        2.3581885038    -5.5822797226    -4.0638619704
| 13>  C        3.0143046402    -6.0428654865    -5.2187575893
| 14>  H        1.0321142065     1.9034557596    -0.0661425876
| 15>  H       -0.5125873832     1.8832237698    -0.9340104176
| 16>  H       -0.4943193789     1.9113587522     0.8417068340
| 17>  H        0.5274915708    -0.3726968652     0.8846666437
| 18>  H       -1.0167315683    -0.3930321321     0.0163180257
| 19>  H        1.2610446357    -2.2901048105    -0.3774591433
| 20>  H       -0.2836126005    -2.3089767461    -1.2467467946
| 21>  H        0.9235615979    -1.8269158288    -3.3872616477
| 22>  H        2.4556088738    -1.8086712062    -2.5249983648
| 23>  H        2.1089100236    -4.2245558564    -1.8584381778
| 24>  H        0.5773105676    -4.2426847618    -2.7214751499
| 25>  H        1.7733681206    -3.7645647104    -4.8691710910
| 26>  H        3.3179476588    -3.7467170539    -3.9987622322
| 27>  H        3.0085961434    -7.1353146403    -5.1869228874
| 28>  H        2.5062786640    -5.7123167429    -6.1392812811
| 29>  H        4.0591060150    -5.6949282291    -5.2640389903
| 30> *
| 31>
| 32>                          ****END OF INPUT****

CARTESIAN COORDINATES (ANGSTROEM)
---------------------------------
  C      0.009375    1.516275   -0.045630
  C      0.015223   -0.002918   -0.020504
  O      0.672635   -0.471759   -1.178638
  C      0.733477   -1.878670   -1.256162
  C      1.459250   -2.267219   -2.537370
  C      1.573722   -3.784310   -2.708656
  C      2.299673   -4.174408   -3.988869
  O      2.358189   -5.582280   -4.063862
  C      3.014305   -6.042865   -5.218758
  H      1.032114    1.903456   -0.066143
  H     -0.512587    1.883224   -0.934010
  H     -0.494319    1.911359    0.841707
  H      0.527492   -0.372697    0.884667
  H     -1.016732   -0.393032    0.016318
  H      1.261045   -2.290105   -0.377459
  H     -0.283613   -2.308977   -1.246747
  H      0.923562   -1.826916   -3.387262
  H      2.455609   -1.808671   -2.524998
  H      2.108910   -4.224556   -1.858438
  H      0.577311   -4.242685   -2.721475
  H      1.773368   -3.764565   -4.869171
  H      3.317948   -3.746717   -3.998762
  H      3.008596   -7.135315   -5.186923
  H      2.506279   -5.712317   -6.139281
  H      4.059106   -5.694928   -5.264039

 Total Charge           Charge          ....    0
 Multiplicity           Mult            ....    1
 Number of Electrons    NEL             ....   74
 Basis Dimension        Dim             ....  375

ORBITAL ENERGIES
----------------

  NO   OCC          E(Eh)            E(eV)
   0   2.0000     -20.552138      -559.2521
   1   2.0000     -20.549408      -559.1778
   2   2.0000     -11.272024      -306.7274
   3   2.0000     -11.271647      -306.7171
   4   2.0000     -11.270695      -306.6912
   5   2.0000     -11.268406      -306.6289
   6   2.0000     -11.218918      -305.2823
   7   2.0000     -11.218299      -305.2654
   8   2.0000     -11.212341      -305.1033
   9   2.0000      -1.373657       -37.3791
  10   2.0000      -1.372647       -37.3516
  11   2.0000      -1.074722       -29.2447
  12   2.0000      -1.020683       -27.7742
  13   2.0000      -0.969859       -26.3912
  14   2.0000      -0.904600       -24.6154
  15   2.0000      -0.842322       -22.9208
  16   2.0000      -0.825798       -22.4711
  17   2.0000      -0.799298       -21.7500
  18   2.0000      -0.682437       -18.5701
  19   2.0000      -0.666714       -18.1422
  20   2.0000      -0.662781       -18.0352
  21   2.0000      -0.649955       -17.6862
  22   2.0000      -0.622536       -16.9401
  23   2.0000      -0.618351       -16.8262
  24   2.0000      -0.595006       -16.1909
  25   2.0000      -0.576166       -15.6783
  26   2.0000      -0.536401       -14.5962
  27   2.0000      -0.530692       -14.4409
  28   2.0000      -0.522674       -14.2227
  29   2.0000      -0.498524       -13.5655
  30   2.0000      -0.495657       -13.4875
  31   2.0000      -0.482200       -13.1213
  32   2.0000      -0.473748       -12.8913
  33   2.0000      -0.470150       -12.7934
  34   2.0000      -0.459508       -12.5038
  35   2.0000      -0.421404       -11.4670
  36   2.0000      -0.416911       -11.3447
  37   0.0000       0.136958         3.7268
  38   0.0000       0.145757         3.9662
  39   0.0000       0.157719         4.2918
  40   0.0000       0.170518         4.6400
  41   0.0000       0.181829         4.9478

MULLIKEN ATOMIC CHARGES
-----------------------
   0 C :   -0.358809
   1 C :   -0.047489
   2 O :   -0.290570
   3 C :   -0.068101
   4 C :   -0.194074
   5 C :   -0.193114
   6 C :   -0.053080
   7 O :   -0.301711
   8 C :   -0.213549
   9 H :    0.127883
  10 H :    0.127865
  11 H :    0.120339
  12 H :    0.089540
  13 H :    0.089517
  14 H :    0.090123
  15 H :    0.090133
  16 H :    0.112292
  17 H :    0.112277
  18 H :    0.112556
  19 H :    0.112575
  20 H :    0.089026
  21 H :    0.089024
  22 H :    0.137832
  23 H :    0.109753
  24 H :    0.109761
Sum of atomic charges:    0.0000000

LOEWDIN ATOMIC CHARGES
----------------------
   0 C :   -0.317792
   1 C :   -0.357142
   2 O :    0.156208
   3 C :   -0.331232
   4 C :   -0.266893
   5 C :   -0.266997
   6 C :   -0.331984
   7 O :    0.132697
   8 C :   -0.364493
   9 H :    0.123504
  10 H :    0.123492
  11 H :    0.123610
  12 H :    0.115113
  13 H :    0.115113
  14 H :    0.118274
  15 H :    0.118276
  16 H :    0.139912
  17 H :    0.139908
  18 H :    0.140161
  19 H :    0.140165
  20 H :    0.118126
  21 H :    0.118123
  22 H :    0.112897
  23 H :    0.100477
  24 H :    0.100477

  Mayer bond orders larger than 0.1
B(  0-C ,  1-C ) :   0.9513 B(  0-C ,  9-H ) :   0.9363 B(  0-C , 10-H ) :   0.9363
B(  0-C , 11-H ) :   0.9330 B(  1-C ,  2-O ) :   0.9254 B(  1-C , 12-H ) :   0.9255
B(  1-C , 13-H ) :   0.9255 B(  2-O ,  3-C ) :   0.9639 B(  3-C ,  4-C ) :   0.9618
B(  3-C , 14-H ) :   0.9257 B(  3-C , 15-H ) :   0.9257 B(  4-C ,  5-C ) :   0.9223
B(  4-C , 16-H ) :   0.9216 B(  4-C , 17-H ) :   0.9216 B(  5-C ,  6-C ) :   0.9595
B(  5-C , 18-H ) :   0.9218 B(  5-C , 19-H ) :   0.9217 B(  6-C ,  7-O ) :   0.9641
B(  6-C , 20-H ) :   0.9250 B(  6-C , 21-H ) :   0.9250 B(  7-O ,  8-C ) :   0.9237
B(  8-C , 22-H ) :   0.9396 B(  8-C , 23-H ) :   0.9373 B(  8-C , 24-H ) :   0.9373

MP2 TOTAL ENERGY:     -425.901722866 Eh
FINAL SINGLE POINT ENERGY      -425.901722865574

DIPOLE MOMENT
-------------
                                X             Y             Z
Electronic contribution:      0.42576      -2.47203      -0.70313
Nuclear contribution   :     -0.41896       2.51213       0.69079
                        -----------------------------------------
Total Dipole Moment    :      0.00680       0.04010      -0.01234
                        -----------------------------------------
Magnitude (a.u.)       :      0.04250
Magnitude (Debye)      :      0.10803

                             ****ORCA TERMINATED NORMALLY****
TOTAL RUN TIME: 0 days 0 hours 14 minutes 41 seconds 760 msec
