                         Program Version 3.0.3 - RELEASE   -
|  1> ! RI-MP2 RIJK def2-TZVP def2-TZVP/C def2-TZVP/JK TIGHTSCF
|  2> % maxcore 2000
|  3> % mp2 density relaxed end
|  4> *xyz 0 1
|  5>  C        0.1621640466     1.5277568197     0.2176995195
|  6>  C       -0.2340447762     0.0896107266    -0.1381580205
|  7>  C        0.5488357823    -0.4923787937    -1.3164725774
|  8>  C        0.2197749410     0.1273688003    -2.6754987515
|  9>  O        1.1051823035    -0.3355327506    -3.6738550513
| 10>  O        2.0011732373    -0.4629000410    -1.0955446994
| 11>  C        2.1371012169    -1.9021446222    -1.0976362407
| 12>  C        0.6309514865    -2.0323202068    -1.3336928216
| 13>  O       -0.1533586872    -2.9216044228    -1.4511315016
| 14>  H        1.2381881140     1.5915952366     0.4002221494
| 15>  H       -0.0902164495     2.2351896202    -0.5772956914
| 16>  H       -0.3583639835     1.8505263314     1.1238182775
| 17>  H       -0.0758494833    -0.5529348883     0.7357821742
| 18>  H       -1.3027785573     0.0254634143    -0.3764901472
| 19>  H       -0.7902951152    -0.1776242195    -2.9680950793
| 20>  H        0.2350619446     1.2248907440    -2.6018932014
| 21>  H        1.9903357116    -0.1299478501    -3.3481252109
| 22>  H        2.7643871930    -2.2717561126    -1.9174589865
| 23>  H        2.5062605148    -2.2968329656    -0.1433431198
| 24> *
| 25>
| 26>                          ****END OF INPUT****

CARTESIAN COORDINATES (ANGSTROEM)
---------------------------------
  C      0.162164    1.527757    0.217700
  C     -0.234045    0.089611   -0.138158
  C      0.548836   -0.492379   -1.316473
  C      0.219775    0.127369   -2.675499
  O      1.105182   -0.335533   -3.673855
  O      2.001173   -0.462900   -1.095545
  C      2.137101   -1.902145   -1.097636
  C      0.630951   -2.032320   -1.333693
  O     -0.153359   -2.921604   -1.451132
  H      1.238188    1.591595    0.400222
  H     -0.090216    2.235190   -0.577296
  H     -0.358364    1.850526    1.123818
  H     -0.075849   -0.552935    0.735782
  H     -1.302779    0.025463   -0.376490
  H     -0.790295   -0.177624   -2.968095
  H      0.235062    1.224891   -2.601893
  H      1.990336   -0.129948   -3.348125
  H      2.764387   -2.271756   -1.917459
  H      2.506261   -2.296833   -0.143343

 Total Charge           Charge          ....    0
 Multiplicity           Mult            ....    1
 Number of Electrons    NEL             ....   70
 Basis Dimension        Dim             ....  339

ORBITAL ENERGIES
----------------

  NO   OCC          E(Eh)            E(eV)
   0   2.0000     -20.577837      -559.9514
   1   2.0000     -20.572925      -559.8178
   2   2.0000     -20.565904      -559.6267
   3   2.0000     -11.346944      -308.7660
   4   2.0000     -11.308807      -307.7283
   5   2.0000     -11.303845      -307.5933
   6   2.0000     -11.291877      -307.2676
   7   2.0000     -11.247064      -306.0482
   8   2.0000     -11.228267      -305.5367
   9   2.0000      -1.427791       -38.8522
  10   2.0000      -1.399102       -38.0715
  11   2.0000      -1.367653       -37.2157
  12   2.0000      -1.085095       -29.5269
  13   2.0000      -0.994858       -27.0715
  14   2.0000      -0.980988       -26.6940
  15   2.0000      -0.900907       -24.5149
  16   2.0000      -0.844570       -22.9819
  17   2.0000      -0.742886       -20.2150
  18   2.0000      -0.699125       -19.0242
  19   2.0000      -0.697107       -18.9692
  20   2.0000      -0.678477       -18.4623
  21   2.0000      -0.662257       -18.0209
  22   2.0000      -0.628818       -17.1110
  23   2.0000      -0.614951       -16.7337
  24   2.0000      -0.603323       -16.4172
  25   2.0000      -0.575989       -15.6735
  26   2.0000      -0.553586       -15.0638
  27   2.0000      -0.538658       -14.6576
  28   2.0000      -0.533014       -14.5041
  29   2.0000      -0.518528       -14.1099
  30   2.0000      -0.510766       -13.8987
  31   2.0000      -0.500754       -13.6262
  32   2.0000      -0.477722       -12.9995
  33   2.0000      -0.438515       -11.9326
  34   2.0000      -0.406426       -11.0594
  35   0.0000       0.126680         3.4471
  36   0.0000       0.129937         3.5358
  37   0.0000       0.149698         4.0735
  38   0.0000       0.155192         4.2230
  39   0.0000       0.173415         4.7189

MULLIKEN ATOMIC CHARGES
-----------------------
   0 C :   -0.418345
   1 C :   -0.210391
   2 C :    0.212776
   3 C :   -0.051933
   4 O :   -0.473508
   5 O :   -0.382640
   6 C :   -0.066958
   7 C :    0.124496
   8 O :   -0.235034
   9 H :    0.152495
  10 H :    0.122651
  11 H :    0.141374
  12 H :    0.118361
  13 H :    0.127997
  14 H :    0.128996
  15 H :    0.116768
  16 H :    0.328569
  17 H :    0.133763
  18 H :    0.130563
Sum of atomic charges:   -0.0000000

LOEWDIN ATOMIC CHARGES
----------------------
   0 C :   -0.310748
   1 C :   -0.241361
   2 C :   -0.297503
   3 C :   -0.305248
   4 O :   -0.029389
   5 O :    0.146584
   6 C :   -0.245973
   7 C :   -0.282405
   8 O :    0.186369
   9 H :    0.128730
  10 H :    0.119222
  11 H :    0.124614
  12 H :    0.146933
  13 H :    0.150256
  14 H :    0.142322
  15 H :    0.125739
  16 H :    0.179080
  17 H :    0.131958
  18 H :    0.130819

  Mayer bond orders larger than 0.1
B(  0-C ,  1-C ) :   0.9170 B(  0-C ,  9-H ) :   0.9355 B(  0-C , 10-H ) :   0.9361
B(  0-C , 11-H ) :   0.9386 B(  1-C ,  2-C ) :   0.9009 B(  1-C , 12-H ) :   0.9197
B(  1-C , 13-H ) :   0.9282 B(  2-C ,  3-C ) :   0.9200 B(  2-C ,  5-O ) :   0.8573
B(  2-C ,  7-C ) :   0.8051 B(  3-C ,  4-O ) :   0.9296 B(  3-C , 14-H ) :   0.9186
B(  3-C , 15-H ) :   0.9309 B(  4-O , 16-H ) :   0.8261 B(  5-O ,  6-C ) :   0.9252
B(  6-C ,  7-C ) :   0.9623 B(  6-C , 17-H ) :   0.9086 B(  6-C , 18-H ) :   0.8963
B(  7-C ,  8-O ) :   2.0776

MP2 TOTAL ENERGY:     -459.424172908 Eh
FINAL SINGLE POINT ENERGY      -459.424172907719

DIPOLE MOMENT
-------------
                                X             Y             Z
Electronic contribution:      1.38073      -7.28417      -3.59283
Nuclear contribution   :     -1.10041       7.88553       4.26636
                        -----------------------------------------
Total Dipole Moment    :      0.28033       0.60136       0.67354
                        -----------------------------------------
Magnitude (a.u.)       :      0.94545
Magnitude (Debye)      :      2.40313

                             ****ORCA TERMINATED NORMALLY****
TOTAL RUN TIME: 0 days 0 hours 17 minutes 4 seconds 190 msec
