                         Program Version 3.0.3 - RELEASE   -
|  1> ! RI-MP2 RIJK def2-TZVP def2-TZVP/C def2-TZVP/JK TIGHTSCF
|  2> % maxcore 2000
|  3> % mp2 density relaxed end
|  4> *xyz 0 1
|  5>  C        0.1067075232     1.4906142660    -0.1777587191
|  6>  C       -0.0923976776    -0.0145609827     0.0332956586
|  7>  C        0.6252885762    -0.5274944374     1.2578323958
|  8>  C        2.1067902528    -0.8693566955     1.2397896094
|  9>  C        1.0971187149    -1.9474915164     1.5184586822
| 10>  O        0.8083322830    -2.2011270230     2.8832901213
| 11>  C        0.2856896686    -1.0309170569     3.3659574414
| 12>  C       -0.0451520239    -1.0325357920     4.8175110677
| 13>  N        0.1338191794    -0.0684771906     2.5430575766
| 14>  H        1.1644917227     1.7298168649    -0.3296530576
| 15>  H       -0.4485296242     1.8412545118    -1.0530093412
| 16>  H       -0.2402328252     2.0471542154     0.6968848231
| 17>  H       -1.1617458972    -0.2367549266     0.1333061177
| 18>  H        0.2639325593    -0.5682924885    -0.8438097068
| 19>  H        2.5853143562    -0.9132417636     0.2667111330
| 20>  H        2.7357022325    -0.5156583790     2.0501875929
| 21>  H        0.9649313171    -2.8168541343     0.8868233893
| 22>  H       -0.6954781028    -1.8791867361     5.0578443788
| 23>  H        0.8639838480    -1.1390123886     5.4181808756
| 24>  H       -0.5415385730    -0.0984620368     5.0787010413
| 25> *
| 26>
| 27>                          ****END OF INPUT****

CARTESIAN COORDINATES (ANGSTROEM)
---------------------------------
  C      0.106708    1.490614   -0.177759
  C     -0.092398   -0.014561    0.033296
  C      0.625289   -0.527494    1.257832
  C      2.106790   -0.869357    1.239790
  C      1.097119   -1.947492    1.518459
  O      0.808332   -2.201127    2.883290
  C      0.285690   -1.030917    3.365957
  C     -0.045152   -1.032536    4.817511
  N      0.133819   -0.068477    2.543058
  H      1.164492    1.729817   -0.329653
  H     -0.448530    1.841255   -1.053009
  H     -0.240233    2.047154    0.696885
  H     -1.161746   -0.236755    0.133306
  H      0.263933   -0.568292   -0.843810
  H      2.585314   -0.913242    0.266711
  H      2.735702   -0.515658    2.050188
  H      0.964931   -2.816854    0.886823
  H     -0.695478   -1.879187    5.057844
  H      0.863984   -1.139012    5.418181
  H     -0.541539   -0.098462    5.078701

 Total Charge           Charge          ....    0
 Multiplicity           Mult            ....    1
 Number of Electrons    NEL             ....   68
 Basis Dimension        Dim             ....  345

ORBITAL ENERGIES
----------------

  NO   OCC          E(Eh)            E(eV)
   0   2.0000     -20.595837      -560.4412
   1   2.0000     -15.541225      -422.8982
   2   2.0000     -11.332796      -308.3811
   3   2.0000     -11.289141      -307.1931
   4   2.0000     -11.265631      -306.5534
   5   2.0000     -11.236677      -305.7655
   6   2.0000     -11.230226      -305.5900
   7   2.0000     -11.224465      -305.4332
   8   2.0000     -11.207784      -304.9793
   9   2.0000      -1.443583       -39.2819
  10   2.0000      -1.221416       -33.2364
  11   2.0000      -1.128441       -30.7064
  12   2.0000      -1.025016       -27.8921
  13   2.0000      -0.999806       -27.2061
  14   2.0000      -0.872723       -23.7480
  15   2.0000      -0.850658       -23.1476
  16   2.0000      -0.784127       -21.3372
  17   2.0000      -0.759265       -20.6607
  18   2.0000      -0.694127       -18.8882
  19   2.0000      -0.647680       -17.6243
  20   2.0000      -0.630834       -17.1659
  21   2.0000      -0.603266       -16.4157
  22   2.0000      -0.596081       -16.2202
  23   2.0000      -0.580574       -15.7982
  24   2.0000      -0.563737       -15.3401
  25   2.0000      -0.551728       -15.0133
  26   2.0000      -0.535030       -14.5589
  27   2.0000      -0.526563       -14.3285
  28   2.0000      -0.504577       -13.7302
  29   2.0000      -0.491399       -13.3717
  30   2.0000      -0.468182       -12.7399
  31   2.0000      -0.447046       -12.1647
  32   2.0000      -0.385939       -10.5019
  33   2.0000      -0.357343        -9.7238
  34   0.0000       0.140254         3.8165
  35   0.0000       0.152141         4.1400
  36   0.0000       0.164606         4.4792
  37   0.0000       0.169264         4.6059
  38   0.0000       0.184820         5.0292

MULLIKEN ATOMIC CHARGES
-----------------------
   0 C :   -0.407900
   1 C :   -0.186937
   2 C :    0.168325
   3 C :   -0.288561
   4 C :    0.003681
   5 O :   -0.267022
   6 C :    0.220886
   7 C :   -0.429975
   8 N :   -0.293876
   9 H :    0.121488
  10 H :    0.130042
  11 H :    0.147347
  12 H :    0.110745
  13 H :    0.100704
  14 H :    0.133477
  15 H :    0.141491
  16 H :    0.137391
  17 H :    0.150748
  18 H :    0.148052
  19 H :    0.159895
Sum of atomic charges:    0.0000000

LOEWDIN ATOMIC CHARGES
----------------------
   0 C :   -0.309617
   1 C :   -0.251365
   2 C :   -0.274547
   3 C :   -0.189708
   4 C :   -0.232275
   5 O :    0.268527
   6 C :   -0.376412
   7 C :   -0.263505
   8 N :    0.139010
   9 H :    0.120947
  10 H :    0.119412
  11 H :    0.127748
  12 H :    0.143156
  13 H :    0.141044
  14 H :    0.142267
  15 H :    0.140375
  16 H :    0.137690
  17 H :    0.138176
  18 H :    0.138327
  19 H :    0.140750

  Mayer bond orders larger than 0.1
B(  0-C ,  1-C ) :   0.9332 B(  0-C ,  9-H ) :   0.9370 B(  0-C , 10-H ) :   0.9387
B(  0-C , 11-H ) :   0.9358 B(  1-C ,  2-C ) :   0.9200 B(  1-C , 12-H ) :   0.9272
B(  1-C , 13-H ) :   0.9257 B(  2-C ,  3-C ) :   0.8503 B(  2-C ,  4-C ) :   0.8635
B(  2-C ,  8-N ) :   0.9286 B(  3-C ,  4-C ) :   0.8869 B(  3-C , 14-H ) :   0.9222
B(  3-C , 15-H ) :   0.9045 B(  4-C ,  5-O ) :   0.9171 B(  4-C , 16-H ) :   0.9241
B(  5-O ,  6-C ) :   1.0591 B(  6-C ,  7-C ) :   0.8746 B(  6-C ,  8-N ) :   1.8424
B(  7-C , 17-H ) :   0.9321 B(  7-C , 18-H ) :   0.9220 B(  7-C , 19-H ) :   0.9515

MP2 TOTAL ENERGY:     -402.468012196 Eh
FINAL SINGLE POINT ENERGY      -402.468012196496

DIPOLE MOMENT
-------------
                                X             Y             Z
Electronic contribution:      0.73141      -4.99155       3.64266
Nuclear contribution   :     -0.56859       4.67722      -3.81487
                        -----------------------------------------
Total Dipole Moment    :      0.16282      -0.31433      -0.17221
                        -----------------------------------------
Magnitude (a.u.)       :      0.39366
Magnitude (Debye)      :      1.00060

                             ****ORCA TERMINATED NORMALLY****
TOTAL RUN TIME: 0 days 0 hours 19 minutes 51 seconds 908 msec
