                         Program Version 3.0.3 - RELEASE   -
|  1> ! RI-MP2 RIJK def2-TZVP def2-TZVP/C def2-TZVP/JK TIGHTSCF
|  2> % maxcore 2000
|  3> % mp2 density relaxed end
|  4> *xyz 0 1
|  5>  C        0.2919006910     1.4630626004    -0.0215516898
|  6>  C        0.0659116530    -0.0094102653     0.0470536328
|  7>  C       -0.9572012263    -0.7250229468     0.8479212539
|  8>  C        0.5130210662    -1.0691825904     1.0693322716
|  9>  C        1.0202374600    -1.8277941082    -0.1522387317
| 10>  O        0.4941626957    -0.8226008071    -1.0550856694
| 11>  C        1.1565700930    -0.8049342842     2.3777765984
| 12>  N        2.2848393043    -1.5358495804     2.6428968958
| 13>  O        0.7352404727     0.0434799904     3.1469812462
| 14>  H        1.3104695558     1.6835791635    -0.3536628846
| 15>  H       -0.4083515210     1.9303298106    -0.7227916379
| 16>  H        0.1401629430     1.9004632121     0.9685656604
| 17>  H       -1.3795749383    -0.1687311231     1.6774454606
| 18>  H       -1.6049473141    -1.4558895273     0.3717835488
| 19>  H        2.1139266675    -1.8698458094    -0.2277299327
| 20>  H        0.5971529199    -2.8215699965    -0.3443803176
| 21>  H        2.5060359665    -2.3668342122     2.1215064254
| 22>  H        2.6770187110    -1.4447609062     3.5666371798
| 23> *
| 24>
| 25>                          ****END OF INPUT****

CARTESIAN COORDINATES (ANGSTROEM)
---------------------------------
  C      0.291901    1.463063   -0.021552
  C      0.065912   -0.009410    0.047054
  C     -0.957201   -0.725023    0.847921
  C      0.513021   -1.069183    1.069332
  C      1.020237   -1.827794   -0.152239
  O      0.494163   -0.822601   -1.055086
  C      1.156570   -0.804934    2.377777
  N      2.284839   -1.535850    2.642897
  O      0.735240    0.043480    3.146981
  H      1.310470    1.683579   -0.353663
  H     -0.408352    1.930330   -0.722792
  H      0.140163    1.900463    0.968566
  H     -1.379575   -0.168731    1.677445
  H     -1.604947   -1.455890    0.371784
  H      2.113927   -1.869846   -0.227730
  H      0.597153   -2.821570   -0.344380
  H      2.506036   -2.366834    2.121506
  H      2.677019   -1.444761    3.566637

 Total Charge           Charge          ....    0
 Multiplicity           Mult            ....    1
 Number of Electrons    NEL             ....   68
 Basis Dimension        Dim             ....  333

ORBITAL ENERGIES
----------------

  NO   OCC          E(Eh)            E(eV)
   0   2.0000     -20.564846      -559.5979
   1   2.0000     -20.518185      -558.3282
   2   2.0000     -15.588765      -424.1919
   3   2.0000     -11.359516      -309.1081
   4   2.0000     -11.309458      -307.7460
   5   2.0000     -11.300133      -307.4922
   6   2.0000     -11.252140      -306.1863
   7   2.0000     -11.242100      -305.9131
   8   2.0000     -11.225423      -305.4593
   9   2.0000      -1.406103       -38.2620
  10   2.0000      -1.382248       -37.6129
  11   2.0000      -1.215503       -33.0755
  12   2.0000      -1.134755       -30.8783
  13   2.0000      -1.011832       -27.5334
  14   2.0000      -0.941292       -25.6139
  15   2.0000      -0.878120       -23.8949
  16   2.0000      -0.806829       -21.9549
  17   2.0000      -0.759239       -20.6599
  18   2.0000      -0.707132       -19.2420
  19   2.0000      -0.692168       -18.8348
  20   2.0000      -0.657857       -17.9012
  21   2.0000      -0.654365       -17.8062
  22   2.0000      -0.621179       -16.9031
  23   2.0000      -0.583977       -15.8908
  24   2.0000      -0.578895       -15.7525
  25   2.0000      -0.568035       -15.4570
  26   2.0000      -0.552808       -15.0427
  27   2.0000      -0.539700       -14.6860
  28   2.0000      -0.528202       -14.3731
  29   2.0000      -0.487043       -13.2531
  30   2.0000      -0.432852       -11.7785
  31   2.0000      -0.425806       -11.5868
  32   2.0000      -0.408759       -11.1229
  33   2.0000      -0.378882       -10.3099
  34   0.0000       0.119815         3.2603
  35   0.0000       0.151284         4.1166
  36   0.0000       0.158280         4.3070
  37   0.0000       0.170889         4.6501
  38   0.0000       0.182691         4.9713

MULLIKEN ATOMIC CHARGES
-----------------------
   0 C :   -0.409794
   1 C :    0.189900
   2 C :   -0.252532
   3 C :   -0.063213
   4 C :   -0.021791
   5 O :   -0.324977
   6 C :    0.257316
   7 N :   -0.480257
   8 O :   -0.370834
   9 H :    0.136507
  10 H :    0.144085
  11 H :    0.162434
  12 H :    0.159361
  13 H :    0.139591
  14 H :    0.103070
  15 H :    0.113834
  16 H :    0.257174
  17 H :    0.260127
Sum of atomic charges:    0.0000000

LOEWDIN ATOMIC CHARGES
----------------------
   0 C :   -0.260482
   1 C :   -0.273969
   2 C :   -0.146051
   3 C :   -0.171369
   4 C :   -0.226128
   5 O :    0.170619
   6 C :   -0.454906
   7 N :   -0.017275
   8 O :    0.078186
   9 H :    0.133863
  10 H :    0.135405
  11 H :    0.144893
  12 H :    0.156449
  13 H :    0.139966
  14 H :    0.124961
  15 H :    0.121110
  16 H :    0.169681
  17 H :    0.175048

  Mayer bond orders larger than 0.1
B(  0-C ,  1-C ) :   0.8960 B(  0-C ,  9-H ) :   0.9332 B(  0-C , 10-H ) :   0.9316
B(  0-C , 11-H ) :   0.9231 B(  1-C ,  2-C ) :   0.9292 B(  1-C ,  3-C ) :   0.8271
B(  1-C ,  5-O ) :   0.9628 B(  2-C ,  3-C ) :   0.8460 B(  2-C , 12-H ) :   0.9130
B(  2-C , 13-H ) :   0.9027 B(  3-C ,  4-C ) :   0.9305 B(  3-C ,  6-C ) :   0.9144
B(  4-C ,  5-O ) :   0.9414 B(  4-C , 14-H ) :   0.9131 B(  4-C , 15-H ) :   0.9087
B(  6-C ,  7-N ) :   1.1507 B(  6-C ,  8-O ) :   1.9466 B(  7-N , 16-H ) :   0.8703
B(  7-N , 17-H ) :   0.8594

MP2 TOTAL ENERGY:     -438.363862721 Eh
FINAL SINGLE POINT ENERGY      -438.363862721013

DIPOLE MOMENT
-------------
                                X             Y             Z
Electronic contribution:      0.45681      -1.54452       1.83066
Nuclear contribution   :      0.09436       0.60942      -1.84703
                        -----------------------------------------
Total Dipole Moment    :      0.55117      -0.93510      -0.01637
                        -----------------------------------------
Magnitude (a.u.)       :      1.08558
Magnitude (Debye)      :      2.75931

                             ****ORCA TERMINATED NORMALLY****
TOTAL RUN TIME: 0 days 0 hours 19 minutes 1 seconds 520 msec
