                         Program Version 3.0.3 - RELEASE   -
|  1> ! RI-MP2 RIJK def2-TZVP def2-TZVP/C def2-TZVP/JK TIGHTSCF
|  2> % maxcore 2000
|  3> % mp2 density relaxed end
|  4> *xyz 0 1
|  5>  C       -1.6985894455    -0.2109393601     0.5858388711
|  6>  C       -0.2262386018     0.1379997307     0.3416833578
|  7>  C        0.7306240960    -0.3055017575     1.4721932179
|  8>  C        0.6490261163    -1.8264273044     1.7064983944
|  9>  C        1.7821425128    -2.3423041721     2.5951357857
| 10>  C        3.1379745376    -2.0634061943     1.9393567165
| 11>  C        3.2147180183    -0.6502240352     1.4270810558
| 12>  C        2.1648232802     0.1537142749     1.2281673413
| 13>  C        2.3703923867     1.5847804662     0.7946115366
| 14>  H       -2.0483997769     0.1988152576     1.5406717832
| 15>  H       -2.3306872099     0.2069459944    -0.2040934208
| 16>  H       -1.8706858306    -1.2909267731     0.6054080161
| 17>  H        0.1079488184    -0.3123992061    -0.6029952293
| 18>  H       -0.1483638686     1.2216986044     0.2072838458
| 19>  H        0.3841030339     0.2004543690     2.3903455754
| 20>  H       -0.3209697512    -2.0814849200     2.1447184210
| 21>  H        0.6961551727    -2.3375608508     0.7339600445
| 22>  H        1.7401656282    -1.8365515165     3.5685983694
| 23>  H        1.6606483269    -3.4135963354     2.7896446596
| 24>  H        3.9533297997    -2.2404113310     2.6522204905
| 25>  H        3.3115317143    -2.7734884612     1.1160031997
| 26>  H        4.2123752008    -0.2599290061     1.2317050233
| 27>  H        3.4317935006     1.8465949756     0.7992329813
| 28>  H        1.9845466071     1.7751050406    -0.2136363115
| 29>  H        1.8482915740     2.2815136304     1.4638490545
| 30> *
| 31>
| 32>                          ****END OF INPUT****

CARTESIAN COORDINATES (ANGSTROEM)
---------------------------------
  C     -1.698589   -0.210939    0.585839
  C     -0.226239    0.138000    0.341683
  C      0.730624   -0.305502    1.472193
  C      0.649026   -1.826427    1.706498
  C      1.782143   -2.342304    2.595136
  C      3.137975   -2.063406    1.939357
  C      3.214718   -0.650224    1.427081
  C      2.164823    0.153714    1.228167
  C      2.370392    1.584780    0.794612
  H     -2.048400    0.198815    1.540672
  H     -2.330687    0.206946   -0.204093
  H     -1.870686   -1.290927    0.605408
  H      0.107949   -0.312399   -0.602995
  H     -0.148364    1.221699    0.207284
  H      0.384103    0.200454    2.390346
  H     -0.320970   -2.081485    2.144718
  H      0.696155   -2.337561    0.733960
  H      1.740166   -1.836552    3.568598
  H      1.660648   -3.413596    2.789645
  H      3.953330   -2.240411    2.652220
  H      3.311532   -2.773488    1.116003
  H      4.212375   -0.259929    1.231705
  H      3.431794    1.846595    0.799233
  H      1.984547    1.775105   -0.213636
  H      1.848292    2.281514    1.463849

 Total Charge           Charge          ....    0
 Multiplicity           Mult            ....    1
 Number of Electrons    NEL             ....   70
 Basis Dimension        Dim             ....  375

ORBITAL ENERGIES
----------------

  NO   OCC          E(Eh)            E(eV)
   0   2.0000     -11.224855      -305.4438
   1   2.0000     -11.223122      -305.3967
   2   2.0000     -11.216625      -305.2199
   3   2.0000     -11.216210      -305.2086
   4   2.0000     -11.213474      -305.1341
   5   2.0000     -11.213227      -305.1274
   6   2.0000     -11.212210      -305.0998
   7   2.0000     -11.210655      -305.0574
   8   2.0000     -11.209509      -305.0262
   9   2.0000      -1.127075       -30.6693
  10   2.0000      -1.046975       -28.4896
  11   2.0000      -1.029341       -28.0098
  12   2.0000      -0.969937       -26.3933
  13   2.0000      -0.917946       -24.9786
  14   2.0000      -0.865666       -23.5560
  15   2.0000      -0.800833       -21.7918
  16   2.0000      -0.787419       -21.4268
  17   2.0000      -0.691193       -18.8083
  18   2.0000      -0.639020       -17.3886
  19   2.0000      -0.618633       -16.8339
  20   2.0000      -0.599964       -16.3259
  21   2.0000      -0.591096       -16.0845
  22   2.0000      -0.569269       -15.4906
  23   2.0000      -0.561188       -15.2707
  24   2.0000      -0.556624       -15.1465
  25   2.0000      -0.533628       -14.5208
  26   2.0000      -0.516743       -14.0613
  27   2.0000      -0.509450       -13.8628
  28   2.0000      -0.491725       -13.3805
  29   2.0000      -0.488854       -13.3024
  30   2.0000      -0.474811       -12.9203
  31   2.0000      -0.455558       -12.3964
  32   2.0000      -0.435542       -11.8517
  33   2.0000      -0.422708       -11.5025
  34   2.0000      -0.328467        -8.9380
  35   0.0000       0.132244         3.5985
  36   0.0000       0.150025         4.0824
  37   0.0000       0.159313         4.3351
  38   0.0000       0.159455         4.3390
  39   0.0000       0.173846         4.7306

MULLIKEN ATOMIC CHARGES
-----------------------
   0 C :   -0.409542
   1 C :   -0.220824
   2 C :   -0.013788
   3 C :   -0.275781
   4 C :   -0.191445
   5 C :   -0.178979
   6 C :   -0.211616
   7 C :    0.023976
   8 C :   -0.449102
   9 H :    0.122904
  10 H :    0.136052
  11 H :    0.134051
  12 H :    0.114740
  13 H :    0.116964
  14 H :    0.087974
  15 H :    0.128969
  16 H :    0.106443
  17 H :    0.104652
  18 H :    0.121304
  19 H :    0.121411
  20 H :    0.111917
  21 H :    0.108099
  22 H :    0.132766
  23 H :    0.144374
  24 H :    0.134480
Sum of atomic charges:    0.0000000

LOEWDIN ATOMIC CHARGES
----------------------
   0 C :   -0.319577
   1 C :   -0.267570
   2 C :   -0.217955
   3 C :   -0.235722
   4 C :   -0.258642
   5 C :   -0.258391
   6 C :   -0.152416
   7 C :   -0.172956
   8 C :   -0.275850
   9 H :    0.121185
  10 H :    0.121118
  11 H :    0.119681
  12 H :    0.138293
  13 H :    0.138030
  14 H :    0.159315
  15 H :    0.137523
  16 H :    0.143204
  17 H :    0.139895
  18 H :    0.134262
  19 H :    0.140641
  20 H :    0.142431
  21 H :    0.141042
  22 H :    0.127333
  23 H :    0.126798
  24 H :    0.128327

  Mayer bond orders larger than 0.1
B(  0-C ,  1-C ) :   0.9084 B(  0-C ,  9-H ) :   0.9374 B(  0-C , 10-H ) :   0.9417
B(  0-C , 11-H ) :   0.9424 B(  1-C ,  2-C ) :   0.9034 B(  1-C , 12-H ) :   0.9288
B(  1-C , 13-H ) :   0.9369 B(  2-C ,  3-C ) :   0.9267 B(  2-C ,  7-C ) :   0.9180
B(  2-C , 14-H ) :   0.9046 B(  3-C ,  4-C ) :   0.9173 B(  3-C , 15-H ) :   0.9339
B(  3-C , 16-H ) :   0.9275 B(  4-C ,  5-C ) :   0.9440 B(  4-C , 17-H ) :   0.9315
B(  4-C , 18-H ) :   0.9372 B(  5-C ,  6-C ) :   0.9347 B(  5-C , 19-H ) :   0.9302
B(  5-C , 20-H ) :   0.9169 B(  6-C ,  7-C ) :   1.7673 B(  6-C , 21-H ) :   0.9239
B(  7-C ,  8-C ) :   0.8790 B(  8-C , 22-H ) :   0.9405 B(  8-C , 23-H ) :   0.9347
B(  8-C , 24-H ) :   0.9341

MP2 TOTAL ENERGY:     -351.735525723 Eh
FINAL SINGLE POINT ENERGY      -351.735525723107

DIPOLE MOMENT
-------------
                                X             Y             Z
Electronic contribution:      3.94888      -0.82212       1.05875
Nuclear contribution   :     -4.03579       0.81819      -1.03796
                        -----------------------------------------
Total Dipole Moment    :     -0.08692      -0.00393       0.02079
                        -----------------------------------------
Magnitude (a.u.)       :      0.08946
Magnitude (Debye)      :      0.22738

                             ****ORCA TERMINATED NORMALLY****
TOTAL RUN TIME: 0 days 0 hours 24 minutes 12 seconds 224 msec
