                         Program Version 3.0.3 - RELEASE   -
|  1> ! RI-MP2 RIJK def2-TZVP def2-TZVP/C def2-TZVP/JK TIGHTSCF
|  2> % maxcore 2000
|  3> % mp2 density relaxed end
|  4> *xyz 0 1
|  5>  O       -0.1453256581     1.4680554798     0.1482419500
|  6>  C        0.0166672415     0.0604442032     0.0127464359
|  7>  C        0.8296995099    -0.5590670662     1.1754738686
|  8>  C        0.4526195761    -2.0341637812     1.3965055418
|  9>  C       -0.0048955858    -2.6982569214     0.0611801906
| 10>  C       -1.3892096675    -2.0307667654     0.3283920266
| 11>  C       -1.0340799408    -2.1147972976     1.8380625454
| 12>  C       -1.3879710795    -0.5583221516    -0.1144983713
| 13>  H        0.7302314363     1.8682331267     0.1479345760
| 14>  H        0.5587484552    -0.1512513302    -0.9209944979
| 15>  H        1.9018766165    -0.4569816795     0.9635147637
| 16>  H        0.6272425435     0.0136615071     2.0888047848
| 17>  H        1.1978691640    -2.5553310019     2.0024729871
| 18>  H        0.5306898948    -2.4620515114    -0.8626241946
| 19>  H       -0.0661107666    -3.7848797773     0.1649607353
| 20>  H       -2.2856934450    -2.5516159136    -0.0162765309
| 21>  H       -1.2795713523    -3.0939653907     2.2591455523
| 22>  H       -1.4155083271    -1.3293646431     2.4985750039
| 23>  H       -2.0812810143     0.0184807083     0.5088656365
| 24>  H       -1.7323468807    -0.4551542240    -1.1492271740
| 25> *
| 26>
| 27>                          ****END OF INPUT****

CARTESIAN COORDINATES (ANGSTROEM)
---------------------------------
  O     -0.145326    1.468055    0.148242
  C      0.016667    0.060444    0.012746
  C      0.829700   -0.559067    1.175474
  C      0.452620   -2.034164    1.396506
  C     -0.004896   -2.698257    0.061180
  C     -1.389210   -2.030767    0.328392
  C     -1.034080   -2.114797    1.838063
  C     -1.387971   -0.558322   -0.114498
  H      0.730231    1.868233    0.147935
  H      0.558748   -0.151251   -0.920994
  H      1.901877   -0.456982    0.963515
  H      0.627243    0.013662    2.088805
  H      1.197869   -2.555331    2.002473
  H      0.530690   -2.462052   -0.862624
  H     -0.066111   -3.784880    0.164961
  H     -2.285693   -2.551616   -0.016277
  H     -1.279571   -3.093965    2.259146
  H     -1.415508   -1.329365    2.498575
  H     -2.081281    0.018481    0.508866
  H     -1.732347   -0.455154   -1.149227

 Total Charge           Charge          ....    0
 Multiplicity           Mult            ....    1
 Number of Electrons    NEL             ....   62
 Basis Dimension        Dim             ....  320

ORBITAL ENERGIES
----------------

  NO   OCC          E(Eh)            E(eV)
   0   2.0000     -20.549900      -559.1912
   1   2.0000     -11.274303      -306.7894
   2   2.0000     -11.228546      -305.5443
   3   2.0000     -11.226231      -305.4813
   4   2.0000     -11.219134      -305.2882
   5   2.0000     -11.217783      -305.2514
   6   2.0000     -11.214792      -305.1700
   7   2.0000     -11.212646      -305.1116
   8   2.0000      -1.355420       -36.8828
   9   2.0000      -1.158509       -31.5246
  10   2.0000      -1.007655       -27.4197
  11   2.0000      -0.988954       -26.9108
  12   2.0000      -0.895618       -24.3710
  13   2.0000      -0.818960       -22.2850
  14   2.0000      -0.809925       -22.0392
  15   2.0000      -0.708674       -19.2840
  16   2.0000      -0.691445       -18.8152
  17   2.0000      -0.678035       -18.4503
  18   2.0000      -0.617365       -16.7993
  19   2.0000      -0.596375       -16.2282
  20   2.0000      -0.576133       -15.6774
  21   2.0000      -0.563841       -15.3429
  22   2.0000      -0.546222       -14.8635
  23   2.0000      -0.519782       -14.1440
  24   2.0000      -0.505640       -13.7592
  25   2.0000      -0.477725       -12.9996
  26   2.0000      -0.460728       -12.5370
  27   2.0000      -0.448493       -12.2041
  28   2.0000      -0.434391       -11.8204
  29   2.0000      -0.413754       -11.2588
  30   2.0000      -0.403970       -10.9926
  31   0.0000       0.131116         3.5679
  32   0.0000       0.149448         4.0667
  33   0.0000       0.162865         4.4318
  34   0.0000       0.170412         4.6371
  35   0.0000       0.181368         4.9353

MULLIKEN ATOMIC CHARGES
-----------------------
   0 O :   -0.458224
   1 C :    0.059099
   2 C :   -0.320092
   3 C :    0.060386
   4 C :   -0.331751
   5 C :    0.046911
   6 C :   -0.337219
   7 C :   -0.261027
   8 H :    0.311495
   9 H :    0.080807
  10 H :    0.111148
  11 H :    0.114599
  12 H :    0.108761
  13 H :    0.114958
  14 H :    0.118800
  15 H :    0.109853
  16 H :    0.117728
  17 H :    0.115902
  18 H :    0.117811
  19 H :    0.120055
Sum of atomic charges:    0.0000000

LOEWDIN ATOMIC CHARGES
----------------------
   0 O :   -0.024952
   1 C :   -0.337590
   2 C :   -0.233040
   3 C :   -0.220058
   4 C :   -0.201120
   5 C :   -0.218895
   6 C :   -0.201725
   7 C :   -0.218165
   8 H :    0.172088
   9 H :    0.132161
  10 H :    0.134046
  11 H :    0.141726
  12 H :    0.133655
  13 H :    0.124239
  14 H :    0.136775
  15 H :    0.134390
  16 H :    0.135711
  17 H :    0.126355
  18 H :    0.145421
  19 H :    0.138977

  Mayer bond orders larger than 0.1
B(  0-O ,  1-C ) :   1.0298 B(  0-O ,  8-H ) :   0.8484 B(  1-C ,  2-C ) :   0.9510
B(  1-C ,  7-C ) :   0.9262 B(  1-C ,  9-H ) :   0.9510 B(  2-C ,  3-C ) :   0.8841
B(  2-C , 10-H ) :   0.9171 B(  2-C , 11-H ) :   0.9190 B(  3-C ,  4-C ) :   0.9010
B(  3-C ,  6-C ) :   0.8908 B(  3-C , 12-H ) :   0.9254 B(  4-C ,  5-C ) :   0.9057
B(  4-C , 13-H ) :   0.9239 B(  4-C , 14-H ) :   0.9249 B(  5-C ,  6-C ) :   0.8900
B(  5-C ,  7-C ) :   0.8907 B(  5-C , 15-H ) :   0.9305 B(  6-C , 16-H ) :   0.9225
B(  6-C , 17-H ) :   0.9282 B(  7-C , 18-H ) :   0.9234 B(  7-C , 19-H ) :   0.9260

MP2 TOTAL ENERGY:     -348.405777006 Eh
FINAL SINGLE POINT ENERGY      -348.405777006150

DIPOLE MOMENT
-------------
                                X             Y             Z
Electronic contribution:      0.02482       2.51956      -0.55277
Nuclear contribution   :      0.49662      -2.84970       0.52474
                        -----------------------------------------
Total Dipole Moment    :      0.52143      -0.33014      -0.02804
                        -----------------------------------------
Magnitude (a.u.)       :      0.61779
Magnitude (Debye)      :      1.57031

                             ****ORCA TERMINATED NORMALLY****
TOTAL RUN TIME: 0 days 0 hours 15 minutes 5 seconds 688 msec
