                         Program Version 3.0.3 - RELEASE   -
|  1> ! RI-MP2 RIJK def2-TZVP def2-TZVP/C def2-TZVP/JK TIGHTSCF
|  2> % maxcore 2000
|  3> % mp2 density relaxed end
|  4> *xyz 0 1
|  5>  C        0.0395888754     1.6361957989     0.1362171676
|  6>  C        0.0712206069     0.0943995424     0.1220352842
|  7>  C        0.8271246088    -0.4174938084     1.3649802979
|  8>  C       -1.3708490851    -0.4738187442     0.0966138555
|  9>  C       -2.2862490203    -0.1238260302     1.2665472604
| 10>  O       -3.5356233235    -0.7558960142     1.0120751287
| 11>  C        0.7529398440    -0.4185714737    -1.1722642795
| 12>  C        2.2029574013    -0.0086124925    -1.4143000988
| 13>  O        2.5938696631    -0.5967709472    -2.6498005720
| 14>  H        1.0490227617     2.0585392027     0.1297381859
| 15>  H       -0.4929574490     2.0289658118    -0.7371002431
| 16>  H       -0.4590760433     2.0192909929     1.0317342596
| 17>  H        0.3475369640    -0.0864001232     2.2911270066
| 18>  H        0.8659133730    -1.5123862869     1.3812691299
| 19>  H        1.8562006812    -0.0463458353     1.3901102417
| 20>  H       -1.8707294231    -0.1391928698    -0.8209054423
| 21>  H       -1.3227731638    -1.5681772705     0.0353238206
| 22>  H       -1.8574898153    -0.4783239328     2.2161581076
| 23>  H       -2.4119728729     0.9663469316     1.3500864769
| 24>  H       -4.1287606633    -0.5480303088     1.7397238110
| 25>  H        0.7169062761    -1.5150388555    -1.1847497161
| 26>  H        0.1698792513    -0.0849220935    -2.0396789560
| 27>  H        2.2956806855     1.0871466748    -1.4588018454
| 28>  H        2.8487968855    -0.3594826554    -0.5951296502
| 29>  H        3.5071727816    -0.3502144631    -2.8217892807
| 30> *
| 31>
| 32>                          ****END OF INPUT****

CARTESIAN COORDINATES (ANGSTROEM)
---------------------------------
  C      0.039589    1.636196    0.136217
  C      0.071221    0.094400    0.122035
  C      0.827125   -0.417494    1.364980
  C     -1.370849   -0.473819    0.096614
  C     -2.286249   -0.123826    1.266547
  O     -3.535623   -0.755896    1.012075
  C      0.752940   -0.418571   -1.172264
  C      2.202957   -0.008612   -1.414300
  O      2.593870   -0.596771   -2.649801
  H      1.049023    2.058539    0.129738
  H     -0.492957    2.028966   -0.737100
  H     -0.459076    2.019291    1.031734
  H      0.347537   -0.086400    2.291127
  H      0.865913   -1.512386    1.381269
  H      1.856201   -0.046346    1.390110
  H     -1.870729   -0.139193   -0.820905
  H     -1.322773   -1.568177    0.035324
  H     -1.857490   -0.478324    2.216158
  H     -2.411973    0.966347    1.350086
  H     -4.128761   -0.548030    1.739724
  H      0.716906   -1.515039   -1.184750
  H      0.169879   -0.084922   -2.039679
  H      2.295681    1.087147   -1.458802
  H      2.848797   -0.359483   -0.595130
  H      3.507173   -0.350214   -2.821789

 Total Charge           Charge          ....    0
 Multiplicity           Mult            ....    1
 Number of Electrons    NEL             ....   74
 Basis Dimension        Dim             ....  375

ORBITAL ENERGIES
----------------

  NO   OCC          E(Eh)            E(eV)
   0   2.0000     -20.551641      -559.2386
   1   2.0000     -20.551641      -559.2386
   2   2.0000     -11.271268      -306.7068
   3   2.0000     -11.271267      -306.7068
   4   2.0000     -11.238404      -305.8125
   5   2.0000     -11.213559      -305.1365
   6   2.0000     -11.213541      -305.1360
   7   2.0000     -11.212960      -305.1202
   8   2.0000     -11.212943      -305.1197
   9   2.0000      -1.355002       -36.8715
  10   2.0000      -1.354915       -36.8691
  11   2.0000      -1.112260       -30.2661
  12   2.0000      -1.001260       -27.2457
  13   2.0000      -0.966571       -26.3017
  14   2.0000      -0.933397       -25.3990
  15   2.0000      -0.875489       -23.8233
  16   2.0000      -0.812103       -22.0984
  17   2.0000      -0.736266       -20.0348
  18   2.0000      -0.700640       -19.0654
  19   2.0000      -0.675931       -18.3930
  20   2.0000      -0.652712       -17.7612
  21   2.0000      -0.645240       -17.5579
  22   2.0000      -0.600225       -16.3330
  23   2.0000      -0.599228       -16.3058
  24   2.0000      -0.588276       -16.0078
  25   2.0000      -0.566212       -15.4074
  26   2.0000      -0.547506       -14.8984
  27   2.0000      -0.538510       -14.6536
  28   2.0000      -0.510306       -13.8861
  29   2.0000      -0.507649       -13.8138
  30   2.0000      -0.502921       -13.6852
  31   2.0000      -0.487121       -13.2552
  32   2.0000      -0.458539       -12.4775
  33   2.0000      -0.448350       -12.2002
  34   2.0000      -0.439849       -11.9689
  35   2.0000      -0.439713       -11.9652
  36   2.0000      -0.436889       -11.8883
  37   0.0000       0.127324         3.4647
  38   0.0000       0.141394         3.8475
  39   0.0000       0.147280         4.0077
  40   0.0000       0.171744         4.6734
  41   0.0000       0.173296         4.7156

MULLIKEN ATOMIC CHARGES
-----------------------
   0 C :   -0.457732
   1 C :    0.096677
   2 C :   -0.457753
   3 C :   -0.164988
   4 C :   -0.107532
   5 O :   -0.462993
   6 C :   -0.164990
   7 C :   -0.107532
   8 O :   -0.462993
   9 H :    0.130870
  10 H :    0.137780
  11 H :    0.130903
  12 H :    0.130875
  13 H :    0.137777
  14 H :    0.130909
  15 H :    0.118443
  16 H :    0.118425
  17 H :    0.097855
  18 H :    0.097923
  19 H :    0.312715
  20 H :    0.118434
  21 H :    0.118434
  22 H :    0.097845
  23 H :    0.097934
  24 H :    0.312715
Sum of atomic charges:   -0.0000000

LOEWDIN ATOMIC CHARGES
----------------------
   0 C :   -0.271376
   1 C :   -0.321682
   2 C :   -0.271377
   3 C :   -0.230589
   4 C :   -0.348243
   5 O :   -0.052022
   6 C :   -0.230588
   7 C :   -0.348243
   8 O :   -0.052022
   9 H :    0.122255
  10 H :    0.128340
  11 H :    0.122270
  12 H :    0.122257
  13 H :    0.128339
  14 H :    0.122272
  15 H :    0.146364
  16 H :    0.146357
  17 H :    0.113566
  18 H :    0.113578
  19 H :    0.170340
  20 H :    0.146361
  21 H :    0.146361
  22 H :    0.113565
  23 H :    0.113579
  24 H :    0.170340

  Mayer bond orders larger than 0.1
B(  0-C ,  1-C ) :   0.9030 B(  0-C ,  9-H ) :   0.9374 B(  0-C , 10-H ) :   0.9338
B(  0-C , 11-H ) :   0.9374 B(  1-C ,  2-C ) :   0.9030 B(  1-C ,  3-C ) :   0.8860
B(  1-C ,  6-C ) :   0.8860 B(  2-C , 12-H ) :   0.9374 B(  2-C , 13-H ) :   0.9338
B(  2-C , 14-H ) :   0.9374 B(  3-C ,  4-C ) :   0.9178 B(  3-C ,  5-O ) :  -0.1029
B(  3-C , 15-H ) :   0.9235 B(  3-C , 16-H ) :   0.9235 B(  4-C ,  5-O ) :   1.0247
B(  4-C , 17-H ) :   0.9346 B(  4-C , 18-H ) :   0.9346 B(  5-O , 19-H ) :   0.8504
B(  6-C ,  7-C ) :   0.9178 B(  6-C ,  8-O ) :  -0.1029 B(  6-C , 20-H ) :   0.9235
B(  6-C , 21-H ) :   0.9235 B(  7-C ,  8-O ) :   1.0247 B(  7-C , 22-H ) :   0.9346
B(  7-C , 23-H ) :   0.9346 B(  8-O , 24-H ) :   0.8504

MP2 TOTAL ENERGY:     -425.926746287 Eh
FINAL SINGLE POINT ENERGY      -425.926746287074

DIPOLE MOMENT
-------------
                                X             Y             Z
Electronic contribution:     -1.81380      -2.57861      -3.14816
Nuclear contribution   :      2.29358       3.26016       3.98087
                        -----------------------------------------
Total Dipole Moment    :      0.47978       0.68155       0.83270
                        -----------------------------------------
Magnitude (a.u.)       :      1.17818
Magnitude (Debye)      :      2.99469

                             ****ORCA TERMINATED NORMALLY****
TOTAL RUN TIME: 0 days 0 hours 19 minutes 21 seconds 650 msec
