                         Program Version 3.0.3 - RELEASE   -
|  1> ! RI-MP2 RIJK def2-TZVP def2-TZVP/C def2-TZVP/JK TIGHTSCF
|  2> % maxcore 2000
|  3> % mp2 density relaxed end
|  4> *xyz 0 1
|  5>  C        0.0103168358     1.5267354067    -0.0033559014
|  6>  C        0.0596071135    -0.0178796032     0.0793973782
|  7>  C        0.7492758286    -0.4248222678     1.4016387994
|  8>  C       -1.3188039991    -0.5382605850     0.0782507787
|  9>  C       -2.4402353923    -0.9767716666     0.0652204968
| 10>  C        0.7690311177    -0.5562096834    -1.1819809586
| 11>  C        2.1188628317    -1.2470063849    -1.1711054948
| 12>  C        0.8779812681    -2.0345978507    -1.4712586616
| 13>  O        0.4637141801    -2.9579594796    -0.5070831420
| 14>  H        1.0283459454     1.9273210037    -0.0382260745
| 15>  H       -0.5226328229     1.8559425988    -0.8996562159
| 16>  H       -0.4988777590     1.9456933922     0.8691222892
| 17>  H        0.1678814759    -0.0559022999     2.2512966811
| 18>  H        0.8383930809    -1.5087538393     1.4828766597
| 19>  H        1.7487248598     0.0175096990     1.4532617397
| 20>  H       -3.4380328009    -1.3410364198     0.0593340012
| 21>  H        0.5667610852     0.0569975921    -2.0559964481
| 22>  H        2.8126304272    -1.0322427150    -1.9764745414
| 23>  H        2.5860845957    -1.4454315892    -0.2142334713
| 24>  H        0.7136983507    -2.3537895409    -2.5003895973
| 25>  H       -0.4813604821    -2.8164140373    -0.3650860572
| 26> *
| 27>
| 28>                          ****END OF INPUT****

CARTESIAN COORDINATES (ANGSTROEM)
---------------------------------
  C      0.010317    1.526735   -0.003356
  C      0.059607   -0.017880    0.079397
  C      0.749276   -0.424822    1.401639
  C     -1.318804   -0.538261    0.078251
  C     -2.440235   -0.976772    0.065220
  C      0.769031   -0.556210   -1.181981
  C      2.118863   -1.247006   -1.171105
  C      0.877981   -2.034598   -1.471259
  O      0.463714   -2.957959   -0.507083
  H      1.028346    1.927321   -0.038226
  H     -0.522633    1.855943   -0.899656
  H     -0.498878    1.945693    0.869122
  H      0.167881   -0.055902    2.251297
  H      0.838393   -1.508754    1.482877
  H      1.748725    0.017510    1.453262
  H     -3.438033   -1.341036    0.059334
  H      0.566761    0.056998   -2.055996
  H      2.812630   -1.032243   -1.976475
  H      2.586085   -1.445432   -0.214233
  H      0.713698   -2.353790   -2.500390
  H     -0.481360   -2.816414   -0.365086

 Total Charge           Charge          ....    0
 Multiplicity           Mult            ....    1
 Number of Electrons    NEL             ....   68
 Basis Dimension        Dim             ....  351

ORBITAL ENERGIES
----------------

  NO   OCC          E(Eh)            E(eV)
   0   2.0000     -20.554970      -559.3292
   1   2.0000     -11.279286      -306.9250
   2   2.0000     -11.272107      -306.7296
   3   2.0000     -11.238016      -305.8020
   4   2.0000     -11.237517      -305.7884
   5   2.0000     -11.225921      -305.4728
   6   2.0000     -11.225516      -305.4618
   7   2.0000     -11.225080      -305.4500
   8   2.0000     -11.218555      -305.2724
   9   2.0000      -1.366486       -37.1840
  10   2.0000      -1.151075       -31.3224
  11   2.0000      -1.087284       -29.5865
  12   2.0000      -1.008699       -27.4481
  13   2.0000      -0.939769       -25.5724
  14   2.0000      -0.874638       -23.8001
  15   2.0000      -0.813996       -22.1500
  16   2.0000      -0.791234       -21.5306
  17   2.0000      -0.719677       -19.5834
  18   2.0000      -0.694178       -18.8896
  19   2.0000      -0.675983       -18.3944
  20   2.0000      -0.636004       -17.3065
  21   2.0000      -0.622491       -16.9388
  22   2.0000      -0.577425       -15.7125
  23   2.0000      -0.567702       -15.4480
  24   2.0000      -0.548858       -14.9352
  25   2.0000      -0.534440       -14.5429
  26   2.0000      -0.528546       -14.3825
  27   2.0000      -0.512238       -13.9387
  28   2.0000      -0.491666       -13.3789
  29   2.0000      -0.485431       -13.2093
  30   2.0000      -0.418249       -11.3811
  31   2.0000      -0.402060       -10.9406
  32   2.0000      -0.386842       -10.5265
  33   2.0000      -0.385509       -10.4902
  34   0.0000       0.132899         3.6164
  35   0.0000       0.152995         4.1632
  36   0.0000       0.160921         4.3789
  37   0.0000       0.168042         4.5727
  38   0.0000       0.172891         4.7046

MULLIKEN ATOMIC CHARGES
-----------------------
   0 C :   -0.412300
   1 C :    0.070592
   2 C :   -0.437537
   3 C :   -0.118258
   4 C :   -0.152212
   5 C :   -0.166961
   6 C :   -0.254922
   7 C :    0.060442
   8 O :   -0.472370
   9 H :    0.141268
  10 H :    0.137488
  11 H :    0.138905
  12 H :    0.138082
  13 H :    0.162076
  14 H :    0.138877
  15 H :    0.192092
  16 H :    0.114797
  17 H :    0.131715
  18 H :    0.144794
  19 H :    0.109845
  20 H :    0.333586
Sum of atomic charges:   -0.0000000

LOEWDIN ATOMIC CHARGES
----------------------
   0 C :   -0.247735
   1 C :   -0.290835
   2 C :   -0.251353
   3 C :   -0.069756
   4 C :   -0.108300
   5 C :   -0.164834
   6 C :   -0.202892
   7 C :   -0.314385
   8 O :    0.003501
   9 H :    0.129121
  10 H :    0.127875
  11 H :    0.129024
  12 H :    0.129881
  13 H :    0.131239
  14 H :    0.127234
  15 H :    0.127555
  16 H :    0.155129
  17 H :    0.132736
  18 H :    0.142229
  19 H :    0.130692
  20 H :    0.183876

  Mayer bond orders larger than 0.1
B(  0-C ,  1-C ) :   0.8991 B(  0-C ,  9-H ) :   0.9364 B(  0-C , 10-H ) :   0.9326
B(  0-C , 11-H ) :   0.9363 B(  1-C ,  2-C ) :   0.8669 B(  1-C ,  3-C ) :   1.1959
B(  1-C ,  4-C ) :  -0.1176 B(  1-C ,  5-C ) :   0.8271 B(  2-C , 12-H ) :   0.9281
B(  2-C , 13-H ) :   0.9255 B(  2-C , 14-H ) :   0.9379 B(  3-C ,  4-C ) :   2.5553
B(  4-C , 15-H ) :   0.8856 B(  5-C ,  6-C ) :   0.8980 B(  5-C ,  7-C ) :   0.8767
B(  5-C , 16-H ) :   0.9175 B(  6-C ,  7-C ) :   0.8753 B(  6-C , 17-H ) :   0.9241
B(  6-C , 18-H ) :   0.9167 B(  7-C ,  8-O ) :   0.9861 B(  7-C , 19-H ) :   0.9626
B(  8-O , 20-H ) :   0.8279

MP2 TOTAL ENERGY:     -386.360774137 Eh
FINAL SINGLE POINT ENERGY      -386.360774137015

DIPOLE MOMENT
-------------
                                X             Y             Z
Electronic contribution:     -3.29889      -4.35028      -1.68276
Nuclear contribution   :      3.10776       4.88477       1.49352
                        -----------------------------------------
Total Dipole Moment    :     -0.19113       0.53449      -0.18924
                        -----------------------------------------
Magnitude (a.u.)       :      0.59835
Magnitude (Debye)      :      1.52089

                             ****ORCA TERMINATED NORMALLY****
TOTAL RUN TIME: 0 days 0 hours 22 minutes 29 seconds 305 msec
