                         Program Version 3.0.3 - RELEASE   -
|  1> ! RI-MP2 RIJK def2-TZVP def2-TZVP/C def2-TZVP/JK TIGHTSCF
|  2> % maxcore 2000
|  3> % mp2 density relaxed end
|  4> *xyz 0 1
|  5>  C        0.2503440790     1.5259824780     0.0388050082
|  6>  C        0.0967394970     0.0020069382     0.0235076615
|  7>  C        0.4770182099    -0.5966209991    -1.3127335446
|  8>  O        1.9020746328    -0.4083793882    -1.6277440206
|  9>  C        2.1364514226    -1.7599118111    -1.6816952091
| 10>  N        3.1731408801    -2.4238825331    -1.8886495329
| 11>  C        0.6774837072    -2.1414335396    -1.4253602234
| 12>  C        0.3907106420    -2.9578321305    -0.2598288463
| 13>  N        0.1451754757    -3.5922835239     0.6740864466
| 14>  H        1.2824724241     1.8132221984    -0.1802953966
| 15>  H       -0.3977193973     1.9994706452    -0.7065971576
| 16>  H       -0.0151338777     1.9304939157     1.0189482153
| 17>  H        0.7122422728    -0.4525260063     0.8075951258
| 18>  H       -0.9410986393    -0.2825960910     0.2366573628
| 19>  H       -0.1256318058    -0.1862070347    -2.1284145568
| 20>  H        3.9873174364    -1.8262285396    -2.0377589535
| 21>  H        0.2056325804    -2.5793135684    -2.3084464586
| 22> *
| 23>
| 24>                          ****END OF INPUT****

CARTESIAN COORDINATES (ANGSTROEM)
---------------------------------
  C      0.250344    1.525982    0.038805
  C      0.096739    0.002007    0.023508
  C      0.477018   -0.596621   -1.312734
  O      1.902075   -0.408379   -1.627744
  C      2.136451   -1.759912   -1.681695
  N      3.173141   -2.423883   -1.888650
  C      0.677484   -2.141434   -1.425360
  C      0.390711   -2.957832   -0.259829
  N      0.145175   -3.592284    0.674086
  H      1.282472    1.813222   -0.180295
  H     -0.397719    1.999471   -0.706597
  H     -0.015134    1.930494    1.018948
  H      0.712242   -0.452526    0.807595
  H     -0.941099   -0.282596    0.236657
  H     -0.125632   -0.186207   -2.128415
  H      3.987317   -1.826229   -2.037759
  H      0.205633   -2.579314   -2.308446

 Total Charge           Charge          ....    0
 Multiplicity           Mult            ....    1
 Number of Electrons    NEL             ....   66
 Basis Dimension        Dim             ....  327

ORBITAL ENERGIES
----------------

  NO   OCC          E(Eh)            E(eV)
   0   2.0000     -20.615395      -560.9734
   1   2.0000     -15.586019      -424.1171
   2   2.0000     -15.560752      -423.4296
   3   2.0000     -11.369400      -309.3771
   4   2.0000     -11.337127      -308.4989
   5   2.0000     -11.313829      -307.8649
   6   2.0000     -11.289384      -307.1997
   7   2.0000     -11.252577      -306.1982
   8   2.0000     -11.234930      -305.7180
   9   2.0000      -1.461023       -39.7565
  10   2.0000      -1.234283       -33.5865
  11   2.0000      -1.222746       -33.2726
  12   2.0000      -1.108389       -30.1608
  13   2.0000      -1.060546       -28.8589
  14   2.0000      -0.932472       -25.3739
  15   2.0000      -0.843742       -22.9594
  16   2.0000      -0.826489       -22.4899
  17   2.0000      -0.732527       -19.9331
  18   2.0000      -0.731441       -19.9035
  19   2.0000      -0.694181       -18.8896
  20   2.0000      -0.637470       -17.3464
  21   2.0000      -0.619538       -16.8585
  22   2.0000      -0.604141       -16.4395
  23   2.0000      -0.573526       -15.6064
  24   2.0000      -0.567849       -15.4519
  25   2.0000      -0.555895       -15.1267
  26   2.0000      -0.519550       -14.1377
  27   2.0000      -0.514575       -14.0023
  28   2.0000      -0.513140       -13.9632
  29   2.0000      -0.480190       -13.0666
  30   2.0000      -0.467723       -12.7274
  31   2.0000      -0.451423       -12.2839
  32   2.0000      -0.425650       -11.5825
  33   0.0000       0.113333         3.0839
  34   0.0000       0.133609         3.6357
  35   0.0000       0.151846         4.1319
  36   0.0000       0.153768         4.1842
  37   0.0000       0.163241         4.4420

MULLIKEN ATOMIC CHARGES
-----------------------
   0 C :   -0.401664
   1 C :   -0.210975
   2 C :    0.059094
   3 O :   -0.263282
   4 C :    0.114216
   5 N :   -0.344403
   6 C :    0.104983
   7 C :   -0.228329
   8 N :   -0.044151
   9 H :    0.148313
  10 H :    0.125671
  11 H :    0.146171
  12 H :    0.136445
  13 H :    0.130188
  14 H :    0.120412
  15 H :    0.238509
  16 H :    0.168801
Sum of atomic charges:   -0.0000000

LOEWDIN ATOMIC CHARGES
----------------------
   0 C :   -0.308247
   1 C :   -0.269885
   2 C :   -0.206665
   3 O :    0.241646
   4 C :   -0.376287
   5 N :   -0.028338
   6 C :   -0.159736
   7 C :   -0.162490
   8 N :    0.079706
   9 H :    0.128106
  10 H :    0.123128
  11 H :    0.126473
  12 H :    0.151218
  13 H :    0.151351
  14 H :    0.145565
  15 H :    0.179469
  16 H :    0.184986

  Mayer bond orders larger than 0.1
B(  0-C ,  1-C ) :   0.9160 B(  0-C ,  9-H ) :   0.9357 B(  0-C , 10-H ) :   0.9352
B(  0-C , 11-H ) :   0.9391 B(  1-C ,  2-C ) :   0.9496 B(  1-C , 12-H ) :   0.9200
B(  1-C , 13-H ) :   0.9181 B(  2-C ,  3-O ) :   0.8587 B(  2-C ,  6-C ) :   0.9092
B(  2-C , 14-H ) :   0.9127 B(  3-O ,  4-C ) :   1.0757 B(  4-C ,  5-N ) :   2.0947
B(  4-C ,  6-C ) :   0.8459 B(  5-N , 15-H ) :   0.8401 B(  6-C ,  7-C ) :   0.9252
B(  6-C , 16-H ) :   0.8911 B(  7-C ,  8-N ) :   2.8387

MP2 TOTAL ENERGY:     -417.313077375 Eh
FINAL SINGLE POINT ENERGY      -417.313077374519

DIPOLE MOMENT
-------------
                                X             Y             Z
Electronic contribution:      2.89798      -8.71830      -2.08960
Nuclear contribution   :     -3.42591      10.15385       1.29884
                        -----------------------------------------
Total Dipole Moment    :     -0.52793       1.43555      -0.79076
                        -----------------------------------------
Magnitude (a.u.)       :      1.72186
Magnitude (Debye)      :      4.37662

                             ****ORCA TERMINATED NORMALLY****
TOTAL RUN TIME: 0 days 0 hours 25 minutes 45 seconds 654 msec
