                         Program Version 3.0.3 - RELEASE   -
|  1> ! RI-MP2 RIJK def2-TZVP def2-TZVP/C def2-TZVP/JK TIGHTSCF
|  2> % maxcore 2000
|  3> % mp2 density relaxed end
|  4> *xyz 0 1
|  5>  O       -0.0048943077     1.3978573771     0.2642275964
|  6>  C       -0.0373375333     0.0313164358    -0.1135922256
|  7>  C       -1.4111959538    -0.5484696541    -0.0095608868
|  8>  O       -2.3573146691     0.0805556375    -0.8699821989
|  9>  C       -3.5328158078    -0.6713709928    -0.5182787536
| 10>  C       -3.0661195395    -2.1312732254    -0.7162008663
| 11>  C       -1.8125887780    -1.9973714028     0.1422341888
| 12>  C       -2.1388323567    -0.9780627826     1.2427365967
| 13>  C       -3.5786175065    -0.5325394680     1.0196138600
| 14>  H       -0.7074541313     1.8316943120    -0.2328842666
| 15>  H        0.3379381209    -0.1057249132    -1.1404093353
| 16>  H        0.6396322957    -0.5019157153     0.5610868240
| 17>  H       -4.3853798681    -0.3194027281    -1.0950686665
| 18>  H       -3.7861317555    -2.8600030361    -0.3333044605
| 19>  H       -2.8449080250    -2.3527577375    -1.7638336918
| 20>  H       -1.0936707012    -2.7940274445     0.2791202234
| 21>  H       -1.6588098533    -0.9932936513     2.2116649332
| 22>  H       -3.7571443519     0.4995272026     1.3335522727
| 23>  H       -4.3235546380    -1.1878713732     1.4798272567
| 24> *
| 25>
| 26>                          ****END OF INPUT****

CARTESIAN COORDINATES (ANGSTROEM)
---------------------------------
  O     -0.004894    1.397857    0.264228
  C     -0.037338    0.031316   -0.113592
  C     -1.411196   -0.548470   -0.009561
  O     -2.357315    0.080556   -0.869982
  C     -3.532816   -0.671371   -0.518279
  C     -3.066120   -2.131273   -0.716201
  C     -1.812589   -1.997371    0.142234
  C     -2.138832   -0.978063    1.242737
  C     -3.578618   -0.532539    1.019614
  H     -0.707454    1.831694   -0.232884
  H      0.337938   -0.105725   -1.140409
  H      0.639632   -0.501916    0.561087
  H     -4.385380   -0.319403   -1.095069
  H     -3.786132   -2.860003   -0.333304
  H     -2.844908   -2.352758   -1.763834
  H     -1.093671   -2.794027    0.279120
  H     -1.658810   -0.993294    2.211665
  H     -3.757144    0.499527    1.333552
  H     -4.323555   -1.187871    1.479827

 Total Charge           Charge          ....    0
 Multiplicity           Mult            ....    1
 Number of Electrons    NEL             ....   68
 Basis Dimension        Dim             ....  339

ORBITAL ENERGIES
----------------

  NO   OCC          E(Eh)            E(eV)
   0   2.0000     -20.561103      -559.4961
   1   2.0000     -20.549191      -559.1719
   2   2.0000     -11.286084      -307.1100
   3   2.0000     -11.282286      -307.0066
   4   2.0000     -11.278184      -306.8950
   5   2.0000     -11.236985      -305.7739
   6   2.0000     -11.233617      -305.6823
   7   2.0000     -11.230727      -305.6036
   8   2.0000     -11.229317      -305.5652
   9   2.0000      -1.403589       -38.1936
  10   2.0000      -1.352636       -36.8071
  11   2.0000      -1.153905       -31.3994
  12   2.0000      -1.043780       -28.4027
  13   2.0000      -0.978642       -26.6302
  14   2.0000      -0.930688       -25.3253
  15   2.0000      -0.809983       -22.0408
  16   2.0000      -0.766582       -20.8598
  17   2.0000      -0.763432       -20.7740
  18   2.0000      -0.722761       -19.6673
  19   2.0000      -0.666437       -18.1347
  20   2.0000      -0.645123       -17.5547
  21   2.0000      -0.634007       -17.2522
  22   2.0000      -0.604863       -16.4592
  23   2.0000      -0.596232       -16.2243
  24   2.0000      -0.575874       -15.6703
  25   2.0000      -0.535263       -14.5653
  26   2.0000      -0.527247       -14.3471
  27   2.0000      -0.508298       -13.8315
  28   2.0000      -0.498633       -13.5685
  29   2.0000      -0.488928       -13.3044
  30   2.0000      -0.455569       -12.3967
  31   2.0000      -0.448020       -12.1912
  32   2.0000      -0.400968       -10.9109
  33   2.0000      -0.378295       -10.2939
  34   0.0000       0.137755         3.7485
  35   0.0000       0.159536         4.3412
  36   0.0000       0.166268         4.5244
  37   0.0000       0.177413         4.8276
  38   0.0000       0.184356         5.0166

MULLIKEN ATOMIC CHARGES
-----------------------
   0 O :   -0.469379
   1 C :   -0.022971
   2 C :    0.104147
   3 O :   -0.332862
   4 C :    0.036519
   5 C :   -0.226343
   6 C :   -0.168749
   7 C :   -0.131646
   8 C :   -0.237815
   9 H :    0.325276
  10 H :    0.108318
  11 H :    0.106791
  12 H :    0.137568
  13 H :    0.121443
  14 H :    0.122205
  15 H :    0.141480
  16 H :    0.142306
  17 H :    0.123180
  18 H :    0.120532
Sum of atomic charges:    0.0000000

LOEWDIN ATOMIC CHARGES
----------------------
   0 O :   -0.044430
   1 C :   -0.306274
   2 C :   -0.295956
   3 O :    0.209819
   4 C :   -0.270096
   5 C :   -0.207166
   6 C :   -0.158589
   7 C :   -0.157746
   8 C :   -0.207562
   9 H :    0.178494
  10 H :    0.127117
  11 H :    0.138079
  12 H :    0.138660
  13 H :    0.140840
  14 H :    0.141068
  15 H :    0.144862
  16 H :    0.146755
  17 H :    0.141691
  18 H :    0.140432

  Mayer bond orders larger than 0.1
B(  0-O ,  1-C ) :   0.9290 B(  0-O ,  9-H ) :   0.8367 B(  1-C ,  2-C ) :   0.9282
B(  1-C , 10-H ) :   0.9295 B(  1-C , 11-H ) :   0.9268 B(  2-C ,  3-O ) :   0.9745
B(  2-C ,  6-C ) :   0.8181 B(  2-C ,  7-C ) :   0.8502 B(  3-O ,  4-C ) :   0.9109
B(  4-C ,  5-C ) :   0.9483 B(  4-C ,  8-C ) :   0.9467 B(  4-C , 12-H ) :   0.9171
B(  5-C ,  6-C ) :   0.9506 B(  5-C , 13-H ) :   0.9244 B(  5-C , 14-H ) :   0.9221
B(  6-C ,  7-C ) :   0.8390 B(  6-C , 15-H ) :   0.9212 B(  7-C ,  8-C ) :   0.9576
B(  7-C , 16-H ) :   0.9152 B(  8-C , 17-H ) :   0.9234 B(  8-C , 18-H ) :   0.9250

MP2 TOTAL ENERGY:     -422.328729581 Eh
FINAL SINGLE POINT ENERGY      -422.328729580564

DIPOLE MOMENT
-------------
                                X             Y             Z
Electronic contribution:      1.27020       2.45526      -0.89958
Nuclear contribution   :     -1.88011      -3.20496       0.89759
                        -----------------------------------------
Total Dipole Moment    :     -0.60991      -0.74970      -0.00199
                        -----------------------------------------
Magnitude (a.u.)       :      0.96646
Magnitude (Debye)      :      2.45654

                             ****ORCA TERMINATED NORMALLY****
TOTAL RUN TIME: 0 days 0 hours 17 minutes 28 seconds 993 msec
