                         Program Version 3.0.3 - RELEASE   -
|  1> ! RI-MP2 RIJK def2-TZVP def2-TZVP/C def2-TZVP/JK TIGHTSCF
|  2> % maxcore 2000
|  3> % mp2 density relaxed end
|  4> *xyz 0 1
|  5>  C        0.0001803665     1.4789793304    -0.2007469285
|  6>  C        0.0555819800    -0.0265699165     0.1280368715
|  7>  C        0.7528106235    -0.2484504714     1.4032466699
|  8>  N        1.2914387765    -0.4177877908     2.4119584983
|  9>  C       -1.3354082302    -0.6494621538     0.1676554373
| 10>  C       -1.9923366394    -1.1216902397    -1.1081536916
| 11>  C       -1.5860685864    -2.1231754491    -0.0531402424
| 12>  C       -0.4775250436    -3.1236346480    -0.3031721647
| 13>  H        1.0027538480     1.9120267754    -0.2404930917
| 14>  H       -0.4848057519     1.6216970820    -1.1698582177
| 15>  H       -0.5755842499     2.0186990998     0.5563107060
| 16>  H        0.6494816106    -0.5258383623    -0.6460139910
| 17>  H       -1.9863768157    -0.1674710449     0.8923788127
| 18>  H       -3.0432522226    -0.9050536370    -1.2642240167
| 19>  H       -1.3960842902    -1.0916856819    -2.0161503001
| 20>  H       -2.4017486245    -2.5236222165     0.5431723215
| 21>  H        0.2955144810    -2.7273552636    -0.9685499274
| 22>  H        0.0081170523    -3.4232622025     0.6313234213
| 23>  H       -0.8777270839    -4.0257257495    -0.7779178566
| 24> *
| 25>
| 26>                          ****END OF INPUT****

CARTESIAN COORDINATES (ANGSTROEM)
---------------------------------
  C      0.000180    1.478979   -0.200747
  C      0.055582   -0.026570    0.128037
  C      0.752811   -0.248450    1.403247
  N      1.291439   -0.417788    2.411958
  C     -1.335408   -0.649462    0.167655
  C     -1.992337   -1.121690   -1.108154
  C     -1.586069   -2.123175   -0.053140
  C     -0.477525   -3.123635   -0.303172
  H      1.002754    1.912027   -0.240493
  H     -0.484806    1.621697   -1.169858
  H     -0.575584    2.018699    0.556311
  H      0.649482   -0.525838   -0.646014
  H     -1.986377   -0.167471    0.892379
  H     -3.043252   -0.905054   -1.264224
  H     -1.396084   -1.091686   -2.016150
  H     -2.401749   -2.523622    0.543172
  H      0.295514   -2.727355   -0.968550
  H      0.008117   -3.423262    0.631323
  H     -0.877727   -4.025726   -0.777918

 Total Charge           Charge          ....    0
 Multiplicity           Mult            ....    1
 Number of Electrons    NEL             ....   60
 Basis Dimension        Dim             ....  314

ORBITAL ENERGIES
----------------

  NO   OCC          E(Eh)            E(eV)
   0   2.0000     -15.562544      -423.4784
   1   2.0000     -11.286462      -307.1202
   2   2.0000     -11.265544      -306.5510
   3   2.0000     -11.251161      -306.1596
   4   2.0000     -11.245102      -305.9948
   5   2.0000     -11.241585      -305.8991
   6   2.0000     -11.237850      -305.7974
   7   2.0000     -11.226578      -305.4907
   8   2.0000      -1.214851       -33.0578
   9   2.0000      -1.170591       -31.8534
  10   2.0000      -1.073603       -29.2142
  11   2.0000      -0.973239       -26.4832
  12   2.0000      -0.914083       -24.8735
  13   2.0000      -0.821531       -22.3550
  14   2.0000      -0.786936       -21.4136
  15   2.0000      -0.714503       -19.4426
  16   2.0000      -0.662969       -18.0403
  17   2.0000      -0.641549       -17.4574
  18   2.0000      -0.594320       -16.1723
  19   2.0000      -0.572177       -15.5697
  20   2.0000      -0.568434       -15.4679
  21   2.0000      -0.559175       -15.2159
  22   2.0000      -0.550471       -14.9791
  23   2.0000      -0.535521       -14.5723
  24   2.0000      -0.522126       -14.2078
  25   2.0000      -0.504722       -13.7342
  26   2.0000      -0.456159       -12.4127
  27   2.0000      -0.451203       -12.2779
  28   2.0000      -0.423132       -11.5140
  29   2.0000      -0.412747       -11.2314
  30   0.0000       0.123668         3.3652
  31   0.0000       0.143885         3.9153
  32   0.0000       0.148316         4.0359
  33   0.0000       0.164523         4.4769
  34   0.0000       0.174701         4.7539

MULLIKEN ATOMIC CHARGES
-----------------------
   0 C :   -0.382988
   1 C :    0.031087
   2 C :   -0.197733
   3 N :   -0.059327
   4 C :   -0.119862
   5 C :   -0.287213
   6 C :   -0.059106
   7 C :   -0.406038
   8 H :    0.150809
   9 H :    0.144153
  10 H :    0.138787
  11 H :    0.120916
  12 H :    0.130082
  13 H :    0.139263
  14 H :    0.126055
  15 H :    0.123005
  16 H :    0.117605
  17 H :    0.149076
  18 H :    0.141428
Sum of atomic charges:    0.0000000

LOEWDIN ATOMIC CHARGES
----------------------
   0 C :   -0.260745
   1 C :   -0.251767
   2 C :   -0.165326
   3 N :    0.056563
   4 C :   -0.181011
   5 C :   -0.204756
   6 C :   -0.225934
   7 C :   -0.291703
   8 H :    0.129882
   9 H :    0.129587
  10 H :    0.130765
  11 H :    0.176000
  12 H :    0.155952
  13 H :    0.132694
  14 H :    0.136485
  15 H :    0.150891
  16 H :    0.122989
  17 H :    0.131134
  18 H :    0.128301

  Mayer bond orders larger than 0.1
B(  0-C ,  1-C ) :   0.9048 B(  0-C ,  8-H ) :   0.9351 B(  0-C ,  9-H ) :   0.9359
B(  0-C , 10-H ) :   0.9297 B(  1-C ,  2-C ) :   0.9201 B(  1-C ,  4-C ) :   0.9011
B(  1-C , 11-H ) :   0.9143 B(  2-C ,  3-N ) :   2.8851 B(  4-C ,  5-C ) :   0.8829
B(  4-C ,  6-C ) :   0.8854 B(  4-C , 12-H ) :   0.9155 B(  5-C ,  6-C ) :   0.8974
B(  5-C , 13-H ) :   0.9283 B(  5-C , 14-H ) :   0.9213 B(  6-C ,  7-C ) :   0.9102
B(  6-C , 15-H ) :   0.9276 B(  7-C , 16-H ) :   0.9365 B(  7-C , 17-H ) :   0.9364
B(  7-C , 18-H ) :   0.9354

MP2 TOTAL ENERGY:     -327.344174166 Eh
FINAL SINGLE POINT ENERGY      -327.344174166283

DIPOLE MOMENT
-------------
                                X             Y             Z
Electronic contribution:      3.10365       1.24601       5.65291
Nuclear contribution   :     -3.92293      -1.13566      -6.97942
                        -----------------------------------------
Total Dipole Moment    :     -0.81928       0.11035      -1.32652
                        -----------------------------------------
Magnitude (a.u.)       :      1.56302
Magnitude (Debye)      :      3.97289

                             ****ORCA TERMINATED NORMALLY****
TOTAL RUN TIME: 0 days 0 hours 13 minutes 25 seconds 804 msec
