                         Program Version 3.0.3 - RELEASE   -
|  1> ! RI-MP2 RIJK def2-TZVP def2-TZVP/C def2-TZVP/JK TIGHTSCF
|  2> % maxcore 2000
|  3> % mp2 density relaxed end
|  4> *xyz 0 1
|  5>  C       -0.0450309120     1.4906233449     0.0246888864
|  6>  N       -0.0046538104     0.0282804028     0.0035975078
|  7>  C       -0.0949649386    -0.6478603710     1.2261771211
|  8>  N       -0.2076763300     0.0104965152     2.3045315668
|  9>  C        0.1165991396    -0.7254105099    -1.1429577801
| 10>  O        0.1521316726    -1.9354969134    -1.1847389668
| 11>  C        0.2071886516     0.0462274059    -2.3963207774
| 12>  N        0.2842879263     0.5701362007    -3.4235180229
| 13>  H        0.0345160182     1.8730649423    -0.9914525747
| 14>  H       -0.9813648570     1.8249702096     0.4760493029
| 15>  H        0.7791477585     1.8713537443     0.6313338994
| 16>  H       -0.0557290863    -1.7297080035     1.1048345284
| 17>  H       -0.2613267424    -0.6233659880     3.1000243192
| 18> *
| 19>
| 20>                          ****END OF INPUT****

CARTESIAN COORDINATES (ANGSTROEM)
---------------------------------
  C     -0.045031    1.490623    0.024689
  N     -0.004654    0.028280    0.003598
  C     -0.094965   -0.647860    1.226177
  N     -0.207676    0.010497    2.304532
  C      0.116599   -0.725411   -1.142958
  O      0.152132   -1.935497   -1.184739
  C      0.207189    0.046227   -2.396321
  N      0.284288    0.570136   -3.423518
  H      0.034516    1.873065   -0.991453
  H     -0.981365    1.824970    0.476049
  H      0.779148    1.871354    0.631334
  H     -0.055729   -1.729708    1.104835
  H     -0.261327   -0.623366    3.100024

 Total Charge           Charge          ....    0
 Multiplicity           Mult            ....    1
 Number of Electrons    NEL             ....   58
 Basis Dimension        Dim             ....  278

ORBITAL ENERGIES
----------------

  NO   OCC          E(Eh)            E(eV)
   0   2.0000     -20.583149      -560.0960
   1   2.0000     -15.648197      -425.8091
   2   2.0000     -15.620096      -425.0444
   3   2.0000     -15.570886      -423.7054
   4   2.0000     -11.434456      -311.1474
   5   2.0000     -11.344063      -308.6877
   6   2.0000     -11.310695      -307.7797
   7   2.0000     -11.290057      -307.2181
   8   2.0000      -1.451383       -39.4941
   9   2.0000      -1.325430       -36.0668
  10   2.0000      -1.257109       -34.2077
  11   2.0000      -1.211437       -32.9649
  12   2.0000      -1.000440       -27.2234
  13   2.0000      -0.980056       -26.6687
  14   2.0000      -0.830784       -22.6068
  15   2.0000      -0.776855       -21.1393
  16   2.0000      -0.712452       -19.3868
  17   2.0000      -0.682744       -18.5784
  18   2.0000      -0.680303       -18.5120
  19   2.0000      -0.640964       -17.4415
  20   2.0000      -0.604285       -16.4434
  21   2.0000      -0.598311       -16.2809
  22   2.0000      -0.591803       -16.1038
  23   2.0000      -0.524401       -14.2697
  24   2.0000      -0.518152       -14.0996
  25   2.0000      -0.496779       -13.5180
  26   2.0000      -0.492610       -13.4046
  27   2.0000      -0.459929       -12.5153
  28   2.0000      -0.405724       -11.0403
  29   0.0000       0.057925         1.5762
  30   0.0000       0.129204         3.5158
  31   0.0000       0.147291         4.0080
  32   0.0000       0.153338         4.1725
  33   0.0000       0.158007         4.2996

MULLIKEN ATOMIC CHARGES
-----------------------
   0 C :   -0.315834
   1 N :   -0.070683
   2 C :    0.007625
   3 N :   -0.371973
   4 C :    0.379564
   5 O :   -0.302958
   6 C :   -0.185811
   7 N :   -0.036231
   8 H :    0.176735
   9 H :    0.161619
  10 H :    0.161601
  11 H :    0.162037
  12 H :    0.234308
Sum of atomic charges:    0.0000000

LOEWDIN ATOMIC CHARGES
----------------------
   0 C :   -0.258660
   1 N :    0.203414
   2 C :   -0.289353
   3 N :   -0.059018
   4 C :   -0.416477
   5 O :    0.151964
   6 C :   -0.138440
   7 N :    0.100153
   8 H :    0.135715
   9 H :    0.130457
  10 H :    0.130452
  11 H :    0.138073
  12 H :    0.171721

  Mayer bond orders larger than 0.1
B(  0-C ,  1-N ) :   0.8730 B(  0-C ,  8-H ) :   0.9075 B(  0-C ,  9-H ) :   0.9281
B(  0-C , 10-H ) :   0.9281 B(  1-N ,  2-C ) :   0.9689 B(  1-N ,  4-C ) :   1.1604
B(  2-C ,  3-N ) :   1.9038 B(  2-C , 11-H ) :   0.9163 B(  3-N , 12-H ) :   0.8588
B(  4-C ,  5-O ) :   1.8756 B(  4-C ,  6-C ) :   0.8736 B(  6-C ,  7-N ) :   2.7947

MP2 TOTAL ENERGY:     -394.157653521 Eh
FINAL SINGLE POINT ENERGY      -394.157653520873

DIPOLE MOMENT
-------------
                                X             Y             Z
Electronic contribution:      0.55476      -3.53283      -5.22027
Nuclear contribution   :     -0.67149       3.72452       6.48276
                        -----------------------------------------
Total Dipole Moment    :     -0.11673       0.19170       1.26249
                        -----------------------------------------
Magnitude (a.u.)       :      1.28228
Magnitude (Debye)      :      3.25930

                             ****ORCA TERMINATED NORMALLY****
TOTAL RUN TIME: 0 days 0 hours 9 minutes 55 seconds 397 msec
