                         Program Version 3.0.3 - RELEASE   -
|  1> ! RI-MP2 RIJK def2-TZVP def2-TZVP/C def2-TZVP/JK TIGHTSCF
|  2> % maxcore 2000
|  3> % mp2 density relaxed end
|  4> *xyz 0 1
|  5>  C        0.0933410355     1.6056151776    -0.0017846025
|  6>  C       -0.0458799554     0.0749301679    -0.0013471610
|  7>  O       -1.4349858749    -0.2734866621     0.0812546710
|  8>  C        0.6067652127    -0.4983226090    -1.2845973883
|  9>  C        0.1128944927    -1.8703481217    -1.7821620054
| 10>  C       -0.0740371508    -2.9920053054    -0.7391312912
| 11>  C        0.8695443871    -2.9598721545     0.4738740934
| 12>  C        0.4237174875    -1.9768051544     1.5683133486
| 13>  C        0.6139332030    -0.4835472564     1.2739241724
| 14>  H        1.1443967904     1.9105016029    -0.0442494128
| 15>  H       -0.4096721769     2.0390158680    -0.8748547877
| 16>  H       -0.3560323551     2.0326724559     0.8993121801
| 17>  H       -1.8863885804     0.1348674342    -0.6649239615
| 18>  H        0.4619676370     0.2175404106    -2.1049239084
| 19>  H        1.6903639517    -0.5305792450    -1.1200268867
| 20>  H       -0.8385285874    -1.7376077304    -2.3099974106
| 21>  H        0.8272318871    -2.2011843008    -2.5465356738
| 22>  H       -1.1012007142    -2.9573557236    -0.3616888895
| 23>  H        0.0315303012    -3.9534921004    -1.2554712224
| 24>  H        0.8965084358    -3.9631142082     0.9161863951
| 25>  H        1.9011922597    -2.7448472368     0.1608659727
| 26>  H       -0.6340999424    -2.1615512098     1.7886663926
| 27>  H        0.9727880330    -2.1985438069     2.4920601276
| 28>  H        1.6855968000    -0.2542574044     1.2135438925
| 29>  H        0.2246164831     0.0825148126     2.1287028659
| 30> *
| 31>
| 32>                          ****END OF INPUT****

CARTESIAN COORDINATES (ANGSTROEM)
---------------------------------
  C      0.093341    1.605615   -0.001785
  C     -0.045880    0.074930   -0.001347
  O     -1.434986   -0.273487    0.081255
  C      0.606765   -0.498323   -1.284597
  C      0.112894   -1.870348   -1.782162
  C     -0.074037   -2.992005   -0.739131
  C      0.869544   -2.959872    0.473874
  C      0.423717   -1.976805    1.568313
  C      0.613933   -0.483547    1.273924
  H      1.144397    1.910502   -0.044249
  H     -0.409672    2.039016   -0.874855
  H     -0.356032    2.032672    0.899312
  H     -1.886389    0.134867   -0.664924
  H      0.461968    0.217540   -2.104924
  H      1.690364   -0.530579   -1.120027
  H     -0.838529   -1.737608   -2.309997
  H      0.827232   -2.201184   -2.546536
  H     -1.101201   -2.957356   -0.361689
  H      0.031530   -3.953492   -1.255471
  H      0.896508   -3.963114    0.916186
  H      1.901192   -2.744847    0.160866
  H     -0.634100   -2.161551    1.788666
  H      0.972788   -2.198544    2.492060
  H      1.685597   -0.254257    1.213544
  H      0.224616    0.082515    2.128703

 Total Charge           Charge          ....    0
 Multiplicity           Mult            ....    1
 Number of Electrons    NEL             ....   72
 Basis Dimension        Dim             ....  375

ORBITAL ENERGIES
----------------

  NO   OCC          E(Eh)            E(eV)
   0   2.0000     -20.547300      -559.1205
   1   2.0000     -11.280637      -306.9617
   2   2.0000     -11.216195      -305.2082
   3   2.0000     -11.213986      -305.1481
   4   2.0000     -11.213780      -305.1425
   5   2.0000     -11.211584      -305.0827
   6   2.0000     -11.209689      -305.0311
   7   2.0000     -11.207805      -304.9799
   8   2.0000     -11.206094      -304.9333
   9   2.0000      -1.355204       -36.8770
  10   2.0000      -1.095357       -29.8062
  11   2.0000      -1.035670       -28.1820
  12   2.0000      -1.022556       -27.8252
  13   2.0000      -0.942536       -25.6477
  14   2.0000      -0.883170       -24.0323
  15   2.0000      -0.844016       -22.9668
  16   2.0000      -0.756063       -20.5735
  17   2.0000      -0.749615       -20.3981
  18   2.0000      -0.662317       -18.0226
  19   2.0000      -0.641916       -17.4674
  20   2.0000      -0.618858       -16.8400
  21   2.0000      -0.610575       -16.6146
  22   2.0000      -0.593569       -16.1518
  23   2.0000      -0.567939       -15.4544
  24   2.0000      -0.559384       -15.2216
  25   2.0000      -0.544495       -14.8165
  26   2.0000      -0.532045       -14.4777
  27   2.0000      -0.524917       -14.2837
  28   2.0000      -0.498096       -13.5539
  29   2.0000      -0.484197       -13.1757
  30   2.0000      -0.470548       -12.8043
  31   2.0000      -0.458015       -12.4632
  32   2.0000      -0.449372       -12.2280
  33   2.0000      -0.435882       -11.8610
  34   2.0000      -0.428811       -11.6686
  35   2.0000      -0.414736       -11.2855
  36   0.0000       0.122971         3.3462
  37   0.0000       0.154775         4.2116
  38   0.0000       0.156894         4.2693
  39   0.0000       0.167674         4.5626
  40   0.0000       0.184037         5.0079

MULLIKEN ATOMIC CHARGES
-----------------------
   0 C :   -0.396506
   1 C :    0.271785
   2 O :   -0.484456
   3 C :   -0.308374
   4 C :   -0.250409
   5 C :   -0.184833
   6 C :   -0.213940
   7 C :   -0.216436
   8 C :   -0.273260
   9 H :    0.127067
  10 H :    0.119562
  11 H :    0.142307
  12 H :    0.307890
  13 H :    0.121822
  14 H :    0.118413
  15 H :    0.100697
  16 H :    0.116237
  17 H :    0.110389
  18 H :    0.114752
  19 H :    0.119844
  20 H :    0.099081
  21 H :    0.117588
  22 H :    0.117942
  23 H :    0.111962
  24 H :    0.110876
Sum of atomic charges:    0.0000000

LOEWDIN ATOMIC CHARGES
----------------------
   0 C :   -0.283527
   1 C :   -0.394475
   2 O :    0.008674
   3 C :   -0.238811
   4 C :   -0.271426
   5 C :   -0.270564
   6 C :   -0.268228
   7 C :   -0.267100
   8 C :   -0.231452
   9 H :    0.128310
  10 H :    0.119687
  11 H :    0.126078
  12 H :    0.173765
  13 H :    0.140793
  14 H :    0.143277
  15 H :    0.134254
  16 H :    0.137362
  17 H :    0.139970
  18 H :    0.133959
  19 H :    0.137540
  20 H :    0.134415
  21 H :    0.142594
  22 H :    0.137394
  23 H :    0.142800
  24 H :    0.144710

  Mayer bond orders larger than 0.1
B(  0-C ,  1-C ) :   0.9180 B(  0-C ,  9-H ) :   0.9331 B(  0-C , 10-H ) :   0.9273
B(  0-C , 11-H ) :   0.9465 B(  1-C ,  2-O ) :   0.9009 B(  1-C ,  3-C ) :   0.9069
B(  1-C ,  8-C ) :   0.8965 B(  2-O , 12-H ) :   0.8451 B(  3-C ,  4-C ) :   0.9272
B(  3-C , 13-H ) :   0.9270 B(  3-C , 14-H ) :   0.9268 B(  4-C ,  5-C ) :   0.9269
B(  4-C , 15-H ) :   0.9366 B(  4-C , 16-H ) :   0.9377 B(  5-C ,  6-C ) :   0.9272
B(  5-C , 17-H ) :   0.9262 B(  5-C , 18-H ) :   0.9330 B(  6-C ,  7-C ) :   0.9231
B(  6-C , 19-H ) :   0.9356 B(  6-C , 20-H ) :   0.9315 B(  7-C ,  8-C ) :   0.9579
B(  7-C , 21-H ) :   0.9279 B(  7-C , 22-H ) :   0.9330 B(  8-C , 23-H ) :   0.9329
B(  8-C , 24-H ) :   0.9215

MP2 TOTAL ENERGY:     -388.846117745 Eh
FINAL SINGLE POINT ENERGY      -388.846117744792

DIPOLE MOMENT
-------------
                                X             Y             Z
Electronic contribution:     -2.57618       0.33628       0.45502
Nuclear contribution   :      2.78983      -0.03664      -0.83775
                        -----------------------------------------
Total Dipole Moment    :      0.21365       0.29964      -0.38273
                        -----------------------------------------
Magnitude (a.u.)       :      0.53096
Magnitude (Debye)      :      1.34958

                             ****ORCA TERMINATED NORMALLY****
TOTAL RUN TIME: 0 days 0 hours 23 minutes 14 seconds 468 msec
