                         Program Version 3.0.3 - RELEASE   -
|  1> ! RI-MP2 RIJK def2-TZVP def2-TZVP/C def2-TZVP/JK TIGHTSCF
|  2> % maxcore 2000
|  3> % mp2 density relaxed end
|  4> *xyz 0 1
|  5>  N       -0.1516014199     1.4357097261    -0.0486937985
|  6>  C       -0.0616561410     0.0295693140    -0.0069313270
|  7>  C       -1.1361570702    -0.8124546784    -0.0876738223
|  8>  O       -2.4439651603    -0.5729028317    -0.2159298203
|  9>  N       -0.6222531294    -2.0743611555    -0.0095879997
| 10>  C       -1.3277736388    -3.2936054427    -0.0468397211
| 11>  O       -0.8144997192    -4.3698663491     0.0267683644
| 12>  N        0.7626790406    -1.9941156415     0.1185093616
| 13>  N        1.0672798053    -0.7451267970     0.1172270165
| 14>  H        0.3730322023     1.8199558264    -0.8290164387
| 15>  H        0.2213440675     1.8585131666     0.7962524495
| 16>  H       -2.5379337904     0.3918562379    -0.2474692720
| 17>  H       -2.4107305365    -3.1126071751    -0.1527175523
| 18> *
| 19>
| 20>                          ****END OF INPUT****

CARTESIAN COORDINATES (ANGSTROEM)
---------------------------------
  N     -0.151601    1.435710   -0.048694
  C     -0.061656    0.029569   -0.006931
  C     -1.136157   -0.812455   -0.087674
  O     -2.443965   -0.572903   -0.215930
  N     -0.622253   -2.074361   -0.009588
  C     -1.327774   -3.293605   -0.046840
  O     -0.814500   -4.369866    0.026768
  N      0.762679   -1.994116    0.118509
  N      1.067280   -0.745127    0.117227
  H      0.373032    1.819956   -0.829016
  H      0.221344    1.858513    0.796252
  H     -2.537934    0.391856   -0.247469
  H     -2.410731   -3.112607   -0.152718

 Total Charge           Charge          ....    0
 Multiplicity           Mult            ....    1
 Number of Electrons    NEL             ....   66
 Basis Dimension        Dim             ....  303

ORBITAL ENERGIES
----------------

  NO   OCC          E(Eh)            E(eV)
   0   2.0000     -20.644658      -561.7697
   1   2.0000     -20.575769      -559.8951
   2   2.0000     -15.674998      -426.5384
   3   2.0000     -15.657739      -426.0688
   4   2.0000     -15.629034      -425.2876
   5   2.0000     -15.588876      -424.1949
   6   2.0000     -11.392091      -309.9946
   7   2.0000     -11.372990      -309.4748
   8   2.0000     -11.296743      -307.4000
   9   2.0000      -1.486018       -40.4366
  10   2.0000      -1.446675       -39.3660
  11   2.0000      -1.417372       -38.5686
  12   2.0000      -1.251787       -34.0629
  13   2.0000      -1.215750       -33.0822
  14   2.0000      -1.065577       -28.9958
  15   2.0000      -0.958212       -26.0743
  16   2.0000      -0.874168       -23.7873
  17   2.0000      -0.821217       -22.3464
  18   2.0000      -0.777538       -21.1579
  19   2.0000      -0.726919       -19.7805
  20   2.0000      -0.713514       -19.4157
  21   2.0000      -0.691975       -18.8296
  22   2.0000      -0.674233       -18.3468
  23   2.0000      -0.658892       -17.9294
  24   2.0000      -0.630516       -17.1572
  25   2.0000      -0.610804       -16.6208
  26   2.0000      -0.558122       -15.1873
  27   2.0000      -0.550499       -14.9798
  28   2.0000      -0.492905       -13.4126
  29   2.0000      -0.468625       -12.7519
  30   2.0000      -0.436938       -11.8897
  31   2.0000      -0.436042       -11.8653
  32   2.0000      -0.356415        -9.6985
  33   0.0000       0.081326         2.2130
  34   0.0000       0.109130         2.9696
  35   0.0000       0.146081         3.9751
  36   0.0000       0.169185         4.6038
  37   0.0000       0.181915         4.9502

MULLIKEN ATOMIC CHARGES
-----------------------
   0 N :   -0.577544
   1 C :    0.012667
   2 C :    0.192563
   3 O :   -0.428900
   4 N :    0.085938
   5 C :    0.138066
   6 O :   -0.226578
   7 N :   -0.151453
   8 N :   -0.066329
   9 H :    0.261984
  10 H :    0.261995
  11 H :    0.362584
  12 H :    0.135006
Sum of atomic charges:    0.0000000

LOEWDIN ATOMIC CHARGES
----------------------
   0 N :   -0.116238
   1 C :   -0.392871
   2 C :   -0.348628
   3 O :    0.099776
   4 N :    0.192039
   5 C :   -0.330809
   6 O :    0.165781
   7 N :    0.008236
   8 N :    0.030675
   9 H :    0.173060
  10 H :    0.173063
  11 H :    0.217608
  12 H :    0.128308

  Mayer bond orders larger than 0.1
B(  0-N ,  1-C ) :   1.1392 B(  0-N ,  9-H ) :   0.8825 B(  0-N , 10-H ) :   0.8825
B(  1-C ,  2-C ) :   1.4106 B(  1-C ,  8-N ) :   1.3073 B(  2-C ,  3-O ) :   1.1411
B(  2-C ,  4-N ) :   1.1586 B(  3-O , 11-H ) :   0.8000 B(  4-N ,  5-C ) :   0.9101
B(  4-N ,  7-N ) :   0.9043 B(  5-C ,  6-O ) :   2.0291 B(  5-C , 12-H ) :   0.9213
B(  7-N ,  8-N ) :   1.2875

MP2 TOTAL ENERGY:     -485.298238389 Eh
FINAL SINGLE POINT ENERGY      -485.298238389195

DIPOLE MOMENT
-------------
                                X             Y             Z
Electronic contribution:      0.73512      -4.22962       0.16934
Nuclear contribution   :     -1.98718       5.98623      -0.32852
                        -----------------------------------------
Total Dipole Moment    :     -1.25207       1.75660      -0.15918
                        -----------------------------------------
Magnitude (a.u.)       :      2.16302
Magnitude (Debye)      :      5.49796

                             ****ORCA TERMINATED NORMALLY****
TOTAL RUN TIME: 0 days 0 hours 14 minutes 15 seconds 519 msec
