                         Program Version 3.0.3 - RELEASE   -
|  1> ! RI-MP2 RIJK def2-TZVP def2-TZVP/C def2-TZVP/JK TIGHTSCF
|  2> % maxcore 2000
|  3> % mp2 density relaxed end
|  4> *xyz 0 1
|  5>  O       -0.0294743566     1.4274734319    -0.1325214003
|  6>  C        0.0535069864     0.0467331272     0.1973101815
|  7>  C       -1.3207959812    -0.5972772750     0.1122567432
|  8>  C       -1.9848757250    -0.7881107274    -1.2807192752
|  9>  O       -2.2292864669     0.2938242210    -2.1106382968
| 10>  C       -1.0575340693    -2.0146285181    -1.5453434151
| 11>  C       -1.5654837534    -2.1220874792    -0.0688992236
| 12>  O       -1.2214430654    -3.0528037329     0.8880685096
| 13>  C       -2.9951933957    -1.7611605808    -0.6020666585
| 14>  H       -0.5001016686     1.4896967788    -0.9721852574
| 15>  H        0.7931503934    -0.4671269214    -0.4329607076
| 16>  H        0.4265043917    -0.0009793225     1.2257320580
| 17>  H       -1.9878153194    -0.1281156183     0.8434287970
| 18>  H       -2.5513938064    -0.0245817884    -2.9607891410
| 19>  H       -1.4421564266    -2.7664590888    -2.2418536255
| 20>  H        0.0039072210    -1.8297543576    -1.7072435790
| 21>  H       -1.4812522528    -3.9264424789     0.5762993746
| 22>  H       -3.6898050735    -1.3235079228     0.1184103839
| 23>  H       -3.4762935518    -2.5025820068    -1.2475450077
| 24> *
| 25>
| 26>                          ****END OF INPUT****

CARTESIAN COORDINATES (ANGSTROEM)
---------------------------------
  O     -0.029474    1.427473   -0.132521
  C      0.053507    0.046733    0.197310
  C     -1.320796   -0.597277    0.112257
  C     -1.984876   -0.788111   -1.280719
  O     -2.229286    0.293824   -2.110638
  C     -1.057534   -2.014629   -1.545343
  C     -1.565484   -2.122087   -0.068899
  O     -1.221443   -3.052804    0.888069
  C     -2.995193   -1.761161   -0.602067
  H     -0.500102    1.489697   -0.972185
  H      0.793150   -0.467127   -0.432961
  H      0.426504   -0.000979    1.225732
  H     -1.987815   -0.128116    0.843429
  H     -2.551394   -0.024582   -2.960789
  H     -1.442156   -2.766459   -2.241854
  H      0.003907   -1.829754   -1.707244
  H     -1.481252   -3.926442    0.576299
  H     -3.689805   -1.323508    0.118410
  H     -3.476294   -2.502582   -1.247545

 Total Charge           Charge          ....    0
 Multiplicity           Mult            ....    1
 Number of Electrons    NEL             ....   70
 Basis Dimension        Dim             ....  339

ORBITAL ENERGIES
----------------

  NO   OCC          E(Eh)            E(eV)
   0   2.0000     -20.583653      -560.1097
   1   2.0000     -20.576768      -559.9223
   2   2.0000     -20.541421      -558.9605
   3   2.0000     -11.312995      -307.8422
   4   2.0000     -11.311206      -307.7936
   5   2.0000     -11.267340      -306.5999
   6   2.0000     -11.238299      -305.8097
   7   2.0000     -11.237839      -305.7971
   8   2.0000     -11.235187      -305.7250
   9   2.0000      -1.396478       -38.0001
  10   2.0000      -1.387377       -37.7525
  11   2.0000      -1.346041       -36.6276
  12   2.0000      -1.210412       -32.9370
  13   2.0000      -0.980514       -26.6811
  14   2.0000      -0.929035       -25.2803
  15   2.0000      -0.862267       -23.4635
  16   2.0000      -0.848898       -23.0997
  17   2.0000      -0.754910       -20.5421
  18   2.0000      -0.731687       -19.9102
  19   2.0000      -0.685013       -18.6402
  20   2.0000      -0.669178       -18.2093
  21   2.0000      -0.651414       -17.7259
  22   2.0000      -0.613080       -16.6827
  23   2.0000      -0.606080       -16.4923
  24   2.0000      -0.600363       -16.3367
  25   2.0000      -0.592757       -16.1297
  26   2.0000      -0.550306       -14.9746
  27   2.0000      -0.543524       -14.7900
  28   2.0000      -0.517208       -14.0739
  29   2.0000      -0.504052       -13.7159
  30   2.0000      -0.462170       -12.5763
  31   2.0000      -0.451987       -12.2992
  32   2.0000      -0.432847       -11.7784
  33   2.0000      -0.420433       -11.4406
  34   2.0000      -0.403229       -10.9724
  35   0.0000       0.121809         3.3146
  36   0.0000       0.135169         3.6781
  37   0.0000       0.168616         4.5883
  38   0.0000       0.170583         4.6418
  39   0.0000       0.176387         4.7997

MULLIKEN ATOMIC CHARGES
-----------------------
   0 O :   -0.477954
   1 C :   -0.020633
   2 C :   -0.102825
   3 C :    0.092114
   4 O :   -0.472499
   5 C :   -0.238453
   6 C :    0.095421
   7 O :   -0.449521
   8 C :   -0.187590
   9 H :    0.327442
  10 H :    0.091822
  11 H :    0.117114
  12 H :    0.100202
  13 H :    0.330443
  14 H :    0.111176
  15 H :    0.125007
  16 H :    0.326980
  17 H :    0.118813
  18 H :    0.112940
Sum of atomic charges:   -0.0000000

LOEWDIN ATOMIC CHARGES
----------------------
   0 O :   -0.048714
   1 C :   -0.317274
   2 C :   -0.158161
   3 C :   -0.327872
   4 O :    0.020669
   5 C :   -0.177632
   6 C :   -0.319943
   7 O :    0.033007
   8 C :   -0.174102
   9 H :    0.175675
  10 H :    0.117224
  11 H :    0.132328
  12 H :    0.155880
  13 H :    0.187504
  14 H :    0.127033
  15 H :    0.128103
  16 H :    0.187428
  17 H :    0.132895
  18 H :    0.125951

  Mayer bond orders larger than 0.1
B(  0-O ,  1-C ) :   0.9171 B(  0-O ,  9-H ) :   0.8372 B(  1-C ,  2-C ) :   0.9534
B(  1-C , 10-H ) :   0.9202 B(  1-C , 11-H ) :   0.9282 B(  2-C ,  3-C ) :   0.8834
B(  2-C ,  6-C ) :   0.8687 B(  2-C , 12-H ) :   0.9295 B(  3-C ,  4-O ) :   0.9604
B(  3-C ,  5-C ) :   0.8938 B(  3-C ,  8-C ) :   0.9059 B(  4-O , 13-H ) :   0.8321
B(  5-C ,  6-C ) :   0.8886 B(  5-C , 14-H ) :   0.9136 B(  5-C , 15-H ) :   0.9242
B(  6-C ,  7-O ) :   1.0102 B(  6-C ,  8-C ) :   0.8945 B(  7-O , 16-H ) :   0.8342
B(  8-C , 17-H ) :   0.9249 B(  8-C , 18-H ) :   0.9140

MP2 TOTAL ENERGY:     -459.384164881 Eh
FINAL SINGLE POINT ENERGY      -459.384164880891

DIPOLE MOMENT
-------------
                                X             Y             Z
Electronic contribution:     -0.33851       0.84292       0.49559
Nuclear contribution   :     -0.33228      -2.11337      -1.55888
                        -----------------------------------------
Total Dipole Moment    :     -0.67079      -1.27045      -1.06329
                        -----------------------------------------
Magnitude (a.u.)       :      1.78734
Magnitude (Debye)      :      4.54306

                             ****ORCA TERMINATED NORMALLY****
TOTAL RUN TIME: 0 days 0 hours 16 minutes 9 seconds 947 msec
