                         Program Version 3.0.3 - RELEASE   -
|  1> ! RI-MP2 RIJK def2-TZVP def2-TZVP/C def2-TZVP/JK TIGHTSCF
|  2> % maxcore 2000
|  3> % mp2 density relaxed end
|  4> *xyz 0 1
|  5>  C       -0.0783108751     1.5044485377    -0.0052662577
|  6>  C        0.0584886857     0.0138923757     0.0316125780
|  7>  C        0.8222898878    -0.8163440456    -0.9164347046
|  8>  C        1.8302050272    -1.8492226474    -0.4345289130
|  9>  C        1.6103955037    -2.3641554249     1.0074931837
| 10>  O        0.9162439962    -1.4541223483     1.8479470886
| 11>  C       -0.2293945714    -0.8962043618     1.2366706514
| 12>  C       -1.0594730778    -1.7701935180     0.2550641022
| 13>  N       -0.6620536774    -0.9354497971    -0.9248205258
| 14>  H        0.7192341032     1.9814214808     0.5764376824
| 15>  H       -0.0176446630     1.8737455152    -1.0333811199
| 16>  H       -1.0378062191     1.8278508529     0.4137271181
| 17>  H        1.1407850293    -0.3069773790    -1.8234772392
| 18>  H        1.8690434342    -2.7024320470    -1.1221371093
| 19>  H        2.8090910646    -1.3588898188    -0.4966172043
| 20>  H        1.0829327740    -3.3276561705     0.9891991166
| 21>  H        2.5737392342    -2.5380705739     1.4942912294
| 22>  H       -0.8090883986    -0.4350303648     2.0383089745
| 23>  H       -0.8293678571    -2.8350399863     0.1693729383
| 24>  H       -2.1338197507    -1.6598407489     0.4197231208
| 25> *
| 26>
| 27>                          ****END OF INPUT****

CARTESIAN COORDINATES (ANGSTROEM)
---------------------------------
  C     -0.078311    1.504449   -0.005266
  C      0.058489    0.013892    0.031613
  C      0.822290   -0.816344   -0.916435
  C      1.830205   -1.849223   -0.434529
  C      1.610396   -2.364155    1.007493
  O      0.916244   -1.454122    1.847947
  C     -0.229395   -0.896204    1.236671
  C     -1.059473   -1.770194    0.255064
  N     -0.662054   -0.935450   -0.924821
  H      0.719234    1.981421    0.576438
  H     -0.017645    1.873746   -1.033381
  H     -1.037806    1.827851    0.413727
  H      1.140785   -0.306977   -1.823477
  H      1.869043   -2.702432   -1.122137
  H      2.809091   -1.358890   -0.496617
  H      1.082933   -3.327656    0.989199
  H      2.573739   -2.538071    1.494291
  H     -0.809088   -0.435030    2.038309
  H     -0.829368   -2.835040    0.169373
  H     -2.133820   -1.659841    0.419723

 Total Charge           Charge          ....    0
 Multiplicity           Mult            ....    1
 Number of Electrons    NEL             ....   68
 Basis Dimension        Dim             ....  345

ORBITAL ENERGIES
----------------

  NO   OCC          E(Eh)            E(eV)
   0   2.0000     -20.557217      -559.3903
   1   2.0000     -15.555793      -423.2946
   2   2.0000     -11.284415      -307.0645
   3   2.0000     -11.278679      -306.9085
   4   2.0000     -11.260772      -306.4212
   5   2.0000     -11.259257      -306.3800
   6   2.0000     -11.252436      -306.1944
   7   2.0000     -11.234970      -305.7191
   8   2.0000     -11.223560      -305.4086
   9   2.0000      -1.382668       -37.6243
  10   2.0000      -1.281341       -34.8671
  11   2.0000      -1.052906       -28.6510
  12   2.0000      -1.007192       -27.4071
  13   2.0000      -0.966003       -26.2863
  14   2.0000      -0.930432       -25.3183
  15   2.0000      -0.843850       -22.9623
  16   2.0000      -0.772122       -21.0105
  17   2.0000      -0.723072       -19.6758
  18   2.0000      -0.700054       -19.0494
  19   2.0000      -0.653621       -17.7859
  20   2.0000      -0.630777       -17.1643
  21   2.0000      -0.609562       -16.5870
  22   2.0000      -0.594668       -16.1817
  23   2.0000      -0.573168       -15.5967
  24   2.0000      -0.567503       -15.4425
  25   2.0000      -0.552859       -15.0440
  26   2.0000      -0.550735       -14.9863
  27   2.0000      -0.544471       -14.8158
  28   2.0000      -0.491948       -13.3866
  29   2.0000      -0.479169       -13.0389
  30   2.0000      -0.432534       -11.7699
  31   2.0000      -0.410254       -11.1636
  32   2.0000      -0.400865       -10.9081
  33   2.0000      -0.366486        -9.9726
  34   0.0000       0.133361         3.6289
  35   0.0000       0.150032         4.0826
  36   0.0000       0.164058         4.4642
  37   0.0000       0.181390         4.9359
  38   0.0000       0.187412         5.0997

MULLIKEN ATOMIC CHARGES
-----------------------
   0 C :   -0.422173
   1 C :    0.124864
   2 C :   -0.115865
   3 C :   -0.202766
   4 C :   -0.084383
   5 O :   -0.315367
   6 C :    0.070047
   7 C :   -0.167207
   8 N :   -0.245803
   9 H :    0.140394
  10 H :    0.140996
  11 H :    0.130410
  12 H :    0.116092
  13 H :    0.121815
  14 H :    0.120128
  15 H :    0.104622
  16 H :    0.126969
  17 H :    0.116766
  18 H :    0.113821
  19 H :    0.126642
Sum of atomic charges:    0.0000000

LOEWDIN ATOMIC CHARGES
----------------------
   0 C :   -0.272291
   1 C :   -0.236618
   2 C :   -0.225604
   3 C :   -0.245669
   4 C :   -0.310721
   5 O :    0.174029
   6 C :   -0.264282
   7 C :   -0.232067
   8 N :    0.124191
   9 H :    0.133420
  10 H :    0.134164
  11 H :    0.129252
  12 H :    0.153730
  13 H :    0.144437
  14 H :    0.148548
  15 H :    0.117166
  16 H :    0.129982
  17 H :    0.141967
  18 H :    0.123347
  19 H :    0.133021

  Mayer bond orders larger than 0.1
B(  0-C ,  1-C ) :   0.8579 B(  0-C ,  9-H ) :   0.9372 B(  0-C , 10-H ) :   0.9427
B(  0-C , 11-H ) :   0.9360 B(  1-C ,  2-C ) :   0.9358 B(  1-C ,  6-C ) :   0.8358
B(  1-C ,  8-N ) :   0.8105 B(  2-C ,  3-C ) :   0.9172 B(  2-C ,  8-N ) :   0.9244
B(  2-C , 12-H ) :   0.9338 B(  3-C ,  4-C ) :   0.9446 B(  3-C , 13-H ) :   0.9165
B(  3-C , 14-H ) :   0.9179 B(  4-C ,  5-O ) :   0.9272 B(  4-C , 15-H ) :   0.9447
B(  4-C , 16-H ) :   0.9302 B(  5-O ,  6-C ) :   0.9509 B(  6-C ,  7-C ) :   0.9479
B(  6-C , 17-H ) :   0.9478 B(  7-C ,  8-N ) :   0.9439 B(  7-C , 18-H ) :   0.9244
B(  7-C , 19-H ) :   0.9190

MP2 TOTAL ENERGY:     -402.418735521 Eh
FINAL SINGLE POINT ENERGY      -402.418735520519

DIPOLE MOMENT
-------------
                                X             Y             Z
Electronic contribution:     -0.87137      -1.08950       1.16159
Nuclear contribution   :      1.22217       1.00200      -1.12587
                        -----------------------------------------
Total Dipole Moment    :      0.35080      -0.08751       0.03573
                        -----------------------------------------
Magnitude (a.u.)       :      0.36331
Magnitude (Debye)      :      0.92347

                             ****ORCA TERMINATED NORMALLY****
TOTAL RUN TIME: 0 days 0 hours 20 minutes 38 seconds 74 msec
