                         Program Version 3.0.3 - RELEASE   -
|  1> ! RI-MP2 RIJK def2-TZVP def2-TZVP/C def2-TZVP/JK TIGHTSCF
|  2> % maxcore 2000
|  3> % mp2 density relaxed end
|  4> *xyz 0 1
|  5>  C       -0.0071159215     1.5003287529     0.0106672086
|  6>  C        1.5610273568     1.7901596115    -0.1052445657
|  7>  C        1.8975593128     0.3230818919    -0.1079587579
|  8>  O        2.9288400136    -0.7027041322    -0.1665570122
|  9>  C        1.6260010234    -1.4494042707    -0.0629210870
| 10>  C        0.9966082370    -0.4245500484     0.8994431971
| 11>  N       -0.1790910750    -0.0103596303     0.0448145480
| 12>  C        0.8644624679    -0.4514361896    -0.9555184755
| 13>  H       -0.4304110349     1.9260983745     0.9233253491
| 14>  H       -0.5563569136     1.9004710093    -0.8446831784
| 15>  H        1.8243595620     2.3159528794    -1.0255210378
| 16>  H        1.9510518132     2.3417208443     0.7528770987
| 17>  H        1.6943358537    -2.5351394098    -0.0520540180
| 18>  H        1.0081422039    -0.3805944339     1.9880575518
| 19>  H        0.7214968905    -0.4389134589    -2.0355880109
| 20> *
| 21>
| 22>                          ****END OF INPUT****

CARTESIAN COORDINATES (ANGSTROEM)
---------------------------------
  C     -0.007116    1.500329    0.010667
  C      1.561027    1.790160   -0.105245
  C      1.897559    0.323082   -0.107959
  O      2.928840   -0.702704   -0.166557
  C      1.626001   -1.449404   -0.062921
  C      0.996608   -0.424550    0.899443
  N     -0.179091   -0.010360    0.044815
  C      0.864462   -0.451436   -0.955518
  H     -0.430411    1.926098    0.923325
  H     -0.556357    1.900471   -0.844683
  H      1.824360    2.315953   -1.025521
  H      1.951052    2.341721    0.752877
  H      1.694336   -2.535139   -0.052054
  H      1.008142   -0.380594    1.988058
  H      0.721497   -0.438913   -2.035588

 Total Charge           Charge          ....    0
 Multiplicity           Mult            ....    1
 Number of Electrons    NEL             ....   58
 Basis Dimension        Dim             ....  290

ORBITAL ENERGIES
----------------

  NO   OCC          E(Eh)            E(eV)
   0   2.0000     -20.561680      -559.5118
   1   2.0000     -15.572090      -423.7381
   2   2.0000     -11.312568      -307.8306
   3   2.0000     -11.307811      -307.7012
   4   2.0000     -11.272544      -306.7415
   5   2.0000     -11.272507      -306.7405
   6   2.0000     -11.266099      -306.5661
   7   2.0000     -11.248443      -306.0857
   8   2.0000      -1.414845       -38.4999
   9   2.0000      -1.273093       -34.6426
  10   2.0000      -1.054008       -28.6810
  11   2.0000      -1.004448       -27.3324
  12   2.0000      -0.903764       -24.5927
  13   2.0000      -0.877468       -23.8771
  14   2.0000      -0.809767       -22.0349
  15   2.0000      -0.715784       -19.4775
  16   2.0000      -0.693249       -18.8643
  17   2.0000      -0.644495       -17.5376
  18   2.0000      -0.636298       -17.3146
  19   2.0000      -0.621984       -16.9250
  20   2.0000      -0.604236       -16.4421
  21   2.0000      -0.536357       -14.5950
  22   2.0000      -0.502501       -13.6738
  23   2.0000      -0.489710       -13.3257
  24   2.0000      -0.478897       -13.0314
  25   2.0000      -0.477840       -13.0027
  26   2.0000      -0.439311       -11.9543
  27   2.0000      -0.409135       -11.1331
  28   2.0000      -0.370753       -10.0887
  29   0.0000       0.137622         3.7449
  30   0.0000       0.154125         4.1940
  31   0.0000       0.171248         4.6599
  32   0.0000       0.172553         4.6954
  33   0.0000       0.190769         5.1911

MULLIKEN ATOMIC CHARGES
-----------------------
   0 C :   -0.155832
   1 C :   -0.258871
   2 C :    0.151903
   3 O :   -0.332309
   4 C :   -0.006253
   5 C :   -0.052575
   6 N :   -0.231627
   7 C :   -0.052577
   8 H :    0.131359
   9 H :    0.131358
  10 H :    0.129824
  11 H :    0.129824
  12 H :    0.147390
  13 H :    0.134193
  14 H :    0.134193
Sum of atomic charges:   -0.0000000

LOEWDIN ATOMIC CHARGES
----------------------
   0 C :   -0.231388
   1 C :   -0.217169
   2 C :   -0.269897
   3 O :    0.126090
   4 C :   -0.155732
   5 C :   -0.139833
   6 N :    0.104192
   7 C :   -0.139831
   8 H :    0.129077
   9 H :    0.129077
  10 H :    0.137384
  11 H :    0.137384
  12 H :    0.127907
  13 H :    0.131370
  14 H :    0.131370

  Mayer bond orders larger than 0.1
B(  0-C ,  1-C ) :   0.8989 B(  0-C ,  6-N ) :   0.9083 B(  0-C ,  8-H ) :   0.9332
B(  0-C ,  9-H ) :   0.9332 B(  1-C ,  2-C ) :   0.9314 B(  1-C , 10-H ) :   0.9210
B(  1-C , 11-H ) :   0.9210 B(  2-C ,  3-O ) :   0.9923 B(  2-C ,  5-C ) :   0.8974
B(  2-C ,  7-C ) :   0.8974 B(  3-O ,  4-C ) :   0.8656 B(  4-C ,  5-C ) :   0.8687
B(  4-C ,  7-C ) :   0.8687 B(  4-C , 12-H ) :   0.8955 B(  5-C ,  6-N ) :   0.8900
B(  5-C , 13-H ) :   0.8926 B(  6-N ,  7-C ) :   0.8900 B(  7-C , 14-H ) :   0.8926

MP2 TOTAL ENERGY:     -361.902331639 Eh
FINAL SINGLE POINT ENERGY      -361.902331639129

DIPOLE MOMENT
-------------
                                X             Y             Z
Electronic contribution:      1.96879      -3.76861      -0.08564
Nuclear contribution   :     -2.21512       4.24332       0.09630
                        -----------------------------------------
Total Dipole Moment    :     -0.24633       0.47471       0.01067
                        -----------------------------------------
Magnitude (a.u.)       :      0.53493
Magnitude (Debye)      :      1.35967

                             ****ORCA TERMINATED NORMALLY****
TOTAL RUN TIME: 0 days 0 hours 12 minutes 16 seconds 15 msec
