                         Program Version 3.0.3 - RELEASE   -
|  1> ! RI-MP2 RIJK def2-TZVP def2-TZVP/C def2-TZVP/JK TIGHTSCF
|  2> % maxcore 2000
|  3> % mp2 density relaxed end
|  4> *xyz 0 1
|  5>  C       -0.0380233080     1.5419481621     0.0077228904
|  6>  C       -0.0124858482     0.0471444414    -0.0165758637
|  7>  C       -0.0290381881    -0.7966982085    -1.1044329540
|  8>  N        0.0073657390    -2.0646189676    -0.6179916718
|  9>  N        0.0465417864    -2.1232966705     0.7183798495
| 10>  C        0.0351042455    -0.8382279145     1.1009069395
| 11>  C        0.0674604536    -0.4652280471     2.4678097483
| 12>  C        0.0934838890    -0.0932365112     3.6124178134
| 13>  H        0.8483855644     1.9485765778     0.5065319993
| 14>  H       -0.0727507819     1.9533725203    -1.0045446528
| 15>  H       -0.9097229239     1.9178386120     0.5543057332
| 16>  H       -0.0628609016    -0.5938418277    -2.1634545354
| 17>  H        0.0067661172    -2.9251459759    -1.1388716021
| 18>  H        0.1168474367     0.2171752393     4.6274140861
| 19> *
| 20>
| 21>                          ****END OF INPUT****

CARTESIAN COORDINATES (ANGSTROEM)
---------------------------------
  C     -0.038023    1.541948    0.007723
  C     -0.012486    0.047144   -0.016576
  C     -0.029038   -0.796698   -1.104433
  N      0.007366   -2.064619   -0.617992
  N      0.046542   -2.123297    0.718380
  C      0.035104   -0.838228    1.100907
  C      0.067460   -0.465228    2.467810
  C      0.093484   -0.093237    3.612418
  H      0.848386    1.948577    0.506532
  H     -0.072751    1.953373   -1.004545
  H     -0.909723    1.917839    0.554306
  H     -0.062861   -0.593842   -2.163455
  H      0.006766   -2.925146   -1.138872
  H      0.116847    0.217175    4.627414

 Total Charge           Charge          ....    0
 Multiplicity           Mult            ....    1
 Number of Electrons    NEL             ....   56
 Basis Dimension        Dim             ....  284

ORBITAL ENERGIES
----------------

  NO   OCC          E(Eh)            E(eV)
   0   2.0000     -15.645315      -425.7307
   1   2.0000     -15.598918      -424.4681
   2   2.0000     -11.276922      -306.8607
   3   2.0000     -11.275225      -306.8145
   4   2.0000     -11.237161      -305.7787
   5   2.0000     -11.236596      -305.7633
   6   2.0000     -11.229146      -305.5606
   7   2.0000     -11.228214      -305.5352
   8   2.0000      -1.384075       -37.6626
   9   2.0000      -1.120350       -30.4863
  10   2.0000      -1.084449       -29.5094
  11   2.0000      -1.021292       -27.7908
  12   2.0000      -0.955217       -25.9928
  13   2.0000      -0.861002       -23.4291
  14   2.0000      -0.796274       -21.6677
  15   2.0000      -0.738692       -20.1008
  16   2.0000      -0.714357       -19.4387
  17   2.0000      -0.644794       -17.5457
  18   2.0000      -0.624556       -16.9950
  19   2.0000      -0.608180       -16.5494
  20   2.0000      -0.566333       -15.4107
  21   2.0000      -0.563769       -15.3409
  22   2.0000      -0.537151       -14.6166
  23   2.0000      -0.467815       -12.7299
  24   2.0000      -0.447204       -12.1690
  25   2.0000      -0.396739       -10.7958
  26   2.0000      -0.344378        -9.3710
  27   2.0000      -0.331616        -9.0237
  28   0.0000       0.121790         3.3141
  29   0.0000       0.131844         3.5877
  30   0.0000       0.144155         3.9227
  31   0.0000       0.164196         4.4680
  32   0.0000       0.170017         4.6264

MULLIKEN ATOMIC CHARGES
-----------------------
   0 C :   -0.408355
   1 C :   -0.039610
   2 C :   -0.102041
   3 N :   -0.100249
   4 N :   -0.209322
   5 C :   -0.119338
   6 C :    0.062142
   7 C :   -0.123572
   8 H :    0.151414
   9 H :    0.134857
  10 H :    0.151394
  11 H :    0.152568
  12 H :    0.258768
  13 H :    0.191343
Sum of atomic charges:    0.0000000

LOEWDIN ATOMIC CHARGES
----------------------
   0 C :   -0.265200
   1 C :   -0.180187
   2 C :   -0.214056
   3 N :    0.134677
   4 N :    0.062148
   5 C :   -0.251063
   6 C :   -0.067089
   7 C :   -0.078240
   8 H :    0.136038
   9 H :    0.130662
  10 H :    0.136025
  11 H :    0.139152
  12 H :    0.189955
  13 H :    0.127179

  Mayer bond orders larger than 0.1
B(  0-C ,  1-C ) :   0.8737 B(  0-C ,  8-H ) :   0.9348 B(  0-C ,  9-H ) :   0.9442
B(  0-C , 10-H ) :   0.9347 B(  1-C ,  2-C ) :   1.4403 B(  1-C ,  5-C ) :   1.2431
B(  2-C ,  3-N ) :   1.1943 B(  2-C ,  4-N ) :   0.1194 B(  2-C , 11-H ) :   0.9027
B(  3-N ,  4-N ) :   1.0874 B(  3-N , 12-H ) :   0.8729 B(  4-N ,  5-C ) :   1.4875
B(  5-C ,  6-C ) :   1.2250 B(  5-C ,  7-C ) :  -0.1590 B(  6-C ,  7-C ) :   2.6060
B(  7-C , 13-H ) :   0.8727

MP2 TOTAL ENERGY:     -340.963689583 Eh
FINAL SINGLE POINT ENERGY      -340.963689583423

DIPOLE MOMENT
-------------
                                X             Y             Z
Electronic contribution:      0.14232      -5.42794       1.63075
Nuclear contribution   :     -0.17907       5.70753      -2.72538
                        -----------------------------------------
Total Dipole Moment    :     -0.03675       0.27959      -1.09464
                        -----------------------------------------
Magnitude (a.u.)       :      1.13038
Magnitude (Debye)      :      2.87319

                             ****ORCA TERMINATED NORMALLY****
TOTAL RUN TIME: 0 days 0 hours 13 minutes 50 seconds 202 msec
