                         Program Version 3.0.3 - RELEASE   -
|  1> ! RI-MP2 RIJK def2-TZVP def2-TZVP/C def2-TZVP/JK TIGHTSCF
|  2> % maxcore 2000
|  3> % mp2 density relaxed end
|  4> *xyz 0 1
|  5>  O       -0.1779180069     1.4892475154     0.1318214767
|  6>  C       -0.0424751535     0.1010263230     0.0512612761
|  7>  C       -0.5643473827    -0.7690788541     1.1669314004
|  8>  C       -1.3012904826    -0.6916626325    -0.1590226182
|  9>  C       -2.6441885354     0.0142841451    -0.2356636518
| 10>  C       -3.7626133342    -0.8778911428     0.2578840597
| 11>  O       -4.5526029007    -0.5838019282     1.1173307144
| 12>  H        0.4209494169     1.8084774086     0.8145126767
| 13>  H        0.8484136912    -0.2375592738    -0.4778737721
| 14>  H       -0.0291055360    -1.6763862048     1.4243538641
| 15>  H       -1.0234152340    -0.2563200375     2.0063094961
| 16>  H       -1.2056848716    -1.5566400927    -0.8099938740
| 17>  H       -2.6384070055     0.9392282511     0.3430421844
| 18>  H       -2.8593106728     0.2729002523    -1.2829567470
| 19>  H       -3.8097684721    -1.8745226690    -0.2429796955
| 20> *
| 21>
| 22>                          ****END OF INPUT****

CARTESIAN COORDINATES (ANGSTROEM)
---------------------------------
  O     -0.177918    1.489248    0.131821
  C     -0.042475    0.101026    0.051261
  C     -0.564347   -0.769079    1.166931
  C     -1.301290   -0.691663   -0.159023
  C     -2.644189    0.014284   -0.235664
  C     -3.762613   -0.877891    0.257884
  O     -4.552603   -0.583802    1.117331
  H      0.420949    1.808477    0.814513
  H      0.848414   -0.237559   -0.477874
  H     -0.029106   -1.676386    1.424354
  H     -1.023415   -0.256320    2.006309
  H     -1.205685   -1.556640   -0.809994
  H     -2.638407    0.939228    0.343042
  H     -2.859311    0.272900   -1.282957
  H     -3.809768   -1.874523   -0.242980

 Total Charge           Charge          ....    0
 Multiplicity           Mult            ....    1
 Number of Electrons    NEL             ....   54
 Basis Dimension        Dim             ....  265

ORBITAL ENERGIES
----------------

  NO   OCC          E(Eh)            E(eV)
   0   2.0000     -20.573020      -559.8203
   1   2.0000     -20.553036      -559.2765
   2   2.0000     -11.328086      -308.2529
   3   2.0000     -11.295550      -307.3675
   4   2.0000     -11.249963      -306.1271
   5   2.0000     -11.239709      -305.8480
   6   2.0000     -11.236709      -305.7664
   7   2.0000      -1.391835       -37.8738
   8   2.0000      -1.383267       -37.6406
   9   2.0000      -1.150689       -31.3118
  10   2.0000      -1.016487       -27.6600
  11   2.0000      -0.843223       -22.9453
  12   2.0000      -0.815805       -22.1992
  13   2.0000      -0.783668       -21.3247
  14   2.0000      -0.716436       -19.4952
  15   2.0000      -0.680557       -18.5189
  16   2.0000      -0.656512       -17.8646
  17   2.0000      -0.629158       -17.1203
  18   2.0000      -0.616014       -16.7626
  19   2.0000      -0.590816       -16.0769
  20   2.0000      -0.551755       -15.0140
  21   2.0000      -0.520863       -14.1734
  22   2.0000      -0.519636       -14.1400
  23   2.0000      -0.494814       -13.4646
  24   2.0000      -0.443744       -12.0749
  25   2.0000      -0.412583       -11.2270
  26   2.0000      -0.401171       -10.9164
  27   0.0000       0.133542         3.6339
  28   0.0000       0.138705         3.7744
  29   0.0000       0.144975         3.9450
  30   0.0000       0.169348         4.6082
  31   0.0000       0.174274         4.7422

MULLIKEN ATOMIC CHARGES
-----------------------
   0 O :   -0.470542
   1 C :    0.025931
   2 C :   -0.315238
   3 C :   -0.099684
   4 C :   -0.173362
   5 C :    0.109565
   6 O :   -0.265649
   7 H :    0.327684
   8 H :    0.111498
   9 H :    0.133974
  10 H :    0.150247
  11 H :    0.131212
  12 H :    0.139775
  13 H :    0.130626
  14 H :    0.063963
Sum of atomic charges:   -0.0000000

LOEWDIN ATOMIC CHARGES
----------------------
   0 O :   -0.001472
   1 C :   -0.321776
   2 C :   -0.217232
   3 C :   -0.212427
   4 C :   -0.240396
   5 C :   -0.290748
   6 O :    0.129884
   7 H :    0.182803
   8 H :    0.131224
   9 H :    0.132122
  10 H :    0.141613
  11 H :    0.149417
  12 H :    0.153692
  13 H :    0.155552
  14 H :    0.107745

  Mayer bond orders larger than 0.1
B(  0-O ,  1-C ) :   1.0222 B(  0-O ,  7-H ) :   0.8390 B(  1-C ,  2-C ) :   0.8995
B(  1-C ,  3-C ) :   0.8683 B(  1-C ,  8-H ) :   0.9513 B(  2-C ,  3-C ) :   0.8760
B(  2-C ,  9-H ) :   0.9205 B(  2-C , 10-H ) :   0.9236 B(  3-C ,  4-C ) :   0.9031
B(  3-C , 11-H ) :   0.9157 B(  4-C ,  5-C ) :   0.8806 B(  4-C , 12-H ) :   0.9061
B(  4-C , 13-H ) :   0.9090 B(  5-C ,  6-O ) :   2.0044 B(  5-C , 14-H ) :   0.9309

MP2 TOTAL ENERGY:     -345.074184743 Eh
FINAL SINGLE POINT ENERGY      -345.074184743024

DIPOLE MOMENT
-------------
                                X             Y             Z
Electronic contribution:     -3.03835       0.97836       0.63653
Nuclear contribution   :      4.26391      -1.29253      -0.93309
                        -----------------------------------------
Total Dipole Moment    :      1.22555      -0.31417      -0.29656
                        -----------------------------------------
Magnitude (a.u.)       :      1.29947
Magnitude (Debye)      :      3.30300

                             ****ORCA TERMINATED NORMALLY****
TOTAL RUN TIME: 0 days 0 hours 7 minutes 19 seconds 902 msec
