                         Program Version 3.0.3 - RELEASE   -
|  1> ! RI-MP2 RIJK def2-TZVP def2-TZVP/C def2-TZVP/JK TIGHTSCF
|  2> % maxcore 2000
|  3> % mp2 density relaxed end
|  4> *xyz 0 1
|  5>  C        0.1342959986     1.6031248978    -0.0049689027
|  6>  C        0.0976759479     0.0766685419    -0.0516765454
|  7>  C        0.9285672343    -0.5651361850    -1.1839167647
|  8>  C        1.0826026634    -2.0347591265    -0.7482951698
|  9>  C        1.2257139372    -1.9901633234     0.7867188791
| 10>  C        0.7461113493    -3.2415970526     1.5031958764
| 11>  C        2.5695776749    -1.3951285029     1.2728566885
| 12>  O        1.9657611267    -0.1202638745     1.5690135157
| 13>  C        0.6482764887    -0.6026848638     1.2051336412
| 14>  H        1.1519039450     1.9491848245     0.1968159895
| 15>  H       -0.1958573967     2.0351602432    -0.9552798283
| 16>  H       -0.5168135155     1.9950538024     0.7837906724
| 17>  H       -0.9447794856    -0.2598509614    -0.1575391982
| 18>  H        0.4603229392    -0.4583432706    -2.1665273211
| 19>  H        1.9083835932    -0.0758192700    -1.2365435784
| 20>  H        0.1781122102    -2.5981795544    -1.0102450003
| 21>  H        1.9255831055    -2.5423626623    -1.2293599726
| 22>  H        1.3319401249    -4.1178669578     1.2010212371
| 23>  H        0.8357037182    -3.1412856927     2.5899982306
| 24>  H       -0.3036489938    -3.4525760190     1.2701309295
| 25>  H        2.9840045673    -1.8665009694     2.1742037393
| 26>  H        3.3644913044    -1.3106714259     0.5200319280
| 27>  H       -0.0348092372    -0.5662019475     2.0628001642
| 28> *
| 29>
| 30>                          ****END OF INPUT****

CARTESIAN COORDINATES (ANGSTROEM)
---------------------------------
  C      0.134296    1.603125   -0.004969
  C      0.097676    0.076669   -0.051677
  C      0.928567   -0.565136   -1.183917
  C      1.082603   -2.034759   -0.748295
  C      1.225714   -1.990163    0.786719
  C      0.746111   -3.241597    1.503196
  C      2.569578   -1.395129    1.272857
  O      1.965761   -0.120264    1.569014
  C      0.648276   -0.602685    1.205134
  H      1.151904    1.949185    0.196816
  H     -0.195857    2.035160   -0.955280
  H     -0.516814    1.995054    0.783791
  H     -0.944779   -0.259851   -0.157539
  H      0.460323   -0.458343   -2.166527
  H      1.908384   -0.075819   -1.236544
  H      0.178112   -2.598180   -1.010245
  H      1.925583   -2.542363   -1.229360
  H      1.331940   -4.117867    1.201021
  H      0.835704   -3.141286    2.589998
  H     -0.303649   -3.452576    1.270131
  H      2.984005   -1.866501    2.174204
  H      3.364491   -1.310671    0.520032
  H     -0.034809   -0.566202    2.062800

 Total Charge           Charge          ....    0
 Multiplicity           Mult            ....    1
 Number of Electrons    NEL             ....   70
 Basis Dimension        Dim             ....  363

ORBITAL ENERGIES
----------------

  NO   OCC          E(Eh)            E(eV)
   0   2.0000     -20.539723      -558.9143
   1   2.0000     -11.270151      -306.6764
   2   2.0000     -11.270144      -306.6762
   3   2.0000     -11.234042      -305.6938
   4   2.0000     -11.222431      -305.3779
   5   2.0000     -11.220948      -305.3375
   6   2.0000     -11.220155      -305.3159
   7   2.0000     -11.216112      -305.2059
   8   2.0000     -11.206145      -304.9347
   9   2.0000      -1.371511       -37.3207
  10   2.0000      -1.116858       -30.3912
  11   2.0000      -1.045271       -28.4433
  12   2.0000      -0.973953       -26.5026
  13   2.0000      -0.921857       -25.0850
  14   2.0000      -0.904334       -24.6082
  15   2.0000      -0.860932       -23.4271
  16   2.0000      -0.771109       -20.9829
  17   2.0000      -0.717941       -19.5362
  18   2.0000      -0.679397       -18.4873
  19   2.0000      -0.634845       -17.2750
  20   2.0000      -0.624623       -16.9969
  21   2.0000      -0.598400       -16.2833
  22   2.0000      -0.580904       -15.8072
  23   2.0000      -0.572276       -15.5724
  24   2.0000      -0.560750       -15.2588
  25   2.0000      -0.555826       -15.1248
  26   2.0000      -0.541886       -14.7455
  27   2.0000      -0.510706       -13.8970
  28   2.0000      -0.498786       -13.5727
  29   2.0000      -0.469505       -12.7759
  30   2.0000      -0.459659       -12.5080
  31   2.0000      -0.455875       -12.4050
  32   2.0000      -0.430074       -11.7029
  33   2.0000      -0.421333       -11.4651
  34   2.0000      -0.402114       -10.9421
  35   0.0000       0.130006         3.5376
  36   0.0000       0.147881         4.0241
  37   0.0000       0.161651         4.3987
  38   0.0000       0.171656         4.6710
  39   0.0000       0.186109         5.0643

MULLIKEN ATOMIC CHARGES
-----------------------
   0 C :   -0.416853
   1 C :   -0.057232
   2 C :   -0.260976
   3 C :   -0.251211
   4 C :    0.086082
   5 C :   -0.429281
   6 C :   -0.056655
   7 O :   -0.347065
   8 C :    0.087760
   9 H :    0.146276
  10 H :    0.129683
  11 H :    0.126776
  12 H :    0.083097
  13 H :    0.125214
  14 H :    0.120395
  15 H :    0.108799
  16 H :    0.124066
  17 H :    0.135957
  18 H :    0.137477
  19 H :    0.129537
  20 H :    0.092777
  21 H :    0.089440
  22 H :    0.095938
Sum of atomic charges:   -0.0000000

LOEWDIN ATOMIC CHARGES
----------------------
   0 C :   -0.293128
   1 C :   -0.258918
   2 C :   -0.228802
   3 C :   -0.215449
   4 C :   -0.258221
   5 C :   -0.276441
   6 C :   -0.230999
   7 O :    0.136683
   8 C :   -0.209794
   9 H :    0.129261
  10 H :    0.122939
  11 H :    0.123602
  12 H :    0.155594
  13 H :    0.133480
  14 H :    0.142280
  15 H :    0.140782
  16 H :    0.136375
  17 H :    0.128345
  18 H :    0.127256
  19 H :    0.126421
  20 H :    0.118200
  21 H :    0.117522
  22 H :    0.133012

  Mayer bond orders larger than 0.1
B(  0-C ,  1-C ) :   0.9023 B(  0-C ,  9-H ) :   0.9338 B(  0-C , 10-H ) :   0.9399
B(  0-C , 11-H ) :   0.9386 B(  1-C ,  2-C ) :   0.9236 B(  1-C ,  8-C ) :   0.9125
B(  1-C , 12-H ) :   0.9189 B(  2-C ,  3-C ) :   0.9410 B(  2-C , 13-H ) :   0.9280
B(  2-C , 14-H ) :   0.9281 B(  3-C ,  4-C ) :   0.9280 B(  3-C , 15-H ) :   0.9252
B(  3-C , 16-H ) :   0.9231 B(  4-C ,  5-C ) :   0.8971 B(  4-C ,  6-C ) :   0.9728
B(  4-C ,  8-C ) :   0.9243 B(  5-C , 17-H ) :   0.9369 B(  5-C , 18-H ) :   0.9395
B(  5-C , 19-H ) :   0.9355 B(  6-C ,  7-O ) :   0.9595 B(  6-C , 20-H ) :   0.9059
B(  6-C , 21-H ) :   0.9029 B(  7-O ,  8-C ) :   0.9500 B(  8-C , 22-H ) :   0.9088

MP2 TOTAL ENERGY:     -387.627521024 Eh
FINAL SINGLE POINT ENERGY      -387.627521023797

DIPOLE MOMENT
-------------
                                X             Y             Z
Electronic contribution:      2.14016       1.00301       2.40834
Nuclear contribution   :     -2.43171      -1.60801      -2.70162
                        -----------------------------------------
Total Dipole Moment    :     -0.29156      -0.60500      -0.29328
                        -----------------------------------------
Magnitude (a.u.)       :      0.73284
Magnitude (Debye)      :      1.86272

                             ****ORCA TERMINATED NORMALLY****
TOTAL RUN TIME: 0 days 0 hours 22 minutes 22 seconds 191 msec
