                         Program Version 3.0.3 - RELEASE   -
|  1> ! RI-MP2 RIJK def2-TZVP def2-TZVP/C def2-TZVP/JK TIGHTSCF
|  2> % maxcore 2000
|  3> % mp2 density relaxed end
|  4> *xyz 0 1
|  5>  C       -0.0835924520     1.5170181248     0.0870135668
|  6>  C        0.0402954400     0.0003622625     0.0646138337
|  7>  O        1.1252301637    -0.5499991599     0.0945716481
|  8>  C       -1.1982895011    -0.7834297441     0.0053532265
|  9>  C       -1.3827221649    -2.1666099437    -0.0259741161
| 10>  C       -0.3365398190    -3.2341304066    -0.0067833852
| 11>  C       -2.7801935291    -2.3213111071    -0.0797976048
| 12>  N       -3.4248273312    -1.1505143625    -0.0825541613
| 13>  N       -2.4534599384    -0.2386243009    -0.0308516430
| 14>  H        0.9147449198     1.9525283342     0.1313582556
| 15>  H       -0.5955111515     1.8811823802    -0.8113717408
| 16>  H       -0.6603928463     1.8497631984     0.9578491206
| 17>  H        0.2833908019    -3.1688802257     0.8922909444
| 18>  H       -0.7979601416    -4.2248362314    -0.0405194032
| 19>  H        0.3462680461    -3.1387073185    -0.8562479056
| 20>  H       -3.3447090798    -3.2419435424    -0.1167721044
| 21>  H       -2.7021876766     0.7364584825    -0.0225836412
| 22> *
| 23>
| 24>                          ****END OF INPUT****

CARTESIAN COORDINATES (ANGSTROEM)
---------------------------------
  C     -0.083592    1.517018    0.087014
  C      0.040295    0.000362    0.064614
  O      1.125230   -0.549999    0.094572
  C     -1.198290   -0.783430    0.005353
  C     -1.382722   -2.166610   -0.025974
  C     -0.336540   -3.234130   -0.006783
  C     -2.780194   -2.321311   -0.079798
  N     -3.424827   -1.150514   -0.082554
  N     -2.453460   -0.238624   -0.030852
  H      0.914745    1.952528    0.131358
  H     -0.595511    1.881182   -0.811372
  H     -0.660393    1.849763    0.957849
  H      0.283391   -3.168880    0.892291
  H     -0.797960   -4.224836   -0.040519
  H      0.346268   -3.138707   -0.856248
  H     -3.344709   -3.241944   -0.116772
  H     -2.702188    0.736458   -0.022584

 Total Charge           Charge          ....    0
 Multiplicity           Mult            ....    1
 Number of Electrons    NEL             ....   66
 Basis Dimension        Dim             ....  327

ORBITAL ENERGIES
----------------

  NO   OCC          E(Eh)            E(eV)
   0   2.0000     -20.552859      -559.2717
   1   2.0000     -15.654256      -425.9740
   2   2.0000     -15.606773      -424.6819
   3   2.0000     -11.349489      -308.8353
   4   2.0000     -11.278953      -306.9159
   5   2.0000     -11.257198      -306.3239
   6   2.0000     -11.250432      -306.1398
   7   2.0000     -11.245989      -306.0189
   8   2.0000     -11.224618      -305.4374
   9   2.0000      -1.399735       -38.0887
  10   2.0000      -1.386941       -37.7406
  11   2.0000      -1.117044       -30.3963
  12   2.0000      -1.091756       -29.7082
  13   2.0000      -1.020886       -27.7797
  14   2.0000      -0.957841       -26.0642
  15   2.0000      -0.861851       -23.4522
  16   2.0000      -0.821154       -22.3447
  17   2.0000      -0.767993       -20.8981
  18   2.0000      -0.709655       -19.3107
  19   2.0000      -0.642545       -17.4845
  20   2.0000      -0.641094       -17.4451
  21   2.0000      -0.626097       -17.0370
  22   2.0000      -0.603887       -16.4326
  23   2.0000      -0.602753       -16.4017
  24   2.0000      -0.567229       -15.4351
  25   2.0000      -0.564537       -15.3618
  26   2.0000      -0.560787       -15.2598
  27   2.0000      -0.538705       -14.6589
  28   2.0000      -0.515260       -14.0209
  29   2.0000      -0.469238       -12.7686
  30   2.0000      -0.432743       -11.7755
  31   2.0000      -0.370372       -10.0783
  32   2.0000      -0.344609        -9.3773
  33   0.0000       0.080129         2.1804
  34   0.0000       0.115309         3.1377
  35   0.0000       0.152983         4.1629
  36   0.0000       0.171324         4.6620
  37   0.0000       0.181992         4.9523

MULLIKEN ATOMIC CHARGES
-----------------------
   0 C :   -0.444219
   1 C :    0.194339
   2 O :   -0.300502
   3 C :    0.027004
   4 C :    0.012685
   5 C :   -0.352951
   6 C :   -0.115024
   7 N :   -0.225439
   8 N :   -0.087021
   9 H :    0.165797
  10 H :    0.150033
  11 H :    0.150022
  12 H :    0.147531
  13 H :    0.132585
  14 H :    0.147482
  15 H :    0.137012
  16 H :    0.260664
Sum of atomic charges:   -0.0000000

LOEWDIN ATOMIC CHARGES
----------------------
   0 C :   -0.277932
   1 C :   -0.333764
   2 O :    0.151221
   3 C :   -0.195799
   4 C :   -0.167529
   5 C :   -0.264085
   6 C :   -0.238488
   7 N :    0.029888
   8 N :    0.156434
   9 H :    0.138245
  10 H :    0.134766
  11 H :    0.134762
  12 H :    0.136944
  13 H :    0.129732
  14 H :    0.136940
  15 H :    0.137549
  16 H :    0.191117

  Mayer bond orders larger than 0.1
B(  0-C ,  1-C ) :   0.9405 B(  0-C ,  3-C ) :  -0.1068 B(  0-C ,  9-H ) :   0.9356
B(  0-C , 10-H ) :   0.9174 B(  0-C , 11-H ) :   0.9174 B(  1-C ,  2-O ) :   1.9694
B(  1-C ,  3-C ) :   0.9008 B(  3-C ,  4-C ) :   1.3350 B(  3-C ,  7-N ) :   0.1190
B(  3-C ,  8-N ) :   1.1519 B(  4-C ,  5-C ) :   0.9093 B(  4-C ,  6-C ) :   1.3214
B(  5-C , 12-H ) :   0.9249 B(  5-C , 13-H ) :   0.9419 B(  5-C , 14-H ) :   0.9249
B(  6-C ,  7-N ) :   1.4835 B(  6-C , 15-H ) :   0.9373 B(  7-N ,  8-N ) :   1.0836
B(  8-N , 16-H ) :   0.8644

MP2 TOTAL ENERGY:     -417.346145605 Eh
FINAL SINGLE POINT ENERGY      -417.346145605448

DIPOLE MOMENT
-------------
                                X             Y             Z
Electronic contribution:     -2.55707       0.34526      -0.08705
Nuclear contribution   :      2.32032       0.34034       0.09050
                        -----------------------------------------
Total Dipole Moment    :     -0.23675       0.68559       0.00345
                        -----------------------------------------
Magnitude (a.u.)       :      0.72533
Magnitude (Debye)      :      1.84364

                             ****ORCA TERMINATED NORMALLY****
TOTAL RUN TIME: 0 days 0 hours 16 minutes 10 seconds 921 msec
