                         Program Version 3.0.3 - RELEASE   -
|  1> ! RI-MP2 RIJK def2-TZVP def2-TZVP/C def2-TZVP/JK TIGHTSCF
|  2> % maxcore 2000
|  3> % mp2 density relaxed end
|  4> *xyz 0 1
|  5>  O       -0.0091298772     1.4610979388    -0.1795772449
|  6>  C        0.0201776479     0.0744129333     0.1201765845
|  7>  C       -1.3830742966    -0.4789535214    -0.0866686260
|  8>  C       -1.4642165215    -1.9926869761     0.1762813127
|  9>  C       -2.8524804996    -2.5312431011     0.0333858126
| 10>  C       -3.4289621923    -3.2515392959    -0.9875242378
| 11>  N       -4.7079420202    -3.4351542746    -0.5808675794
| 12>  N       -4.9288599851    -2.8709246643     0.6192829127
| 13>  N       -3.8082843537    -2.3238222420     0.9901801145
| 14>  H        0.8666565355     1.8229609883    -0.0167765999
| 15>  H        0.7323017618    -0.4591835055    -0.5323760320
| 16>  H        0.3393249216    -0.1037895973     1.1603963364
| 17>  H       -2.0766656163     0.0450971895     0.5788714613
| 18>  H       -1.7012291363    -0.2595696384    -1.1124700488
| 19>  H       -0.7948143629    -2.5264924598    -0.5084290149
| 20>  H       -1.1119665916    -2.2034915722     1.1930237878
| 21>  H       -3.0533422924    -3.6326946919    -1.9220866885
| 22>  H       -5.4587717412    -3.9224816294    -1.0429144003
| 23> *
| 24>
| 25>                          ****END OF INPUT****

CARTESIAN COORDINATES (ANGSTROEM)
---------------------------------
  O     -0.009130    1.461098   -0.179577
  C      0.020178    0.074413    0.120177
  C     -1.383074   -0.478954   -0.086669
  C     -1.464217   -1.992687    0.176281
  C     -2.852480   -2.531243    0.033386
  C     -3.428962   -3.251539   -0.987524
  N     -4.707942   -3.435154   -0.580868
  N     -4.928860   -2.870925    0.619283
  N     -3.808284   -2.323822    0.990180
  H      0.866657    1.822961   -0.016777
  H      0.732302   -0.459184   -0.532376
  H      0.339325   -0.103790    1.160396
  H     -2.076666    0.045097    0.578871
  H     -1.701229   -0.259570   -1.112470
  H     -0.794814   -2.526492   -0.508429
  H     -1.111967   -2.203492    1.193024
  H     -3.053342   -3.632695   -1.922087
  H     -5.458772   -3.922482   -1.042914

 Total Charge           Charge          ....    0
 Multiplicity           Mult            ....    1
 Number of Electrons    NEL             ....   68
 Basis Dimension        Dim             ....  333

ORBITAL ENERGIES
----------------

  NO   OCC          E(Eh)            E(eV)
   0   2.0000     -20.554444      -559.3149
   1   2.0000     -15.656078      -426.0235
   2   2.0000     -15.639416      -425.5701
   3   2.0000     -15.590671      -424.2437
   4   2.0000     -11.280616      -306.9612
   5   2.0000     -11.275305      -306.8166
   6   2.0000     -11.258258      -306.3528
   7   2.0000     -11.236444      -305.7592
   8   2.0000     -11.219511      -305.2984
   9   2.0000      -1.434585       -39.0370
  10   2.0000      -1.358566       -36.9685
  11   2.0000      -1.199494       -32.6399
  12   2.0000      -1.106837       -30.1186
  13   2.0000      -1.042125       -28.3577
  14   2.0000      -0.934704       -25.4346
  15   2.0000      -0.867208       -23.5979
  16   2.0000      -0.823841       -22.4178
  17   2.0000      -0.799411       -21.7531
  18   2.0000      -0.744441       -20.2573
  19   2.0000      -0.691695       -18.8220
  20   2.0000      -0.661137       -17.9904
  21   2.0000      -0.640513       -17.4292
  22   2.0000      -0.634108       -17.2549
  23   2.0000      -0.605547       -16.4778
  24   2.0000      -0.574097       -15.6220
  25   2.0000      -0.550069       -14.9681
  26   2.0000      -0.523141       -14.2354
  27   2.0000      -0.508190       -13.8286
  28   2.0000      -0.492205       -13.3936
  29   2.0000      -0.477538       -12.9945
  30   2.0000      -0.443188       -12.0598
  31   2.0000      -0.435586       -11.8529
  32   2.0000      -0.413834       -11.2610
  33   2.0000      -0.347994        -9.4694
  34   0.0000       0.126347         3.4381
  35   0.0000       0.134322         3.6551
  36   0.0000       0.137541         3.7427
  37   0.0000       0.148426         4.0389
  38   0.0000       0.174187         4.7399

MULLIKEN ATOMIC CHARGES
-----------------------
   0 O :   -0.464011
   1 C :   -0.066588
   2 C :   -0.174012
   3 C :   -0.299888
   4 C :    0.089133
   5 C :   -0.146776
   6 N :   -0.061337
   7 N :   -0.149126
   8 N :   -0.152509
   9 H :    0.315251
  10 H :    0.085900
  11 H :    0.095753
  12 H :    0.137342
  13 H :    0.111818
  14 H :    0.121387
  15 H :    0.133142
  16 H :    0.162143
  17 H :    0.262380
Sum of atomic charges:   -0.0000000

LOEWDIN ATOMIC CHARGES
----------------------
   0 O :   -0.050676
   1 C :   -0.354569
   2 C :   -0.260150
   3 C :   -0.230095
   4 C :   -0.282485
   5 C :   -0.231815
   6 N :    0.120357
   7 N :   -0.053814
   8 N :    0.027945
   9 H :    0.171779
  10 H :    0.112460
  11 H :    0.115043
  12 H :    0.146963
  13 H :    0.139946
  14 H :    0.144935
  15 H :    0.152308
  16 H :    0.141421
  17 H :    0.190449

  Mayer bond orders larger than 0.1
B(  0-O ,  1-C ) :   1.0253 B(  0-O ,  9-H ) :   0.8493 B(  1-C ,  2-C ) :   0.9318
B(  1-C , 10-H ) :   0.9290 B(  1-C , 11-H ) :   0.9331 B(  2-C ,  3-C ) :   0.9152
B(  2-C , 12-H ) :   0.9247 B(  2-C , 13-H ) :   0.9219 B(  3-C ,  4-C ) :   0.9197
B(  3-C , 14-H ) :   0.9389 B(  3-C , 15-H ) :   0.9221 B(  4-C ,  5-C ) :   1.4351
B(  4-C ,  8-N ) :   1.3560 B(  5-C ,  6-N ) :   1.1976 B(  5-C ,  7-N ) :   0.1327
B(  5-C , 16-H ) :   0.9035 B(  6-N ,  7-N ) :   1.0613 B(  6-N , 17-H ) :   0.8633
B(  7-N ,  8-N ) :   1.2909

MP2 TOTAL ENERGY:     -434.548061148 Eh
FINAL SINGLE POINT ENERGY      -434.548061148137

DIPOLE MOMENT
-------------
                                X             Y             Z
Electronic contribution:     -8.27268      -4.17386       0.77886
Nuclear contribution   :      9.10341       3.23227      -2.08848
                        -----------------------------------------
Total Dipole Moment    :      0.83073      -0.94160      -1.30962
                        -----------------------------------------
Magnitude (a.u.)       :      1.81434
Magnitude (Debye)      :      4.61168

                             ****ORCA TERMINATED NORMALLY****
TOTAL RUN TIME: 0 days 0 hours 15 minutes 49 seconds 212 msec
