                         Program Version 3.0.3 - RELEASE   -
|  1> ! RI-MP2 RIJK def2-TZVP def2-TZVP/C def2-TZVP/JK TIGHTSCF
|  2> % maxcore 2000
|  3> % mp2 density relaxed end
|  4> *xyz 0 1
|  5>  C       -0.6681720006     0.6427492361     0.1418544693
|  6>  O        0.7269858340     0.3827815875    -0.0920165852
|  7>  C        0.9882404096    -0.4900312924    -1.0853185210
|  8>  C        0.7842104933    -1.8427412420    -1.2336820247
|  9>  C        0.1071717964    -2.7855907690    -0.2944381237
| 10>  O       -1.3235887949    -2.6768610759    -0.3033595924
| 11>  N        1.2846271424    -2.2496451401    -2.4573491736
| 12>  C        1.7879888795    -1.1789343364    -3.0213951103
| 13>  N        1.6273050896    -0.0738295738    -2.2323425840
| 14>  H       -1.0847534490     1.2524899529    -0.6700051919
| 15>  H       -1.2288543561    -0.2927797778     0.2205100255
| 16>  H       -0.7209332160     1.2008560457     1.0781328447
| 17>  H        0.4232713533    -3.8072598273    -0.5413314744
| 18>  H        0.3973142804    -2.5784877210     0.7401338029
| 19>  H       -1.6047627671    -2.8020654904    -1.2163499778
| 20>  H        2.2846980127    -1.1365857595    -3.9789909666
| 21>  H        1.9403800826     0.8663584832    -2.4106074868
| 22> *
| 23>
| 24>                          ****END OF INPUT****

CARTESIAN COORDINATES (ANGSTROEM)
---------------------------------
  C     -0.668172    0.642749    0.141854
  O      0.726986    0.382782   -0.092017
  C      0.988240   -0.490031   -1.085319
  C      0.784210   -1.842741   -1.233682
  C      0.107172   -2.785591   -0.294438
  O     -1.323589   -2.676861   -0.303360
  N      1.284627   -2.249645   -2.457349
  C      1.787989   -1.178934   -3.021395
  N      1.627305   -0.073830   -2.232343
  H     -1.084753    1.252490   -0.670005
  H     -1.228854   -0.292780    0.220510
  H     -0.720933    1.200856    1.078133
  H      0.423271   -3.807260   -0.541331
  H      0.397314   -2.578488    0.740134
  H     -1.604763   -2.802065   -1.216350
  H      2.284698   -1.136586   -3.978991
  H      1.940380    0.866358   -2.410607

 Total Charge           Charge          ....    0
 Multiplicity           Mult            ....    1
 Number of Electrons    NEL             ....   68
 Basis Dimension        Dim             ....  327

ORBITAL ENERGIES
----------------

  NO   OCC          E(Eh)            E(eV)
   0   2.0000     -20.591265      -560.3168
   1   2.0000     -20.551405      -559.2321
   2   2.0000     -15.621567      -425.0844
   3   2.0000     -15.548893      -423.1069
   4   2.0000     -11.319963      -308.0319
   5   2.0000     -11.295610      -307.3692
   6   2.0000     -11.283820      -307.0483
   7   2.0000     -11.274679      -306.7996
   8   2.0000     -11.238710      -305.8208
   9   2.0000      -1.423180       -38.7267
  10   2.0000      -1.352702       -36.8089
  11   2.0000      -1.332790       -36.2671
  12   2.0000      -1.170607       -31.8538
  13   2.0000      -1.026525       -27.9332
  14   2.0000      -0.957175       -26.0460
  15   2.0000      -0.911073       -24.7915
  16   2.0000      -0.836163       -22.7531
  17   2.0000      -0.777033       -21.1441
  18   2.0000      -0.752045       -20.4642
  19   2.0000      -0.690712       -18.7952
  20   2.0000      -0.661817       -18.0090
  21   2.0000      -0.657762       -17.8986
  22   2.0000      -0.636770       -17.3274
  23   2.0000      -0.608200       -16.5500
  24   2.0000      -0.603575       -16.4241
  25   2.0000      -0.590598       -16.0710
  26   2.0000      -0.576484       -15.6869
  27   2.0000      -0.526319       -14.3219
  28   2.0000      -0.499576       -13.5941
  29   2.0000      -0.484398       -13.1811
  30   2.0000      -0.453205       -12.3323
  31   2.0000      -0.429684       -11.6923
  32   2.0000      -0.403247       -10.9729
  33   2.0000      -0.308254        -8.3880
  34   0.0000       0.128234         3.4894
  35   0.0000       0.148502         4.0409
  36   0.0000       0.159862         4.3501
  37   0.0000       0.174444         4.7469
  38   0.0000       0.183235         4.9861

MULLIKEN ATOMIC CHARGES
-----------------------
   0 C :   -0.210986
   1 O :   -0.317306
   2 C :    0.205972
   3 C :   -0.057708
   4 C :   -0.023607
   5 O :   -0.488894
   6 N :   -0.295748
   7 C :    0.047969
   8 N :   -0.258987
   9 H :    0.115632
  10 H :    0.164714
  11 H :    0.140593
  12 H :    0.130008
  13 H :    0.127081
  14 H :    0.318040
  15 H :    0.150230
  16 H :    0.252997
Sum of atomic charges:   -0.0000000

LOEWDIN ATOMIC CHARGES
----------------------
   0 C :   -0.308248
   1 O :    0.203819
   2 C :   -0.332108
   3 C :   -0.273121
   4 C :   -0.306860
   5 O :   -0.064673
   6 N :    0.103587
   7 C :   -0.319097
   8 N :    0.194033
   9 H :    0.104699
  10 H :    0.115928
  11 H :    0.114087
  12 H :    0.132082
  13 H :    0.137015
  14 H :    0.173395
  15 H :    0.129315
  16 H :    0.196146

  Mayer bond orders larger than 0.1
B(  0-C ,  1-O ) :   0.8340 B(  0-C ,  9-H ) :   0.9335 B(  0-C , 10-H ) :   0.9236
B(  0-C , 11-H ) :   0.9377 B(  1-O ,  2-C ) :   1.1107 B(  2-C ,  3-C ) :   1.4488
B(  2-C ,  8-N ) :   1.1439 B(  3-C ,  4-C ) :   0.9064 B(  3-C ,  6-N ) :   1.2628
B(  4-C ,  5-O ) :   0.8599 B(  4-C , 12-H ) :   0.9291 B(  4-C , 13-H ) :   0.9496
B(  5-O , 14-H ) :   0.8440 B(  6-N ,  7-C ) :   1.5592 B(  7-C ,  8-N ) :   1.1404
B(  7-C , 15-H ) :   0.9261 B(  8-N , 16-H ) :   0.8583

MP2 TOTAL ENERGY:     -454.427813554 Eh
FINAL SINGLE POINT ENERGY      -454.427813554046

DIPOLE MOMENT
-------------
                                X             Y             Z
Electronic contribution:      3.67144      -0.30606      -2.61143
Nuclear contribution   :     -3.59732       1.61819       2.13794
                        -----------------------------------------
Total Dipole Moment    :      0.07412       1.31213      -0.47349
                        -----------------------------------------
Magnitude (a.u.)       :      1.39691
Magnitude (Debye)      :      3.55067

                             ****ORCA TERMINATED NORMALLY****
TOTAL RUN TIME: 0 days 0 hours 14 minutes 34 seconds 925 msec
