                         Program Version 3.0.3 - RELEASE   -
|  1> ! RI-MP2 RIJK def2-TZVP def2-TZVP/C def2-TZVP/JK TIGHTSCF
|  2> % maxcore 2000
|  3> % mp2 density relaxed end
|  4> *xyz 0 1
|  5>  O       -0.2751559590     0.1580178716    -0.3998410502
|  6>  C       -0.0207563499     1.2457778473     0.0584604467
|  7>  C        1.3277768696     1.8294461016     0.1025957016
|  8>  C        1.8994114164     2.6854622933     1.1862782053
|  9>  C        3.2679284207     2.1834699276     1.4822531091
| 10>  C        3.6778854483     1.3889530160     0.4855842070
| 11>  C        2.6382699846     1.3992356281    -0.6070415338
| 12>  C        2.6179869510     2.8724976034    -1.1526013230
| 13>  N        1.5824947257     3.3018064154    -0.1604356705
| 14>  H       -0.8066321779     1.9103905555     0.4824978691
| 15>  H        1.2606117392     3.1032129798     1.9555696473
| 16>  H        3.8308577927     2.4844431226     2.3558087863
| 17>  H        4.6609019557     0.9488020476     0.3730331106
| 18>  H        2.6252852761     0.5785410581    -1.3191654110
| 19>  H        3.5556129423     3.4351002704    -1.1230820880
| 20>  H        2.1599177844     2.9413495917    -2.1409045265
| 21> *
| 22>
| 23>                          ****END OF INPUT****

CARTESIAN COORDINATES (ANGSTROEM)
---------------------------------
  O     -0.275156    0.158018   -0.399841
  C     -0.020756    1.245778    0.058460
  C      1.327777    1.829446    0.102596
  C      1.899411    2.685462    1.186278
  C      3.267928    2.183470    1.482253
  C      3.677885    1.388953    0.485584
  C      2.638270    1.399236   -0.607042
  C      2.617987    2.872498   -1.152601
  N      1.582495    3.301806   -0.160436
  H     -0.806632    1.910391    0.482498
  H      1.260612    3.103213    1.955570
  H      3.830858    2.484443    2.355809
  H      4.660902    0.948802    0.373033
  H      2.625285    0.578541   -1.319165
  H      3.555613    3.435100   -1.123082
  H      2.159918    2.941350   -2.140905

 Total Charge           Charge          ....    0
 Multiplicity           Mult            ....    1
 Number of Electrons    NEL             ....   64
 Basis Dimension        Dim             ....  321

ORBITAL ENERGIES
----------------

  NO   OCC          E(Eh)            E(eV)
   0   2.0000     -20.561310      -559.5017
   1   2.0000     -15.588104      -424.1739
   2   2.0000     -11.339638      -308.5672
   3   2.0000     -11.288605      -307.1786
   4   2.0000     -11.284242      -307.0598
   5   2.0000     -11.273203      -306.7594
   6   2.0000     -11.258293      -306.3537
   7   2.0000     -11.249060      -306.1025
   8   2.0000     -11.244309      -305.9732
   9   2.0000      -1.399529       -38.0831
  10   2.0000      -1.320452       -35.9313
  11   2.0000      -1.094910       -29.7940
  12   2.0000      -1.030091       -28.0302
  13   2.0000      -0.972424       -26.4610
  14   2.0000      -0.869158       -23.6510
  15   2.0000      -0.843013       -22.9396
  16   2.0000      -0.775520       -21.1030
  17   2.0000      -0.724094       -19.7036
  18   2.0000      -0.720058       -19.5938
  19   2.0000      -0.667693       -18.1688
  20   2.0000      -0.633575       -17.2405
  21   2.0000      -0.619665       -16.8619
  22   2.0000      -0.598042       -16.2735
  23   2.0000      -0.577170       -15.7056
  24   2.0000      -0.551466       -15.0061
  25   2.0000      -0.532909       -14.5012
  26   2.0000      -0.525269       -14.2933
  27   2.0000      -0.472180       -12.8487
  28   2.0000      -0.455188       -12.3863
  29   2.0000      -0.420555       -11.4439
  30   2.0000      -0.395842       -10.7714
  31   2.0000      -0.355152        -9.6642
  32   0.0000       0.104602         2.8464
  33   0.0000       0.130339         3.5467
  34   0.0000       0.148971         4.0537
  35   0.0000       0.164828         4.4852
  36   0.0000       0.172753         4.7009

MULLIKEN ATOMIC CHARGES
-----------------------
   0 O :   -0.264856
   1 C :    0.026698
   2 C :    0.238044
   3 C :   -0.130191
   4 C :   -0.151645
   5 C :   -0.244908
   6 C :   -0.000443
   7 C :   -0.141720
   8 N :   -0.246597
   9 H :    0.088771
  10 H :    0.138417
  11 H :    0.139400
  12 H :    0.135619
  13 H :    0.153836
  14 H :    0.119126
  15 H :    0.140450
Sum of atomic charges:    0.0000000

LOEWDIN ATOMIC CHARGES
----------------------
   0 O :    0.136697
   1 C :   -0.267608
   2 C :   -0.188213
   3 C :   -0.176717
   4 C :   -0.138896
   5 C :   -0.124286
   6 C :   -0.150597
   7 C :   -0.208692
   8 N :    0.149693
   9 H :    0.122437
  10 H :    0.151027
  11 H :    0.142054
  12 H :    0.140726
  13 H :    0.149010
  14 H :    0.124869
  15 H :    0.138496

  Mayer bond orders larger than 0.1
B(  0-O ,  1-C ) :   2.0036 B(  1-C ,  2-C ) :   0.8144 B(  1-C ,  9-H ) :   0.9688
B(  2-C ,  3-C ) :   0.8397 B(  2-C ,  6-C ) :   0.8183 B(  2-C ,  8-N ) :   0.7588
B(  3-C ,  4-C ) :   0.9706 B(  3-C ,  8-N ) :   0.8965 B(  3-C , 10-H ) :   0.9316
B(  4-C ,  5-C ) :   1.7483 B(  4-C , 11-H ) :   0.9299 B(  5-C ,  6-C ) :   0.9817
B(  5-C , 12-H ) :   0.9346 B(  6-C ,  7-C ) :   0.9005 B(  6-C , 13-H ) :   0.9068
B(  7-C ,  8-N ) :   0.9314 B(  7-C , 14-H ) :   0.9193 B(  7-C , 15-H ) :   0.9220

MP2 TOTAL ENERGY:     -400.012523698 Eh
FINAL SINGLE POINT ENERGY      -400.012523697714

DIPOLE MOMENT
-------------
                                X             Y             Z
Electronic contribution:     -3.33056      -1.66631       0.31190
Nuclear contribution   :      4.24475       2.08734      -0.03706
                        -----------------------------------------
Total Dipole Moment    :      0.91419       0.42103       0.27484
                        -----------------------------------------
Magnitude (a.u.)       :      1.04334
Magnitude (Debye)      :      2.65196

                             ****ORCA TERMINATED NORMALLY****
TOTAL RUN TIME: 0 days 0 hours 18 minutes 3 seconds 838 msec
