                         Program Version 3.0.3 - RELEASE   -
|  1> ! RI-MP2 RIJK def2-TZVP def2-TZVP/C def2-TZVP/JK TIGHTSCF
|  2> % maxcore 2000
|  3> % mp2 density relaxed end
|  4> *xyz 0 1
|  5>  C        0.0499563292     1.4486194187    -0.2031372394
|  6>  C        0.1886391830    -0.0488154708    -0.0445623100
|  7>  C        1.5596502827    -0.7017029709    -0.0433235989
|  8>  C        0.7579574530    -0.6406144119     1.2228869682
|  9>  O        1.2622333775     0.2291928404     2.2089192318
| 10>  C        0.1701962168    -1.9074176696     1.8223418304
| 11>  O       -0.3920833484    -2.7072030447     0.8013654096
| 12>  C        1.2238665341    -2.7200366401     2.5843618651
| 13>  O        0.6866916099    -3.9869460771     2.9693043521
| 14>  H        0.8289864997     1.9757724311     0.3542859083
| 15>  H        0.1319115569     1.7398253934    -1.2557393047
| 16>  H       -0.9230251050     1.8018277284     0.1590095533
| 17>  H       -0.5949003549    -0.6425627270    -0.5044456748
| 18>  H        1.6642686830    -1.6628650850    -0.5326579353
| 19>  H        2.4259388426    -0.0506029247    -0.0924630235
| 20>  H        0.5124149968     0.6684794711     2.6269283693
| 21>  H       -0.6176730877    -1.6063548560     2.5440745090
| 22>  H       -0.3943314771    -3.6067369816     1.1568412768
| 23>  H        2.0609592688    -2.9444266837     1.9166064461
| 24>  H        1.6056943255    -2.1543782379     3.4413528251
| 25>  H        0.0739310437    -3.8405463921     3.6979854816
| 26> *
| 27>
| 28>                          ****END OF INPUT****

CARTESIAN COORDINATES (ANGSTROEM)
---------------------------------
  C      0.049956    1.448619   -0.203137
  C      0.188639   -0.048815   -0.044562
  C      1.559650   -0.701703   -0.043324
  C      0.757957   -0.640614    1.222887
  O      1.262233    0.229193    2.208919
  C      0.170196   -1.907418    1.822342
  O     -0.392083   -2.707203    0.801365
  C      1.223867   -2.720037    2.584362
  O      0.686692   -3.986946    2.969304
  H      0.828986    1.975772    0.354286
  H      0.131912    1.739825   -1.255739
  H     -0.923025    1.801828    0.159010
  H     -0.594900   -0.642563   -0.504446
  H      1.664269   -1.662865   -0.532658
  H      2.425939   -0.050603   -0.092463
  H      0.512415    0.668479    2.626928
  H     -0.617673   -1.606355    2.544075
  H     -0.394331   -3.606737    1.156841
  H      2.060959   -2.944427    1.916606
  H      1.605694   -2.154378    3.441353
  H      0.073931   -3.840546    3.697985

 Total Charge           Charge          ....    0
 Multiplicity           Mult            ....    1
 Number of Electrons    NEL             ....   72
 Basis Dimension        Dim             ....  351

ORBITAL ENERGIES
----------------

  NO   OCC          E(Eh)            E(eV)
   0   2.0000     -20.572422      -559.8041
   1   2.0000     -20.567622      -559.6734
   2   2.0000     -20.554887      -559.3269
   3   2.0000     -11.285852      -307.1037
   4   2.0000     -11.284131      -307.0568
   5   2.0000     -11.279033      -306.9181
   6   2.0000     -11.225698      -305.4668
   7   2.0000     -11.215932      -305.2010
   8   2.0000     -11.215369      -305.1857
   9   2.0000      -1.388812       -37.7915
  10   2.0000      -1.375351       -37.4252
  11   2.0000      -1.353223       -36.8231
  12   2.0000      -1.133442       -30.8425
  13   2.0000      -1.010806       -27.5054
  14   2.0000      -0.956826       -26.0366
  15   2.0000      -0.874382       -23.7931
  16   2.0000      -0.791293       -21.5322
  17   2.0000      -0.775858       -21.1122
  18   2.0000      -0.715114       -19.4592
  19   2.0000      -0.697542       -18.9811
  20   2.0000      -0.667396       -18.1608
  21   2.0000      -0.662839       -18.0368
  22   2.0000      -0.651739       -17.7347
  23   2.0000      -0.604664       -16.4537
  24   2.0000      -0.589178       -16.0323
  25   2.0000      -0.569965       -15.5095
  26   2.0000      -0.549119       -14.9423
  27   2.0000      -0.540556       -14.7093
  28   2.0000      -0.532731       -14.4963
  29   2.0000      -0.511037       -13.9060
  30   2.0000      -0.505442       -13.7538
  31   2.0000      -0.492889       -13.4122
  32   2.0000      -0.473928       -12.8962
  33   2.0000      -0.450521       -12.2593
  34   2.0000      -0.398455       -10.8425
  35   2.0000      -0.382612       -10.4114
  36   0.0000       0.121667         3.3107
  37   0.0000       0.134037         3.6473
  38   0.0000       0.166301         4.5253
  39   0.0000       0.174353         4.7444
  40   0.0000       0.190962         5.1964

MULLIKEN ATOMIC CHARGES
-----------------------
   0 C :   -0.448218
   1 C :   -0.091154
   2 C :   -0.303246
   3 C :    0.196514
   4 O :   -0.480483
   5 C :    0.046630
   6 O :   -0.483134
   7 C :   -0.056222
   8 O :   -0.489920
   9 H :    0.146182
  10 H :    0.136865
  11 H :    0.129952
  12 H :    0.141049
  13 H :    0.144639
  14 H :    0.131176
  15 H :    0.323446
  16 H :    0.051066
  17 H :    0.332055
  18 H :    0.128075
  19 H :    0.122821
  20 H :    0.321905
Sum of atomic charges:   -0.0000000

LOEWDIN ATOMIC CHARGES
----------------------
   0 C :   -0.301339
   1 C :   -0.217429
   2 C :   -0.185311
   3 C :   -0.336978
   4 O :    0.027708
   5 C :   -0.343394
   6 O :   -0.007264
   7 C :   -0.319174
   8 O :   -0.057741
   9 H :    0.128321
  10 H :    0.127145
  11 H :    0.122695
  12 H :    0.155419
  13 H :    0.138935
  14 H :    0.139873
  15 H :    0.182189
  16 H :    0.130975
  17 H :    0.179892
  18 H :    0.135353
  19 H :    0.124597
  20 H :    0.175528

  Mayer bond orders larger than 0.1
B(  0-C ,  1-C ) :   0.8685 B(  0-C ,  9-H ) :   0.9372 B(  0-C , 10-H ) :   0.9408
B(  0-C , 11-H ) :   0.9423 B(  1-C ,  2-C ) :   0.9167 B(  1-C ,  3-C ) :   0.8720
B(  1-C , 12-H ) :   0.9042 B(  2-C ,  3-C ) :   0.8752 B(  2-C , 13-H ) :   0.9164
B(  2-C , 14-H ) :   0.9183 B(  3-C ,  4-O ) :   0.9297 B(  3-C ,  5-C ) :   0.9180
B(  4-O , 15-H ) :   0.8395 B(  5-C ,  6-O ) :   0.9718 B(  5-C ,  7-C ) :   0.9449
B(  5-C , 16-H ) :   0.8990 B(  6-O , 17-H ) :   0.8161 B(  7-C ,  8-O ) :   0.8837
B(  7-C , 18-H ) :   0.9237 B(  7-C , 19-H ) :   0.9376 B(  8-O , 20-H ) :   0.8440

MP2 TOTAL ENERGY:     -460.618483277 Eh
FINAL SINGLE POINT ENERGY      -460.618483277341

DIPOLE MOMENT
-------------
                                X             Y             Z
Electronic contribution:     -0.11772      -4.37051       2.75678
Nuclear contribution   :     -0.39348       4.64992      -2.06538
                        -----------------------------------------
Total Dipole Moment    :     -0.51120       0.27941       0.69140
                        -----------------------------------------
Magnitude (a.u.)       :      0.90411
Magnitude (Debye)      :      2.29807

                             ****ORCA TERMINATED NORMALLY****
TOTAL RUN TIME: 0 days 0 hours 16 minutes 12 seconds 187 msec
