                         Program Version 3.0.3 - RELEASE   -
|  1> ! RI-MP2 RIJK def2-TZVP def2-TZVP/C def2-TZVP/JK TIGHTSCF
|  2> % maxcore 2000
|  3> % mp2 density relaxed end
|  4> *xyz 0 1
|  5>  N       -0.0265766652    -1.1314176141    -0.2637464133
|  6>  C        0.0318518614     0.0153792551    -0.1361473898
|  7>  C        0.0550045306     1.4675062124     0.0521184996
|  8>  C       -0.6770614875     1.9029450788     1.3916805665
|  9>  C        0.0477271766     3.2261120781     1.6682002814
| 10>  C        0.9877315698     3.6159995985     2.8647298804
| 11>  N        2.1271810114     3.6510560896     1.8786974589
| 12>  C        1.3503608404     2.9257283364     0.9912360581
| 13>  N        1.4600145258     1.9665121594     0.1645058925
| 14>  H       -0.4452895863     1.9174626420    -0.8169089451
| 15>  H       -1.7583988692     1.9870544768     1.2689803850
| 16>  H       -0.4703253460     1.1550729152     2.1623242920
| 17>  H       -0.4832448949     4.0971215007     1.2779809461
| 18>  H        0.7989604275     4.5749063632     3.3503034465
| 19>  H        1.0937600724     2.8206164976     3.6094190169
| 20>  H        3.0640630932     3.3481936805     2.1178009743
| 21> *
| 22>
| 23>                          ****END OF INPUT****

CARTESIAN COORDINATES (ANGSTROEM)
---------------------------------
  N     -0.026577   -1.131418   -0.263746
  C      0.031852    0.015379   -0.136147
  C      0.055005    1.467506    0.052118
  C     -0.677061    1.902945    1.391681
  C      0.047727    3.226112    1.668200
  C      0.987732    3.616000    2.864730
  N      2.127181    3.651056    1.878697
  C      1.350361    2.925728    0.991236
  N      1.460015    1.966512    0.164506
  H     -0.445290    1.917463   -0.816909
  H     -1.758399    1.987054    1.268980
  H     -0.470325    1.155073    2.162324
  H     -0.483245    4.097122    1.277981
  H      0.798960    4.574906    3.350303
  H      1.093760    2.820616    3.609419
  H      3.064063    3.348194    2.117801

 Total Charge           Charge          ....    0
 Multiplicity           Mult            ....    1
 Number of Electrons    NEL             ....   64
 Basis Dimension        Dim             ....  321

ORBITAL ENERGIES
----------------

  NO   OCC          E(Eh)            E(eV)
   0   2.0000     -15.598575      -424.4588
   1   2.0000     -15.564725      -423.5377
   2   2.0000     -15.559729      -423.4018
   3   2.0000     -11.328056      -308.2521
   4   2.0000     -11.315856      -307.9201
   5   2.0000     -11.303316      -307.5789
   6   2.0000     -11.267377      -306.6009
   7   2.0000     -11.266055      -306.5649
   8   2.0000     -11.265634      -306.5535
   9   2.0000      -1.326311       -36.0908
  10   2.0000      -1.234136       -33.5825
  11   2.0000      -1.205107       -32.7926
  12   2.0000      -1.075835       -29.2749
  13   2.0000      -1.002823       -27.2882
  14   2.0000      -0.934009       -25.4157
  15   2.0000      -0.861896       -23.4534
  16   2.0000      -0.769888       -20.9497
  17   2.0000      -0.707362       -19.2483
  18   2.0000      -0.704287       -19.1646
  19   2.0000      -0.678152       -18.4534
  20   2.0000      -0.647278       -17.6133
  21   2.0000      -0.592830       -16.1317
  22   2.0000      -0.575172       -15.6512
  23   2.0000      -0.560386       -15.2489
  24   2.0000      -0.537495       -14.6260
  25   2.0000      -0.531448       -14.4614
  26   2.0000      -0.521111       -14.1801
  27   2.0000      -0.485354       -13.2071
  28   2.0000      -0.460160       -12.5216
  29   2.0000      -0.449518       -12.2320
  30   2.0000      -0.430886       -11.7250
  31   2.0000      -0.380467       -10.3530
  32   0.0000       0.120483         3.2785
  33   0.0000       0.127646         3.4734
  34   0.0000       0.135929         3.6988
  35   0.0000       0.149627         4.0716
  36   0.0000       0.168187         4.5766

MULLIKEN ATOMIC CHARGES
-----------------------
   0 N :   -0.054904
   1 C :   -0.163103
   2 C :    0.117314
   3 C :   -0.256800
   4 C :   -0.098915
   5 C :   -0.132263
   6 N :   -0.299766
   7 C :    0.057029
   8 N :   -0.221170
   9 H :    0.134257
  10 H :    0.147159
  11 H :    0.140381
  12 H :    0.133647
  13 H :    0.129292
  14 H :    0.131884
  15 H :    0.235956
Sum of atomic charges:    0.0000000

LOEWDIN ATOMIC CHARGES
----------------------
   0 N :    0.066003
   1 C :   -0.167954
   2 C :   -0.238099
   3 C :   -0.185437
   4 C :   -0.184742
   5 C :   -0.199368
   6 N :    0.089494
   7 C :   -0.336757
   8 N :    0.114305
   9 H :    0.165497
  10 H :    0.139861
  11 H :    0.149452
  12 H :    0.160475
  13 H :    0.124695
  14 H :    0.128568
  15 H :    0.174008

  Mayer bond orders larger than 0.1
B(  0-N ,  1-C ) :   2.8706 B(  1-C ,  2-C ) :   0.9263 B(  2-C ,  3-C ) :   0.9047
B(  2-C ,  8-N ) :   0.9294 B(  2-C ,  9-H ) :   0.9046 B(  3-C ,  4-C ) :   0.9239
B(  3-C , 10-H ) :   0.9195 B(  3-C , 11-H ) :   0.9181 B(  4-C ,  5-C ) :   0.9151
B(  4-C ,  7-C ) :   0.9225 B(  4-C , 12-H ) :   0.9006 B(  5-C ,  6-N ) :   0.9299
B(  5-C , 13-H ) :   0.9209 B(  5-C , 14-H ) :   0.9079 B(  6-N ,  7-C ) :   1.1933
B(  6-N , 15-H ) :   0.8625 B(  7-C ,  8-N ) :   1.8474

MP2 TOTAL ENERGY:     -396.224838816 Eh
FINAL SINGLE POINT ENERGY      -396.224838816033

DIPOLE MOMENT
-------------
                                X             Y             Z
Electronic contribution:      1.87094      -3.80903      -4.31365
Nuclear contribution   :     -2.27329       5.60340       5.65320
                        -----------------------------------------
Total Dipole Moment    :     -0.40235       1.79437       1.33956
                        -----------------------------------------
Magnitude (a.u.)       :      2.27509
Magnitude (Debye)      :      5.78283

                             ****ORCA TERMINATED NORMALLY****
TOTAL RUN TIME: 0 days 0 hours 15 minutes 52 seconds 421 msec
