                         Program Version 3.0.3 - RELEASE   -
|  1> ! RI-MP2 RIJK def2-TZVP def2-TZVP/C def2-TZVP/JK TIGHTSCF
|  2> % maxcore 2000
|  3> % mp2 density relaxed end
|  4> *xyz 0 1
|  5>  C       -0.0652799665     1.6386311210    -0.1559789137
|  6>  N        0.0726437487     0.1999947140     0.0109652897
|  7>  C        1.3036929115    -0.5280388024    -0.2341995161
|  8>  C        2.6392909243     0.2129597898    -0.2936185676
|  9>  C        2.8068907710     0.9357320380     1.0672120795
| 10>  C        1.6931140268     0.4010103339     1.9757689530
| 11>  C        1.8741235897     0.1533505869     3.4119123856
| 12>  O        1.1460132985     1.2956054910     2.9573701620
| 13>  C        0.7365625298    -0.4167923604     1.1504248391
| 14>  H        0.8364329407     2.2361550112     0.0317439093
| 15>  H       -0.3917281637     1.8354794470    -1.1823810583
| 16>  H       -0.8463748567     1.9927999928     0.5224499492
| 17>  H        1.1970260668    -1.4278662799    -0.8357452605
| 18>  H        3.4363313677    -0.5216394446    -0.4459971438
| 19>  H        2.6870494650     0.9063610681    -1.1401789013
| 20>  H        3.7941761873     0.7519364018     1.5001015648
| 21>  H        2.7016333332     2.0205711448     0.9767758893
| 22>  H        1.2820296585    -0.6111348931     3.9153153789
| 23>  H        2.8394844785     0.3651527523     3.8718142257
| 24>  H        0.1802919090    -1.2086728021     1.6461804551
| 25> *
| 26>
| 27>                          ****END OF INPUT****

CARTESIAN COORDINATES (ANGSTROEM)
---------------------------------
  C     -0.065280    1.638631   -0.155979
  N      0.072644    0.199995    0.010965
  C      1.303693   -0.528039   -0.234200
  C      2.639291    0.212960   -0.293619
  C      2.806891    0.935732    1.067212
  C      1.693114    0.401010    1.975769
  C      1.874124    0.153351    3.411912
  O      1.146013    1.295605    2.957370
  C      0.736563   -0.416792    1.150425
  H      0.836433    2.236155    0.031744
  H     -0.391728    1.835479   -1.182381
  H     -0.846375    1.992800    0.522450
  H      1.197026   -1.427866   -0.835745
  H      3.436331   -0.521639   -0.445997
  H      2.687049    0.906361   -1.140179
  H      3.794176    0.751936    1.500102
  H      2.701633    2.020571    0.976776
  H      1.282030   -0.611135    3.915315
  H      2.839484    0.365153    3.871814
  H      0.180292   -1.208673    1.646180

 Total Charge           Charge          ....    0
 Multiplicity           Mult            ....    1
 Number of Electrons    NEL             ....   68
 Basis Dimension        Dim             ....  345

ORBITAL ENERGIES
----------------

  NO   OCC          E(Eh)            E(eV)
   0   2.0000     -20.564794      -559.5965
   1   2.0000     -15.556274      -423.3077
   2   2.0000     -11.292833      -307.2936
   3   2.0000     -11.282441      -307.0108
   4   2.0000     -11.260470      -306.4130
   5   2.0000     -11.256719      -306.3109
   6   2.0000     -11.241145      -305.8871
   7   2.0000     -11.234010      -305.6930
   8   2.0000     -11.232508      -305.6521
   9   2.0000      -1.409360       -38.3506
  10   2.0000      -1.279214       -34.8092
  11   2.0000      -1.072468       -29.1833
  12   2.0000      -0.988620       -26.9017
  13   2.0000      -0.958011       -26.0688
  14   2.0000      -0.899557       -24.4782
  15   2.0000      -0.851156       -23.1611
  16   2.0000      -0.777664       -21.1613
  17   2.0000      -0.750801       -20.4303
  18   2.0000      -0.701420       -19.0866
  19   2.0000      -0.662781       -18.0352
  20   2.0000      -0.649966       -17.6865
  21   2.0000      -0.623769       -16.9736
  22   2.0000      -0.596343       -16.2273
  23   2.0000      -0.576629       -15.6909
  24   2.0000      -0.562313       -15.3013
  25   2.0000      -0.530617       -14.4388
  26   2.0000      -0.520364       -14.1598
  27   2.0000      -0.514590       -14.0027
  28   2.0000      -0.504306       -13.7229
  29   2.0000      -0.466079       -12.6827
  30   2.0000      -0.449051       -12.2193
  31   2.0000      -0.428930       -11.6718
  32   2.0000      -0.413222       -11.2443
  33   2.0000      -0.362880        -9.8745
  34   0.0000       0.137693         3.7468
  35   0.0000       0.159166         4.3311
  36   0.0000       0.166202         4.5226
  37   0.0000       0.176114         4.7923
  38   0.0000       0.190697         5.1891

MULLIKEN ATOMIC CHARGES
-----------------------
   0 C :   -0.287500
   1 N :   -0.216612
   2 C :   -0.048876
   3 C :   -0.241839
   4 C :   -0.237569
   5 C :    0.128002
   6 C :   -0.092519
   7 O :   -0.341640
   8 C :   -0.049081
   9 H :    0.107020
  10 H :    0.138001
  11 H :    0.145116
  12 H :    0.126783
  13 H :    0.122068
  14 H :    0.127236
  15 H :    0.128291
  16 H :    0.139901
  17 H :    0.112819
  18 H :    0.110429
  19 H :    0.129968
Sum of atomic charges:    0.0000000

LOEWDIN ATOMIC CHARGES
----------------------
   0 C :   -0.319424
   1 N :    0.125365
   2 C :   -0.225051
   3 C :   -0.234670
   4 C :   -0.208283
   5 C :   -0.299639
   6 C :   -0.241997
   7 O :    0.160928
   8 C :   -0.195473
   9 H :    0.109183
  10 H :    0.118645
  11 H :    0.124905
  12 H :    0.137910
  13 H :    0.142298
  14 H :    0.139181
  15 H :    0.140309
  16 H :    0.141543
  17 H :    0.120803
  18 H :    0.120398
  19 H :    0.143068

  Mayer bond orders larger than 0.1
B(  0-C ,  1-N ) :   0.8856 B(  0-C ,  9-H ) :   0.9194 B(  0-C , 10-H ) :   0.9351
B(  0-C , 11-H ) :   0.9367 B(  1-N ,  2-C ) :   0.9293 B(  1-N ,  8-C ) :   0.9364
B(  2-C ,  3-C ) :   0.9266 B(  2-C ,  8-C ) :   0.8851 B(  2-C , 12-H ) :   0.9247
B(  3-C ,  4-C ) :   0.9511 B(  3-C , 13-H ) :   0.9156 B(  3-C , 14-H ) :   0.9303
B(  4-C ,  5-C ) :   0.8680 B(  4-C , 15-H ) :   0.9204 B(  4-C , 16-H ) :   0.9307
B(  5-C ,  6-C ) :   0.9819 B(  5-C ,  7-O ) :   0.8268 B(  5-C ,  8-C ) :   0.9343
B(  6-C ,  7-O ) :   0.9137 B(  6-C , 17-H ) :   0.9082 B(  6-C , 18-H ) :   0.9068
B(  8-C , 19-H ) :   0.9115

MP2 TOTAL ENERGY:     -402.411793984 Eh
FINAL SINGLE POINT ENERGY      -402.411793984396

DIPOLE MOMENT
-------------
                                X             Y             Z
Electronic contribution:     -1.84772      -1.47342       3.04066
Nuclear contribution   :      2.66163       1.11768      -3.17063
                        -----------------------------------------
Total Dipole Moment    :      0.81391      -0.35574      -0.12997
                        -----------------------------------------
Magnitude (a.u.)       :      0.89772
Magnitude (Debye)      :      2.28181

                             ****ORCA TERMINATED NORMALLY****
TOTAL RUN TIME: 0 days 0 hours 20 minutes 12 seconds 358 msec
