                         Program Version 3.0.3 - RELEASE   -
|  1> ! RI-MP2 RIJK def2-TZVP def2-TZVP/C def2-TZVP/JK TIGHTSCF
|  2> % maxcore 2000
|  3> % mp2 density relaxed end
|  4> *xyz 0 1
|  5>  N        0.1320429377     1.4051666202    -0.1772325884
|  6>  C       -0.0648323276     0.0471325317     0.0271606099
|  7>  C       -1.1975157034    -0.6534692457    -0.1135357813
|  8>  N       -1.1593044403    -2.0494136678     0.0096283390
|  9>  C       -0.0458823297    -2.7781935286     0.3128923219
| 10>  O       -0.0237994697    -3.9847610957     0.4170039538
| 11>  C        1.2190972442    -1.9381200394     0.5246209129
| 12>  O        2.2715952432    -2.4007331484     0.8338478750
| 13>  O        1.1149275247    -0.5721464394     0.3379783653
| 14>  H        0.7987756362     1.8041073868     0.4723038048
| 15>  H       -0.7242721696     1.9407832595    -0.2017696979
| 16>  H       -2.1506673234    -0.2017931478    -0.3383853546
| 17>  H       -2.0044694223    -2.5857961355    -0.1223477905
| 18> *
| 19>
| 20>                          ****END OF INPUT****

CARTESIAN COORDINATES (ANGSTROEM)
---------------------------------
  N      0.132043    1.405167   -0.177233
  C     -0.064832    0.047133    0.027161
  C     -1.197516   -0.653469   -0.113536
  N     -1.159304   -2.049414    0.009628
  C     -0.045882   -2.778194    0.312892
  O     -0.023799   -3.984761    0.417004
  C      1.219097   -1.938120    0.524621
  O      2.271595   -2.400733    0.833848
  O      1.114928   -0.572146    0.337978
  H      0.798776    1.804107    0.472304
  H     -0.724272    1.940783   -0.201770
  H     -2.150667   -0.201793   -0.338385
  H     -2.004469   -2.585796   -0.122348

 Total Charge           Charge          ....    0
 Multiplicity           Mult            ....    1
 Number of Electrons    NEL             ....   66
 Basis Dimension        Dim             ....  303

ORBITAL ENERGIES
----------------

  NO   OCC          E(Eh)            E(eV)
   0   2.0000     -20.649219      -561.8938
   1   2.0000     -20.577763      -559.9494
   2   2.0000     -20.550404      -559.2049
   3   2.0000     -15.630507      -425.3277
   4   2.0000     -15.598236      -424.4496
   5   2.0000     -11.416300      -310.6533
   6   2.0000     -11.389443      -309.9225
   7   2.0000     -11.366707      -309.3038
   8   2.0000     -11.285736      -307.1005
   9   2.0000      -1.505929       -40.9784
  10   2.0000      -1.419374       -38.6231
  11   2.0000      -1.404058       -38.2064
  12   2.0000      -1.279682       -34.8219
  13   2.0000      -1.242605       -33.8130
  14   2.0000      -1.037737       -28.2383
  15   2.0000      -0.956831       -26.0367
  16   2.0000      -0.905843       -24.6493
  17   2.0000      -0.794406       -21.6169
  18   2.0000      -0.760243       -20.6873
  19   2.0000      -0.708781       -19.2869
  20   2.0000      -0.701083       -19.0774
  21   2.0000      -0.698945       -19.0193
  22   2.0000      -0.674087       -18.3428
  23   2.0000      -0.668207       -18.1828
  24   2.0000      -0.635156       -17.2835
  25   2.0000      -0.605151       -16.4670
  26   2.0000      -0.590529       -16.0691
  27   2.0000      -0.564451       -15.3595
  28   2.0000      -0.505821       -13.7641
  29   2.0000      -0.487636       -13.2693
  30   2.0000      -0.477784       -13.0012
  31   2.0000      -0.450933       -12.2705
  32   2.0000      -0.318469        -8.6660
  33   0.0000       0.078864         2.1460
  34   0.0000       0.111729         3.0403
  35   0.0000       0.126722         3.4483
  36   0.0000       0.158543         4.3142
  37   0.0000       0.162468         4.4210

MULLIKEN ATOMIC CHARGES
-----------------------
   0 N :   -0.507289
   1 C :    0.286330
   2 C :   -0.160768
   3 N :   -0.238164
   4 C :    0.179568
   5 O :   -0.305214
   6 C :    0.241096
   7 O :   -0.227379
   8 O :   -0.200026
   9 H :    0.268649
  10 H :    0.251676
  11 H :    0.156948
  12 H :    0.254574
Sum of atomic charges:    0.0000000

LOEWDIN ATOMIC CHARGES
----------------------
   0 N :   -0.064280
   1 C :   -0.375637
   2 C :   -0.251875
   3 N :    0.169036
   4 C :   -0.435248
   5 O :    0.124478
   6 C :   -0.398733
   7 O :    0.195285
   8 O :    0.332814
   9 H :    0.178319
  10 H :    0.175277
  11 H :    0.146327
  12 H :    0.204236

  Mayer bond orders larger than 0.1
B(  0-N ,  1-C ) :   1.0800 B(  0-N ,  9-H ) :   0.8585 B(  0-N , 10-H ) :   0.8777
B(  1-C ,  2-C ) :   1.6661 B(  1-C ,  8-O ) :   1.0005 B(  2-C ,  3-N ) :   0.9621
B(  2-C , 11-H ) :   0.9011 B(  3-N ,  4-C ) :   1.1556 B(  3-N , 12-H ) :   0.8550
B(  4-C ,  5-O ) :   1.9559 B(  4-C ,  6-C ) :   0.8858 B(  6-C ,  7-O ) :   2.0583
B(  6-C ,  8-O ) :   1.0198

MP2 TOTAL ENERGY:     -489.165805097 Eh
FINAL SINGLE POINT ENERGY      -489.165805097392

DIPOLE MOMENT
-------------
                                X             Y             Z
Electronic contribution:      2.92577      -4.22456       0.93281
Nuclear contribution   :     -4.80188       6.24141      -1.10433
                        -----------------------------------------
Total Dipole Moment    :     -1.87611       2.01684      -0.17153
                        -----------------------------------------
Magnitude (a.u.)       :      2.75986
Magnitude (Debye)      :      7.01501

                             ****ORCA TERMINATED NORMALLY****
TOTAL RUN TIME: 0 days 0 hours 12 minutes 6 seconds 772 msec
