                         Program Version 3.0.3 - RELEASE   -
|  1> ! RI-MP2 RIJK def2-TZVP def2-TZVP/C def2-TZVP/JK TIGHTSCF
|  2> % maxcore 2000
|  3> % mp2 density relaxed end
|  4> *xyz 0 1
|  5>  C        0.1166442620     1.5307968150     0.0023445872
|  6>  C        0.0842605046     0.0159136718     0.0117043838
|  7>  C       -0.8630958147    -0.6817041514     0.9787714957
|  8>  C        0.6207300925    -0.7685662162     1.1960217899
|  9>  C        1.3395042344    -2.0822471605     0.9074201398
| 10>  C        1.8680067265    -2.0802465972    -0.5192429718
| 11>  O        0.8370691280    -1.7808823649    -1.4769366217
| 12>  C        0.1576531856    -0.6081865754    -1.3546804052
| 13>  O       -0.3904554859    -0.1425826991    -2.3176518182
| 14>  H        1.0835246355     1.9073849331    -0.3484450309
| 15>  H       -0.6564008363     1.9201172436    -0.6645013343
| 16>  H       -0.0545872137     1.9257261844     1.0082022250
| 17>  H       -1.4547472617    -0.0406507936     1.6233775521
| 18>  H       -1.3762146357    -1.5761737362     0.6403515177
| 19>  H        1.0272839405    -0.1679347026     2.0035927133
| 20>  H        2.1786517615    -2.2223169992     1.5964833518
| 21>  H        0.6663928985    -2.9350841911     1.0473827593
| 22>  H        2.6769634550    -1.3466191282    -0.6300939548
| 23>  H        2.2542465834    -3.0578612124    -0.8167142687
| 24> *
| 25>
| 26>                          ****END OF INPUT****

CARTESIAN COORDINATES (ANGSTROEM)
---------------------------------
  C      0.116644    1.530797    0.002345
  C      0.084261    0.015914    0.011704
  C     -0.863096   -0.681704    0.978771
  C      0.620730   -0.768566    1.196022
  C      1.339504   -2.082247    0.907420
  C      1.868007   -2.080247   -0.519243
  O      0.837069   -1.780882   -1.476937
  C      0.157653   -0.608187   -1.354680
  O     -0.390455   -0.142583   -2.317652
  H      1.083525    1.907385   -0.348445
  H     -0.656401    1.920117   -0.664501
  H     -0.054587    1.925726    1.008202
  H     -1.454747   -0.040651    1.623378
  H     -1.376215   -1.576174    0.640352
  H      1.027284   -0.167935    2.003593
  H      2.178652   -2.222317    1.596483
  H      0.666393   -2.935084    1.047383
  H      2.676963   -1.346619   -0.630094
  H      2.254247   -3.057861   -0.816714

 Total Charge           Charge          ....    0
 Multiplicity           Mult            ....    1
 Number of Electrons    NEL             ....   68
 Basis Dimension        Dim             ....  339

ORBITAL ENERGIES
----------------

  NO   OCC          E(Eh)            E(eV)
   0   2.0000     -20.592319      -560.3455
   1   2.0000     -20.530877      -558.6736
   2   2.0000     -11.373195      -309.4804
   3   2.0000     -11.299506      -307.4752
   4   2.0000     -11.260719      -306.4198
   5   2.0000     -11.254642      -306.2544
   6   2.0000     -11.246777      -306.0404
   7   2.0000     -11.246293      -306.0272
   8   2.0000     -11.227557      -305.5174
   9   2.0000      -1.447571       -39.3904
  10   2.0000      -1.353980       -36.8437
  11   2.0000      -1.181928       -32.1619
  12   2.0000      -1.053208       -28.6593
  13   2.0000      -0.978616       -26.6295
  14   2.0000      -0.907352       -24.6903
  15   2.0000      -0.870679       -23.6924
  16   2.0000      -0.815552       -22.1923
  17   2.0000      -0.737300       -20.0629
  18   2.0000      -0.692096       -18.8329
  19   2.0000      -0.683454       -18.5977
  20   2.0000      -0.654797       -17.8179
  21   2.0000      -0.632236       -17.2040
  22   2.0000      -0.613374       -16.6908
  23   2.0000      -0.598800       -16.2942
  24   2.0000      -0.580200       -15.7880
  25   2.0000      -0.558880       -15.2079
  26   2.0000      -0.550891       -14.9905
  27   2.0000      -0.530477       -14.4350
  28   2.0000      -0.519589       -14.1387
  29   2.0000      -0.491884       -13.3848
  30   2.0000      -0.463830       -12.6215
  31   2.0000      -0.442054       -12.0289
  32   2.0000      -0.412572       -11.2267
  33   2.0000      -0.411730       -11.2037
  34   0.0000       0.127129         3.4594
  35   0.0000       0.146098         3.9755
  36   0.0000       0.150110         4.0847
  37   0.0000       0.164659         4.4806
  38   0.0000       0.180412         4.9093

MULLIKEN ATOMIC CHARGES
-----------------------
   0 C :   -0.408488
   1 C :    0.055666
   2 C :   -0.324466
   3 C :   -0.094683
   4 C :   -0.251259
   5 C :   -0.073397
   6 O :   -0.226466
   7 C :    0.257737
   8 O :   -0.287377
   9 H :    0.132894
  10 H :    0.161245
  11 H :    0.126208
  12 H :    0.140675
  13 H :    0.144587
  14 H :    0.132712
  15 H :    0.127763
  16 H :    0.128930
  17 H :    0.121115
  18 H :    0.136604
Sum of atomic charges:   -0.0000000

LOEWDIN ATOMIC CHARGES
----------------------
   0 C :   -0.254893
   1 C :   -0.220593
   2 C :   -0.164635
   3 C :   -0.179976
   4 C :   -0.245941
   5 C :   -0.276376
   6 O :    0.250507
   7 C :   -0.436200
   8 O :    0.145421
   9 H :    0.129077
  10 H :    0.137784
  11 H :    0.128050
  12 H :    0.138681
  13 H :    0.142097
  14 H :    0.151585
  15 H :    0.147718
  16 H :    0.145048
  17 H :    0.129475
  18 H :    0.133171

  Mayer bond orders larger than 0.1
B(  0-C ,  1-C ) :   0.9110 B(  0-C ,  9-H ) :   0.9368 B(  0-C , 10-H ) :   0.9317
B(  0-C , 11-H ) :   0.9303 B(  1-C ,  2-C ) :   0.8454 B(  1-C ,  3-C ) :   0.8213
B(  1-C ,  7-C ) :   0.9379 B(  2-C ,  3-C ) :   0.9114 B(  2-C , 12-H ) :   0.9302
B(  2-C , 13-H ) :   0.9130 B(  3-C ,  4-C ) :   0.8848 B(  3-C , 14-H ) :   0.9186
B(  4-C ,  5-C ) :   0.9568 B(  4-C , 15-H ) :   0.9249 B(  4-C , 16-H ) :   0.9222
B(  5-C ,  6-O ) :   0.8491 B(  5-C , 17-H ) :   0.9336 B(  5-C , 18-H ) :   0.9335
B(  6-O ,  7-C ) :   1.1189 B(  7-C ,  8-O ) :   2.0243

MP2 TOTAL ENERGY:     -422.353413328 Eh
FINAL SINGLE POINT ENERGY      -422.353413328270

DIPOLE MOMENT
-------------
                                X             Y             Z
Electronic contribution:     -1.24836      -1.83178      -6.47606
Nuclear contribution   :      1.97108       1.62860       8.08919
                        -----------------------------------------
Total Dipole Moment    :      0.72273      -0.20317       1.61313
                        -----------------------------------------
Magnitude (a.u.)       :      1.77927
Magnitude (Debye)      :      4.52254

                             ****ORCA TERMINATED NORMALLY****
TOTAL RUN TIME: 0 days 0 hours 20 minutes 1 seconds 514 msec
