                         Program Version 3.0.3 - RELEASE   -
|  1> ! RI-MP2 RIJK def2-TZVP def2-TZVP/C def2-TZVP/JK TIGHTSCF
|  2> % maxcore 2000
|  3> % mp2 density relaxed end
|  4> *xyz 0 1
|  5>  C       -0.1196333413     1.5018096248     0.1001581749
|  6>  C        0.0524757917     0.0214229149     0.0153621862
|  7>  C        0.0636102524    -0.7314553932    -1.1020062602
|  8>  C        0.3210321957    -2.1989540294    -0.7942981910
|  9>  C        0.1195177066    -2.2765559213     0.7374607729
| 10>  C        0.2988920338    -0.8259214580     1.2430180806
| 11>  C       -0.0873916975    -0.2625017856    -2.4289336173
| 12>  C       -0.2151287860     0.0949686411    -3.5738697965
| 13>  H        0.7568695499     1.9718432921     0.5654011110
| 14>  H       -0.2654277802     1.9456654388    -0.8871875545
| 15>  H       -0.9800315709     1.7619682902     0.7301279471
| 16>  H       -0.3505958852    -2.8645756128    -1.3455753389
| 17>  H        1.3424930347    -2.4728110084    -1.0910123598
| 18>  H       -0.8994928079    -2.6125318935     0.9533465964
| 19>  H        0.8013116135    -2.9821809396     1.2185040041
| 20>  H        1.3151316940    -0.6449578508     1.6249988384
| 21>  H       -0.3805549242    -0.5760091221     2.0668662205
| 22>  H       -0.3267878791     0.4195799928    -4.5783402740
| 23> *
| 24>
| 25>                          ****END OF INPUT****

CARTESIAN COORDINATES (ANGSTROEM)
---------------------------------
  C     -0.119633    1.501810    0.100158
  C      0.052476    0.021423    0.015362
  C      0.063610   -0.731455   -1.102006
  C      0.321032   -2.198954   -0.794298
  C      0.119518   -2.276556    0.737461
  C      0.298892   -0.825921    1.243018
  C     -0.087392   -0.262502   -2.428934
  C     -0.215129    0.094969   -3.573870
  H      0.756870    1.971843    0.565401
  H     -0.265428    1.945665   -0.887188
  H     -0.980032    1.761968    0.730128
  H     -0.350596   -2.864576   -1.345575
  H      1.342493   -2.472811   -1.091012
  H     -0.899493   -2.612532    0.953347
  H      0.801312   -2.982181    1.218504
  H      1.315132   -0.644958    1.624999
  H     -0.380555   -0.576009    2.066866
  H     -0.326788    0.419580   -4.578340

 Total Charge           Charge          ....    0
 Multiplicity           Mult            ....    1
 Number of Electrons    NEL             ....   58
 Basis Dimension        Dim             ....  308

ORBITAL ENERGIES
----------------

  NO   OCC          E(Eh)            E(eV)
   0   2.0000     -11.243429      -305.9493
   1   2.0000     -11.238516      -305.8156
   2   2.0000     -11.231449      -305.6233
   3   2.0000     -11.228492      -305.5428
   4   2.0000     -11.226591      -305.4911
   5   2.0000     -11.223837      -305.4161
   6   2.0000     -11.223326      -305.4022
   7   2.0000     -11.220337      -305.3209
   8   2.0000      -1.150634       -31.3104
   9   2.0000      -1.037588       -28.2342
  10   2.0000      -1.014945       -27.6181
  11   2.0000      -0.959542       -26.1105
  12   2.0000      -0.909792       -24.7567
  13   2.0000      -0.801787       -21.8177
  14   2.0000      -0.773453       -21.0467
  15   2.0000      -0.692463       -18.8429
  16   2.0000      -0.651024       -17.7153
  17   2.0000      -0.644178       -17.5290
  18   2.0000      -0.592117       -16.1123
  19   2.0000      -0.572295       -15.5729
  20   2.0000      -0.550570       -14.9818
  21   2.0000      -0.531573       -14.4648
  22   2.0000      -0.508287       -13.8312
  23   2.0000      -0.490359       -13.3433
  24   2.0000      -0.487896       -13.2763
  25   2.0000      -0.476043       -12.9538
  26   2.0000      -0.430179       -11.7058
  27   2.0000      -0.384285       -10.4569
  28   2.0000      -0.312453        -8.5023
  29   0.0000       0.121576         3.3082
  30   0.0000       0.133914         3.6440
  31   0.0000       0.155792         4.2393
  32   0.0000       0.163971         4.4619
  33   0.0000       0.176418         4.8006

MULLIKEN ATOMIC CHARGES
-----------------------
   0 C :   -0.436194
   1 C :   -0.031032
   2 C :   -0.167690
   3 C :   -0.226077
   4 C :   -0.231282
   5 C :   -0.194763
   6 C :    0.104488
   7 C :   -0.156035
   8 H :    0.138734
   9 H :    0.152754
  10 H :    0.139824
  11 H :    0.127513
  12 H :    0.117430
  13 H :    0.112429
  14 H :    0.123692
  15 H :    0.116453
  16 H :    0.122281
  17 H :    0.187474
Sum of atomic charges:    0.0000000

LOEWDIN ATOMIC CHARGES
----------------------
   0 C :   -0.266531
   1 C :   -0.139649
   2 C :   -0.144326
   3 C :   -0.197362
   4 C :   -0.235907
   5 C :   -0.214467
   6 C :   -0.074395
   7 C :   -0.088485
   8 H :    0.133664
   9 H :    0.136641
  10 H :    0.133007
  11 H :    0.139638
  12 H :    0.141996
  13 H :    0.137989
  14 H :    0.131344
  15 H :    0.142461
  16 H :    0.138065
  17 H :    0.126318

  Mayer bond orders larger than 0.1
B(  0-C ,  1-C ) :   0.8880 B(  0-C ,  8-H ) :   0.9292 B(  0-C ,  9-H ) :   0.9468
B(  0-C , 10-H ) :   0.9357 B(  1-C ,  2-C ) :   1.6497 B(  1-C ,  5-C ) :   0.9531
B(  2-C ,  3-C ) :   0.9514 B(  2-C ,  6-C ) :   1.1363 B(  2-C ,  7-C ) :  -0.1358
B(  3-C ,  4-C ) :   0.9534 B(  3-C , 11-H ) :   0.9292 B(  3-C , 12-H ) :   0.9049
B(  4-C ,  5-C ) :   0.9456 B(  4-C , 13-H ) :   0.9299 B(  4-C , 14-H ) :   0.9381
B(  5-C , 15-H ) :   0.9015 B(  5-C , 16-H ) :   0.9303 B(  6-C ,  7-C ) :   2.5876
B(  7-C , 17-H ) :   0.8867

MP2 TOTAL ENERGY:     -310.074690488 Eh
FINAL SINGLE POINT ENERGY      -310.074690488354

DIPOLE MOMENT
-------------
                                X             Y             Z
Electronic contribution:     -0.35439       0.17930      -5.20504
Nuclear contribution   :      0.40009      -0.17621       5.52852
                        -----------------------------------------
Total Dipole Moment    :      0.04570       0.00309       0.32348
                        -----------------------------------------
Magnitude (a.u.)       :      0.32670
Magnitude (Debye)      :      0.83042

                             ****ORCA TERMINATED NORMALLY****
TOTAL RUN TIME: 0 days 0 hours 14 minutes 26 seconds 135 msec
