                         Program Version 3.0.3 - RELEASE   -
|  1> ! RI-MP2 RIJK def2-TZVP def2-TZVP/C def2-TZVP/JK TIGHTSCF
|  2> % maxcore 2000
|  3> % mp2 density relaxed end
|  4> *xyz 0 1
|  5>  C        0.0156137683     1.5615531831     0.1263458632
|  6>  C       -0.1024484854     0.0401665367    -0.0236913116
|  7>  C        0.6867183048    -0.5172951638    -1.2089043798
|  8>  O        0.1894749028    -0.0132938734    -2.4406087912
|  9>  C        2.2483965926    -0.5157874003    -1.1651654573
| 10>  N        2.3185741139    -1.9923782569    -1.4612295291
| 11>  C        1.6468796913    -2.6472683797    -0.3259255396
| 12>  C        0.8020632851    -2.0330348146    -1.3671722165
| 13>  H        1.0598590884     1.8744188058     0.2397098325
| 14>  H       -0.4037155955     2.0877283076    -0.7384531105
| 15>  H       -0.5307789467     1.9113894477     1.0066635648
| 16>  H        0.2417741949    -0.4418782667     0.8978268847
| 17>  H       -1.1544899791    -0.2399649240    -0.1556905810
| 18>  H        0.3409979591     0.9373602642    -2.4587085417
| 19>  H        2.6827048606     0.0538646823    -1.9890397966
| 20>  H        2.7338825125    -0.2354216640    -0.2231759832
| 21>  H        1.7462676263    -3.7285202774    -0.3415122042
| 22>  H        1.7220669269    -2.2040739340     0.6651046311
| 23>  H        0.1992357893    -2.6045628725    -2.0651738940
| 24> *
| 25>
| 26>                          ****END OF INPUT****

CARTESIAN COORDINATES (ANGSTROEM)
---------------------------------
  C      0.015614    1.561553    0.126346
  C     -0.102448    0.040167   -0.023691
  C      0.686718   -0.517295   -1.208904
  O      0.189475   -0.013294   -2.440609
  C      2.248397   -0.515787   -1.165165
  N      2.318574   -1.992378   -1.461230
  C      1.646880   -2.647268   -0.325926
  C      0.802063   -2.033035   -1.367172
  H      1.059859    1.874419    0.239710
  H     -0.403716    2.087728   -0.738453
  H     -0.530779    1.911389    1.006664
  H      0.241774   -0.441878    0.897827
  H     -1.154490   -0.239965   -0.155691
  H      0.340998    0.937360   -2.458709
  H      2.682705    0.053865   -1.989040
  H      2.733883   -0.235422   -0.223176
  H      1.746268   -3.728520   -0.341512
  H      1.722067   -2.204074    0.665105
  H      0.199236   -2.604563   -2.065174

 Total Charge           Charge          ....    0
 Multiplicity           Mult            ....    1
 Number of Electrons    NEL             ....   62
 Basis Dimension        Dim             ....  314

ORBITAL ENERGIES
----------------

  NO   OCC          E(Eh)            E(eV)
   0   2.0000     -20.560074      -559.4681
   1   2.0000     -15.559384      -423.3924
   2   2.0000     -11.293859      -307.3215
   3   2.0000     -11.257813      -306.3407
   4   2.0000     -11.256813      -306.3135
   5   2.0000     -11.253773      -306.2307
   6   2.0000     -11.229561      -305.5719
   7   2.0000     -11.228377      -305.5397
   8   2.0000      -1.373637       -37.3786
   9   2.0000      -1.282514       -34.8990
  10   2.0000      -1.058179       -28.7945
  11   2.0000      -0.982942       -26.7472
  12   2.0000      -0.936380       -25.4802
  13   2.0000      -0.852130       -23.1876
  14   2.0000      -0.824102       -22.4250
  15   2.0000      -0.738843       -20.1050
  16   2.0000      -0.702166       -19.1069
  17   2.0000      -0.674970       -18.3669
  18   2.0000      -0.637232       -17.3400
  19   2.0000      -0.620329       -16.8800
  20   2.0000      -0.602562       -16.3965
  21   2.0000      -0.559815       -15.2333
  22   2.0000      -0.555135       -15.1060
  23   2.0000      -0.547735       -14.9046
  24   2.0000      -0.520344       -14.1593
  25   2.0000      -0.504904       -13.7391
  26   2.0000      -0.484328       -13.1792
  27   2.0000      -0.455809       -12.4032
  28   2.0000      -0.446719       -12.1559
  29   2.0000      -0.421858       -11.4793
  30   2.0000      -0.365910        -9.9569
  31   0.0000       0.125877         3.4253
  32   0.0000       0.155467         4.2305
  33   0.0000       0.170059         4.6275
  34   0.0000       0.177607         4.8329
  35   0.0000       0.186762         5.0821

MULLIKEN ATOMIC CHARGES
-----------------------
   0 C :   -0.432599
   1 C :   -0.223890
   2 C :    0.272750
   3 O :   -0.471418
   4 C :   -0.193368
   5 N :   -0.230653
   6 C :   -0.158886
   7 C :   -0.108217
   8 H :    0.133019
   9 H :    0.120149
  10 H :    0.143285
  11 H :    0.098599
  12 H :    0.121017
  13 H :    0.316498
  14 H :    0.116163
  15 H :    0.113040
  16 H :    0.131240
  17 H :    0.120417
  18 H :    0.132855
Sum of atomic charges:   -0.0000000

LOEWDIN ATOMIC CHARGES
----------------------
   0 C :   -0.320936
   1 C :   -0.260583
   2 C :   -0.361399
   3 O :    0.019522
   4 C :   -0.214749
   5 N :    0.098416
   6 C :   -0.251906
   7 C :   -0.178510
   8 H :    0.122000
   9 H :    0.117376
  10 H :    0.125473
  11 H :    0.139710
  12 H :    0.144158
  13 H :    0.173574
  14 H :    0.130757
  15 H :    0.122227
  16 H :    0.133941
  17 H :    0.123100
  18 H :    0.137827

  Mayer bond orders larger than 0.1
B(  0-C ,  1-C ) :   0.9026 B(  0-C ,  8-H ) :   0.9378 B(  0-C ,  9-H ) :   0.9386
B(  0-C , 10-H ) :   0.9397 B(  1-C ,  2-C ) :   0.9277 B(  1-C , 11-H ) :   0.9195
B(  1-C , 12-H ) :   0.9273 B(  2-C ,  3-O ) :   0.8807 B(  2-C ,  4-C ) :   0.9680
B(  2-C ,  7-C ) :   0.9292 B(  3-O , 13-H ) :   0.8402 B(  4-C ,  5-N ) :   0.9378
B(  4-C , 14-H ) :   0.9046 B(  4-C , 15-H ) :   0.9263 B(  5-N ,  6-C ) :   0.8936
B(  5-N ,  7-C ) :   0.8940 B(  6-C ,  7-C ) :   0.9339 B(  6-C , 16-H ) :   0.9290
B(  6-C , 17-H ) :   0.9074 B(  7-C , 18-H ) :   0.8944

MP2 TOTAL ENERGY:     -364.396913673 Eh
FINAL SINGLE POINT ENERGY      -364.396913673405

DIPOLE MOMENT
-------------
                                X             Y             Z
Electronic contribution:      1.47050      -4.22393      -4.53510
Nuclear contribution   :     -1.73471       4.88000       5.37754
                        -----------------------------------------
Total Dipole Moment    :     -0.26422       0.65607       0.84244
                        -----------------------------------------
Magnitude (a.u.)       :      1.09997
Magnitude (Debye)      :      2.79591

                             ****ORCA TERMINATED NORMALLY****
TOTAL RUN TIME: 0 days 0 hours 13 minutes 51 seconds 749 msec
